<event>
 4    1  0.8104768E+003  0.2418246E+02  0.7546771E-02  0.1478161E+00
          2   -1    0    0  502    0  0.00000000000E+00  0.00000000000E+00  0.24232145602E+03  0.24232145602E+03  0.00000000000E+00 0. -1.
          2   -1    0    0  501    0 -0.00000000000E+00 -0.00000000000E+00 -0.30678525921E+03  0.30678525921E+03  0.00000000000E+00 0. -1.
          2    1    1    2  501    0  0.23398469267E+02 -0.61076228869E+01  0.24123945415E+03  0.24244848043E+03  0.00000000000E+00 0. -1.
          2    1    1    2  502    0 -0.23398469267E+02  0.61076228869E+01 -0.30570325734E+03  0.30665823480E+03  0.00000000000E+00 0. -1.
</event>
<event>
 4    1  0.8104768E+003  0.3075898E+02  0.7546771E-02  0.1413113E+00
          2   -1    0    0  502    0  0.00000000000E+00  0.00000000000E+00  0.68288931221E+03  0.68288931221E+03  0.00000000000E+00 0.  1.
          2   -1    0    0  501    0 -0.00000000000E+00 -0.00000000000E+00 -0.76970394580E+01  0.76970394580E+01  0.00000000000E+00 0. -1.
          2    1    1    2  501    0  0.53754169697E+00  0.30754285143E+02  0.65027261135E+03  0.65099968055E+03  0.00000000000E+00 0.  1.
          2    1    1    2  502    0 -0.53754169697E+00 -0.30754285143E+02  0.24919661403E+02  0.39586671118E+02  0.00000000000E+00 0. -1.
</event>
<event>
 4    1  0.8104768E+003  0.3006328E+02  0.7546771E-02  0.1419047E+00
          2   -1    0    0  501    0  0.00000000000E+00  0.00000000000E+00  0.41010917690E+01  0.41010917690E+01  0.00000000000E+00 0.  1.
          2   -1    0    0  502    0 -0.00000000000E+00 -0.00000000000E+00 -0.63745452137E+03  0.63745452137E+03  0.00000000000E+00 0.  1.
          2    1    1    2  501    0 -0.62853763276E+01  0.29398893423E+02 -0.57614617619E+03  0.57692999335E+03  0.00000000000E+00 0.  1.
          2    1    1    2  502    0  0.62853763276E+01 -0.29398893423E+02 -0.57207253412E+02  0.64625619788E+02  0.00000000000E+00 0.  1.
</event>
<event>
 4    1  0.8104768E+003  0.3276911E+02  0.7546771E-02  0.1396964E+00
          2   -1    0    0  502    0  0.00000000000E+00  0.00000000000E+00  0.14397507836E+04  0.14397507836E+04  0.00000000000E+00 0. -1.
          2   -1    0    0  501    0 -0.00000000000E+00 -0.00000000000E+00 -0.39944029331E+01  0.39944029331E+01  0.00000000000E+00 0. -1.
          2    1    1    2  501    0 -0.29814557714E+02 -0.13598034217E+02  0.13688777480E+04  0.13692699162E+04  0.00000000000E+00 0. -1.
          2    1    1    2  502    0  0.29814557714E+02  0.13598034217E+02  0.66878632633E+02  0.74475270319E+02  0.00000000000E+00 0. -1.
</event>
<event>
 4    1  0.8104768E+003  0.2419632E+02  0.7546771E-02  0.1477998E+00
          2   -1    0    0  501    0  0.00000000000E+00  0.00000000000E+00  0.57952804765E+02  0.57952804765E+02  0.00000000000E+00 0.  1.
          2   -1    0    0  502    0 -0.00000000000E+00 -0.00000000000E+00 -0.18730556898E+02  0.18730556898E+02  0.00000000000E+00 0.  1.
          2    1    1    2  501    0 -0.17591381307E+02  0.16613406381E+02 -0.64117353731E+01  0.25031426615E+02  0.00000000000E+00 0.  1.
          2    1    1    2  502    0  0.17591381307E+02 -0.16613406381E+02  0.45633983240E+02  0.51651935048E+02  0.00000000000E+00 0.  1.
</event>
<event>
 4    1  0.8104768E+003  0.4034275E+02  0.7546771E-02  0.1346489E+00
          2   -1    0    0  502    0  0.00000000000E+00  0.00000000000E+00  0.30422404933E+03  0.30422404933E+03  0.00000000000E+00 0. -1.
          2   -1    0    0  501    0 -0.00000000000E+00 -0.00000000000E+00 -0.37196849230E+03  0.37196849230E+03  0.00000000000E+00 0.  1.
          2    1    1    2  501    0  0.37919015481E+02  0.13772654810E+02  0.30178392588E+03  0.30446851343E+03  0.00000000000E+00 0. -1.
          2    1    1    2  502    0 -0.37919015481E+02 -0.13772654810E+02 -0.36952836884E+03  0.37172402819E+03  0.00000000000E+00 0.  1.
</event>
<event>
 4    1  0.8104768E+003  0.3975533E+02  0.7546771E-02  0.1349926E+00
          2   -1    0    0  501    0  0.00000000000E+00  0.00000000000E+00  0.16948757284E+02  0.16948757284E+02  0.00000000000E+00 0.  1.
          2   -1    0    0  502    0 -0.00000000000E+00 -0.00000000000E+00 -0.93386552965E+02  0.93386552965E+02  0.00000000000E+00 0.  1.
          2    1    1    2  501    0 -0.11165841980E+02 -0.38155083061E+02 -0.40321718991E+02  0.56624441833E+02  0.00000000000E+00 0.  1.
          2    1    1    2  502    0  0.11165841980E+02  0.38155083061E+02 -0.36116076690E+02  0.53710868416E+02  0.00000000000E+00 0.  1.
</event>
<event>
 4    1  0.8104768E+003  0.3908368E+02  0.7546771E-02  0.1353941E+00
          2   -1    0    0  501    0  0.00000000000E+00  0.00000000000E+00  0.60563580070E+03  0.60563580070E+03  0.00000000000E+00 0. -1.
          2   -1    0    0  502    0 -0.00000000000E+00 -0.00000000000E+00 -0.34801351797E+02  0.34801351797E+02  0.00000000000E+00 0. -1.
          2    1    1    2  501    0 -0.37916166449E+02  0.94814616486E+01 -0.22979340207E+02  0.45338547280E+02  0.00000000000E+00 0. -1.
          2    1    1    2  502    0  0.37916166449E+02 -0.94814616486E+01  0.59381378911E+03  0.59509860521E+03  0.00000000000E+00 0. -1.
</event>
<event>
 4    1  0.8104768E+003  0.2252046E+02  0.7546771E-02  0.1498609E+00
          2   -1    0    0  501    0  0.00000000000E+00  0.00000000000E+00  0.28203013318E+03  0.28203013318E+03  0.00000000000E+00 0. -1.
          2   -1    0    0  502    0 -0.00000000000E+00 -0.00000000000E+00 -0.73485643463E+01  0.73485643463E+01  0.00000000000E+00 0.  1.
          2    1    1    2  501    0 -0.69494129682E+01 -0.21421404169E+02  0.11595216957E+02  0.25330218188E+02  0.00000000000E+00 0.  1.
          2    1    1    2  502    0  0.69494129682E+01  0.21421404169E+02  0.26308635188E+03  0.26404847934E+03  0.00000000000E+00 0. -1.
</event>
<event>
 4    1  0.8104768E+003  0.2125288E+02  0.7546771E-02  0.1515685E+00
          2   -1    0    0  502    0  0.00000000000E+00  0.00000000000E+00  0.30329286287E+01  0.30329286287E+01  0.00000000000E+00 0.  1.
          2   -1    0    0  501    0 -0.00000000000E+00 -0.00000000000E+00 -0.51959438999E+03  0.51959438999E+03  0.00000000000E+00 0.  1.
          2    1    1    2  501    0 -0.13538352606E+02 -0.16382859056E+02 -0.37570707905E+02  0.43165300354E+02  0.00000000000E+00 0.  1.
          2    1    1    2  502    0  0.13538352606E+02  0.16382859056E+02 -0.47899075346E+03  0.47946201827E+03  0.00000000000E+00 0.  1.
</event>
<event>
 4    1  0.8104768E+003  0.2009127E+02  0.7546771E-02  0.1532645E+00
          2   -1    0    0  502    0  0.00000000000E+00  0.00000000000E+00  0.12697897772E+04  0.12697897772E+04  0.00000000000E+00 0. -1.
          2   -1    0    0  501    0 -0.00000000000E+00 -0.00000000000E+00 -0.41632948629E+00  0.41632948629E+00  0.00000000000E+00 0. -1.
          2    1    1    2  501    0  0.14297314330E+02 -0.14115456452E+02  0.32587047261E+03  0.32648924060E+03  0.00000000000E+00 0. -1.
          2    1    1    2  502    0 -0.14297314330E+02  0.14115456452E+02  0.94350297515E+03  0.94371686613E+03  0.00000000000E+00 0. -1.
</event>
<event>
 4    1  0.8104768E+003  0.2868946E+02  0.7546771E-02  0.1431337E+00
          2   -1    0    0  501    0  0.00000000000E+00  0.00000000000E+00  0.52545383625E+00  0.52545383625E+00  0.00000000000E+00 0.  1.
          2   -1    0    0  502    0 -0.00000000000E+00 -0.00000000000E+00 -0.15686368503E+04  0.15686368503E+04  0.00000000000E+00 0.  1.
          2    1    1    2  501    0  0.23461294146E+02 -0.16512193694E+02 -0.75460484465E+03  0.75515002247E+03  0.00000000000E+00 0.  1.
          2    1    1    2  502    0 -0.23461294146E+02  0.16512193694E+02 -0.81350655186E+03  0.81401228172E+03  0.00000000000E+00 0.  1.
</event>
<event>
 4    1  0.8104768E+003  0.2299635E+02  0.7546771E-02  0.1492544E+00
          2   -1    0    0  501    0  0.00000000000E+00  0.00000000000E+00  0.16266577287E+03  0.16266577287E+03  0.00000000000E+00 0.  1.
          2   -1    0    0  502    0 -0.00000000000E+00 -0.00000000000E+00 -0.12619260771E+03  0.12619260771E+03  0.00000000000E+00 0.  1.
          2    1    1    2  501    0  0.72850795602E+01  0.21811916568E+02 -0.12432004131E+03  0.12642905030E+03  0.00000000000E+00 0.  1.
          2    1    1    2  502    0 -0.72850795602E+01 -0.21811916568E+02  0.16079320647E+03  0.16242933028E+03  0.00000000000E+00 0.  1.
</event>
<event>
 4    1  0.8104768E+003  0.7268451E+02  0.7546771E-02  0.1221932E+00
          2   -1    0    0  502    0  0.00000000000E+00  0.00000000000E+00  0.65124753953E+03  0.65124753953E+03  0.00000000000E+00 0.  1.
          2   -1    0    0  501    0 -0.00000000000E+00 -0.00000000000E+00 -0.63290544409E+02  0.63290544409E+02  0.00000000000E+00 0.  1.
          2    1    1    2  501    0  0.11115553625E+02  0.71829534580E+02  0.62756646669E+03  0.63176159086E+03  0.00000000000E+00 0.  1.
          2    1    1    2  502    0 -0.11115553625E+02 -0.71829534580E+02 -0.39609471562E+02  0.82776493087E+02  0.00000000000E+00 0.  1.
</event>
<event>
 4    1  0.8104768E+003  0.2385696E+02  0.7546771E-02  0.1482009E+00
          2   -1    0    0  501    0  0.00000000000E+00  0.00000000000E+00  0.70110638776E+02  0.70110638776E+02  0.00000000000E+00 0.  1.
          2   -1    0    0  502    0 -0.00000000000E+00 -0.00000000000E+00 -0.21984547877E+02  0.21984547877E+02  0.00000000000E+00 0.  1.
          2    1    1    2  501    0  0.30578647908E+01  0.23660180581E+02 -0.12507641920E+02  0.26936885281E+02  0.00000000000E+00 0.  1.
          2    1    1    2  502    0 -0.30578647908E+01 -0.23660180581E+02  0.60633732819E+02  0.65158301372E+02  0.00000000000E+00 0.  1.
</event>
<event>
 4    1  0.8104768E+003  0.2925421E+02  0.7546771E-02  0.1426190E+00
          2   -1    0    0  502    0  0.00000000000E+00  0.00000000000E+00  0.86429146651E+02  0.86429146651E+02  0.00000000000E+00 0.  1.
          2   -1    0    0  501    0 -0.00000000000E+00 -0.00000000000E+00 -0.35420825623E+03  0.35420825623E+03  0.00000000000E+00 0.  1.
          2    1    1    2  501    0 -0.21081753119E+02 -0.20282226358E+02  0.83327825019E+02  0.88313846270E+02  0.00000000000E+00 0.  1.
          2    1    1    2  502    0  0.21081753119E+02  0.20282226358E+02 -0.35110693460E+03  0.35232355661E+03  0.00000000000E+00 0.  1.
</event>
<event>
 4    1  0.8104768E+003  0.2187644E+02  0.7546771E-02  0.1507110E+00
          2   -1    0    0  502    0  0.00000000000E+00  0.00000000000E+00  0.97743804300E+03  0.97743804300E+03  0.00000000000E+00 0.  1.
          2   -1    0    0  501    0 -0.00000000000E+00 -0.00000000000E+00 -0.11096390786E+01  0.11096390786E+01  0.00000000000E+00 0.  1.
          2    1    1    2  501    0 -0.15462960267E+02  0.15474996343E+02  0.85389514326E+03  0.85417532997E+03  0.00000000000E+00 0.  1.
          2    1    1    2  502    0  0.15462960267E+02 -0.15474996343E+02  0.12243326067E+03  0.12437235211E+03  0.00000000000E+00 0.  1.
</event>
<event>
 4    1  0.8104768E+003  0.2463767E+02  0.7546771E-02  0.1472898E+00
          2   -1    0    0  502    0  0.00000000000E+00  0.00000000000E+00  0.49827820067E+00  0.49827820067E+00  0.00000000000E+00 0. -1.
          2   -1    0    0  501    0 -0.00000000000E+00 -0.00000000000E+00 -0.20690867768E+04  0.20690867768E+04  0.00000000000E+00 0. -1.
          2    1    1    2  501    0  0.11042826572E+02  0.22024322174E+02 -0.37071388257E+03  0.37153169113E+03  0.00000000000E+00 0. -1.
          2    1    1    2  502    0 -0.11042826572E+02 -0.22024322174E+02 -0.16978746161E+04  0.16980533639E+04  0.00000000000E+00 0. -1.
</event>
<event>
 4    1  0.8104768E+003  0.2255696E+02  0.7546771E-02  0.1498138E+00
          2   -1    0    0  501    0  0.00000000000E+00  0.00000000000E+00  0.18563312049E+03  0.18563312049E+03  0.00000000000E+00 0.  1.
          2   -1    0    0  502    0 -0.00000000000E+00 -0.00000000000E+00 -0.88280606687E+02  0.88280606687E+02  0.00000000000E+00 0.  1.
          2    1    1    2  501    0 -0.33645932901E+01 -0.22304614500E+02 -0.86137691182E+02  0.89042226827E+02  0.00000000000E+00 0.  1.
          2    1    1    2  502    0  0.33645932901E+01  0.22304614500E+02  0.18349020499E+03  0.18487150035E+03  0.00000000000E+00 0.  1.
</event>
<event>
 4    1  0.8104768E+003  0.2304263E+02  0.7546771E-02  0.1491964E+00
          2   -1    0    0  501    0  0.00000000000E+00  0.00000000000E+00  0.43344842485E+02  0.43344842485E+02  0.00000000000E+00 0.  1.
          2   -1    0    0  502    0 -0.00000000000E+00 -0.00000000000E+00 -0.12250323423E+03  0.12250323423E+03  0.00000000000E+00 0. -1.
          2    1    1    2  501    0 -0.13134812818E+02 -0.18932494078E+02 -0.11824805760E+03  0.12047226140E+03  0.00000000000E+00 0. -1.
          2    1    1    2  502    0  0.13134812818E+02  0.18932494078E+02  0.39089665851E+02  0.45375815322E+02  0.00000000000E+00 0.  1.
</event>
<event>
 4    1  0.8104768E+003  0.2842832E+02  0.7546771E-02  0.1433765E+00
          2   -1    0    0  502    0  0.00000000000E+00  0.00000000000E+00  0.15254056753E+04  0.15254056753E+04  0.00000000000E+00 0.  1.
          2   -1    0    0  501    0 -0.00000000000E+00 -0.00000000000E+00 -0.10192216172E+02  0.10192216172E+02  0.00000000000E+00 0.  1.
          2    1    1    2  501    0 -0.20966610955E+02  0.19198198895E+02  0.15051837188E+04  0.15054521570E+04  0.00000000000E+00 0.  1.
          2    1    1    2  502    0  0.20966610955E+02 -0.19198198895E+02  0.10029740296E+02  0.30145734461E+02  0.00000000000E+00 0.  1.
</event>
<event>
 4    1  0.8104768E+003  0.2112738E+02  0.7546771E-02  0.1517454E+00
          2   -1    0    0  501    0  0.00000000000E+00  0.00000000000E+00  0.46282788212E+02  0.46282788212E+02  0.00000000000E+00 0. -1.
          2   -1    0    0  502    0 -0.00000000000E+00 -0.00000000000E+00 -0.12369218027E+02  0.12369218027E+02  0.00000000000E+00 0. -1.
          2    1    1    2  501    0 -0.66656115100E+00 -0.21116865998E+02  0.31924149847E+01  0.21367214296E+02  0.00000000000E+00 0. -1.
          2    1    1    2  502    0  0.66656115100E+00  0.21116865998E+02  0.30721155200E+02  0.37284791942E+02  0.00000000000E+00 0. -1.
</event>
<event>
 4    1  0.8104768E+003  0.8037580E+02  0.7546771E-02  0.1202978E+00
          2   -1    0    0  501    0  0.00000000000E+00  0.00000000000E+00  0.50912298925E+02  0.50912298925E+02  0.00000000000E+00 0. -1.
          2   -1    0    0  502    0 -0.00000000000E+00 -0.00000000000E+00 -0.13731920114E+04  0.13731920114E+04  0.00000000000E+00 0.  1.
          2    1    1    2  501    0  0.65067915962E+02 -0.47185126630E+02 -0.13394960440E+04  0.13419053326E+04  0.00000000000E+00 0.  1.
          2    1    1    2  502    0 -0.65067915962E+02  0.47185126630E+02  0.17216331522E+02  0.82198977693E+02  0.00000000000E+00 0. -1.
</event>
<event>
 4    1  0.8104768E+003  0.2944248E+02  0.7546771E-02  0.1424504E+00
          2   -1    0    0  502    0  0.00000000000E+00  0.00000000000E+00  0.28014991231E+01  0.28014991231E+01  0.00000000000E+00 0. -1.
          2   -1    0    0  501    0 -0.00000000000E+00 -0.00000000000E+00 -0.13761934276E+04  0.13761934276E+04  0.00000000000E+00 0. -1.
          2    1    1    2  501    0 -0.23590059548E+02  0.17617285756E+02 -0.79641596181E+02  0.84909619650E+02  0.00000000000E+00 0. -1.
          2    1    1    2  502    0  0.23590059548E+02 -0.17617285756E+02 -0.12937503323E+04  0.12940853070E+04  0.00000000000E+00 0. -1.
</event>
<event>
 4    1  0.8104768E+003  0.2173810E+02  0.7546771E-02  0.1508982E+00
          2   -1    0    0  502    0  0.00000000000E+00  0.00000000000E+00  0.30649664819E+02  0.30649664819E+02  0.00000000000E+00 0. -1.
          2   -1    0    0  501    0 -0.00000000000E+00 -0.00000000000E+00 -0.75915438911E+02  0.75915438911E+02  0.00000000000E+00 0.  1.
          2    1    1    2  501    0 -0.89169439016E+01  0.19825060474E+02  0.24932366761E+02  0.33078207684E+02  0.00000000000E+00 0. -1.
          2    1    1    2  502    0  0.89169439016E+01 -0.19825060474E+02 -0.70198140853E+02  0.73486896046E+02  0.00000000000E+00 0.  1.
</event>
<event>
 4    1  0.8104768E+003  0.2500742E+02  0.7546771E-02  0.1468720E+00
          2   -1    0    0  502    0  0.00000000000E+00  0.00000000000E+00  0.78384140611E+03  0.78384140611E+03  0.00000000000E+00 0.  1.
          2   -1    0    0  501    0 -0.00000000000E+00 -0.00000000000E+00 -0.15581304961E+03  0.15581304961E+03  0.00000000000E+00 0.  1.
          2    1    1    2  501    0  0.20516571743E+02  0.14298298526E+02  0.78263700555E+03  0.78303643179E+03  0.00000000000E+00 0.  1.
          2    1    1    2  502    0 -0.20516571743E+02 -0.14298298526E+02 -0.15460864905E+03  0.15661802393E+03  0.00000000000E+00 0.  1.
</event>
<event>
 4    1  0.8104768E+003  0.3654095E+02  0.7546771E-02  0.1370042E+00
          2   -1    0    0  501    0  0.00000000000E+00  0.00000000000E+00  0.27342473244E+01  0.27342473244E+01  0.00000000000E+00 0.  1.
          2   -1    0    0  502    0 -0.00000000000E+00 -0.00000000000E+00 -0.53475178224E+03  0.53475178224E+03  0.00000000000E+00 0. -1.
          2    1    1    2  501    0  0.24926745820E+02 -0.26718879845E+02 -0.34518177448E+03  0.34711049917E+03  0.00000000000E+00 0. -1.
          2    1    1    2  502    0 -0.24926745820E+02  0.26718879845E+02 -0.18683576044E+03  0.19037553040E+03  0.00000000000E+00 0.  1.
</event>
<event>
 4    1  0.8104768E+003  0.3613494E+02  0.7546771E-02  0.1372755E+00
          2   -1    0    0  502    0  0.00000000000E+00  0.00000000000E+00  0.17304576918E+02  0.17304576918E+02  0.00000000000E+00 0. -1.
          2   -1    0    0  501    0 -0.00000000000E+00 -0.00000000000E+00 -0.26188351782E+04  0.26188351782E+04  0.00000000000E+00 0.  1.
          2    1    1    2  501    0 -0.55229090881E+01  0.35710386098E+02 -0.18228578935E+01  0.36180892899E+02  0.00000000000E+00 0. -1.
          2    1    1    2  502    0  0.55229090881E+01 -0.35710386098E+02 -0.25997077434E+04  0.25999588623E+04  0.00000000000E+00 0.  1.
</event>
<event>
 4    1  0.8104768E+003  0.4840685E+02  0.7546771E-02  0.1305232E+00
          2   -1    0    0  502    0  0.00000000000E+00  0.00000000000E+00  0.15800074828E+04  0.15800074828E+04  0.00000000000E+00 0. -1.
          2   -1    0    0  501    0 -0.00000000000E+00 -0.00000000000E+00 -0.47389845867E+03  0.47389845867E+03  0.00000000000E+00 0.  1.
          2    1    1    2  501    0  0.24447057468E+02  0.41779957297E+02  0.15783993201E+04  0.15791414240E+04  0.00000000000E+00 0. -1.
          2    1    1    2  502    0 -0.24447057468E+02 -0.41779957297E+02 -0.47229029591E+03  0.47476451748E+03  0.00000000000E+00 0.  1.
</event>
<event>
 4    1  0.8104768E+003  0.2621554E+02  0.7546771E-02  0.1455651E+00
          2   -1    0    0  501    0  0.00000000000E+00  0.00000000000E+00  0.16335010004E+04  0.16335010004E+04  0.00000000000E+00 0.  1.
          2   -1    0    0  502    0 -0.00000000000E+00 -0.00000000000E+00 -0.22450447291E+01  0.22450447291E+01  0.00000000000E+00 0. -1.
          2    1    1    2  501    0 -0.18943531857E+02  0.18121725184E+02  0.78362515218E+02  0.82631338572E+02  0.00000000000E+00 0. -1.
          2    1    1    2  502    0  0.18943531857E+02 -0.18121725184E+02  0.15528934405E+04  0.15531147066E+04  0.00000000000E+00 0.  1.
</event>
<event>
 4    1  0.8104768E+003  0.2255105E+02  0.7546771E-02  0.1498214E+00
          2   -1    0    0  501    0  0.00000000000E+00  0.00000000000E+00  0.14805875604E+04  0.14805875604E+04  0.00000000000E+00 0.  1.
          2   -1    0    0  502    0 -0.00000000000E+00 -0.00000000000E+00 -0.27679886079E+03  0.27679886079E+03  0.00000000000E+00 0. -1.
          2    1    1    2  501    0 -0.19209945642E+02  0.11812192666E+02 -0.27625350836E+03  0.27717242068E+03  0.00000000000E+00 0. -1.
          2    1    1    2  502    0  0.19209945642E+02 -0.11812192666E+02  0.14800422080E+04  0.14802140006E+04  0.00000000000E+00 0.  1.
</event>
<event>
 4    1  0.8104768E+003  0.4072467E+02  0.7546771E-02  0.1344291E+00
          2   -1    0    0  502    0  0.00000000000E+00  0.00000000000E+00  0.11385965167E+02  0.11385965167E+02  0.00000000000E+00 0.  1.
          2   -1    0    0  501    0 -0.00000000000E+00 -0.00000000000E+00 -0.49702103661E+03  0.49702103661E+03  0.00000000000E+00 0.  1.
          2    1    1    2  501    0  0.35134217474E+02  0.20593341892E+02 -0.29085365670E+02  0.50044554788E+02  0.00000000000E+00 0.  1.
          2    1    1    2  502    0 -0.35134217474E+02 -0.20593341892E+02 -0.45654970577E+03  0.45836244699E+03  0.00000000000E+00 0.  1.
</event>
<event>
 4    1  0.8104768E+003  0.3212110E+02  0.7546771E-02  0.1402017E+00
          2   -1    0    0  501    0  0.00000000000E+00  0.00000000000E+00  0.18650262897E+01  0.18650262897E+01  0.00000000000E+00 0.  1.
          2   -1    0    0  502    0 -0.00000000000E+00 -0.00000000000E+00 -0.16242720506E+04  0.16242720506E+04  0.00000000000E+00 0.  1.
          2    1    1    2  501    0 -0.28005417730E+02 -0.15730915870E+02 -0.14714461558E+04  0.14717967097E+04  0.00000000000E+00 0.  1.
          2    1    1    2  502    0  0.28005417730E+02  0.15730915870E+02 -0.15096086850E+03  0.15434036722E+03  0.00000000000E+00 0.  1.
</event>
<event>
 4    1  0.8104768E+003  0.2384649E+02  0.7546771E-02  0.1482134E+00
          2   -1    0    0  502    0  0.00000000000E+00  0.00000000000E+00  0.16980973417E+01  0.16980973417E+01  0.00000000000E+00 0. -1.
          2   -1    0    0  501    0 -0.00000000000E+00 -0.00000000000E+00 -0.11052412096E+04  0.11052412096E+04  0.00000000000E+00 0. -1.
          2    1    1    2  501    0 -0.23728448671E+02  0.23698020963E+01 -0.89695909833E+02  0.92811699042E+02  0.00000000000E+00 0. -1.
          2    1    1    2  502    0  0.23728448671E+02 -0.23698020963E+01 -0.10138472024E+04  0.10141276079E+04  0.00000000000E+00 0. -1.
</event>
<event>
 4    1  0.8104768E+003  0.2020841E+02  0.7546771E-02  0.1530873E+00
          2   -1    0    0  502    0  0.00000000000E+00  0.00000000000E+00  0.11115661439E+04  0.11115661439E+04  0.00000000000E+00 0. -1.
          2   -1    0    0  501    0 -0.00000000000E+00 -0.00000000000E+00 -0.66305239904E+01  0.66305239904E+01  0.00000000000E+00 0. -1.
          2    1    1    2  501    0 -0.11007094524E+02  0.16947671439E+02  0.10958558560E+04  0.10960421693E+04  0.00000000000E+00 0. -1.
          2    1    1    2  502    0  0.11007094524E+02 -0.16947671439E+02  0.90797639389E+01  0.22154498646E+02  0.00000000000E+00 0. -1.
</event>
<event>
 4    1  0.8104768E+003  0.2063772E+02  0.7546771E-02  0.1524501E+00
          2   -1    0    0  501    0  0.00000000000E+00  0.00000000000E+00  0.53282204828E+03  0.53282204828E+03  0.00000000000E+00 0.  1.
          2   -1    0    0  502    0 -0.00000000000E+00 -0.00000000000E+00 -0.17661051732E+03  0.17661051732E+03  0.00000000000E+00 0. -1.
          2    1    1    2  501    0 -0.15488551300E+02  0.13638930676E+02 -0.17580686495E+03  0.17701403734E+03  0.00000000000E+00 0. -1.
          2    1    1    2  502    0  0.15488551300E+02 -0.13638930676E+02  0.53201839591E+03  0.53241852827E+03  0.00000000000E+00 0.  1.
</event>
<event>
 4    1  0.8104768E+003  0.2173133E+02  0.7546771E-02  0.1509074E+00
          2   -1    0    0  501    0  0.00000000000E+00  0.00000000000E+00  0.26315964321E+01  0.26315964321E+01  0.00000000000E+00 0. -1.
          2   -1    0    0  502    0 -0.00000000000E+00 -0.00000000000E+00 -0.11335347589E+04  0.11335347589E+04  0.00000000000E+00 0. -1.
          2    1    1    2  501    0  0.17152876865E+02 -0.13342776555E+02 -0.10866307455E+04  0.10868480243E+04  0.00000000000E+00 0. -1.
          2    1    1    2  502    0 -0.17152876865E+02  0.13342776555E+02 -0.44272416954E+02  0.49318331013E+02  0.00000000000E+00 0. -1.
</event>
<event>
 4    1  0.8104768E+003  0.2172018E+02  0.7546771E-02  0.1509226E+00
          2   -1    0    0  501    0  0.00000000000E+00  0.00000000000E+00  0.11267516290E+04  0.11267516290E+04  0.00000000000E+00 0. -1.
          2   -1    0    0  502    0 -0.00000000000E+00 -0.00000000000E+00 -0.12314170439E+01  0.12314170439E+01  0.00000000000E+00 0.  1.
          2    1    1    2  501    0 -0.71102804125E+01 -0.20523405134E+02  0.10457519226E+03  0.10680700858E+03  0.00000000000E+00 0.  1.
          2    1    1    2  502    0  0.71102804125E+01  0.20523405134E+02  0.10209450197E+04  0.10211760375E+04  0.00000000000E+00 0. -1.
</event>
<event>
 4    1  0.8104768E+003  0.2229001E+02  0.7546771E-02  0.1501611E+00
          2   -1    0    0  502    0  0.00000000000E+00  0.00000000000E+00  0.40881968791E+03  0.40881968791E+03  0.00000000000E+00 0. -1.
          2   -1    0    0  501    0 -0.00000000000E+00 -0.00000000000E+00 -0.18283900068E+03  0.18283900068E+03  0.00000000000E+00 0. -1.
          2    1    1    2  501    0 -0.16735261800E+02 -0.14723293409E+02  0.40783487335E+03  0.40844354356E+03  0.00000000000E+00 0. -1.
          2    1    1    2  502    0  0.16735261800E+02  0.14723293409E+02 -0.18185418612E+03  0.18321514502E+03  0.00000000000E+00 0. -1.
</event>
<event>
 4    1  0.8104768E+003  0.6750998E+02  0.7546771E-02  0.1236251E+00
          2   -1    0    0  501    0  0.00000000000E+00  0.00000000000E+00  0.88761984146E+02  0.88761984146E+02  0.00000000000E+00 0.  1.
          2   -1    0    0  502    0 -0.00000000000E+00 -0.00000000000E+00 -0.13500982364E+03  0.13500982364E+03  0.00000000000E+00 0.  1.
          2    1    1    2  501    0 -0.42923063634E+02 -0.52107654637E+02 -0.11120057949E+03  0.13008906927E+03  0.00000000000E+00 0.  1.
          2    1    1    2  502    0  0.42923063634E+02  0.52107654637E+02  0.64952739997E+02  0.93682738520E+02  0.00000000000E+00 0.  1.
</event>
<event>
 4    1  0.8104768E+003  0.4447037E+02  0.7546771E-02  0.1324109E+00
          2   -1    0    0  502    0  0.00000000000E+00  0.00000000000E+00  0.21210979812E+03  0.21210979812E+03  0.00000000000E+00 0. -1.
          2   -1    0    0  501    0 -0.00000000000E+00 -0.00000000000E+00 -0.31872661133E+02  0.31872661133E+02  0.00000000000E+00 0.  1.
          2    1    1    2  501    0  0.19925390925E+02  0.39756662609E+02  0.19272729335E+03  0.19779136237E+03  0.00000000000E+00 0. -1.
          2    1    1    2  502    0 -0.19925390925E+02 -0.39756662609E+02 -0.12490156365E+02  0.46191096884E+02  0.00000000000E+00 0.  1.
</event>
<event>
 4    1  0.8104768E+003  0.2043387E+02  0.7546771E-02  0.1527503E+00
          2   -1    0    0  501    0  0.00000000000E+00  0.00000000000E+00  0.27877834566E+02  0.27877834566E+02  0.00000000000E+00 0. -1.
          2   -1    0    0  502    0 -0.00000000000E+00 -0.00000000000E+00 -0.10033120941E+03  0.10033120941E+03  0.00000000000E+00 0.  1.
          2    1    1    2  501    0  0.19287550081E+02  0.67478477908E+01 -0.95353108180E+02  0.97517989508E+02  0.00000000000E+00 0.  1.
          2    1    1    2  502    0 -0.19287550081E+02 -0.67478477908E+01  0.22899733332E+02  0.30691054472E+02  0.00000000000E+00 0. -1.
</event>
<event>
 4    1  0.8104768E+003  0.3037452E+02  0.7546771E-02  0.1416369E+00
          2   -1    0    0  501    0  0.00000000000E+00  0.00000000000E+00  0.57421916357E+00  0.57421916357E+00  0.00000000000E+00 0. -1.
          2   -1    0    0  502    0 -0.00000000000E+00 -0.00000000000E+00 -0.22805980372E+04  0.22805980372E+04  0.00000000000E+00 0.  1.
          2    1    1    2  501    0 -0.19915283098E+02  0.22934537356E+02 -0.52000976623E+03  0.52089612062E+03  0.00000000000E+00 0. -1.
          2    1    1    2  502    0  0.19915283098E+02 -0.22934537356E+02 -0.17600140518E+04  0.17602761357E+04  0.00000000000E+00 0.  1.
</event>
<event>
 4    1  0.8104768E+003  0.7972988E+02  0.7546771E-02  0.1204476E+00
          2   -1    0    0  501    0  0.00000000000E+00  0.00000000000E+00  0.83749475632E+03  0.83749475632E+03  0.00000000000E+00 0.  1.
          2   -1    0    0  502    0 -0.00000000000E+00 -0.00000000000E+00 -0.89355929191E+02  0.89355929191E+02  0.00000000000E+00 0. -1.
          2    1    1    2  501    0  0.14439287929E+02 -0.78411481183E+02 -0.69236403205E+02  0.10559608395E+03  0.00000000000E+00 0. -1.
          2    1    1    2  502    0 -0.14439287929E+02  0.78411481183E+02  0.81737523034E+03  0.82125460156E+03  0.00000000000E+00 0.  1.
</event>
<event>
 4    1  0.8104768E+003  0.2028937E+02  0.7546771E-02  0.1529657E+00
          2   -1    0    0  502    0  0.00000000000E+00  0.00000000000E+00  0.62734640506E+01  0.62734640506E+01  0.00000000000E+00 0. -1.
          2   -1    0    0  501    0 -0.00000000000E+00 -0.00000000000E+00 -0.88014944094E+03  0.88014944094E+03  0.00000000000E+00 0. -1.
          2    1    1    2  501    0  0.24848704154E+01  0.20136635784E+02 -0.10568209227E+02  0.22876750817E+02  0.00000000000E+00 0. -1.
          2    1    1    2  502    0 -0.24848704154E+01 -0.20136635784E+02 -0.86330776766E+03  0.86354615417E+03  0.00000000000E+00 0. -1.
</event>
<event>
 4    1  0.8104768E+003  0.2392330E+02  0.7546771E-02  0.1481219E+00
          2   -1    0    0  502    0  0.00000000000E+00  0.00000000000E+00  0.12364585753E+04  0.12364585753E+04  0.00000000000E+00 0.  1.
          2   -1    0    0  501    0 -0.00000000000E+00 -0.00000000000E+00 -0.56068515744E+00  0.56068515744E+00  0.00000000000E+00 0. -1.
          2    1    1    2  501    0 -0.20128335927E+00  0.23922450407E+02  0.87628309124E+03  0.87660959392E+03  0.00000000000E+00 0.  1.
          2    1    1    2  502    0  0.20128335927E+00 -0.23922450407E+02  0.35961479894E+03  0.36040966658E+03  0.00000000000E+00 0. -1.
</event>
<event>
 4    1  0.8104768E+003  0.3180718E+02  0.7546771E-02  0.1404516E+00
          2   -1    0    0  501    0  0.00000000000E+00  0.00000000000E+00  0.17892735726E+04  0.17892735726E+04  0.00000000000E+00 0. -1.
          2   -1    0    0  502    0 -0.00000000000E+00 -0.00000000000E+00 -0.57481044130E+00  0.57481044130E+00  0.00000000000E+00 0. -1.
          2    1    1    2  501    0 -0.13665780946E+02  0.28721828221E+02  0.77998510669E+03  0.78063337339E+03  0.00000000000E+00 0. -1.
          2    1    1    2  502    0  0.13665780946E+02 -0.28721828221E+02  0.10087136554E+04  0.10092150096E+04  0.00000000000E+00 0. -1.
</event>
<event>
 4    1  0.8104768E+003  0.2881968E+02  0.7546771E-02  0.1430138E+00
          2   -1    0    0  501    0  0.00000000000E+00  0.00000000000E+00  0.29820627450E+02  0.29820627450E+02  0.00000000000E+00 0.  1.
          2   -1    0    0  502    0 -0.00000000000E+00 -0.00000000000E+00 -0.17619684281E+04  0.17619684281E+04  0.00000000000E+00 0. -1.
          2    1    1    2  501    0 -0.23249555713E+02 -0.17030332553E+02 -0.17548592908E+04  0.17550959246E+04  0.00000000000E+00 0. -1.
          2    1    1    2  502    0  0.23249555713E+02  0.17030332553E+02  0.22711490198E+02  0.36693130893E+02  0.00000000000E+00 0.  1.
</event>
<event>
 4    1  0.8104768E+003  0.2691000E+02  0.7546771E-02  0.1448514E+00
          2   -1    0    0  501    0  0.00000000000E+00  0.00000000000E+00  0.75156311411E+02  0.75156311411E+02  0.00000000000E+00 0. -1.
          2   -1    0    0  502    0 -0.00000000000E+00 -0.00000000000E+00 -0.77062712100E+03  0.77062712100E+03  0.00000000000E+00 0.  1.
          2    1    1    2  501    0  0.25948611077E+02  0.71286579758E+01 -0.76797507656E+03  0.76844639787E+03  0.00000000000E+00 0.  1.
          2    1    1    2  502    0 -0.25948611077E+02 -0.71286579758E+01  0.72504266976E+02  0.77337034537E+02  0.00000000000E+00 0. -1.
</event>
<event>
 4    1  0.8104768E+003  0.2306191E+02  0.7546771E-02  0.1491722E+00
          2   -1    0    0  502    0  0.00000000000E+00  0.00000000000E+00  0.14786343112E+03  0.14786343112E+03  0.00000000000E+00 0.  1.
          2   -1    0    0  501    0 -0.00000000000E+00 -0.00000000000E+00 -0.19916167569E+03  0.19916167569E+03  0.00000000000E+00 0.  1.
          2    1    1    2  501    0 -0.20680170041E+02  0.10206963930E+02  0.14628945165E+03  0.14809610127E+03  0.00000000000E+00 0.  1.
          2    1    1    2  502    0  0.20680170041E+02 -0.10206963930E+02 -0.19758769622E+03  0.19892900554E+03  0.00000000000E+00 0.  1.
</event>
<event>
 4    1  0.8104768E+003  0.2204377E+02  0.7546771E-02  0.1504868E+00
          2   -1    0    0  502    0  0.00000000000E+00  0.00000000000E+00  0.25946583500E+03  0.25946583500E+03  0.00000000000E+00 0.  1.
          2   -1    0    0  501    0 -0.00000000000E+00 -0.00000000000E+00 -0.60051516133E+01  0.60051516133E+01  0.00000000000E+00 0. -1.
          2    1    1    2  501    0  0.16508277231E+02  0.14608371030E+02  0.23683956327E+03  0.23786320953E+03  0.00000000000E+00 0.  1.
          2    1    1    2  502    0 -0.16508277231E+02 -0.14608371030E+02  0.16621120122E+02  0.27607777082E+02  0.00000000000E+00 0. -1.
</event>
<event>
 4    1  0.8104768E+003  0.3637853E+02  0.7546771E-02  0.1371122E+00
          2   -1    0    0  501    0  0.00000000000E+00  0.00000000000E+00  0.38954440344E+02  0.38954440344E+02  0.00000000000E+00 0. -1.
          2   -1    0    0  502    0 -0.00000000000E+00 -0.00000000000E+00 -0.10944352084E+03  0.10944352084E+03  0.00000000000E+00 0. -1.
          2    1    1    2  501    0 -0.34493008762E+02 -0.11559846640E+02 -0.96860283913E+02  0.10346647915E+03  0.00000000000E+00 0. -1.
          2    1    1    2  502    0  0.34493008762E+02  0.11559846640E+02  0.26371203419E+02  0.44931482032E+02  0.00000000000E+00 0. -1.
</event>
<event>
 4    1  0.8104768E+003  0.5984734E+02  0.7546771E-02  0.1260352E+00
          2   -1    0    0  501    0  0.00000000000E+00  0.00000000000E+00  0.68328734040E+03  0.68328734040E+03  0.00000000000E+00 0.  1.
          2   -1    0    0  502    0 -0.00000000000E+00 -0.00000000000E+00 -0.19168306364E+03  0.19168306364E+03  0.00000000000E+00 0. -1.
          2    1    1    2  501    0  0.58272039421E+02  0.13640867100E+02 -0.18565974331E+03  0.19506728100E+03  0.00000000000E+00 0. -1.
          2    1    1    2  502    0 -0.58272039421E+02 -0.13640867100E+02  0.67726402007E+03  0.67990312303E+03  0.00000000000E+00 0.  1.
</event>
<event>
 4    1  0.8104768E+003  0.3546194E+02  0.7546771E-02  0.1377344E+00
          2   -1    0    0  502    0  0.00000000000E+00  0.00000000000E+00  0.41350307581E+02  0.41350307581E+02  0.00000000000E+00 0. -1.
          2   -1    0    0  501    0 -0.00000000000E+00 -0.00000000000E+00 -0.21616750505E+04  0.21616750505E+04  0.00000000000E+00 0. -1.
          2    1    1    2  501    0  0.39526950732E+01 -0.35240959002E+02  0.33574403739E+02  0.48834307369E+02  0.00000000000E+00 0. -1.
          2    1    1    2  502    0 -0.39526950732E+01  0.35240959002E+02 -0.21538991467E+04  0.21541910507E+04  0.00000000000E+00 0. -1.
</event>
<event>
 4    1  0.8104768E+003  0.2376469E+02  0.7546771E-02  0.1483113E+00
          2   -1    0    0  502    0  0.00000000000E+00  0.00000000000E+00  0.88253621079E+02  0.88253621079E+02  0.00000000000E+00 0.  1.
          2   -1    0    0  501    0 -0.00000000000E+00 -0.00000000000E+00 -0.40763766232E+03  0.40763766232E+03  0.00000000000E+00 0.  1.
          2    1    1    2  501    0  0.21890087550E+02 -0.92511983731E+01  0.86299737854E+02  0.89512040296E+02  0.00000000000E+00 0.  1.
          2    1    1    2  502    0 -0.21890087550E+02  0.92511983731E+01 -0.40568377910E+03  0.40637924311E+03  0.00000000000E+00 0.  1.
</event>
<event>
 4    1  0.8104768E+003  0.2599987E+02  0.7546771E-02  0.1457922E+00
          2   -1    0    0  501    0  0.00000000000E+00  0.00000000000E+00  0.28754940434E+03  0.28754940434E+03  0.00000000000E+00 0. -1.
          2   -1    0    0  502    0 -0.00000000000E+00 -0.00000000000E+00 -0.78457692020E+02  0.78457692020E+02  0.00000000000E+00 0.  1.
          2    1    1    2  501    0  0.72843536398E+01 -0.24958590384E+02 -0.75695116409E+02  0.80035890012E+02  0.00000000000E+00 0.  1.
          2    1    1    2  502    0 -0.72843536398E+01  0.24958590384E+02  0.28478682873E+03  0.28597120635E+03  0.00000000000E+00 0. -1.
</event>
<event>
 4    1  0.8104768E+003  0.2408930E+02  0.7546771E-02  0.1479255E+00
          2   -1    0    0  502    0  0.00000000000E+00  0.00000000000E+00  0.14664534576E+02  0.14664534576E+02  0.00000000000E+00 0.  1.
          2   -1    0    0  501    0 -0.00000000000E+00 -0.00000000000E+00 -0.58114512175E+02  0.58114512175E+02  0.00000000000E+00 0.  1.
          2    1    1    2  501    0 -0.88647964751E+00  0.24072984477E+02 -0.11695492570E+01  0.24117675536E+02  0.00000000000E+00 0.  1.
          2    1    1    2  502    0  0.88647964751E+00 -0.24072984477E+02 -0.42280428342E+02  0.48661371215E+02  0.00000000000E+00 0.  1.
</event>
<event>
 4    1  0.8104768E+003  0.3137346E+02  0.7546771E-02  0.1408025E+00
          2   -1    0    0  502    0  0.00000000000E+00  0.00000000000E+00  0.52189642748E+02  0.52189642748E+02  0.00000000000E+00 0. -1.
          2   -1    0    0  501    0 -0.00000000000E+00 -0.00000000000E+00 -0.10557938834E+04  0.10557938834E+04  0.00000000000E+00 0.  1.
          2    1    1    2  501    0 -0.25533408481E+02  0.18230161843E+02  0.47219290397E+02  0.56691755442E+02  0.00000000000E+00 0. -1.
          2    1    1    2  502    0  0.25533408481E+02 -0.18230161843E+02 -0.10508235311E+04  0.10512917707E+04  0.00000000000E+00 0.  1.
</event>
<event>
 4    1  0.8104768E+003  0.2221977E+02  0.7546771E-02  0.1502535E+00
          2   -1    0    0  501    0  0.00000000000E+00  0.00000000000E+00  0.16205707020E+02  0.16205707020E+02  0.00000000000E+00 0.  1.
          2   -1    0    0  502    0 -0.00000000000E+00 -0.00000000000E+00 -0.92168456984E+02  0.92168456984E+02  0.00000000000E+00 0.  1.
          2    1    1    2  501    0 -0.17579173360E+02 -0.13590100192E+02 -0.82317415123E+02  0.85263561923E+02  0.00000000000E+00 0.  1.
          2    1    1    2  502    0  0.17579173360E+02  0.13590100192E+02  0.63546651587E+01  0.23110602081E+02  0.00000000000E+00 0.  1.
</event>
<event>
 4    1  0.8104768E+003  0.2123528E+02  0.7546771E-02  0.1515932E+00
          2   -1    0    0  501    0  0.00000000000E+00  0.00000000000E+00  0.64945499288E+01  0.64945499288E+01  0.00000000000E+00 0.  1.
          2   -1    0    0  502    0 -0.00000000000E+00 -0.00000000000E+00 -0.12307877545E+04  0.12307877545E+04  0.00000000000E+00 0. -1.
          2    1    1    2  501    0  0.70721107872E+01 -0.20023045400E+02 -0.12130845711E+04  0.12132704207E+04  0.00000000000E+00 0. -1.
          2    1    1    2  502    0 -0.70721107872E+01  0.20023045400E+02 -0.11208633550E+02  0.24011883810E+02  0.00000000000E+00 0.  1.
</event>
<event>
 4    1  0.8104768E+003  0.2251700E+02  0.7546771E-02  0.1498654E+00
          2   -1    0    0  501    0  0.00000000000E+00  0.00000000000E+00  0.14845585660E+03  0.14845585660E+03  0.00000000000E+00 0.  1.
          2   -1    0    0  502    0 -0.00000000000E+00 -0.00000000000E+00 -0.43079648403E+03  0.43079648403E+03  0.00000000000E+00 0. -1.
          2    1    1    2  501    0 -0.10674641386E+00 -0.22516747487E+02 -0.42964615332E+03  0.43023578695E+03  0.00000000000E+00 0. -1.
          2    1    1    2  502    0  0.10674641386E+00  0.22516747487E+02  0.14730552589E+03  0.14901655368E+03  0.00000000000E+00 0.  1.
</event>
<event>
 4    1  0.8104768E+003  0.2032323E+02  0.7546771E-02  0.1529151E+00
          2   -1    0    0  501    0  0.00000000000E+00  0.00000000000E+00  0.14012603701E+02  0.14012603701E+02  0.00000000000E+00 0. -1.
          2   -1    0    0  502    0 -0.00000000000E+00 -0.00000000000E+00 -0.96766385733E+02  0.96766385733E+02  0.00000000000E+00 0. -1.
          2    1    1    2  501    0 -0.13532849029E+02 -0.15162310340E+02 -0.87566265190E+02  0.89893739810E+02  0.00000000000E+00 0. -1.
          2    1    1    2  502    0  0.13532849029E+02  0.15162310340E+02  0.48124831579E+01  0.20885249624E+02  0.00000000000E+00 0. -1.
</event>
<event>
 4    1  0.8104768E+003  0.2670162E+02  0.7546771E-02  0.1450629E+00
          2   -1    0    0  502    0  0.00000000000E+00  0.00000000000E+00  0.23209780859E+03  0.23209780859E+03  0.00000000000E+00 0. -1.
          2   -1    0    0  501    0 -0.00000000000E+00 -0.00000000000E+00 -0.19974211892E+03  0.19974211892E+03  0.00000000000E+00 0. -1.
          2    1    1    2  501    0  0.22745355392E+02  0.13986604856E+02  0.23043103466E+03  0.23197292524E+03  0.00000000000E+00 0. -1.
          2    1    1    2  502    0 -0.22745355392E+02 -0.13986604856E+02 -0.19807534499E+03  0.19986700228E+03  0.00000000000E+00 0. -1.
</event>
<event>
 4    1  0.8104768E+003  0.2559551E+02  0.7546771E-02  0.1462250E+00
          2   -1    0    0  501    0  0.00000000000E+00  0.00000000000E+00  0.57203244177E+02  0.57203244177E+02  0.00000000000E+00 0. -1.
          2   -1    0    0  502    0 -0.00000000000E+00 -0.00000000000E+00 -0.95822715015E+02  0.95822715015E+02  0.00000000000E+00 0.  1.
          2    1    1    2  501    0 -0.19999168780E+02 -0.15973832888E+02 -0.91104869308E+02  0.94632062752E+02  0.00000000000E+00 0.  1.
          2    1    1    2  502    0  0.19999168780E+02  0.15973832888E+02  0.52485398470E+02  0.58393896441E+02  0.00000000000E+00 0. -1.
</event>
<event>
 4    1  0.8104768E+003  0.2454598E+02  0.7546771E-02  0.1473947E+00
          2   -1    0    0  501    0  0.00000000000E+00  0.00000000000E+00  0.21919866521E+04  0.21919866521E+04  0.00000000000E+00 0.  1.
          2   -1    0    0  502    0 -0.00000000000E+00 -0.00000000000E+00 -0.37389457749E+00  0.37389457749E+00  0.00000000000E+00 0.  1.
          2    1    1    2  501    0 -0.12759590856E+02 -0.20968977054E+02  0.53166869124E+03  0.53223500674E+03  0.00000000000E+00 0.  1.
          2    1    1    2  502    0  0.12759590856E+02  0.20968977054E+02  0.16599440663E+04  0.16601255400E+04  0.00000000000E+00 0.  1.
</event>
<event>
 4    1  0.8104768E+003  0.2792297E+02  0.7546771E-02  0.1438551E+00
          2   -1    0    0  502    0  0.00000000000E+00  0.00000000000E+00  0.73049252453E+03  0.73049252453E+03  0.00000000000E+00 0. -1.
          2   -1    0    0  501    0 -0.00000000000E+00 -0.00000000000E+00 -0.36294691501E+02  0.36294691501E+02  0.00000000000E+00 0. -1.
          2    1    1    2  501    0 -0.15966135660E+02 -0.22907967989E+02  0.72481305127E+03  0.72535070951E+03  0.00000000000E+00 0. -1.
          2    1    1    2  502    0  0.15966135660E+02  0.22907967989E+02 -0.30615218241E+02  0.41436506528E+02  0.00000000000E+00 0. -1.
</event>
<event>
 4    1  0.8104768E+003  0.2735286E+02  0.7546771E-02  0.1444095E+00
          2   -1    0    0  502    0  0.00000000000E+00  0.00000000000E+00  0.90271247586E+03  0.90271247586E+03  0.00000000000E+00 0.  1.
          2   -1    0    0  501    0 -0.00000000000E+00 -0.00000000000E+00 -0.15978603898E+01  0.15978603898E+01  0.00000000000E+00 0.  1.
          2    1    1    2  501    0  0.25450855195E+02  0.10021618816E+02  0.76424316283E+03  0.76473249624E+03  0.00000000000E+00 0.  1.
          2    1    1    2  502    0 -0.25450855195E+02 -0.10021618816E+02  0.13687145264E+03  0.13957784001E+03  0.00000000000E+00 0.  1.
</event>
<event>
 4    1  0.8104768E+003  0.3412618E+02  0.7546771E-02  0.1386813E+00
          2   -1    0    0  501    0  0.00000000000E+00  0.00000000000E+00  0.39707946481E+01  0.39707946481E+01  0.00000000000E+00 0.  1.
          2   -1    0    0  502    0 -0.00000000000E+00 -0.00000000000E+00 -0.95305469447E+03  0.95305469447E+03  0.00000000000E+00 0.  1.
          2    1    1    2  501    0 -0.33377368795E+02 -0.71096725101E+01 -0.87267568751E+03  0.87334268862E+03  0.00000000000E+00 0.  1.
          2    1    1    2  502    0  0.33377368795E+02  0.71096725101E+01 -0.76408212309E+02  0.83682800498E+02  0.00000000000E+00 0.  1.
</event>
<event>
 4    1  0.8104768E+003  0.2265695E+02  0.7546771E-02  0.1496851E+00
          2   -1    0    0  501    0  0.00000000000E+00  0.00000000000E+00  0.41979274935E+03  0.41979274935E+03  0.00000000000E+00 0.  1.
          2   -1    0    0  502    0 -0.00000000000E+00 -0.00000000000E+00 -0.95473601544E+02  0.95473601544E+02  0.00000000000E+00 0.  1.
          2    1    1    2  501    0  0.17757840070E+02  0.14071126415E+02 -0.93818388587E+02  0.96515426329E+02  0.00000000000E+00 0.  1.
          2    1    1    2  502    0 -0.17757840070E+02 -0.14071126415E+02  0.41813753639E+03  0.41875092456E+03  0.00000000000E+00 0.  1.
</event>
<event>
 4    1  0.8104768E+003  0.5494500E+02  0.7546771E-02  0.1278047E+00
          2   -1    0    0  501    0  0.00000000000E+00  0.00000000000E+00  0.11281843625E+03  0.11281843625E+03  0.00000000000E+00 0.  1.
          2   -1    0    0  502    0 -0.00000000000E+00 -0.00000000000E+00 -0.12702273410E+04  0.12702273410E+04  0.00000000000E+00 0.  1.
          2    1    1    2  501    0  0.54516442663E+02  0.68491619358E+01 -0.12629045435E+04  0.12640992206E+04  0.00000000000E+00 0.  1.
          2    1    1    2  502    0 -0.54516442663E+02 -0.68491619358E+01  0.10549563876E+03  0.11894655664E+03  0.00000000000E+00 0.  1.
</event>
<event>
 4    1  0.8104768E+003  0.4796390E+02  0.7546771E-02  0.1307250E+00
          2   -1    0    0  502    0  0.00000000000E+00  0.00000000000E+00  0.13446462288E+03  0.13446462288E+03  0.00000000000E+00 0.  1.
          2   -1    0    0  501    0 -0.00000000000E+00 -0.00000000000E+00 -0.10822918172E+04  0.10822918172E+04  0.00000000000E+00 0. -1.
          2    1    1    2  501    0 -0.32988190367E+02  0.34818312314E+02  0.12963685037E+03  0.13822535422E+03  0.00000000000E+00 0.  1.
          2    1    1    2  502    0  0.32988190367E+02 -0.34818312314E+02 -0.10774640447E+04  0.10785310859E+04  0.00000000000E+00 0. -1.
</event>
<event>
 4    1  0.8104768E+003  0.2786807E+02  0.7546771E-02  0.1439078E+00
          2   -1    0    0  501    0  0.00000000000E+00  0.00000000000E+00  0.15731039586E+03  0.15731039586E+03  0.00000000000E+00 0. -1.
          2   -1    0    0  502    0 -0.00000000000E+00 -0.00000000000E+00 -0.10158999884E+02  0.10158999884E+02  0.00000000000E+00 0.  1.
          2    1    1    2  501    0  0.20456265258E+02  0.18925391951E+02  0.13541097161E+02  0.30983714450E+02  0.00000000000E+00 0.  1.
          2    1    1    2  502    0 -0.20456265258E+02 -0.18925391951E+02  0.13361029881E+03  0.13648568129E+03  0.00000000000E+00 0. -1.
</event>
<event>
 4    1  0.8104768E+003  0.2049973E+02  0.7546771E-02  0.1526529E+00
          2   -1    0    0  502    0  0.00000000000E+00  0.00000000000E+00  0.11768355410E+02  0.11768355410E+02  0.00000000000E+00 0.  1.
          2   -1    0    0  501    0 -0.00000000000E+00 -0.00000000000E+00 -0.10919222921E+04  0.10919222921E+04  0.00000000000E+00 0.  1.
          2    1    1    2  501    0 -0.76848440326E+01  0.19004793702E+02  0.26698244852E+01  0.20672855977E+02  0.00000000000E+00 0.  1.
          2    1    1    2  502    0  0.76848440326E+01 -0.19004793702E+02 -0.10828237612E+04  0.10830177916E+04  0.00000000000E+00 0.  1.
</event>
<event>
 4    1  0.8104768E+003  0.2076760E+02  0.7546771E-02  0.1522609E+00
          2   -1    0    0  502    0  0.00000000000E+00  0.00000000000E+00  0.65331458364E+01  0.65331458364E+01  0.00000000000E+00 0. -1.
          2   -1    0    0  501    0 -0.00000000000E+00 -0.00000000000E+00 -0.20856268117E+03  0.20856268117E+03  0.00000000000E+00 0. -1.
          2    1    1    2  501    0  0.18411602690E+02  0.96076040824E+01 -0.12102434407E+02  0.24036682142E+02  0.00000000000E+00 0. -1.
          2    1    1    2  502    0 -0.18411602690E+02 -0.96076040824E+01 -0.18992710092E+03  0.19105914486E+03  0.00000000000E+00 0. -1.
</event>
<event>
 4    1  0.8104768E+003  0.2130733E+02  0.7546771E-02  0.1514922E+00
          2   -1    0    0  502    0  0.00000000000E+00  0.00000000000E+00  0.30749930824E+01  0.30749930824E+01  0.00000000000E+00 0. -1.
          2   -1    0    0  501    0 -0.00000000000E+00 -0.00000000000E+00 -0.74480859384E+03  0.74480859384E+03  0.00000000000E+00 0. -1.
          2    1    1    2  501    0 -0.20965376683E+02 -0.38019899418E+01 -0.36033268155E+02  0.41861659796E+02  0.00000000000E+00 0. -1.
          2    1    1    2  502    0  0.20965376683E+02  0.38019899418E+01 -0.70570033260E+03  0.70602192713E+03  0.00000000000E+00 0. -1.
</event>
<event>
 4    1  0.8104768E+003  0.2042503E+02  0.7546771E-02  0.1527635E+00
          2   -1    0    0  502    0  0.00000000000E+00  0.00000000000E+00  0.36957654747E+03  0.36957654747E+03  0.00000000000E+00 0. -1.
          2   -1    0    0  501    0 -0.00000000000E+00 -0.00000000000E+00 -0.26053911512E+01  0.26053911512E+01  0.00000000000E+00 0.  1.
          2    1    1    2  501    0  0.19456293225E+02 -0.62156547415E+01  0.32357891778E+03  0.32422291366E+03  0.00000000000E+00 0. -1.
          2    1    1    2  502    0 -0.19456293225E+02  0.62156547415E+01  0.43392238538E+02  0.47959024962E+02  0.00000000000E+00 0.  1.
</event>
<event>
 4    1  0.8104768E+003  0.2533128E+02  0.7546771E-02  0.1465131E+00
          2   -1    0    0  501    0  0.00000000000E+00  0.00000000000E+00  0.90430889697E+02  0.90430889697E+02  0.00000000000E+00 0.  1.
          2   -1    0    0  502    0 -0.00000000000E+00 -0.00000000000E+00 -0.13034812901E+02  0.13034812901E+02  0.00000000000E+00 0. -1.
          2    1    1    2  501    0  0.14759550268E+02 -0.20587116099E+02  0.37780968815E+01  0.25611475737E+02  0.00000000000E+00 0. -1.
          2    1    1    2  502    0 -0.14759550268E+02  0.20587116099E+02  0.73617979915E+02  0.77854226861E+02  0.00000000000E+00 0.  1.
</event>
<event>
 4    1  0.8104768E+003  0.3329493E+02  0.7546771E-02  0.1392963E+00
          2   -1    0    0  502    0  0.00000000000E+00  0.00000000000E+00  0.17598698753E+04  0.17598698753E+04  0.00000000000E+00 0.  1.
          2   -1    0    0  501    0 -0.00000000000E+00 -0.00000000000E+00 -0.56036308085E+01  0.56036308085E+01  0.00000000000E+00 0. -1.
          2    1    1    2  501    0  0.27329018902E+02 -0.19017814922E+02  0.17087768739E+04  0.17091012134E+04  0.00000000000E+00 0.  1.
          2    1    1    2  502    0 -0.27329018902E+02  0.19017814922E+02  0.45489370587E+02  0.56372292795E+02  0.00000000000E+00 0. -1.
</event>
<event>
 4    1  0.8104768E+003  0.2312393E+02  0.7546771E-02  0.1490948E+00
          2   -1    0    0  501    0  0.00000000000E+00  0.00000000000E+00  0.11685091793E+04  0.11685091793E+04  0.00000000000E+00 0.  1.
          2   -1    0    0  502    0 -0.00000000000E+00 -0.00000000000E+00 -0.78624050700E+00  0.78624050700E+00  0.00000000000E+00 0. -1.
          2    1    1    2  501    0 -0.13380376151E+02 -0.18859520929E+02  0.20587732000E+03  0.20717187764E+03  0.00000000000E+00 0. -1.
          2    1    1    2  502    0  0.13380376151E+02  0.18859520929E+02  0.96184561877E+03  0.96212354215E+03  0.00000000000E+00 0.  1.
</event>
<event>
 4    1  0.8104768E+003  0.4904098E+02  0.7546771E-02  0.1302385E+00
          2   -1    0    0  502    0  0.00000000000E+00  0.00000000000E+00  0.66481931087E+02  0.66481931087E+02  0.00000000000E+00 0. -1.
          2   -1    0    0  501    0 -0.00000000000E+00 -0.00000000000E+00 -0.11588709698E+03  0.11588709698E+03  0.00000000000E+00 0. -1.
          2    1    1    2  501    0  0.12633830069E+02 -0.47385692110E+02  0.50922225121E+02  0.70697174556E+02  0.00000000000E+00 0. -1.
          2    1    1    2  502    0 -0.12633830069E+02  0.47385692110E+02 -0.10032739101E+03  0.11167185351E+03  0.00000000000E+00 0. -1.
</event>
<event>
 4    1  0.8104768E+003  0.2511540E+02  0.7546771E-02  0.1467517E+00
          2   -1    0    0  501    0  0.00000000000E+00  0.00000000000E+00  0.75120136327E+01  0.75120136327E+01  0.00000000000E+00 0.  1.
          2   -1    0    0  502    0 -0.00000000000E+00 -0.00000000000E+00 -0.84221517280E+02  0.84221517280E+02  0.00000000000E+00 0.  1.
          2    1    1    2  501    0  0.25004491910E+02  0.23576588276E+01 -0.35847828532E+02  0.43770423590E+02  0.00000000000E+00 0.  1.
          2    1    1    2  502    0 -0.25004491910E+02 -0.23576588276E+01 -0.40861675115E+02  0.47963107322E+02  0.00000000000E+00 0.  1.
</event>
<event>
 4    1  0.8104768E+003  0.2011477E+02  0.7546771E-02  0.1532288E+00
          2   -1    0    0  502    0  0.00000000000E+00  0.00000000000E+00  0.84826746040E+03  0.84826746040E+03  0.00000000000E+00 0. -1.
          2   -1    0    0  501    0 -0.00000000000E+00 -0.00000000000E+00 -0.35482220491E+01  0.35482220491E+01  0.00000000000E+00 0. -1.
          2    1    1    2  501    0  0.20114260433E+02  0.14341871341E+00  0.81860797897E+03  0.81885507099E+03  0.00000000000E+00 0. -1.
          2    1    1    2  502    0 -0.20114260433E+02 -0.14341871341E+00  0.26111259378E+02  0.32960611463E+02  0.00000000000E+00 0. -1.
</event>
<event>
 4    1  0.8104768E+003  0.3587260E+02  0.7546771E-02  0.1374530E+00
          2   -1    0    0  501    0  0.00000000000E+00  0.00000000000E+00  0.45302197185E+01  0.45302197185E+01  0.00000000000E+00 0. -1.
          2   -1    0    0  502    0 -0.00000000000E+00 -0.00000000000E+00 -0.73325841561E+03  0.73325841561E+03  0.00000000000E+00 0. -1.
          2    1    1    2  501    0  0.15346136513E+01 -0.35839764012E+02 -0.65309526396E+03  0.65407971038E+03  0.00000000000E+00 0. -1.
          2    1    1    2  502    0 -0.15346136513E+01  0.35839764012E+02 -0.75632931928E+02  0.83708924945E+02  0.00000000000E+00 0. -1.
</event>
<event>
 4    1  0.8104768E+003  0.5959510E+02  0.7546771E-02  0.1261215E+00
          2   -1    0    0  501    0  0.00000000000E+00  0.00000000000E+00  0.82677068999E+03  0.82677068999E+03  0.00000000000E+00 0.  1.
          2   -1    0    0  502    0 -0.00000000000E+00 -0.00000000000E+00 -0.12811721351E+03  0.12811721351E+03  0.00000000000E+00 0. -1.
          2    1    1    2  501    0  0.29361686172E+02 -0.51860069130E+02 -0.12004471530E+03  0.13402353919E+03  0.00000000000E+00 0. -1.
          2    1    1    2  502    0 -0.29361686172E+02  0.51860069130E+02  0.81869819178E+03  0.82086436432E+03  0.00000000000E+00 0.  1.
</event>
<event>
 4    1  0.1180937E+004  0.2186297E+02  0.7546771E-02  0.1507292E+00
          2   -1    0    0  502    0  0.00000000000E+00  0.00000000000E+00  0.71181015594E+03  0.71181015594E+03  0.00000000000E+00 0.  1.
          2   -1    0    0  501    0 -0.00000000000E+00 -0.00000000000E+00 -0.78254591169E+03  0.78254591169E+03  0.00000000000E+00 0. -1.
          2    1    1    2  501    0  0.16915517384E+02 -0.13851165108E+02  0.71148950564E+03  0.71182533401E+03  0.00000000000E+00 0.  1.
          2    1    1    2  502    0 -0.16915517384E+02  0.13851165108E+02 -0.78222526139E+03  0.78253073362E+03  0.00000000000E+00 0. -1.
</event>
<event>
 4    1  0.8104768E+003  0.2791605E+02  0.7546771E-02  0.1438617E+00
          2   -1    0    0  502    0  0.00000000000E+00  0.00000000000E+00  0.13810023505E+04  0.13810023505E+04  0.00000000000E+00 0. -1.
          2   -1    0    0  501    0 -0.00000000000E+00 -0.00000000000E+00 -0.47561945771E+01  0.47561945771E+01  0.00000000000E+00 0. -1.
          2    1    1    2  501    0  0.99799239015E+01  0.26071195637E+02  0.13386012014E+04  0.13388922595E+04  0.00000000000E+00 0. -1.
          2    1    1    2  502    0 -0.99799239015E+01 -0.26071195637E+02  0.37644954468E+02  0.46866285536E+02  0.00000000000E+00 0. -1.
</event>
<event>
 4    1  0.8104768E+003  0.2125899E+02  0.7546771E-02  0.1515599E+00
          2   -1    0    0  501    0  0.00000000000E+00  0.00000000000E+00  0.11085730630E+02  0.11085730630E+02  0.00000000000E+00 0. -1.
          2   -1    0    0  502    0 -0.00000000000E+00 -0.00000000000E+00 -0.14667771558E+03  0.14667771558E+03  0.00000000000E+00 0. -1.
          2    1    1    2  501    0  0.12429808471E+02 -0.17246578931E+02 -0.13482486788E+03  0.13649062101E+03  0.00000000000E+00 0. -1.
          2    1    1    2  502    0 -0.12429808471E+02  0.17246578931E+02 -0.76711706731E+00  0.21272825202E+02  0.00000000000E+00 0. -1.
</event>
<event>
 4    1  0.8104768E+003  0.2505725E+02  0.7546771E-02  0.1468164E+00
          2   -1    0    0  501    0  0.00000000000E+00  0.00000000000E+00  0.74320583128E+03  0.74320583128E+03  0.00000000000E+00 0. -1.
          2   -1    0    0  502    0 -0.00000000000E+00 -0.00000000000E+00 -0.10162850962E+03  0.10162850962E+03  0.00000000000E+00 0. -1.
          2    1    1    2  501    0 -0.22375226027E+02 -0.11278975282E+02 -0.99869131241E+02  0.10296460265E+03  0.00000000000E+00 0. -1.
          2    1    1    2  502    0  0.22375226027E+02  0.11278975282E+02  0.74144645290E+03  0.74186973826E+03  0.00000000000E+00 0. -1.
</event>
<event>
 4    1  0.8104768E+003  0.2271081E+02  0.7546771E-02  0.1496162E+00
          2   -1    0    0  501    0  0.00000000000E+00  0.00000000000E+00  0.24609859483E+03  0.24609859483E+03  0.00000000000E+00 0. -1.
          2   -1    0    0  502    0 -0.00000000000E+00 -0.00000000000E+00 -0.11522716548E+02  0.11522716548E+02  0.00000000000E+00 0.  1.
          2    1    1    2  501    0 -0.80877936316E+01  0.21221891951E+02  0.77920999703E+00  0.22724178137E+02  0.00000000000E+00 0.  1.
          2    1    1    2  502    0  0.80877936316E+01 -0.21221891951E+02  0.23379666829E+03  0.23489713324E+03  0.00000000000E+00 0. -1.
</event>
<event>
 4    1  0.8104768E+003  0.3160033E+02  0.7546771E-02  0.1406181E+00
          2   -1    0    0  502    0  0.00000000000E+00  0.00000000000E+00  0.16156941281E+01  0.16156941281E+01  0.00000000000E+00 0. -1.
          2   -1    0    0  501    0 -0.00000000000E+00 -0.00000000000E+00 -0.94295543983E+03  0.94295543983E+03  0.00000000000E+00 0. -1.
          2    1    1    2  501    0 -0.27230323138E+02 -0.16034031131E+02 -0.19344179801E+03  0.19600589244E+03  0.00000000000E+00 0. -1.
          2    1    1    2  502    0  0.27230323138E+02  0.16034031131E+02 -0.74789794769E+03  0.74856524152E+03  0.00000000000E+00 0. -1.
</event>
<event>
 4    1  0.8104768E+003  0.2129994E+02  0.7546771E-02  0.1515025E+00
          2   -1    0    0  502    0  0.00000000000E+00  0.00000000000E+00  0.17672470104E+01  0.17672470104E+01  0.00000000000E+00 0. -1.
          2   -1    0    0  501    0 -0.00000000000E+00 -0.00000000000E+00 -0.27895811658E+03  0.27895811658E+03  0.00000000000E+00 0.  1.
          2    1    1    2  501    0 -0.14161427636E+02 -0.15910411879E+02 -0.98964579678E+02  0.10123080198E+03  0.00000000000E+00 0. -1.
          2    1    1    2  502    0  0.14161427636E+02  0.15910411879E+02 -0.17822628989E+03  0.17949456161E+03  0.00000000000E+00 0.  1.
</event>
<event>
 4    1  0.8104768E+003  0.2535116E+02  0.7546771E-02  0.1464913E+00
          2   -1    0    0  502    0  0.00000000000E+00  0.00000000000E+00  0.45546013018E+03  0.45546013018E+03  0.00000000000E+00 0. -1.
          2   -1    0    0  501    0 -0.00000000000E+00 -0.00000000000E+00 -0.69238642160E+01  0.69238642160E+01  0.00000000000E+00 0.  1.
          2    1    1    2  501    0  0.23901616352E+02 -0.84495011195E+01  0.43056129403E+03  0.43130697798E+03  0.00000000000E+00 0. -1.
          2    1    1    2  502    0 -0.23901616352E+02  0.84495011195E+01  0.17974971927E+02  0.31077016413E+02  0.00000000000E+00 0.  1.
</event>
<event>
 4    1  0.8104768E+003  0.3195896E+02  0.7546771E-02  0.1403304E+00
          2   -1    0    0  501    0  0.00000000000E+00  0.00000000000E+00  0.17880147292E+03  0.17880147292E+03  0.00000000000E+00 0. -1.
          2   -1    0    0  502    0 -0.00000000000E+00 -0.00000000000E+00 -0.95491302279E+01  0.95491302279E+01  0.00000000000E+00 0.  1.
          2    1    1    2  501    0 -0.15447422374E+02  0.27977711081E+02  0.24931024864E+02  0.40533087423E+02  0.00000000000E+00 0.  1.
          2    1    1    2  502    0  0.15447422374E+02 -0.27977711081E+02  0.14432131783E+03  0.14781751572E+03  0.00000000000E+00 0. -1.
</event>
<event>
 4    1  0.8104768E+003  0.2036538E+02  0.7546771E-02  0.1528521E+00
          2   -1    0    0  501    0  0.00000000000E+00  0.00000000000E+00  0.91341618653E+03  0.91341618653E+03  0.00000000000E+00 0.  1.
          2   -1    0    0  502    0 -0.00000000000E+00 -0.00000000000E+00 -0.59376577922E+02  0.59376577922E+02  0.00000000000E+00 0. -1.
          2    1    1    2  501    0 -0.11098819567E+02  0.17075277169E+02 -0.57513228193E+02  0.61012460231E+02  0.00000000000E+00 0. -1.
          2    1    1    2  502    0  0.11098819567E+02 -0.17075277169E+02  0.91155283681E+03  0.91178030423E+03  0.00000000000E+00 0.  1.
</event>
<event>
 4    1  0.8104768E+003  0.2196417E+02  0.7546771E-02  0.1505931E+00
          2   -1    0    0  502    0  0.00000000000E+00  0.00000000000E+00  0.14800400040E+04  0.14800400040E+04  0.00000000000E+00 0. -1.
          2   -1    0    0  501    0 -0.00000000000E+00 -0.00000000000E+00 -0.92313194408E+00  0.92313194408E+00  0.00000000000E+00 0. -1.
          2    1    1    2  501    0 -0.93865873154E+01  0.19857409372E+02  0.13351304736E+04  0.13353111271E+04  0.00000000000E+00 0. -1.
          2    1    1    2  502    0  0.93865873154E+01 -0.19857409372E+02  0.14398639846E+03  0.14565200881E+03  0.00000000000E+00 0. -1.
</event>
<event>
 4    1  0.8104768E+003  0.2681186E+02  0.7546771E-02  0.1449507E+00
          2   -1    0    0  502    0  0.00000000000E+00  0.00000000000E+00  0.85871567941E+03  0.85871567941E+03  0.00000000000E+00 0. -1.
          2   -1    0    0  501    0 -0.00000000000E+00 -0.00000000000E+00 -0.21763088165E+02  0.21763088165E+02  0.00000000000E+00 0.  1.
          2    1    1    2  501    0 -0.23943448090E+02 -0.12065949926E+02  0.85016538824E+03  0.85058806905E+03  0.00000000000E+00 0. -1.
          2    1    1    2  502    0  0.23943448090E+02  0.12065949926E+02 -0.13212796991E+02  0.29890698526E+02  0.00000000000E+00 0.  1.
</event>
<event>
 4    1  0.8104768E+003  0.2585826E+02  0.7546771E-02  0.1459427E+00
          2   -1    0    0  501    0  0.00000000000E+00  0.00000000000E+00  0.47734300794E+01  0.47734300794E+01  0.00000000000E+00 0. -1.
          2   -1    0    0  502    0 -0.00000000000E+00 -0.00000000000E+00 -0.10347297824E+04  0.10347297824E+04  0.00000000000E+00 0.  1.
          2    1    1    2  501    0  0.14342997020E+02 -0.21515765105E+02 -0.99827008560E+03  0.99860493366E+03  0.00000000000E+00 0.  1.
          2    1    1    2  502    0 -0.14342997020E+02  0.21515765105E+02 -0.31686266680E+02  0.40898278786E+02  0.00000000000E+00 0. -1.
</event>
<event>
 4    1  0.8104768E+003  0.2764617E+02  0.7546771E-02  0.1441223E+00
          2   -1    0    0  501    0  0.00000000000E+00  0.00000000000E+00  0.29541575943E+01  0.29541575943E+01  0.00000000000E+00 0. -1.
          2   -1    0    0  502    0 -0.00000000000E+00 -0.00000000000E+00 -0.30488923223E+03  0.30488923223E+03  0.00000000000E+00 0. -1.
          2    1    1    2  501    0 -0.20867160768E+02  0.18134842603E+02 -0.21086207115E+03  0.21266669689E+03  0.00000000000E+00 0. -1.
          2    1    1    2  502    0  0.20867160768E+02 -0.18134842603E+02 -0.91073003487E+02  0.95176692939E+02  0.00000000000E+00 0. -1.
</event>
<event>
 4    1  0.8104768E+003  0.2528636E+02  0.7546771E-02  0.1465625E+00
          2   -1    0    0  501    0  0.00000000000E+00  0.00000000000E+00  0.80029630490E+03  0.80029630490E+03  0.00000000000E+00 0.  1.
          2   -1    0    0  502    0 -0.00000000000E+00 -0.00000000000E+00 -0.23340840236E+02  0.23340840236E+02  0.00000000000E+00 0. -1.
          2    1    1    2  501    0 -0.19173035037E+02 -0.16486201180E+02 -0.16231219524E+02  0.30047505539E+02  0.00000000000E+00 0. -1.
          2    1    1    2  502    0  0.19173035037E+02  0.16486201180E+02  0.79318668419E+03  0.79358963959E+03  0.00000000000E+00 0.  1.
</event>
<event>
 4    1  0.8104768E+003  0.2961255E+02  0.7546771E-02  0.1422994E+00
          2   -1    0    0  501    0  0.00000000000E+00  0.00000000000E+00  0.16457482680E+02  0.16457482680E+02  0.00000000000E+00 0. -1.
          2   -1    0    0  502    0 -0.00000000000E+00 -0.00000000000E+00 -0.40820200342E+03  0.40820200342E+03  0.00000000000E+00 0.  1.
          2    1    1    2  501    0  0.12248471643E+02  0.26960674874E+02 -0.39385983349E+03  0.39497148186E+03  0.00000000000E+00 0.  1.
          2    1    1    2  502    0 -0.12248471643E+02 -0.26960674874E+02  0.21153127564E+01  0.29688004233E+02  0.00000000000E+00 0. -1.
</event>
<event>
 4    1  0.8104768E+003  0.2334053E+02  0.7546771E-02  0.1488266E+00
          2   -1    0    0  501    0  0.00000000000E+00  0.00000000000E+00  0.12827823372E+02  0.12827823372E+02  0.00000000000E+00 0.  1.
          2   -1    0    0  502    0 -0.00000000000E+00 -0.00000000000E+00 -0.21345461615E+03  0.21345461615E+03  0.00000000000E+00 0.  1.
          2    1    1    2  501    0  0.15957428408E+02 -0.17033522117E+02 -0.20157581793E+03  0.20292262262E+03  0.00000000000E+00 0.  1.
          2    1    1    2  502    0 -0.15957428408E+02  0.17033522117E+02  0.94902514919E+00  0.23359816905E+02  0.00000000000E+00 0.  1.
</event>
<event>
 4    1  0.8104768E+003  0.4759985E+02  0.7546771E-02  0.1308928E+00
          2   -1    0    0  501    0  0.00000000000E+00  0.00000000000E+00  0.27376698745E+02  0.27376698745E+02  0.00000000000E+00 0. -1.
          2   -1    0    0  502    0 -0.00000000000E+00 -0.00000000000E+00 -0.44243124133E+03  0.44243124133E+03  0.00000000000E+00 0.  1.
          2    1    1    2  501    0 -0.36299099714E+02  0.30791575347E+02 -0.41932398357E+03  0.42201700078E+03  0.00000000000E+00 0.  1.
          2    1    1    2  502    0  0.36299099714E+02 -0.30791575347E+02  0.42694409824E+01  0.47790939295E+02  0.00000000000E+00 0. -1.
</event>
<event>
 4    1  0.8104768E+003  0.2144821E+02  0.7546771E-02  0.1512961E+00
          2   -1    0    0  502    0  0.00000000000E+00  0.00000000000E+00  0.33744581249E+02  0.33744581249E+02  0.00000000000E+00 0.  1.
          2   -1    0    0  501    0 -0.00000000000E+00 -0.00000000000E+00 -0.17526241078E+03  0.17526241078E+03  0.00000000000E+00 0.  1.
          2    1    1    2  501    0  0.69248226709E+01 -0.20299568953E+02  0.29597974069E+02  0.36552233005E+02  0.00000000000E+00 0.  1.
          2    1    1    2  502    0 -0.69248226709E+01  0.20299568953E+02 -0.17111580360E+03  0.17245475902E+03  0.00000000000E+00 0.  1.
</event>
<event>
 4    1  0.8104768E+003  0.8983101E+02  0.7546771E-02  0.1182700E+00
          2   -1    0    0  501    0  0.00000000000E+00  0.00000000000E+00  0.36926039930E+02  0.36926039930E+02  0.00000000000E+00 0.  1.
          2   -1    0    0  502    0 -0.00000000000E+00 -0.00000000000E+00 -0.32914628929E+03  0.32914628929E+03  0.00000000000E+00 0. -1.
          2    1    1    2  501    0 -0.57013835432E+02 -0.69419261114E+02 -0.25221693592E+03  0.26773679988E+03  0.00000000000E+00 0. -1.
          2    1    1    2  502    0  0.57013835432E+02  0.69419261114E+02 -0.40003313438E+02  0.98335529338E+02  0.00000000000E+00 0.  1.
</event>
<event>
 4    1  0.8104768E+003  0.2038868E+02  0.7546771E-02  0.1528175E+00
          2   -1    0    0  502    0  0.00000000000E+00  0.00000000000E+00  0.16759151516E+02  0.16759151516E+02  0.00000000000E+00 0.  1.
          2   -1    0    0  501    0 -0.00000000000E+00 -0.00000000000E+00 -0.11324738852E+04  0.11324738852E+04  0.00000000000E+00 0.  1.
          2    1    1    2  501    0  0.69536144723E+01 -0.19166260261E+02  0.10431479610E+02  0.22902271797E+02  0.00000000000E+00 0.  1.
          2    1    1    2  502    0 -0.69536144723E+01  0.19166260261E+02 -0.11261462133E+04  0.11263307649E+04  0.00000000000E+00 0.  1.
</event>
<event>
 4    1  0.8104768E+003  0.4725110E+02  0.7546771E-02  0.1310552E+00
          2   -1    0    0  501    0  0.00000000000E+00  0.00000000000E+00  0.17303239233E+01  0.17303239233E+01  0.00000000000E+00 0.  1.
          2   -1    0    0  502    0 -0.00000000000E+00 -0.00000000000E+00 -0.12926887921E+04  0.12926887921E+04  0.00000000000E+00 0.  1.
          2    1    1    2  501    0  0.91247358516E+01 -0.46361682986E+02 -0.61775675853E+03  0.61956119888E+03  0.00000000000E+00 0.  1.
          2    1    1    2  502    0 -0.91247358516E+01  0.46361682986E+02 -0.67320170962E+03  0.67485791711E+03  0.00000000000E+00 0.  1.
</event>
<event>
 4    1  0.8104768E+003  0.3417719E+02  0.7546771E-02  0.1386442E+00
          2   -1    0    0  502    0  0.00000000000E+00  0.00000000000E+00  0.25911105209E+03  0.25911105209E+03  0.00000000000E+00 0. -1.
          2   -1    0    0  501    0 -0.00000000000E+00 -0.00000000000E+00 -0.46260945531E+01  0.46260945531E+01  0.00000000000E+00 0. -1.
          2    1    1    2  501    0  0.29394367723E+02  0.17437068929E+02  0.10617585100E+03  0.11154098602E+03  0.00000000000E+00 0. -1.
          2    1    1    2  502    0 -0.29394367723E+02 -0.17437068929E+02  0.14830910654E+03  0.15219616063E+03  0.00000000000E+00 0. -1.
</event>
<event>
 4    1  0.8104768E+003  0.2512504E+02  0.7546771E-02  0.1467409E+00
          2   -1    0    0  501    0  0.00000000000E+00  0.00000000000E+00  0.43562092264E+01  0.43562092264E+01  0.00000000000E+00 0.  1.
          2   -1    0    0  502    0 -0.00000000000E+00 -0.00000000000E+00 -0.27440462884E+03  0.27440462884E+03  0.00000000000E+00 0.  1.
          2    1    1    2  501    0 -0.21434761680E+02 -0.13107969420E+02 -0.23077188430E+03  0.23213558636E+03  0.00000000000E+00 0.  1.
          2    1    1    2  502    0  0.21434761680E+02  0.13107969420E+02 -0.39276535314E+02  0.46625251709E+02  0.00000000000E+00 0.  1.
</event>
<event>
 4    1  0.8104768E+003  0.2289111E+02  0.7546771E-02  0.1493870E+00
          2   -1    0    0  502    0  0.00000000000E+00  0.00000000000E+00  0.16663092066E+03  0.16663092066E+03  0.00000000000E+00 0. -1.
          2   -1    0    0  501    0 -0.00000000000E+00 -0.00000000000E+00 -0.28464009633E+03  0.28464009633E+03  0.00000000000E+00 0.  1.
          2    1    1    2  501    0 -0.12588328189E+02  0.19119021520E+02  0.16538105291E+03  0.16695776608E+03  0.00000000000E+00 0. -1.
          2    1    1    2  502    0  0.12588328189E+02 -0.19119021520E+02 -0.28339022859E+03  0.28431325092E+03  0.00000000000E+00 0.  1.
</event>
<event>
 4    1  0.8104768E+003  0.2264292E+02  0.7546771E-02  0.1497031E+00
          2   -1    0    0  502    0  0.00000000000E+00  0.00000000000E+00  0.24352829826E+03  0.24352829826E+03  0.00000000000E+00 0.  1.
          2   -1    0    0  501    0 -0.00000000000E+00 -0.00000000000E+00 -0.27016795896E+02  0.27016795896E+02  0.00000000000E+00 0.  1.
          2    1    1    2  501    0 -0.12757259985E+02  0.18707056360E+02  0.23815079954E+03  0.23922480006E+03  0.00000000000E+00 0.  1.
          2    1    1    2  502    0  0.12757259985E+02 -0.18707056360E+02 -0.21639297178E+02  0.31320294098E+02  0.00000000000E+00 0.  1.
</event>
<event>
 4    1  0.8104768E+003  0.2012270E+02  0.7546771E-02  0.1532168E+00
          2   -1    0    0  501    0  0.00000000000E+00  0.00000000000E+00  0.27667675932E+02  0.27667675932E+02  0.00000000000E+00 0.  1.
          2   -1    0    0  502    0 -0.00000000000E+00 -0.00000000000E+00 -0.47582551608E+03  0.47582551608E+03  0.00000000000E+00 0. -1.
          2    1    1    2  501    0 -0.19326724470E+02 -0.56036557470E+01 -0.47192372012E+03  0.47235253873E+03  0.00000000000E+00 0. -1.
          2    1    1    2  502    0  0.19326724470E+02  0.56036557470E+01  0.23765879965E+02  0.31140653284E+02  0.00000000000E+00 0.  1.
</event>
<event>
 4    1  0.8104768E+003  0.2909815E+02  0.7546771E-02  0.1427599E+00
          2   -1    0    0  502    0  0.00000000000E+00  0.00000000000E+00  0.70841574583E+01  0.70841574583E+01  0.00000000000E+00 0.  1.
          2   -1    0    0  501    0 -0.00000000000E+00 -0.00000000000E+00 -0.29137765026E+03  0.29137765026E+03  0.00000000000E+00 0.  1.
          2    1    1    2  501    0 -0.25715148099E+02  0.13617393132E+02 -0.27538882225E+02  0.40063602830E+02  0.00000000000E+00 0.  1.
          2    1    1    2  502    0  0.25715148099E+02 -0.13617393132E+02 -0.25675461057E+03  0.25839820488E+03  0.00000000000E+00 0.  1.
</event>
<event>
 4    1  0.8104768E+003  0.2029187E+02  0.7546771E-02  0.1529620E+00
          2   -1    0    0  502    0  0.00000000000E+00  0.00000000000E+00  0.12399357811E+04  0.12399357811E+04  0.00000000000E+00 0.  1.
          2   -1    0    0  501    0 -0.00000000000E+00 -0.00000000000E+00 -0.21631550807E+01  0.21631550807E+01  0.00000000000E+00 0.  1.
          2    1    1    2  501    0 -0.14687418966E+02  0.14001412389E+02  0.11902797606E+04  0.11904527157E+04  0.00000000000E+00 0.  1.
          2    1    1    2  502    0  0.14687418966E+02 -0.14001412389E+02  0.47492865493E+02  0.51646220554E+02  0.00000000000E+00 0.  1.
</event>
<event>
 4    1  0.8104768E+003  0.2672449E+02  0.7546771E-02  0.1450395E+00
          2   -1    0    0  502    0  0.00000000000E+00  0.00000000000E+00  0.10965910531E+04  0.10965910531E+04  0.00000000000E+00 0. -1.
          2   -1    0    0  501    0 -0.00000000000E+00 -0.00000000000E+00 -0.11851206690E+02  0.11851206690E+02  0.00000000000E+00 0.  1.
          2    1    1    2  501    0  0.10834283631E+01  0.26702517578E+02  0.10811471103E+04  0.10814773564E+04  0.00000000000E+00 0. -1.
          2    1    1    2  502    0 -0.10834283631E+01 -0.26702517578E+02  0.35927360916E+01  0.26964903387E+02  0.00000000000E+00 0.  1.
</event>
<event>
 4    1  0.8104768E+003  0.2722968E+02  0.7546771E-02  0.1445314E+00
          2   -1    0    0  502    0  0.00000000000E+00  0.00000000000E+00  0.48113602039E+03  0.48113602039E+03  0.00000000000E+00 0. -1.
          2   -1    0    0  501    0 -0.00000000000E+00 -0.00000000000E+00 -0.15842387273E+03  0.15842387273E+03  0.00000000000E+00 0. -1.
          2    1    1    2  501    0 -0.16179964900E+02 -0.21901237469E+02  0.47957690658E+03  0.48034931539E+03  0.00000000000E+00 0. -1.
          2    1    1    2  502    0  0.16179964900E+02  0.21901237469E+02 -0.15686475893E+03  0.15921057773E+03  0.00000000000E+00 0. -1.
</event>
<event>
 4    1  0.8104768E+003  0.2532868E+02  0.7546771E-02  0.1465160E+00
          2   -1    0    0  502    0  0.00000000000E+00  0.00000000000E+00  0.67316081713E+03  0.67316081713E+03  0.00000000000E+00 0. -1.
          2   -1    0    0  501    0 -0.00000000000E+00 -0.00000000000E+00 -0.15295129250E+03  0.15295129250E+03  0.00000000000E+00 0. -1.
          2    1    1    2  501    0  0.92739291417E+01 -0.23569819905E+02  0.67187194353E+03  0.67234920293E+03  0.00000000000E+00 0. -1.
          2    1    1    2  502    0 -0.92739291417E+01  0.23569819905E+02 -0.15166241890E+03  0.15376290671E+03  0.00000000000E+00 0. -1.
</event>
<event>
 4    1  0.8104768E+003  0.2447673E+02  0.7546771E-02  0.1474743E+00
          2   -1    0    0  502    0  0.00000000000E+00  0.00000000000E+00  0.11114346971E+04  0.11114346971E+04  0.00000000000E+00 0. -1.
          2   -1    0    0  501    0 -0.00000000000E+00 -0.00000000000E+00 -0.51254336173E+01  0.51254336173E+01  0.00000000000E+00 0. -1.
          2    1    1    2  501    0 -0.14737688786E+02  0.19542540687E+02  0.10812621682E+04  0.10815391749E+04  0.00000000000E+00 0. -1.
          2    1    1    2  502    0  0.14737688786E+02 -0.19542540687E+02  0.25047095277E+02  0.35020955855E+02  0.00000000000E+00 0. -1.
</event>
<event>
 4    1  0.8104768E+003  0.3298394E+02  0.7546771E-02  0.1395319E+00
          2   -1    0    0  502    0  0.00000000000E+00  0.00000000000E+00  0.72432757101E+01  0.72432757101E+01  0.00000000000E+00 0.  1.
          2   -1    0    0  501    0 -0.00000000000E+00 -0.00000000000E+00 -0.25045612468E+03  0.25045612468E+03  0.00000000000E+00 0.  1.
          2    1    1    2  501    0 -0.31503625321E+02 -0.97704488128E+01 -0.40084763290E+02  0.51910772739E+02  0.00000000000E+00 0.  1.
          2    1    1    2  502    0  0.31503625321E+02  0.97704488128E+01 -0.20312808568E+03  0.20578862765E+03  0.00000000000E+00 0.  1.
</event>
<event>
 4    1  0.8104768E+003  0.8705270E+02  0.7546771E-02  0.1188357E+00
          2   -1    0    0  501    0  0.00000000000E+00  0.00000000000E+00  0.36119237134E+01  0.36119237134E+01  0.00000000000E+00 0. -1.
          2   -1    0    0  502    0 -0.00000000000E+00 -0.00000000000E+00 -0.22066364075E+04  0.22066364075E+04  0.00000000000E+00 0. -1.
          2    1    1    2  501    0  0.83496134366E+02 -0.24628603098E+02 -0.13466080900E+04  0.13494189566E+04  0.00000000000E+00 0. -1.
          2    1    1    2  502    0 -0.83496134366E+02  0.24628603098E+02 -0.85641639382E+03  0.86082937458E+03  0.00000000000E+00 0. -1.
</event>
<event>
 4    1  0.8104768E+003  0.3466721E+02  0.7546771E-02  0.1382918E+00
          2   -1    0    0  501    0  0.00000000000E+00  0.00000000000E+00  0.66915443376E+01  0.66915443376E+01  0.00000000000E+00 0.  1.
          2   -1    0    0  502    0 -0.00000000000E+00 -0.00000000000E+00 -0.14342788488E+04  0.14342788488E+04  0.00000000000E+00 0. -1.
          2    1    1    2  501    0  0.21769580147E+02  0.26979638988E+02 -0.13876606488E+04  0.13880936178E+04  0.00000000000E+00 0. -1.
          2    1    1    2  502    0 -0.21769580147E+02 -0.26979638988E+02 -0.39926655726E+02  0.52876775405E+02  0.00000000000E+00 0.  1.
</event>
<event>
 4    1  0.8104768E+003  0.3787596E+02  0.7546771E-02  0.1361403E+00
          2   -1    0    0  502    0  0.00000000000E+00  0.00000000000E+00  0.92925009388E+01  0.92925009388E+01  0.00000000000E+00 0. -1.
          2   -1    0    0  501    0 -0.00000000000E+00 -0.00000000000E+00 -0.66750797213E+03  0.66750797213E+03  0.00000000000E+00 0. -1.
          2    1    1    2  501    0 -0.19862324545E+02  0.32250210402E+02 -0.32409652058E+02  0.49849509063E+02  0.00000000000E+00 0. -1.
          2    1    1    2  502    0  0.19862324545E+02 -0.32250210402E+02 -0.62580581913E+03  0.62695096400E+03  0.00000000000E+00 0. -1.
</event>
<event>
 4    1  0.8104768E+003  0.4443864E+02  0.7546771E-02  0.1324270E+00
          2   -1    0    0  501    0  0.00000000000E+00  0.00000000000E+00  0.71429233157E+03  0.71429233157E+03  0.00000000000E+00 0. -1.
          2   -1    0    0  502    0 -0.00000000000E+00 -0.00000000000E+00 -0.27237355277E+02  0.27237355277E+02  0.00000000000E+00 0. -1.
          2    1    1    2  501    0  0.37779588807E+02  0.23398628204E+02 -0.79170194418E+01  0.45138368702E+02  0.00000000000E+00 0. -1.
          2    1    1    2  502    0 -0.37779588807E+02 -0.23398628204E+02  0.69497199574E+03  0.69639131815E+03  0.00000000000E+00 0. -1.
</event>
<event>
 4    1  0.8104768E+003  0.2662824E+02  0.7546771E-02  0.1451379E+00
          2   -1    0    0  502    0  0.00000000000E+00  0.00000000000E+00  0.39585961104E+03  0.39585961104E+03  0.00000000000E+00 0. -1.
          2   -1    0    0  501    0 -0.00000000000E+00 -0.00000000000E+00 -0.15712941572E+03  0.15712941572E+03  0.00000000000E+00 0.  1.
          2    1    1    2  501    0  0.23824078962E+02 -0.11894388574E+02  0.39427914270E+03  0.39517730905E+03  0.00000000000E+00 0. -1.
          2    1    1    2  502    0 -0.23824078962E+02  0.11894388574E+02 -0.15554894738E+03  0.15781171772E+03  0.00000000000E+00 0.  1.
</event>
<event>
 4    1  0.8104768E+003  0.3213400E+02  0.7546771E-02  0.1401915E+00
          2   -1    0    0  501    0  0.00000000000E+00  0.00000000000E+00  0.81149481409E+02  0.81149481409E+02  0.00000000000E+00 0.  1.
          2   -1    0    0  502    0 -0.00000000000E+00 -0.00000000000E+00 -0.15265413717E+02  0.15265413717E+02  0.00000000000E+00 0. -1.
          2    1    1    2  501    0  0.12639034662E+02 -0.29544017581E+02  0.13274640329E+02  0.34767948571E+02  0.00000000000E+00 0. -1.
          2    1    1    2  502    0 -0.12639034662E+02  0.29544017581E+02  0.52609427363E+02  0.61646946554E+02  0.00000000000E+00 0.  1.
</event>
<event>
 4    1  0.8104768E+003  0.2697580E+02  0.7546771E-02  0.1447851E+00
          2   -1    0    0  502    0  0.00000000000E+00  0.00000000000E+00  0.15650117511E+03  0.15650117511E+03  0.00000000000E+00 0. -1.
          2   -1    0    0  501    0 -0.00000000000E+00 -0.00000000000E+00 -0.30150308617E+02  0.30150308617E+02  0.00000000000E+00 0.  1.
          2    1    1    2  501    0  0.25389638374E+02  0.91137360242E+01  0.14900368700E+03  0.15142586523E+03  0.00000000000E+00 0. -1.
          2    1    1    2  502    0 -0.25389638374E+02 -0.91137360242E+01 -0.22652820511E+02  0.35225618493E+02  0.00000000000E+00 0.  1.
</event>
<event>
 4    1  0.8104768E+003  0.2554681E+02  0.7546771E-02  0.1462778E+00
          2   -1    0    0  501    0  0.00000000000E+00  0.00000000000E+00  0.18482005222E+04  0.18482005222E+04  0.00000000000E+00 0.  1.
          2   -1    0    0  502    0 -0.00000000000E+00 -0.00000000000E+00 -0.36637461649E+01  0.36637461649E+01  0.00000000000E+00 0. -1.
          2    1    1    2  501    0  0.19490360170E+02 -0.16515615552E+02  0.42088524834E+02  0.49234983694E+02  0.00000000000E+00 0. -1.
          2    1    1    2  502    0 -0.19490360170E+02  0.16515615552E+02  0.18024482512E+04  0.18026292847E+04  0.00000000000E+00 0.  1.
</event>
<event>
 4    1  0.8104768E+003  0.2945561E+02  0.7546771E-02  0.1424387E+00
          2   -1    0    0  501    0  0.00000000000E+00  0.00000000000E+00  0.17064284319E+02  0.17064284319E+02  0.00000000000E+00 0.  1.
          2   -1    0    0  502    0 -0.00000000000E+00 -0.00000000000E+00 -0.53535805459E+03  0.53535805459E+03  0.00000000000E+00 0. -1.
          2    1    1    2  501    0  0.59430469944E+01  0.28849841900E+02 -0.52191448658E+03  0.52274502818E+03  0.00000000000E+00 0. -1.
          2    1    1    2  502    0 -0.59430469944E+01 -0.28849841900E+02  0.36207163132E+01  0.29677310725E+02  0.00000000000E+00 0.  1.
</event>
<event>
 4    1  0.8104768E+003  0.2014305E+02  0.7546771E-02  0.1531860E+00
          2   -1    0    0  501    0  0.00000000000E+00  0.00000000000E+00  0.43628877252E+02  0.43628877252E+02  0.00000000000E+00 0.  1.
          2   -1    0    0  502    0 -0.00000000000E+00 -0.00000000000E+00 -0.54710322909E+03  0.54710322909E+03  0.00000000000E+00 0.  1.
          2    1    1    2  501    0  0.68716991011E+01  0.18934686425E+02 -0.54458209859E+03  0.54495449783E+03  0.00000000000E+00 0.  1.
          2    1    1    2  502    0 -0.68716991011E+01 -0.18934686425E+02  0.41107746750E+02  0.45777608516E+02  0.00000000000E+00 0.  1.
</event>
<event>
 4    1  0.8104768E+003  0.2964297E+02  0.7546771E-02  0.1422725E+00
          2   -1    0    0  502    0  0.00000000000E+00  0.00000000000E+00  0.10726186162E+03  0.10726186162E+03  0.00000000000E+00 0.  1.
          2   -1    0    0  501    0 -0.00000000000E+00 -0.00000000000E+00 -0.80153417440E+03  0.80153417440E+03  0.00000000000E+00 0.  1.
          2    1    1    2  501    0 -0.28414815924E+02 -0.84441734976E+01  0.10493378896E+03  0.10904038653E+03  0.00000000000E+00 0.  1.
          2    1    1    2  502    0  0.28414815924E+02  0.84441734976E+01 -0.79920610174E+03  0.79975564949E+03  0.00000000000E+00 0.  1.
</event>
<event>
 4    1  0.8104768E+003  0.2625694E+02  0.7546771E-02  0.1455218E+00
          2   -1    0    0  501    0  0.00000000000E+00  0.00000000000E+00  0.76146524959E+03  0.76146524959E+03  0.00000000000E+00 0.  1.
          2   -1    0    0  502    0 -0.00000000000E+00 -0.00000000000E+00 -0.31609787229E+01  0.31609787229E+01  0.00000000000E+00 0.  1.
          2    1    1    2  501    0 -0.14004200674E+02 -0.22210567105E+02  0.56200213974E+02  0.62031370921E+02  0.00000000000E+00 0.  1.
          2    1    1    2  502    0  0.14004200674E+02  0.22210567105E+02  0.70210405689E+03  0.70259485739E+03  0.00000000000E+00 0.  1.
</event>
<event>
 4    1  0.8104768E+003  0.2649521E+02  0.7546771E-02  0.1452746E+00
          2   -1    0    0  502    0  0.00000000000E+00  0.00000000000E+00  0.12045073863E+04  0.12045073863E+04  0.00000000000E+00 0. -1.
          2   -1    0    0  501    0 -0.00000000000E+00 -0.00000000000E+00 -0.79635723369E+01  0.79635723369E+01  0.00000000000E+00 0.  1.
          2    1    1    2  501    0 -0.74134043669E+01 -0.25436933391E+02  0.11819025201E+04  0.11821994600E+04  0.00000000000E+00 0. -1.
          2    1    1    2  502    0  0.74134043669E+01  0.25436933391E+02  0.14641293843E+02  0.30271498642E+02  0.00000000000E+00 0.  1.
</event>
<event>
 4    1  0.8104768E+003  0.3507499E+02  0.7546771E-02  0.1380037E+00
          2   -1    0    0  502    0  0.00000000000E+00  0.00000000000E+00  0.38976260551E+03  0.38976260551E+03  0.00000000000E+00 0.  1.
          2   -1    0    0  501    0 -0.00000000000E+00 -0.00000000000E+00 -0.39716624260E+02  0.39716624260E+02  0.00000000000E+00 0.  1.
          2    1    1    2  501    0  0.35058965039E+02 -0.10600386981E+01  0.38105291780E+03  0.38266379614E+03  0.00000000000E+00 0.  1.
          2    1    1    2  502    0 -0.35058965039E+02  0.10600386981E+01 -0.31006936551E+02  0.46815433630E+02  0.00000000000E+00 0.  1.
</event>
<event>
 4    1  0.8104768E+003  0.4289577E+02  0.7546771E-02  0.1332304E+00
          2   -1    0    0  501    0  0.00000000000E+00  0.00000000000E+00  0.31585139628E+03  0.31585139628E+03  0.00000000000E+00 0. -1.
          2   -1    0    0  502    0 -0.00000000000E+00 -0.00000000000E+00 -0.82819998601E+01  0.82819998601E+01  0.00000000000E+00 0. -1.
          2    1    1    2  501    0 -0.67687517687E+01  0.42358368914E+02  0.65523641518E+02  0.78315994633E+02  0.00000000000E+00 0. -1.
          2    1    1    2  502    0  0.67687517687E+01 -0.42358368914E+02  0.24204575490E+03  0.24581740151E+03  0.00000000000E+00 0. -1.
</event>
<event>
 4    1  0.8104768E+003  0.2097524E+02  0.7546771E-02  0.1519619E+00
          2   -1    0    0  502    0  0.00000000000E+00  0.00000000000E+00  0.82708750542E+02  0.82708750542E+02  0.00000000000E+00 0.  1.
          2   -1    0    0  501    0 -0.00000000000E+00 -0.00000000000E+00 -0.73467423499E+01  0.73467423499E+01  0.00000000000E+00 0. -1.
          2    1    1    2  501    0  0.54769400300E+01  0.20247567638E+02  0.61334559611E+02  0.64821979838E+02  0.00000000000E+00 0.  1.
          2    1    1    2  502    0 -0.54769400300E+01 -0.20247567638E+02  0.14027448581E+02  0.25233513054E+02  0.00000000000E+00 0. -1.
</event>
<event>
 4    1  0.8104768E+003  0.2377845E+02  0.7546771E-02  0.1482948E+00
          2   -1    0    0  502    0  0.00000000000E+00  0.00000000000E+00  0.14352463692E+03  0.14352463692E+03  0.00000000000E+00 0.  1.
          2   -1    0    0  501    0 -0.00000000000E+00 -0.00000000000E+00 -0.30037837372E+03  0.30037837372E+03  0.00000000000E+00 0.  1.
          2    1    1    2  501    0  0.16318136482E+02  0.17295460022E+02  0.14206437439E+03  0.14404062269E+03  0.00000000000E+00 0.  1.
          2    1    1    2  502    0 -0.16318136482E+02 -0.17295460022E+02 -0.29891811118E+03  0.29986238795E+03  0.00000000000E+00 0.  1.
</event>
<event>
 4    1  0.8104768E+003  0.2282814E+02  0.7546771E-02  0.1494668E+00
          2   -1    0    0  502    0  0.00000000000E+00  0.00000000000E+00  0.92511945538E+02  0.92511945538E+02  0.00000000000E+00 0.  1.
          2   -1    0    0  501    0 -0.00000000000E+00 -0.00000000000E+00 -0.17245041994E+02  0.17245041994E+02  0.00000000000E+00 0.  1.
          2    1    1    2  501    0  0.21516971335E+02 -0.76252221013E+01  0.82665685406E+02  0.85759778516E+02  0.00000000000E+00 0.  1.
          2    1    1    2  502    0 -0.21516971335E+02  0.76252221013E+01 -0.73987818622E+01  0.23997209016E+02  0.00000000000E+00 0.  1.
</event>
<event>
 4    1  0.8104768E+003  0.2460793E+02  0.7546771E-02  0.1473238E+00
          2   -1    0    0  501    0  0.00000000000E+00  0.00000000000E+00  0.13446207014E+04  0.13446207014E+04  0.00000000000E+00 0. -1.
          2   -1    0    0  502    0 -0.00000000000E+00 -0.00000000000E+00 -0.73364356168E+01  0.73364356168E+01  0.00000000000E+00 0.  1.
          2    1    1    2  501    0  0.70858103346E+01 -0.23565682278E+02  0.13739740090E+02  0.28183870335E+02  0.00000000000E+00 0.  1.
          2    1    1    2  502    0 -0.70858103346E+01  0.23565682278E+02  0.13235445257E+04  0.13237732667E+04  0.00000000000E+00 0. -1.
</event>
<event>
 4    1  0.8104768E+003  0.2313705E+02  0.7546771E-02  0.1490784E+00
          2   -1    0    0  502    0  0.00000000000E+00  0.00000000000E+00  0.43648911571E+02  0.43648911571E+02  0.00000000000E+00 0. -1.
          2   -1    0    0  501    0 -0.00000000000E+00 -0.00000000000E+00 -0.39504522866E+02  0.39504522866E+02  0.00000000000E+00 0. -1.
          2    1    1    2  501    0 -0.17709585528E+02  0.14889382314E+02  0.36597072452E+02  0.43297446083E+02  0.00000000000E+00 0. -1.
          2    1    1    2  502    0  0.17709585528E+02 -0.14889382314E+02 -0.32452683747E+02  0.39855988354E+02  0.00000000000E+00 0. -1.
</event>
<event>
 4    1  0.8104768E+003  0.3532206E+02  0.7546771E-02  0.1378313E+00
          2   -1    0    0  501    0  0.00000000000E+00  0.00000000000E+00  0.74174440076E+01  0.74174440076E+01  0.00000000000E+00 0. -1.
          2   -1    0    0  502    0 -0.00000000000E+00 -0.00000000000E+00 -0.13277121242E+04  0.13277121242E+04  0.00000000000E+00 0. -1.
          2    1    1    2  501    0 -0.11288528366E+02 -0.33469648434E+02 -0.12839945577E+04  0.12844803122E+04  0.00000000000E+00 0. -1.
          2    1    1    2  502    0  0.11288528366E+02  0.33469648434E+02 -0.36300122433E+02  0.50649255943E+02  0.00000000000E+00 0. -1.
</event>
<event>
 4    1  0.8104768E+003  0.4064717E+02  0.7546771E-02  0.1344735E+00
          2   -1    0    0  501    0  0.00000000000E+00  0.00000000000E+00  0.81091438505E+01  0.81091438505E+01  0.00000000000E+00 0.  1.
          2   -1    0    0  502    0 -0.00000000000E+00 -0.00000000000E+00 -0.12356769394E+04  0.12356769394E+04  0.00000000000E+00 0.  1.
          2    1    1    2  501    0 -0.24251960538E+02 -0.32619543422E+02 -0.11820986005E+04  0.11827972326E+04  0.00000000000E+00 0.  1.
          2    1    1    2  502    0  0.24251960538E+02  0.32619543422E+02 -0.45469195079E+02  0.60988850654E+02  0.00000000000E+00 0.  1.
</event>
<event>
 4    1  0.8104768E+003  0.2256834E+02  0.7546771E-02  0.1497991E+00
          2   -1    0    0  502    0  0.00000000000E+00  0.00000000000E+00  0.48080472463E+02  0.48080472463E+02  0.00000000000E+00 0.  1.
          2   -1    0    0  501    0 -0.00000000000E+00 -0.00000000000E+00 -0.45361896840E+03  0.45361896840E+03  0.00000000000E+00 0.  1.
          2    1    1    2  501    0 -0.21422886072E+02  0.70985716462E+01  0.45134146812E+02  0.50462074626E+02  0.00000000000E+00 0.  1.
          2    1    1    2  502    0  0.21422886072E+02 -0.70985716462E+01 -0.45067264275E+03  0.45123736623E+03  0.00000000000E+00 0.  1.
</event>
<event>
 4    1  0.8104768E+003  0.3400267E+02  0.7546771E-02  0.1387713E+00
          2   -1    0    0  501    0  0.00000000000E+00  0.00000000000E+00  0.39229877895E+01  0.39229877895E+01  0.00000000000E+00 0.  1.
          2   -1    0    0  502    0 -0.00000000000E+00 -0.00000000000E+00 -0.52244352654E+03  0.52244352654E+03  0.00000000000E+00 0.  1.
          2    1    1    2  501    0 -0.31780393420E+02  0.12090841657E+02 -0.43301746550E+03  0.43435044294E+03  0.00000000000E+00 0.  1.
          2    1    1    2  502    0  0.31780393420E+02 -0.12090841657E+02 -0.85503073251E+02  0.92016071386E+02  0.00000000000E+00 0.  1.
</event>
<event>
 4    1  0.8104768E+003  0.4147664E+02  0.7546771E-02  0.1340043E+00
          2   -1    0    0  502    0  0.00000000000E+00  0.00000000000E+00  0.12049014724E+03  0.12049014724E+03  0.00000000000E+00 0.  1.
          2   -1    0    0  501    0 -0.00000000000E+00 -0.00000000000E+00 -0.39540662420E+03  0.39540662420E+03  0.00000000000E+00 0.  1.
          2    1    1    2  501    0 -0.26258847786E+02 -0.32105829785E+02  0.11579024272E+03  0.12299468160E+03  0.00000000000E+00 0.  1.
          2    1    1    2  502    0  0.26258847786E+02  0.32105829785E+02 -0.39070671968E+03  0.39290208983E+03  0.00000000000E+00 0.  1.
</event>
<event>
 4    1  0.8104768E+003  0.2964320E+02  0.7546771E-02  0.1422723E+00
          2   -1    0    0  501    0  0.00000000000E+00  0.00000000000E+00  0.78106830884E+03  0.78106830884E+03  0.00000000000E+00 0.  1.
          2   -1    0    0  502    0 -0.00000000000E+00 -0.00000000000E+00 -0.19303888147E+03  0.19303888147E+03  0.00000000000E+00 0.  1.
          2    1    1    2  501    0 -0.16972905526E+02  0.24303077948E+02 -0.19161754410E+03  0.19389688581E+03  0.00000000000E+00 0.  1.
          2    1    1    2  502    0  0.16972905526E+02 -0.24303077948E+02  0.77964697148E+03  0.78021030450E+03  0.00000000000E+00 0.  1.
</event>
<event>
 4    1  0.1822867E+004  0.3184887E+02  0.7546771E-02  0.1404182E+00
          2   -1    0    0  502    0  0.00000000000E+00  0.00000000000E+00  0.93550701361E+03  0.93550701361E+03  0.00000000000E+00 0.  1.
          2   -1    0    0  501    0 -0.00000000000E+00 -0.00000000000E+00 -0.11887653575E+04  0.11887653575E+04  0.00000000000E+00 0. -1.
          2    1    1    2  501    0 -0.34396949022E+01 -0.31662581945E+02  0.93502251317E+03  0.93556477635E+03  0.00000000000E+00 0.  1.
          2    1    1    2  502    0  0.34396949022E+01  0.31662581945E+02 -0.11882808571E+04  0.11887075948E+04  0.00000000000E+00 0. -1.
</event>
<event>
 4    1  0.8104768E+003  0.2167860E+02  0.7546771E-02  0.1509793E+00
          2   -1    0    0  502    0  0.00000000000E+00  0.00000000000E+00  0.11092614145E+04  0.11092614145E+04  0.00000000000E+00 0.  1.
          2   -1    0    0  501    0 -0.00000000000E+00 -0.00000000000E+00 -0.65872579364E+00  0.65872579364E+00  0.00000000000E+00 0.  1.
          2    1    1    2  501    0  0.90893200648E+01 -0.19681108547E+02  0.88580937827E+03  0.88607461108E+03  0.00000000000E+00 0.  1.
          2    1    1    2  502    0 -0.90893200648E+01  0.19681108547E+02  0.22279331044E+03  0.22384552922E+03  0.00000000000E+00 0.  1.
</event>
<event>
 4    1  0.8104768E+003  0.3211849E+02  0.7546771E-02  0.1402038E+00
          2   -1    0    0  501    0  0.00000000000E+00  0.00000000000E+00  0.52290257504E+01  0.52290257504E+01  0.00000000000E+00 0.  1.
          2   -1    0    0  502    0 -0.00000000000E+00 -0.00000000000E+00 -0.61959839606E+03  0.61959839606E+03  0.00000000000E+00 0.  1.
          2    1    1    2  501    0  0.17773549535E+02  0.26752544520E+02 -0.56510967292E+03  0.56602167814E+03  0.00000000000E+00 0.  1.
          2    1    1    2  502    0 -0.17773549535E+02 -0.26752544520E+02 -0.49259697396E+02  0.58805743673E+02  0.00000000000E+00 0.  1.
</event>
<event>
 4    1  0.8104768E+003  0.2039159E+02  0.7546771E-02  0.1528131E+00
          2   -1    0    0  502    0  0.00000000000E+00  0.00000000000E+00  0.73111998050E+02  0.73111998050E+02  0.00000000000E+00 0. -1.
          2   -1    0    0  501    0 -0.00000000000E+00 -0.00000000000E+00 -0.71481452083E+01  0.71481452083E+01  0.00000000000E+00 0. -1.
          2    1    1    2  501    0  0.20302791853E+02 -0.19009047164E+01  0.51122928102E+02  0.55039718145E+02  0.00000000000E+00 0. -1.
          2    1    1    2  502    0 -0.20302791853E+02  0.19009047164E+01  0.14840924740E+02  0.25220425114E+02  0.00000000000E+00 0. -1.
</event>
<event>
 4    1  0.8104768E+003  0.2439939E+02  0.7546771E-02  0.1475636E+00
          2   -1    0    0  501    0  0.00000000000E+00  0.00000000000E+00  0.14731327604E+03  0.14731327604E+03  0.00000000000E+00 0.  1.
          2   -1    0    0  502    0 -0.00000000000E+00 -0.00000000000E+00 -0.16750824815E+03  0.16750824815E+03  0.00000000000E+00 0. -1.
          2    1    1    2  501    0  0.24265887603E+02 -0.25489085102E+01 -0.16559783316E+03  0.16738570005E+03  0.00000000000E+00 0. -1.
          2    1    1    2  502    0 -0.24265887603E+02  0.25489085102E+01  0.14540286105E+03  0.14743582413E+03  0.00000000000E+00 0.  1.
</event>
<event>
 4    1  0.8104768E+003  0.4144311E+02  0.7546771E-02  0.1340231E+00
          2   -1    0    0  502    0  0.00000000000E+00  0.00000000000E+00  0.10718923165E+04  0.10718923165E+04  0.00000000000E+00 0. -1.
          2   -1    0    0  501    0 -0.00000000000E+00 -0.00000000000E+00 -0.18936105601E+02  0.18936105601E+02  0.00000000000E+00 0.  1.
          2    1    1    2  501    0  0.39160065670E+02  0.13565409558E+02  0.10483064106E+04  0.10491252841E+04  0.00000000000E+00 0. -1.
          2    1    1    2  502    0 -0.39160065670E+02 -0.13565409558E+02  0.46498002636E+01  0.41703138038E+02  0.00000000000E+00 0.  1.
</event>
<event>
 4    1  0.8104768E+003  0.2172568E+02  0.7546771E-02  0.1509151E+00
          2   -1    0    0  502    0  0.00000000000E+00  0.00000000000E+00  0.15400374526E+03  0.15400374526E+03  0.00000000000E+00 0.  1.
          2   -1    0    0  501    0 -0.00000000000E+00 -0.00000000000E+00 -0.55996767264E+03  0.55996767264E+03  0.00000000000E+00 0.  1.
          2    1    1    2  501    0 -0.16463061441E+02  0.14176489422E+02  0.15302545235E+03  0.15456000230E+03  0.00000000000E+00 0.  1.
          2    1    1    2  502    0  0.16463061441E+02 -0.14176489422E+02 -0.55898937973E+03  0.55941141559E+03  0.00000000000E+00 0.  1.
</event>
<event>
 4    1  0.8104768E+003  0.3196484E+02  0.7546771E-02  0.1403257E+00
          2   -1    0    0  501    0  0.00000000000E+00  0.00000000000E+00  0.16308995966E+02  0.16308995966E+02  0.00000000000E+00 0.  1.
          2   -1    0    0  502    0 -0.00000000000E+00 -0.00000000000E+00 -0.10333641962E+03  0.10333641962E+03  0.00000000000E+00 0. -1.
          2    1    1    2  501    0  0.94174540247E+01 -0.30546067588E+02 -0.81051327875E+02  0.87126737778E+02  0.00000000000E+00 0. -1.
          2    1    1    2  502    0 -0.94174540247E+01  0.30546067588E+02 -0.59760957746E+01  0.32518677804E+02  0.00000000000E+00 0.  1.
</event>
<event>
 4    1  0.8104768E+003  0.3795288E+02  0.7546771E-02  0.1360918E+00
          2   -1    0    0  501    0  0.00000000000E+00  0.00000000000E+00  0.19245819157E+04  0.19245819157E+04  0.00000000000E+00 0.  1.
          2   -1    0    0  502    0 -0.00000000000E+00 -0.00000000000E+00 -0.38319553279E+01  0.38319553279E+01  0.00000000000E+00 0.  1.
          2    1    1    2  501    0  0.37924335757E+02  0.14717904887E+01  0.95439819632E+02  0.10270920398E+03  0.00000000000E+00 0.  1.
          2    1    1    2  502    0 -0.37924335757E+02 -0.14717904887E+01  0.18253101407E+04  0.18257046671E+04  0.00000000000E+00 0.  1.
</event>
<event>
 4    1  0.8104768E+003  0.2755314E+02  0.7546771E-02  0.1442130E+00
          2   -1    0    0  502    0  0.00000000000E+00  0.00000000000E+00  0.17162286945E+04  0.17162286945E+04  0.00000000000E+00 0. -1.
          2   -1    0    0  501    0 -0.00000000000E+00 -0.00000000000E+00 -0.53182806927E+02  0.53182806927E+02  0.00000000000E+00 0.  1.
          2    1    1    2  501    0  0.21603002729E+02  0.17102210432E+02  0.17125417175E+04  0.17127633548E+04  0.00000000000E+00 0. -1.
          2    1    1    2  502    0 -0.21603002729E+02 -0.17102210432E+02 -0.49495829969E+02  0.56648146597E+02  0.00000000000E+00 0.  1.
</event>
<event>
 4    1  0.8104768E+003  0.5819787E+02  0.7546771E-02  0.1266082E+00
          2   -1    0    0  502    0  0.00000000000E+00  0.00000000000E+00  0.33011642463E+02  0.33011642463E+02  0.00000000000E+00 0. -1.
          2   -1    0    0  501    0 -0.00000000000E+00 -0.00000000000E+00 -0.28608626154E+04  0.28608626154E+04  0.00000000000E+00 0. -1.
          2    1    1    2  501    0 -0.57154932164E+02 -0.10968413319E+02  0.68287881487E+01  0.58597139085E+02  0.00000000000E+00 0. -1.
          2    1    1    2  502    0  0.57154932164E+02  0.10968413319E+02 -0.28346797611E+04  0.28352771188E+04  0.00000000000E+00 0. -1.
</event>
<event>
 4    1  0.8104768E+003  0.4166634E+02  0.7546771E-02  0.1338988E+00
          2   -1    0    0  502    0  0.00000000000E+00  0.00000000000E+00  0.57688740482E+03  0.57688740482E+03  0.00000000000E+00 0.  1.
          2   -1    0    0  501    0 -0.00000000000E+00 -0.00000000000E+00 -0.88383828558E+02  0.88383828558E+02  0.00000000000E+00 0.  1.
          2    1    1    2  501    0 -0.11920990233E+02 -0.39924607396E+02  0.57117537254E+03  0.57269310322E+03  0.00000000000E+00 0.  1.
          2    1    1    2  502    0  0.11920990233E+02  0.39924607396E+02 -0.82671796276E+02  0.92578130157E+02  0.00000000000E+00 0.  1.
</event>
<event>
 4    1  0.8104768E+003  0.4469243E+02  0.7546771E-02  0.1322985E+00
          2   -1    0    0  502    0  0.00000000000E+00  0.00000000000E+00  0.46963099384E+03  0.46963099384E+03  0.00000000000E+00 0.  1.
          2   -1    0    0  501    0 -0.00000000000E+00 -0.00000000000E+00 -0.58953326673E+02  0.58953326673E+02  0.00000000000E+00 0.  1.
          2    1    1    2  501    0  0.41237417528E+02  0.17230446765E+02  0.45991894447E+03  0.46208532587E+03  0.00000000000E+00 0.  1.
          2    1    1    2  502    0 -0.41237417528E+02 -0.17230446765E+02 -0.49241277296E+02  0.66498994652E+02  0.00000000000E+00 0.  1.
</event>
<event>
 4    1  0.8771337E+003  0.2579984E+02  0.7546771E-02  0.1460051E+00
          2   -1    0    0  502    0  0.00000000000E+00  0.00000000000E+00  0.51218699242E+03  0.51218699242E+03  0.00000000000E+00 0.  1.
          2   -1    0    0  501    0 -0.00000000000E+00 -0.00000000000E+00 -0.48307204179E+03  0.48307204179E+03  0.00000000000E+00 0.  1.
          2    1    1    2  501    0  0.15996962860E+02  0.20241755829E+02  0.51151716651E+03  0.51216739757E+03  0.00000000000E+00 0.  1.
          2    1    1    2  502    0 -0.15996962860E+02 -0.20241755829E+02 -0.48240221588E+03  0.48309163663E+03  0.00000000000E+00 0.  1.
</event>
<event>
 4    1  0.8104768E+003  0.2524392E+02  0.7546771E-02  0.1466093E+00
          2   -1    0    0  501    0  0.00000000000E+00  0.00000000000E+00  0.13706318442E+04  0.13706318442E+04  0.00000000000E+00 0. -1.
          2   -1    0    0  502    0 -0.00000000000E+00 -0.00000000000E+00 -0.47936248768E+01  0.47936248768E+01  0.00000000000E+00 0.  1.
          2    1    1    2  501    0  0.85804436022E+00 -0.25229336357E+02  0.29407592812E+02  0.38756446794E+02  0.00000000000E+00 0.  1.
          2    1    1    2  502    0 -0.85804436022E+00  0.25229336357E+02  0.13364306265E+04  0.13366690223E+04  0.00000000000E+00 0. -1.
</event>
<event>
 4    1  0.8104768E+003  0.2896459E+02  0.7546771E-02  0.1428812E+00
          2   -1    0    0  502    0  0.00000000000E+00  0.00000000000E+00  0.32956350071E+01  0.32956350071E+01  0.00000000000E+00 0.  1.
          2   -1    0    0  501    0 -0.00000000000E+00 -0.00000000000E+00 -0.58266775627E+03  0.58266775627E+03  0.00000000000E+00 0. -1.
          2    1    1    2  501    0 -0.11521821299E+02 -0.26574335894E+02 -0.50954091820E+03  0.51036349303E+03  0.00000000000E+00 0. -1.
          2    1    1    2  502    0  0.11521821299E+02  0.26574335894E+02 -0.69831203060E+02  0.75599898247E+02  0.00000000000E+00 0.  1.
</event>
<event>
 4    1  0.8104768E+003  0.2748903E+02  0.7546771E-02  0.1442757E+00
          2   -1    0    0  501    0  0.00000000000E+00  0.00000000000E+00  0.85735597384E+02  0.85735597384E+02  0.00000000000E+00 0. -1.
          2   -1    0    0  502    0 -0.00000000000E+00 -0.00000000000E+00 -0.32458321366E+02  0.32458321366E+02  0.00000000000E+00 0.  1.
          2    1    1    2  501    0  0.27455582041E+02  0.13555742350E+01 -0.23800589449E+02  0.36360894170E+02  0.00000000000E+00 0.  1.
          2    1    1    2  502    0 -0.27455582041E+02 -0.13555742350E+01  0.77077865467E+02  0.81833024579E+02  0.00000000000E+00 0. -1.
</event>
<event>
 4    1  0.8104768E+003  0.2036387E+02  0.7546771E-02  0.1528544E+00
          2   -1    0    0  501    0  0.00000000000E+00  0.00000000000E+00  0.55351156116E+03  0.55351156116E+03  0.00000000000E+00 0.  1.
          2   -1    0    0  502    0 -0.00000000000E+00 -0.00000000000E+00 -0.33281769835E+02  0.33281769835E+02  0.00000000000E+00 0. -1.
          2    1    1    2  501    0  0.17630519248E+01 -0.20287401822E+02 -0.29960704130E+02  0.36226106839E+02  0.00000000000E+00 0. -1.
          2    1    1    2  502    0 -0.17630519248E+01  0.20287401822E+02  0.55019049545E+03  0.55056722415E+03  0.00000000000E+00 0.  1.
</event>
<event>
 4    1  0.8104768E+003  0.2709263E+02  0.7546771E-02  0.1446680E+00
          2   -1    0    0  502    0  0.00000000000E+00  0.00000000000E+00  0.10315979381E+04  0.10315979381E+04  0.00000000000E+00 0. -1.
          2   -1    0    0  501    0 -0.00000000000E+00 -0.00000000000E+00 -0.25352750303E+02  0.25352750303E+02  0.00000000000E+00 0.  1.
          2    1    1    2  501    0  0.35433791822E+00  0.27090309585E+02  0.10241293050E+04  0.10244876006E+04  0.00000000000E+00 0. -1.
          2    1    1    2  502    0 -0.35433791822E+00 -0.27090309585E+02 -0.17884117129E+02  0.32463087873E+02  0.00000000000E+00 0.  1.
</event>
<event>
 4    1  0.8104768E+003  0.2056233E+02  0.7546771E-02  0.1525606E+00
          2   -1    0    0  502    0  0.00000000000E+00  0.00000000000E+00  0.51504760675E+03  0.51504760675E+03  0.00000000000E+00 0. -1.
          2   -1    0    0  501    0 -0.00000000000E+00 -0.00000000000E+00 -0.39424134611E+01  0.39424134611E+01  0.00000000000E+00 0.  1.
          2    1    1    2  501    0  0.17164617336E+00 -0.20561610217E+02  0.48645562464E+03  0.48689001224E+03  0.00000000000E+00 0. -1.
          2    1    1    2  502    0 -0.17164617336E+00  0.20561610217E+02  0.24649568655E+02  0.32100007975E+02  0.00000000000E+00 0.  1.
</event>
<event>
 4    1  0.8104768E+003  0.2878710E+02  0.7546771E-02  0.1430438E+00
          2   -1    0    0  501    0  0.00000000000E+00  0.00000000000E+00  0.77484150743E+03  0.77484150743E+03  0.00000000000E+00 0.  1.
          2   -1    0    0  502    0 -0.00000000000E+00 -0.00000000000E+00 -0.39428625786E+02  0.39428625786E+02  0.00000000000E+00 0. -1.
          2    1    1    2  501    0  0.22943632811E+02  0.17386398279E+02 -0.33868875083E+02  0.44449947481E+02  0.00000000000E+00 0. -1.
          2    1    1    2  502    0 -0.22943632811E+02 -0.17386398279E+02  0.76928175673E+03  0.76982018574E+03  0.00000000000E+00 0.  1.
</event>
<event>
 4    1  0.8104768E+003  0.3992900E+02  0.7546771E-02  0.1348902E+00
          2   -1    0    0  502    0  0.00000000000E+00  0.00000000000E+00  0.10695600538E+02  0.10695600538E+02  0.00000000000E+00 0.  1.
          2   -1    0    0  501    0 -0.00000000000E+00 -0.00000000000E+00 -0.16454492114E+03  0.16454492114E+03  0.00000000000E+00 0. -1.
          2    1    1    2  501    0 -0.39877346399E+02 -0.20304106876E+01 -0.50048605386E+02  0.64024903159E+02  0.00000000000E+00 0.  1.
          2    1    1    2  502    0  0.39877346399E+02  0.20304106876E+01 -0.10380071522E+03  0.11121561852E+03  0.00000000000E+00 0. -1.
</event>
<event>
 4    1  0.8104768E+003  0.2742535E+02  0.7546771E-02  0.1443382E+00
          2   -1    0    0  502    0  0.00000000000E+00  0.00000000000E+00  0.84824005905E+02  0.84824005905E+02  0.00000000000E+00 0. -1.
          2   -1    0    0  501    0 -0.00000000000E+00 -0.00000000000E+00 -0.10385192952E+02  0.10385192952E+02  0.00000000000E+00 0. -1.
          2    1    1    2  501    0 -0.23894661128E+02 -0.13460864372E+02  0.55419742948E+02  0.61834437076E+02  0.00000000000E+00 0. -1.
          2    1    1    2  502    0  0.23894661128E+02  0.13460864372E+02  0.19019070005E+02  0.33374761781E+02  0.00000000000E+00 0. -1.
</event>
<event>
 4    1  0.8104768E+003  0.2469817E+02  0.7546771E-02  0.1472208E+00
          2   -1    0    0  501    0  0.00000000000E+00  0.00000000000E+00  0.37137560527E+03  0.37137560527E+03  0.00000000000E+00 0. -1.
          2   -1    0    0  502    0 -0.00000000000E+00 -0.00000000000E+00 -0.38767934243E+03  0.38767934243E+03  0.00000000000E+00 0. -1.
          2    1    1    2  501    0  0.73509083186E+01  0.23578883894E+02 -0.38687448771E+03  0.38766205496E+03  0.00000000000E+00 0. -1.
          2    1    1    2  502    0 -0.73509083186E+01 -0.23578883894E+02  0.37057075055E+03  0.37139289274E+03  0.00000000000E+00 0. -1.
</event>
<event>
 4    1  0.8104768E+003  0.3467222E+02  0.7546771E-02  0.1382882E+00
          2   -1    0    0  501    0  0.00000000000E+00  0.00000000000E+00  0.85791889069E+03  0.85791889069E+03  0.00000000000E+00 0.  1.
          2   -1    0    0  502    0 -0.00000000000E+00 -0.00000000000E+00 -0.17777209281E+01  0.17777209281E+01  0.00000000000E+00 0.  1.
          2    1    1    2  501    0 -0.19545124356E+02 -0.28638273086E+02  0.23026131310E+03  0.23285711259E+03  0.00000000000E+00 0.  1.
          2    1    1    2  502    0  0.19545124356E+02  0.28638273086E+02  0.62587985666E+03  0.62683949903E+03  0.00000000000E+00 0.  1.
</event>
<event>
 4    1  0.8104768E+003  0.2070964E+02  0.7546771E-02  0.1523451E+00
          2   -1    0    0  502    0  0.00000000000E+00  0.00000000000E+00  0.11751668232E+01  0.11751668232E+01  0.00000000000E+00 0.  1.
          2   -1    0    0  501    0 -0.00000000000E+00 -0.00000000000E+00 -0.73849362251E+03  0.73849362251E+03  0.00000000000E+00 0. -1.
          2    1    1    2  501    0  0.59048486778E+01  0.19849984040E+02 -0.10563323760E+03  0.10764418233E+03  0.00000000000E+00 0.  1.
          2    1    1    2  502    0 -0.59048486778E+01 -0.19849984040E+02 -0.63168521809E+03  0.63202460701E+03  0.00000000000E+00 0. -1.
</event>
<event>
 4    1  0.8104768E+003  0.2043516E+02  0.7546771E-02  0.1527484E+00
          2   -1    0    0  502    0  0.00000000000E+00  0.00000000000E+00  0.17244872112E+03  0.17244872112E+03  0.00000000000E+00 0. -1.
          2   -1    0    0  501    0 -0.00000000000E+00 -0.00000000000E+00 -0.74131680722E+02  0.74131680722E+02  0.00000000000E+00 0. -1.
          2    1    1    2  501    0  0.26139756362E+01 -0.20267286653E+02  0.17041832056E+03  0.17163915567E+03  0.00000000000E+00 0. -1.
          2    1    1    2  502    0 -0.26139756362E+01  0.20267286653E+02 -0.72101280161E+02  0.74941246172E+02  0.00000000000E+00 0. -1.
</event>
<event>
 4    1  0.8104768E+003  0.2853058E+02  0.7546771E-02  0.1432811E+00
          2   -1    0    0  501    0  0.00000000000E+00  0.00000000000E+00  0.44369946089E+01  0.44369946089E+01  0.00000000000E+00 0.  1.
          2   -1    0    0  502    0 -0.00000000000E+00 -0.00000000000E+00 -0.79806425318E+03  0.79806425318E+03  0.00000000000E+00 0. -1.
          2    1    1    2  501    0 -0.26900883366E+02  0.95045350806E+01 -0.74893789242E+03  0.74948112746E+03  0.00000000000E+00 0. -1.
          2    1    1    2  502    0  0.26900883366E+02 -0.95045350806E+01 -0.44689366153E+02  0.53020120333E+02  0.00000000000E+00 0.  1.
</event>
<event>
 4    1  0.8104768E+003  0.2260146E+02  0.7546771E-02  0.1497564E+00
          2   -1    0    0  501    0  0.00000000000E+00  0.00000000000E+00  0.27633449152E+03  0.27633449152E+03  0.00000000000E+00 0. -1.
          2   -1    0    0  502    0 -0.00000000000E+00 -0.00000000000E+00 -0.29644289730E+01  0.29644289730E+01  0.00000000000E+00 0.  1.
          2    1    1    2  501    0  0.17309267415E+02 -0.14533239080E+02  0.51006523299E+02  0.55789705104E+02  0.00000000000E+00 0.  1.
          2    1    1    2  502    0 -0.17309267415E+02  0.14533239080E+02  0.22236353925E+03  0.22350921539E+03  0.00000000000E+00 0. -1.
</event>
<event>
 4    1  0.8104768E+003  0.2292037E+02  0.7546771E-02  0.1493500E+00
          2   -1    0    0  501    0  0.00000000000E+00  0.00000000000E+00  0.14472813369E+03  0.14472813369E+03  0.00000000000E+00 0.  1.
          2   -1    0    0  502    0 -0.00000000000E+00 -0.00000000000E+00 -0.46867849765E+02  0.46867849765E+02  0.00000000000E+00 0.  1.
          2    1    1    2  501    0  0.21658062478E+02 -0.75014452213E+01 -0.43083372836E+02  0.48800823412E+02  0.00000000000E+00 0.  1.
          2    1    1    2  502    0 -0.21658062478E+02  0.75014452213E+01  0.14094365676E+03  0.14279516005E+03  0.00000000000E+00 0.  1.
</event>
<event>
 4    1  0.8104768E+003  0.2054361E+02  0.7546771E-02  0.1525882E+00
          2   -1    0    0  501    0  0.00000000000E+00  0.00000000000E+00  0.84276806643E+03  0.84276806643E+03  0.00000000000E+00 0.  1.
          2   -1    0    0  502    0 -0.00000000000E+00 -0.00000000000E+00 -0.25369855786E+03  0.25369855786E+03  0.00000000000E+00 0. -1.
          2    1    1    2  501    0 -0.18161150732E+02  0.96027447339E+01 -0.25315720860E+03  0.25398939420E+03  0.00000000000E+00 0. -1.
          2    1    1    2  502    0  0.18161150732E+02 -0.96027447339E+01  0.84222671717E+03  0.84247723009E+03  0.00000000000E+00 0.  1.
</event>
<event>
 4    1  0.8104768E+003  0.3174971E+02  0.7546771E-02  0.1404977E+00
          2   -1    0    0  502    0  0.00000000000E+00  0.00000000000E+00  0.13606683368E+01  0.13606683368E+01  0.00000000000E+00 0. -1.
          2   -1    0    0  501    0 -0.00000000000E+00 -0.00000000000E+00 -0.15705166600E+04  0.15705166600E+04  0.00000000000E+00 0. -1.
          2    1    1    2  501    0 -0.21935031454E+02 -0.22954262645E+02 -0.21333535898E+03  0.21568499987E+03  0.00000000000E+00 0. -1.
          2    1    1    2  502    0  0.21935031454E+02  0.22954262645E+02 -0.13558206327E+04  0.13561923285E+04  0.00000000000E+00 0. -1.
</event>
<event>
 4    1  0.8104768E+003  0.2234973E+02  0.7546771E-02  0.1500829E+00
          2   -1    0    0  501    0  0.00000000000E+00  0.00000000000E+00  0.16733853536E+03  0.16733853536E+03  0.00000000000E+00 0.  1.
          2   -1    0    0  502    0 -0.00000000000E+00 -0.00000000000E+00 -0.15847946003E+02  0.15847946003E+02  0.00000000000E+00 0.  1.
          2    1    1    2  501    0  0.35183279876E+01  0.22071058160E+02 -0.67723230857E+01  0.23353256734E+02  0.00000000000E+00 0.  1.
          2    1    1    2  502    0 -0.35183279876E+01 -0.22071058160E+02  0.15826291244E+03  0.15983322463E+03  0.00000000000E+00 0.  1.
</event>
<event>
 4    1  0.8104768E+003  0.2064788E+02  0.7546771E-02  0.1524352E+00
          2   -1    0    0  502    0  0.00000000000E+00  0.00000000000E+00  0.12981939986E+04  0.12981939986E+04  0.00000000000E+00 0.  1.
          2   -1    0    0  501    0 -0.00000000000E+00 -0.00000000000E+00 -0.46250789165E+00  0.46250789165E+00  0.00000000000E+00 0.  1.
          2    1    1    2  501    0 -0.15010986399E+02  0.14177626424E+02  0.99850649841E+03  0.99871996183E+03  0.00000000000E+00 0.  1.
          2    1    1    2  502    0  0.15010986399E+02 -0.14177626424E+02  0.29922499228E+03  0.29993654464E+03  0.00000000000E+00 0.  1.
</event>
<event>
 4    1  0.8104768E+003  0.2789330E+02  0.7546771E-02  0.1438835E+00
          2   -1    0    0  502    0  0.00000000000E+00  0.00000000000E+00  0.32025690176E+03  0.32025690176E+03  0.00000000000E+00 0. -1.
          2   -1    0    0  501    0 -0.00000000000E+00 -0.00000000000E+00 -0.26764435949E+02  0.26764435949E+02  0.00000000000E+00 0. -1.
          2    1    1    2  501    0  0.10935640597E+02 -0.25660238450E+02  0.31219480456E+03  0.31343840235E+03  0.00000000000E+00 0. -1.
          2    1    1    2  502    0 -0.10935640597E+02  0.25660238450E+02 -0.18702338751E+02  0.33582935359E+02  0.00000000000E+00 0. -1.
</event>
<event>
 4    1  0.8104768E+003  0.2036795E+02  0.7546771E-02  0.1528483E+00
          2   -1    0    0  502    0  0.00000000000E+00  0.00000000000E+00  0.15419578031E+02  0.15419578031E+02  0.00000000000E+00 0. -1.
          2   -1    0    0  501    0 -0.00000000000E+00 -0.00000000000E+00 -0.31639150025E+03  0.31639150025E+03  0.00000000000E+00 0.  1.
          2    1    1    2  501    0  0.17441332956E+02 -0.10519186504E+02  0.82090026748E+01  0.21959988727E+02  0.00000000000E+00 0. -1.
          2    1    1    2  502    0 -0.17441332956E+02  0.10519186504E+02 -0.30918092489E+03  0.30985108955E+03  0.00000000000E+00 0.  1.
</event>
<event>
 4    1  0.8913880E+003  0.3106190E+02  0.7546771E-02  0.1410587E+00
          2   -1    0    0  501    0  0.00000000000E+00  0.00000000000E+00  0.45926752464E+03  0.45926752464E+03  0.00000000000E+00 0.  1.
          2   -1    0    0  502    0 -0.00000000000E+00 -0.00000000000E+00 -0.73074063732E+03  0.73074063732E+03  0.00000000000E+00 0. -1.
          2    1    1    2  501    0 -0.29537584086E+02  0.96110836981E+01 -0.72988472448E+03  0.73054538040E+03  0.00000000000E+00 0. -1.
          2    1    1    2  502    0  0.29537584086E+02 -0.96110836981E+01  0.45841161180E+03  0.45946278156E+03  0.00000000000E+00 0.  1.
</event>
<event>
 4    1  0.8104768E+003  0.1017162E+03  0.7546771E-02  0.1160867E+00
          2   -1    0    0  501    0  0.00000000000E+00  0.00000000000E+00  0.60916060433E+03  0.60916060433E+03  0.00000000000E+00 0.  1.
          2   -1    0    0  502    0 -0.00000000000E+00 -0.00000000000E+00 -0.16355855633E+03  0.16355855633E+03  0.00000000000E+00 0. -1.
          2    1    1    2  501    0  0.14004443593E+02  0.10074755460E+03 -0.14294855391E+03  0.17544367548E+03  0.00000000000E+00 0. -1.
          2    1    1    2  502    0 -0.14004443593E+02 -0.10074755460E+03  0.58855060191E+03  0.59727548518E+03  0.00000000000E+00 0.  1.
</event>
<event>
 4    1  0.8104768E+003  0.3384308E+02  0.7546771E-02  0.1388884E+00
          2   -1    0    0  501    0  0.00000000000E+00  0.00000000000E+00  0.71532552393E+02  0.71532552393E+02  0.00000000000E+00 0. -1.
          2   -1    0    0  502    0 -0.00000000000E+00 -0.00000000000E+00 -0.56925748724E+03  0.56925748724E+03  0.00000000000E+00 0. -1.
          2    1    1    2  501    0  0.30527412012E+02  0.14609276179E+02 -0.56471943425E+03  0.56573261639E+03  0.00000000000E+00 0. -1.
          2    1    1    2  502    0 -0.30527412012E+02 -0.14609276179E+02  0.66994499397E+02  0.75057423244E+02  0.00000000000E+00 0. -1.
</event>
<event>
 4    1  0.8104768E+003  0.5501195E+02  0.7546771E-02  0.1277792E+00
          2   -1    0    0  502    0  0.00000000000E+00  0.00000000000E+00  0.25405822588E+01  0.25405822588E+01  0.00000000000E+00 0.  1.
          2   -1    0    0  501    0 -0.00000000000E+00 -0.00000000000E+00 -0.12116897089E+04  0.12116897089E+04  0.00000000000E+00 0.  1.
          2    1    1    2  501    0 -0.38714811488E+02  0.39082964231E+02 -0.68354331794E+03  0.68575344127E+03  0.00000000000E+00 0.  1.
          2    1    1    2  502    0  0.38714811488E+02 -0.39082964231E+02 -0.52560580872E+03  0.52847684990E+03  0.00000000000E+00 0.  1.
</event>
<event>
 4    1  0.8104768E+003  0.2073957E+02  0.7546771E-02  0.1523016E+00
          2   -1    0    0  502    0  0.00000000000E+00  0.00000000000E+00  0.63910775691E+01  0.63910775691E+01  0.00000000000E+00 0. -1.
          2   -1    0    0  501    0 -0.00000000000E+00 -0.00000000000E+00 -0.13004244021E+04  0.13004244021E+04  0.00000000000E+00 0. -1.
          2    1    1    2  501    0 -0.51367677644E+01  0.20093367997E+02 -0.10741630093E+02  0.23356207689E+02  0.00000000000E+00 0. -1.
          2    1    1    2  502    0  0.51367677644E+01 -0.20093367997E+02 -0.12832916945E+04  0.12834592720E+04  0.00000000000E+00 0. -1.
</event>
<event>
 4    1  0.8104768E+003  0.2290553E+02  0.7546771E-02  0.1493688E+00
          2   -1    0    0  501    0  0.00000000000E+00  0.00000000000E+00  0.45165584777E+02  0.45165584777E+02  0.00000000000E+00 0. -1.
          2   -1    0    0  502    0 -0.00000000000E+00 -0.00000000000E+00 -0.55022432441E+03  0.55022432441E+03  0.00000000000E+00 0.  1.
          2    1    1    2  501    0 -0.12560817575E+02 -0.19154356070E+02 -0.54706506350E+03  0.54754437920E+03  0.00000000000E+00 0.  1.
          2    1    1    2  502    0  0.12560817575E+02  0.19154356070E+02  0.42006323867E+02  0.47845529984E+02  0.00000000000E+00 0. -1.
</event>
<event>
 4    1  0.8104768E+003  0.2167001E+02  0.7546771E-02  0.1509910E+00
          2   -1    0    0  502    0  0.00000000000E+00  0.00000000000E+00  0.33282728743E+02  0.33282728743E+02  0.00000000000E+00 0. -1.
          2   -1    0    0  501    0 -0.00000000000E+00 -0.00000000000E+00 -0.57346379178E+03  0.57346379178E+03  0.00000000000E+00 0. -1.
          2    1    1    2  501    0 -0.18523516790E+02 -0.11245829159E+02  0.29527495908E+02  0.36625979337E+02  0.00000000000E+00 0. -1.
          2    1    1    2  502    0  0.18523516790E+02  0.11245829159E+02 -0.56970855895E+03  0.57012054119E+03  0.00000000000E+00 0. -1.
</event>
<event>
 4    1  0.8104768E+003  0.2019169E+02  0.7546771E-02  0.1531125E+00
          2   -1    0    0  501    0  0.00000000000E+00  0.00000000000E+00  0.17505990122E+03  0.17505990122E+03  0.00000000000E+00 0. -1.
          2   -1    0    0  502    0 -0.00000000000E+00 -0.00000000000E+00 -0.19324625934E+02  0.19324625934E+02  0.00000000000E+00 0. -1.
          2    1    1    2  501    0  0.17931112508E+02  0.92833031796E+01 -0.13280009065E+02  0.24167398587E+02  0.00000000000E+00 0. -1.
          2    1    1    2  502    0 -0.17931112508E+02 -0.92833031796E+01  0.16901528435E+03  0.17021712856E+03  0.00000000000E+00 0. -1.
</event>
<event>
 4    1  0.8104768E+003  0.2257867E+02  0.7546771E-02  0.1497858E+00
          2   -1    0    0  501    0  0.00000000000E+00  0.00000000000E+00  0.31249869211E+01  0.31249869211E+01  0.00000000000E+00 0.  1.
          2   -1    0    0  502    0 -0.00000000000E+00 -0.00000000000E+00 -0.99950600810E+03  0.99950600810E+03  0.00000000000E+00 0.  1.
          2    1    1    2  501    0 -0.19260478986E+02  0.11782630977E+02 -0.95677331891E+03  0.95703969626E+03  0.00000000000E+00 0.  1.
          2    1    1    2  502    0  0.19260478986E+02 -0.11782630977E+02 -0.39607702270E+02  0.45591298760E+02  0.00000000000E+00 0.  1.
</event>
<event>
 4    1  0.8104768E+003  0.2498204E+02  0.7546771E-02  0.1469004E+00
          2   -1    0    0  502    0  0.00000000000E+00  0.00000000000E+00  0.19650736797E+02  0.19650736797E+02  0.00000000000E+00 0.  1.
          2   -1    0    0  501    0 -0.00000000000E+00 -0.00000000000E+00 -0.11102340744E+03  0.11102340744E+03  0.00000000000E+00 0.  1.
          2    1    1    2  501    0  0.10966983281E+02  0.22446106224E+02  0.95200685417E+01  0.26734511627E+02  0.00000000000E+00 0.  1.
          2    1    1    2  502    0 -0.10966983281E+02 -0.22446106224E+02 -0.10089273919E+03  0.10393963261E+03  0.00000000000E+00 0.  1.
</event>
<event>
 4    1  0.8104768E+003  0.2943327E+02  0.7546771E-02  0.1424586E+00
          2   -1    0    0  501    0  0.00000000000E+00  0.00000000000E+00  0.17764825889E+01  0.17764825889E+01  0.00000000000E+00 0.  1.
          2   -1    0    0  502    0 -0.00000000000E+00 -0.00000000000E+00 -0.76795699271E+03  0.76795699271E+03  0.00000000000E+00 0.  1.
          2    1    1    2  501    0  0.26470701358E+02 -0.12869326865E+02 -0.61560578996E+03  0.61630901846E+03  0.00000000000E+00 0.  1.
          2    1    1    2  502    0 -0.26470701358E+02  0.12869326865E+02 -0.15057472017E+03  0.15342445684E+03  0.00000000000E+00 0.  1.
</event>
<event>
 4    1  0.8104768E+003  0.2087673E+02  0.7546771E-02  0.1521032E+00
          2   -1    0    0  501    0  0.00000000000E+00  0.00000000000E+00  0.14114359535E+03  0.14114359535E+03  0.00000000000E+00 0.  1.
          2   -1    0    0  502    0 -0.00000000000E+00 -0.00000000000E+00 -0.44471051783E+02  0.44471051783E+02  0.00000000000E+00 0. -1.
          2    1    1    2  501    0  0.15299746873E+02  0.14204066999E+02 -0.41190992236E+02  0.46179385174E+02  0.00000000000E+00 0. -1.
          2    1    1    2  502    0 -0.15299746873E+02 -0.14204066999E+02  0.13786353580E+03  0.13943526196E+03  0.00000000000E+00 0.  1.
</event>
<event>
 4    1  0.8104768E+003  0.2302386E+02  0.7546771E-02  0.1492199E+00
          2   -1    0    0  502    0  0.00000000000E+00  0.00000000000E+00  0.15010496491E+04  0.15010496491E+04  0.00000000000E+00 0. -1.
          2   -1    0    0  501    0 -0.00000000000E+00 -0.00000000000E+00 -0.55549554838E+01  0.55549554838E+01  0.00000000000E+00 0. -1.
          2    1    1    2  501    0 -0.99392155587E+00 -0.23002399783E+02  0.14767111859E+04  0.14768906611E+04  0.00000000000E+00 0. -1.
          2    1    1    2  502    0  0.99392155587E+00  0.23002399783E+02  0.18783507738E+02  0.29713943507E+02  0.00000000000E+00 0. -1.
</event>
<event>
 4    1  0.8104768E+003  0.2165709E+02  0.7546771E-02  0.1510087E+00
          2   -1    0    0  502    0  0.00000000000E+00  0.00000000000E+00  0.59496613669E+01  0.59496613669E+01  0.00000000000E+00 0.  1.
          2   -1    0    0  501    0 -0.00000000000E+00 -0.00000000000E+00 -0.10432800165E+03  0.10432800165E+03  0.00000000000E+00 0. -1.
          2    1    1    2  501    0  0.33050436205E+01  0.21403416328E+02 -0.21931747093E+02  0.30822574104E+02  0.00000000000E+00 0.  1.
          2    1    1    2  502    0 -0.33050436205E+01 -0.21403416328E+02 -0.76446593193E+02  0.79455088916E+02  0.00000000000E+00 0. -1.
</event>
<event>
 4    1  0.8104768E+003  0.2111472E+02  0.7546771E-02  0.1517633E+00
          2   -1    0    0  501    0  0.00000000000E+00  0.00000000000E+00  0.14032683939E+04  0.14032683939E+04  0.00000000000E+00 0.  1.
          2   -1    0    0  502    0 -0.00000000000E+00 -0.00000000000E+00 -0.47464732606E+01  0.47464732606E+01  0.00000000000E+00 0. -1.
          2    1    1    2  501    0 -0.16602239588E+02 -0.13045952070E+02  0.19223245147E+02  0.28554585949E+02  0.00000000000E+00 0. -1.
          2    1    1    2  502    0  0.16602239588E+02  0.13045952070E+02  0.13792986755E+04  0.13794602813E+04  0.00000000000E+00 0.  1.
</event>
<event>
 4    1  0.8104768E+003  0.2103495E+02  0.7546771E-02  0.1518766E+00
          2   -1    0    0  502    0  0.00000000000E+00  0.00000000000E+00  0.17278899128E+02  0.17278899128E+02  0.00000000000E+00 0. -1.
          2   -1    0    0  501    0 -0.00000000000E+00 -0.00000000000E+00 -0.12963233132E+04  0.12963233132E+04  0.00000000000E+00 0. -1.
          2    1    1    2  501    0  0.20914909832E+02  0.22440007870E+01  0.10759341318E+02  0.23626942638E+02  0.00000000000E+00 0. -1.
          2    1    1    2  502    0 -0.20914909832E+02 -0.22440007870E+01 -0.12898037554E+04  0.12899752697E+04  0.00000000000E+00 0. -1.
</event>
<event>
 4    1  0.8104768E+003  0.3293524E+02  0.7546771E-02  0.1395691E+00
          2   -1    0    0  502    0  0.00000000000E+00  0.00000000000E+00  0.75072757878E+03  0.75072757878E+03  0.00000000000E+00 0.  1.
          2   -1    0    0  501    0 -0.00000000000E+00 -0.00000000000E+00 -0.33974475278E+03  0.33974475278E+03  0.00000000000E+00 0. -1.
          2    1    1    2  501    0  0.32670004367E+02 -0.41714354441E+01  0.74956692231E+03  0.75029014460E+03  0.00000000000E+00 0.  1.
          2    1    1    2  502    0 -0.32670004367E+02  0.41714354441E+01 -0.33858409630E+03  0.34018218696E+03  0.00000000000E+00 0. -1.
</event>
<event>
 4    1  0.8104768E+003  0.2868665E+02  0.7546771E-02  0.1431363E+00
          2   -1    0    0  501    0  0.00000000000E+00  0.00000000000E+00  0.20496045662E+04  0.20496045662E+04  0.00000000000E+00 0. -1.
          2   -1    0    0  502    0 -0.00000000000E+00 -0.00000000000E+00 -0.47014493022E+00  0.47014493022E+00  0.00000000000E+00 0. -1.
          2    1    1    2  501    0 -0.28676407027E+02  0.76638768194E+00  0.63290058176E+03  0.63355036900E+03  0.00000000000E+00 0. -1.
          2    1    1    2  502    0  0.28676407027E+02 -0.76638768194E+00  0.14162338395E+04  0.14165243421E+04  0.00000000000E+00 0. -1.
</event>
<event>
 4    1  0.8104768E+003  0.2354315E+02  0.7546771E-02  0.1485788E+00
          2   -1    0    0  501    0  0.00000000000E+00  0.00000000000E+00  0.99223563567E+00  0.99223563567E+00  0.00000000000E+00 0.  1.
          2   -1    0    0  502    0 -0.00000000000E+00 -0.00000000000E+00 -0.90781569362E+03  0.90781569362E+03  0.00000000000E+00 0.  1.
          2    1    1    2  501    0 -0.92605672326E+01 -0.21645367954E+02 -0.73523661826E+03  0.73561346160E+03  0.00000000000E+00 0.  1.
          2    1    1    2  502    0  0.92605672326E+01  0.21645367954E+02 -0.17158683973E+03  0.17319446766E+03  0.00000000000E+00 0.  1.
</event>
<event>
 4    1  0.8104768E+003  0.2068930E+02  0.7546771E-02  0.1523747E+00
          2   -1    0    0  501    0  0.00000000000E+00  0.00000000000E+00  0.12291653651E+01  0.12291653651E+01  0.00000000000E+00 0.  1.
          2   -1    0    0  502    0 -0.00000000000E+00 -0.00000000000E+00 -0.12269135614E+04  0.12269135614E+04  0.00000000000E+00 0. -1.
          2    1    1    2  501    0 -0.19721528251E+02 -0.62536740325E+01 -0.11325091807E+04  0.11326981467E+04  0.00000000000E+00 0. -1.
          2    1    1    2  502    0  0.19721528251E+02  0.62536740325E+01 -0.93175215328E+02  0.95444580081E+02  0.00000000000E+00 0.  1.
</event>
<event>
 4    1  0.8104768E+003  0.2975977E+02  0.7546771E-02  0.1421696E+00
          2   -1    0    0  501    0  0.00000000000E+00  0.00000000000E+00  0.23222273476E+03  0.23222273476E+03  0.00000000000E+00 0. -1.
          2   -1    0    0  502    0 -0.00000000000E+00 -0.00000000000E+00 -0.29505530074E+02  0.29505530074E+02  0.00000000000E+00 0.  1.
          2    1    1    2  501    0  0.16951324419E+02  0.24460096337E+02 -0.20755511597E+02  0.36282709023E+02  0.00000000000E+00 0.  1.
          2    1    1    2  502    0 -0.16951324419E+02 -0.24460096337E+02  0.22347271628E+03  0.22544555581E+03  0.00000000000E+00 0. -1.
</event>
<event>
 4    1  0.8104768E+003  0.2321503E+02  0.7546771E-02  0.1489816E+00
          2   -1    0    0  502    0  0.00000000000E+00  0.00000000000E+00  0.35827780440E+03  0.35827780440E+03  0.00000000000E+00 0. -1.
          2   -1    0    0  501    0 -0.00000000000E+00 -0.00000000000E+00 -0.30624262209E+01  0.30624262209E+01  0.00000000000E+00 0. -1.
          2    1    1    2  501    0  0.21560808102E+02  0.86063341107E+01  0.30648087081E+03  0.30735884826E+03  0.00000000000E+00 0. -1.
          2    1    1    2  502    0 -0.21560808102E+02 -0.86063341107E+01  0.48734507372E+02  0.53981382361E+02  0.00000000000E+00 0. -1.
</event>
<event>
 4    1  0.8104768E+003  0.1195459E+03  0.7546771E-02  0.1133681E+00
          2   -1    0    0  501    0  0.00000000000E+00  0.00000000000E+00  0.15599124119E+03  0.15599124119E+03  0.00000000000E+00 0. -1.
          2   -1    0    0  502    0 -0.00000000000E+00 -0.00000000000E+00 -0.10398150661E+03  0.10398150661E+03  0.00000000000E+00 0.  1.
          2    1    1    2  501    0 -0.43518069099E+02  0.11134366019E+03 -0.18821397209E+02  0.12101850270E+03  0.00000000000E+00 0.  1.
          2    1    1    2  502    0  0.43518069099E+02 -0.11134366019E+03  0.70831131785E+02  0.13895424510E+03  0.00000000000E+00 0. -1.
</event>
<event>
 4    1  0.8104768E+003  0.2239096E+02  0.7546771E-02  0.1500291E+00
          2   -1    0    0  502    0  0.00000000000E+00  0.00000000000E+00  0.61329185232E+03  0.61329185232E+03  0.00000000000E+00 0. -1.
          2   -1    0    0  501    0 -0.00000000000E+00 -0.00000000000E+00 -0.31378199947E+03  0.31378199947E+03  0.00000000000E+00 0. -1.
          2    1    1    2  501    0 -0.16308910154E+02  0.15341923387E+02  0.61268764254E+03  0.61309665020E+03  0.00000000000E+00 0. -1.
          2    1    1    2  502    0  0.16308910154E+02 -0.15341923387E+02 -0.31317778969E+03  0.31397720159E+03  0.00000000000E+00 0. -1.
</event>
<event>
 4    1  0.8104768E+003  0.2185084E+02  0.7546771E-02  0.1507455E+00
          2   -1    0    0  501    0  0.00000000000E+00  0.00000000000E+00  0.36023587919E+03  0.36023587919E+03  0.00000000000E+00 0.  1.
          2   -1    0    0  502    0 -0.00000000000E+00 -0.00000000000E+00 -0.41226377685E+02  0.41226377685E+02  0.00000000000E+00 0.  1.
          2    1    1    2  501    0  0.20262537684E+02 -0.81785588723E+01 -0.37973315660E+02  0.43811322290E+02  0.00000000000E+00 0.  1.
          2    1    1    2  502    0 -0.20262537684E+02  0.81785588723E+01  0.35698281717E+03  0.35765093459E+03  0.00000000000E+00 0.  1.
</event>
<event>
 4    1  0.8104768E+003  0.2760272E+02  0.7546771E-02  0.1441646E+00
          2   -1    0    0  502    0  0.00000000000E+00  0.00000000000E+00  0.97187123143E+01  0.97187123143E+01  0.00000000000E+00 0. -1.
          2   -1    0    0  501    0 -0.00000000000E+00 -0.00000000000E+00 -0.10050628508E+04  0.10050628508E+04  0.00000000000E+00 0. -1.
          2    1    1    2  501    0 -0.18837561077E+01 -0.27538368976E+02 -0.10471570224E+02  0.29522264241E+02  0.00000000000E+00 0. -1.
          2    1    1    2  502    0  0.18837561077E+01  0.27538368976E+02 -0.98487256822E+03  0.98525929883E+03  0.00000000000E+00 0. -1.
</event>
<event>
 4    1  0.8104768E+003  0.2234782E+02  0.7546771E-02  0.1500854E+00
          2   -1    0    0  501    0  0.00000000000E+00  0.00000000000E+00  0.14777258254E+03  0.14777258254E+03  0.00000000000E+00 0.  1.
          2   -1    0    0  502    0 -0.00000000000E+00 -0.00000000000E+00 -0.33334532210E+02  0.33334532210E+02  0.00000000000E+00 0. -1.
          2    1    1    2  501    0 -0.20955067924E+02 -0.77659576966E+01 -0.28621403695E+02  0.36312666111E+02  0.00000000000E+00 0. -1.
          2    1    1    2  502    0  0.20955067924E+02  0.77659576966E+01  0.14305945403E+03  0.14479444864E+03  0.00000000000E+00 0.  1.
</event>
<event>
 4    1  0.8104768E+003  0.3505154E+02  0.7546771E-02  0.1380201E+00
          2   -1    0    0  501    0  0.00000000000E+00  0.00000000000E+00  0.67979415719E+03  0.67979415719E+03  0.00000000000E+00 0. -1.
          2   -1    0    0  502    0 -0.00000000000E+00 -0.00000000000E+00 -0.97475920120E+02  0.97475920120E+02  0.00000000000E+00 0. -1.
          2    1    1    2  501    0 -0.32183748605E+02 -0.13885851686E+02 -0.93856169401E+02  0.10018777912E+03  0.00000000000E+00 0. -1.
          2    1    1    2  502    0  0.32183748605E+02  0.13885851686E+02  0.67617440647E+03  0.67708229819E+03  0.00000000000E+00 0. -1.
</event>
<event>
 4    1  0.8104768E+003  0.2047985E+02  0.7546771E-02  0.1526822E+00
          2   -1    0    0  501    0  0.00000000000E+00  0.00000000000E+00  0.63595884113E+01  0.63595884113E+01  0.00000000000E+00 0. -1.
          2   -1    0    0  502    0 -0.00000000000E+00 -0.00000000000E+00 -0.15239983771E+03  0.15239983771E+03  0.00000000000E+00 0. -1.
          2    1    1    2  501    0  0.98881855858E+01  0.17934552784E+02 -0.13280558736E+03  0.13437540114E+03  0.00000000000E+00 0. -1.
          2    1    1    2  502    0 -0.98881855858E+01 -0.17934552784E+02 -0.13234661945E+02  0.24384024987E+02  0.00000000000E+00 0. -1.
</event>
<event>
 4    1  0.8104768E+003  0.2738726E+02  0.7546771E-02  0.1443756E+00
          2   -1    0    0  501    0  0.00000000000E+00  0.00000000000E+00  0.14198031203E+04  0.14198031203E+04  0.00000000000E+00 0.  1.
          2   -1    0    0  502    0 -0.00000000000E+00 -0.00000000000E+00 -0.62818841838E+02  0.62818841838E+02  0.00000000000E+00 0. -1.
          2    1    1    2  501    0  0.16850469845E+02 -0.21589892105E+02 -0.59695170153E+02  0.65677812956E+02  0.00000000000E+00 0. -1.
          2    1    1    2  502    0 -0.16850469845E+02  0.21589892105E+02  0.14166794486E+04  0.14169441492E+04  0.00000000000E+00 0.  1.
</event>
<event>
 4    1  0.8104768E+003  0.3647702E+02  0.7546771E-02  0.1370466E+00
          2   -1    0    0  501    0  0.00000000000E+00  0.00000000000E+00  0.14823157027E+03  0.14823157027E+03  0.00000000000E+00 0. -1.
          2   -1    0    0  502    0 -0.00000000000E+00 -0.00000000000E+00 -0.80328929775E+02  0.80328929775E+02  0.00000000000E+00 0.  1.
          2    1    1    2  501    0  0.34705429069E+02 -0.11229692827E+02 -0.73754741745E+02  0.82282043835E+02  0.00000000000E+00 0.  1.
          2    1    1    2  502    0 -0.34705429069E+02  0.11229692827E+02  0.14165738224E+03  0.14627845621E+03  0.00000000000E+00 0. -1.
</event>
<event>
 4    1  0.8104768E+003  0.2443958E+02  0.7546771E-02  0.1475171E+00
          2   -1    0    0  501    0  0.00000000000E+00  0.00000000000E+00  0.35183151919E+03  0.35183151919E+03  0.00000000000E+00 0. -1.
          2   -1    0    0  502    0 -0.00000000000E+00 -0.00000000000E+00 -0.33697752417E+03  0.33697752417E+03  0.00000000000E+00 0.  1.
          2    1    1    2  501    0 -0.24242721880E+02  0.30957266942E+01 -0.33610888646E+03  0.33699625613E+03  0.00000000000E+00 0.  1.
          2    1    1    2  502    0  0.24242721880E+02 -0.30957266942E+01  0.35096288148E+03  0.35181278724E+03  0.00000000000E+00 0. -1.
</event>
<event>
 4    1  0.8104768E+003  0.3032404E+02  0.7546771E-02  0.1416801E+00
          2   -1    0    0  501    0  0.00000000000E+00  0.00000000000E+00  0.28654769945E+01  0.28654769945E+01  0.00000000000E+00 0. -1.
          2   -1    0    0  502    0 -0.00000000000E+00 -0.00000000000E+00 -0.65310666973E+03  0.65310666973E+03  0.00000000000E+00 0.  1.
          2    1    1    2  501    0 -0.12675902873E+02 -0.27547575628E+02 -0.55903873412E+03  0.55986056629E+03  0.00000000000E+00 0.  1.
          2    1    1    2  502    0  0.12675902873E+02  0.27547575628E+02 -0.91202458611E+02  0.96111580433E+02  0.00000000000E+00 0. -1.
</event>
<event>
 4    1  0.8104768E+003  0.3540384E+02  0.7546771E-02  0.1377746E+00
          2   -1    0    0  502    0  0.00000000000E+00  0.00000000000E+00  0.24427919678E+03  0.24427919678E+03  0.00000000000E+00 0.  1.
          2   -1    0    0  501    0 -0.00000000000E+00 -0.00000000000E+00 -0.37677836310E+03  0.37677836310E+03  0.00000000000E+00 0.  1.
          2    1    1    2  501    0  0.25492734945E+02 -0.24567301362E+02  0.24215748515E+03  0.24473185213E+03  0.00000000000E+00 0.  1.
          2    1    1    2  502    0 -0.25492734945E+02  0.24567301362E+02 -0.37465665146E+03  0.37632570776E+03  0.00000000000E+00 0.  1.
</event>
<event>
 4    1  0.8104768E+003  0.2339077E+02  0.7546771E-02  0.1487649E+00
          2   -1    0    0  502    0  0.00000000000E+00  0.00000000000E+00  0.15111152621E+04  0.15111152621E+04  0.00000000000E+00 0.  1.
          2   -1    0    0  501    0 -0.00000000000E+00 -0.00000000000E+00 -0.19410460266E+03  0.19410460266E+03  0.00000000000E+00 0. -1.
          2    1    1    2  501    0 -0.12819165311E+02 -0.19565207566E+02  0.15103196913E+04  0.15105008104E+04  0.00000000000E+00 0.  1.
          2    1    1    2  502    0  0.12819165311E+02  0.19565207566E+02 -0.19330903183E+03  0.19471905437E+03  0.00000000000E+00 0. -1.
</event>
<event>
 4    1  0.8104768E+003  0.2002938E+02  0.7546771E-02  0.1533587E+00
          2   -1    0    0  501    0  0.00000000000E+00  0.00000000000E+00  0.12982894057E+04  0.12982894057E+04  0.00000000000E+00 0.  1.
          2   -1    0    0  502    0 -0.00000000000E+00 -0.00000000000E+00 -0.27973258041E+01  0.27973258041E+01  0.00000000000E+00 0. -1.
          2    1    1    2  501    0 -0.97773361966E+01 -0.17480845199E+02  0.34184648347E+02  0.39620278073E+02  0.00000000000E+00 0. -1.
          2    1    1    2  502    0  0.97773361966E+01  0.17480845199E+02  0.12613074316E+04  0.12614664535E+04  0.00000000000E+00 0.  1.
</event>
<event>
 4    1  0.8104768E+003  0.3040479E+02  0.7546771E-02  0.1416111E+00
          2   -1    0    0  501    0  0.00000000000E+00  0.00000000000E+00  0.10360719873E+04  0.10360719873E+04  0.00000000000E+00 0. -1.
          2   -1    0    0  502    0 -0.00000000000E+00 -0.00000000000E+00 -0.30159631543E+03  0.30159631543E+03  0.00000000000E+00 0.  1.
          2    1    1    2  501    0 -0.19109341283E+02 -0.23649189204E+02 -0.30060621789E+03  0.30213994987E+03  0.00000000000E+00 0.  1.
          2    1    1    2  502    0  0.19109341283E+02  0.23649189204E+02  0.10350818898E+04  0.10355283529E+04  0.00000000000E+00 0. -1.
</event>
<event>
 4    1  0.8104768E+003  0.2039733E+02  0.7546771E-02  0.1528046E+00
          2   -1    0    0  502    0  0.00000000000E+00  0.00000000000E+00  0.84563202183E+02  0.84563202183E+02  0.00000000000E+00 0. -1.
          2   -1    0    0  501    0 -0.00000000000E+00 -0.00000000000E+00 -0.52277393649E+02  0.52277393649E+02  0.00000000000E+00 0.  1.
          2    1    1    2  501    0 -0.17865998079E+02  0.98415952099E+01  0.81264029693E+02  0.83784804145E+02  0.00000000000E+00 0. -1.
          2    1    1    2  502    0  0.17865998079E+02 -0.98415952099E+01 -0.48978221159E+02  0.53055791687E+02  0.00000000000E+00 0.  1.
</event>
<event>
 4    1  0.8104768E+003  0.2647496E+02  0.7546771E-02  0.1452955E+00
          2   -1    0    0  501    0  0.00000000000E+00  0.00000000000E+00  0.26671142359E+04  0.26671142359E+04  0.00000000000E+00 0.  1.
          2   -1    0    0  502    0 -0.00000000000E+00 -0.00000000000E+00 -0.29305990896E+00  0.29305990896E+00  0.00000000000E+00 0.  1.
          2    1    1    2  501    0 -0.24894147392E+02 -0.90113702434E+01  0.90486258115E+03  0.90524980759E+03  0.00000000000E+00 0.  1.
          2    1    1    2  502    0  0.24894147392E+02  0.90113702434E+01  0.17619585949E+04  0.17621574883E+04  0.00000000000E+00 0.  1.
</event>
<event>
 4    1  0.1046975E+004  0.3755891E+02  0.7546771E-02  0.1363416E+00
          2   -1    0    0  501    0  0.00000000000E+00  0.00000000000E+00  0.19398414349E+04  0.19398414349E+04  0.00000000000E+00 0.  1.
          2   -1    0    0  502    0 -0.00000000000E+00 -0.00000000000E+00 -0.22651100535E+04  0.22651100535E+04  0.00000000000E+00 0.  1.
          2    1    1    2  501    0  0.34494326447E+02 -0.14859770879E+02 -0.22647725283E+04  0.22650839446E+04  0.00000000000E+00 0.  1.
          2    1    1    2  502    0 -0.34494326447E+02  0.14859770879E+02  0.19395039098E+04  0.19398675438E+04  0.00000000000E+00 0.  1.
</event>
<event>
 4    1  0.8104768E+003  0.2822496E+02  0.7546771E-02  0.1435677E+00
          2   -1    0    0  501    0  0.00000000000E+00  0.00000000000E+00  0.47315620716E+03  0.47315620716E+03  0.00000000000E+00 0.  1.
          2   -1    0    0  502    0 -0.00000000000E+00 -0.00000000000E+00 -0.10430517131E+03  0.10430517131E+03  0.00000000000E+00 0.  1.
          2    1    1    2  501    0  0.46570460409E+00 -0.28221122590E+02 -0.10196535003E+03  0.10579972234E+03  0.00000000000E+00 0.  1.
          2    1    1    2  502    0 -0.46570460409E+00  0.28221122590E+02  0.47081638588E+03  0.47166165612E+03  0.00000000000E+00 0.  1.
</event>
<event>
 4    1  0.8104768E+003  0.2568874E+02  0.7546771E-02  0.1461244E+00
          2   -1    0    0  502    0  0.00000000000E+00  0.00000000000E+00  0.27804422630E+02  0.27804422630E+02  0.00000000000E+00 0. -1.
          2   -1    0    0  501    0 -0.00000000000E+00 -0.00000000000E+00 -0.53363023663E+02  0.53363023663E+02  0.00000000000E+00 0. -1.
          2    1    1    2  501    0  0.13240695386E+02 -0.22013529092E+02  0.17461271148E+02  0.31061350059E+02  0.00000000000E+00 0. -1.
          2    1    1    2  502    0 -0.13240695386E+02  0.22013529092E+02 -0.43019872181E+02  0.50106096235E+02  0.00000000000E+00 0. -1.
</event>
<event>
 4    1  0.8104768E+003  0.2580366E+02  0.7546771E-02  0.1460010E+00
          2   -1    0    0  502    0  0.00000000000E+00  0.00000000000E+00  0.45338796445E+03  0.45338796445E+03  0.00000000000E+00 0. -1.
          2   -1    0    0  501    0 -0.00000000000E+00 -0.00000000000E+00 -0.52146688203E+01  0.52146688203E+01  0.00000000000E+00 0.  1.
          2    1    1    2  501    0  0.24235491221E+02 -0.88583150418E+01  0.41843604783E+03  0.41923090881E+03  0.00000000000E+00 0. -1.
          2    1    1    2  502    0 -0.24235491221E+02  0.88583150418E+01  0.29737247800E+02  0.39371724458E+02  0.00000000000E+00 0.  1.
</event>
<event>
 4    1  0.8104768E+003  0.2021931E+02  0.7546771E-02  0.1530709E+00
          2   -1    0    0  502    0  0.00000000000E+00  0.00000000000E+00  0.52946230500E+01  0.52946230500E+01  0.00000000000E+00 0.  1.
          2   -1    0    0  501    0 -0.00000000000E+00 -0.00000000000E+00 -0.90743558001E+02  0.90743558001E+02  0.00000000000E+00 0.  1.
          2    1    1    2  501    0 -0.19815022480E+02 -0.40231113608E+01 -0.61265897871E+02  0.64516128083E+02  0.00000000000E+00 0.  1.
          2    1    1    2  502    0  0.19815022480E+02  0.40231113608E+01 -0.24183037080E+02  0.31522052968E+02  0.00000000000E+00 0.  1.
</event>
<event>
 4    1  0.8104768E+003  0.7527184E+02  0.7546771E-02  0.1215271E+00
          2   -1    0    0  502    0  0.00000000000E+00  0.00000000000E+00  0.10422120605E+04  0.10422120605E+04  0.00000000000E+00 0.  1.
          2   -1    0    0  501    0 -0.00000000000E+00 -0.00000000000E+00 -0.17383487275E+03  0.17383487275E+03  0.00000000000E+00 0. -1.
          2    1    1    2  501    0 -0.74924818425E+02  0.72194869837E+01  0.10326291299E+04  0.10353689050E+04  0.00000000000E+00 0.  1.
          2    1    1    2  502    0  0.74924818425E+02 -0.72194869837E+01 -0.16425194216E+03  0.18067802830E+03  0.00000000000E+00 0. -1.
</event>
<event>
 4    1  0.8104768E+003  0.4535768E+02  0.7546771E-02  0.1319660E+00
          2   -1    0    0  501    0  0.00000000000E+00  0.00000000000E+00  0.71239019886E+02  0.71239019886E+02  0.00000000000E+00 0.  1.
          2   -1    0    0  502    0 -0.00000000000E+00 -0.00000000000E+00 -0.44209116523E+03  0.44209116523E+03  0.00000000000E+00 0.  1.
          2    1    1    2  501    0 -0.45308363000E+02 -0.21145277847E+01 -0.43356641918E+03  0.43593251637E+03  0.00000000000E+00 0.  1.
          2    1    1    2  502    0  0.45308363000E+02  0.21145277847E+01  0.62714273834E+02  0.77397668751E+02  0.00000000000E+00 0.  1.
</event>
<event>
 4    1  0.8104768E+003  0.2572446E+02  0.7546771E-02  0.1460860E+00
          2   -1    0    0  501    0  0.00000000000E+00  0.00000000000E+00  0.51567665351E+02  0.51567665351E+02  0.00000000000E+00 0. -1.
          2   -1    0    0  502    0 -0.00000000000E+00 -0.00000000000E+00 -0.13083511025E+02  0.13083511025E+02  0.00000000000E+00 0. -1.
          2    1    1    2  501    0 -0.22637091089E+02  0.12219251159E+02  0.14765652893E+02  0.29660959142E+02  0.00000000000E+00 0. -1.
          2    1    1    2  502    0  0.22637091089E+02 -0.12219251159E+02  0.23718501433E+02  0.34990217234E+02  0.00000000000E+00 0. -1.
</event>
<event>
 4    1  0.8104768E+003  0.2117708E+02  0.7546771E-02  0.1516751E+00
          2   -1    0    0  502    0  0.00000000000E+00  0.00000000000E+00  0.66900956839E+03  0.66900956839E+03  0.00000000000E+00 0. -1.
          2   -1    0    0  501    0 -0.00000000000E+00 -0.00000000000E+00 -0.12280491554E+03  0.12280491554E+03  0.00000000000E+00 0.  1.
          2    1    1    2  501    0  0.16147689959E+02  0.13701130049E+02  0.66792753281E+03  0.66826316518E+03  0.00000000000E+00 0. -1.
          2    1    1    2  502    0 -0.16147689959E+02 -0.13701130049E+02 -0.12172287996E+03  0.12355131874E+03  0.00000000000E+00 0.  1.
</event>
<event>
 4    1  0.8104768E+003  0.2256765E+02  0.7546771E-02  0.1498000E+00
          2   -1    0    0  502    0  0.00000000000E+00  0.00000000000E+00  0.66061815975E+02  0.66061815975E+02  0.00000000000E+00 0.  1.
          2   -1    0    0  501    0 -0.00000000000E+00 -0.00000000000E+00 -0.19474493869E+03  0.19474493869E+03  0.00000000000E+00 0.  1.
          2    1    1    2  501    0 -0.29705667766E+01  0.22371284173E+02  0.63454593798E+02  0.67348230093E+02  0.00000000000E+00 0.  1.
          2    1    1    2  502    0  0.29705667766E+01 -0.22371284173E+02 -0.19213771651E+03  0.19345852457E+03  0.00000000000E+00 0.  1.
</event>
<event>
 4    1  0.8104768E+003  0.2409108E+02  0.7546771E-02  0.1479234E+00
          2   -1    0    0  502    0  0.00000000000E+00  0.00000000000E+00  0.32213215982E+03  0.32213215982E+03  0.00000000000E+00 0.  1.
          2   -1    0    0  501    0 -0.00000000000E+00 -0.00000000000E+00 -0.18606599729E+01  0.18606599729E+01  0.00000000000E+00 0.  1.
          2    1    1    2  501    0  0.16919089727E+02  0.17150064860E+02  0.13129478047E+03  0.13348670234E+03  0.00000000000E+00 0.  1.
          2    1    1    2  502    0 -0.16919089727E+02 -0.17150064860E+02  0.18897671937E+03  0.19050611745E+03  0.00000000000E+00 0.  1.
</event>
<event>
 4    1  0.8104768E+003  0.5457009E+02  0.7546771E-02  0.1279488E+00
          2   -1    0    0  501    0  0.00000000000E+00  0.00000000000E+00  0.22200651951E+03  0.22200651951E+03  0.00000000000E+00 0. -1.
          2   -1    0    0  502    0 -0.00000000000E+00 -0.00000000000E+00 -0.10613174826E+03  0.10613174826E+03  0.00000000000E+00 0. -1.
          2    1    1    2  501    0 -0.20761760876E+02  0.50466271049E+02 -0.95413652936E+02  0.10991660655E+03  0.00000000000E+00 0. -1.
          2    1    1    2  502    0  0.20761760876E+02 -0.50466271049E+02  0.21128842419E+03  0.21822166122E+03  0.00000000000E+00 0. -1.
</event>
<event>
 4    1  0.8104768E+003  0.2637946E+02  0.7546771E-02  0.1453943E+00
          2   -1    0    0  501    0  0.00000000000E+00  0.00000000000E+00  0.93981359994E+03  0.93981359994E+03  0.00000000000E+00 0.  1.
          2   -1    0    0  502    0 -0.00000000000E+00 -0.00000000000E+00 -0.34335204091E+01  0.34335204091E+01  0.00000000000E+00 0. -1.
          2    1    1    2  501    0 -0.16766942189E+02 -0.20365302597E+02  0.50503664759E+02  0.56978031331E+02  0.00000000000E+00 0. -1.
          2    1    1    2  502    0  0.16766942189E+02  0.20365302597E+02  0.88587641477E+03  0.88626908902E+03  0.00000000000E+00 0.  1.
</event>
<event>
 4    1  0.8104768E+003  0.4850499E+02  0.7546771E-02  0.1304788E+00
          2   -1    0    0  502    0  0.00000000000E+00  0.00000000000E+00  0.32918683675E+03  0.32918683675E+03  0.00000000000E+00 0. -1.
          2   -1    0    0  501    0 -0.00000000000E+00 -0.00000000000E+00 -0.22591561873E+04  0.22591561873E+04  0.00000000000E+00 0. -1.
          2    1    1    2  501    0 -0.48504566623E+02  0.20175282049E+00  0.32713808288E+03  0.33071446741E+03  0.00000000000E+00 0. -1.
          2    1    1    2  502    0  0.48504566623E+02 -0.20175282049E+00 -0.22571074335E+04  0.22576285567E+04  0.00000000000E+00 0. -1.
</event>
<event>
 4    1  0.8104768E+003  0.2215220E+02  0.7546771E-02  0.1503428E+00
          2   -1    0    0  502    0  0.00000000000E+00  0.00000000000E+00  0.21175330319E+02  0.21175330319E+02  0.00000000000E+00 0. -1.
          2   -1    0    0  501    0 -0.00000000000E+00 -0.00000000000E+00 -0.59109538175E+03  0.59109538175E+03  0.00000000000E+00 0.  1.
          2    1    1    2  501    0 -0.13864079340E+02  0.17277358746E+02  0.15114250725E+02  0.26817166073E+02  0.00000000000E+00 0. -1.
          2    1    1    2  502    0  0.13864079340E+02 -0.17277358746E+02 -0.58503430216E+03  0.58545354600E+03  0.00000000000E+00 0.  1.
</event>
<event>
 4    1  0.8104768E+003  0.2307689E+02  0.7546771E-02  0.1491535E+00
          2   -1    0    0  501    0  0.00000000000E+00  0.00000000000E+00  0.19445728192E+03  0.19445728192E+03  0.00000000000E+00 0. -1.
          2   -1    0    0  502    0 -0.00000000000E+00 -0.00000000000E+00 -0.66569919010E+02  0.66569919010E+02  0.00000000000E+00 0. -1.
          2    1    1    2  501    0 -0.18064139846E+02 -0.14360695078E+02 -0.63857135728E+02  0.67899016892E+02  0.00000000000E+00 0. -1.
          2    1    1    2  502    0  0.18064139846E+02  0.14360695078E+02  0.19174449864E+03  0.19312818404E+03  0.00000000000E+00 0. -1.
</event>
<event>
 4    1  0.8104768E+003  0.2420925E+02  0.7546771E-02  0.1477847E+00
          2   -1    0    0  502    0  0.00000000000E+00  0.00000000000E+00  0.21211331196E+03  0.21211331196E+03  0.00000000000E+00 0. -1.
          2   -1    0    0  501    0 -0.00000000000E+00 -0.00000000000E+00 -0.16962283249E+03  0.16962283249E+03  0.00000000000E+00 0. -1.
          2    1    1    2  501    0 -0.16709065797E+02  0.17518419847E+02  0.21055234632E+03  0.21193956321E+03  0.00000000000E+00 0. -1.
          2    1    1    2  502    0  0.16709065797E+02 -0.17518419847E+02 -0.16806186685E+03  0.16979658124E+03  0.00000000000E+00 0. -1.
</event>
<event>
 4    1  0.8104768E+003  0.9395615E+02  0.7546771E-02  0.1174714E+00
          2   -1    0    0  501    0  0.00000000000E+00  0.00000000000E+00  0.12189302802E+03  0.12189302802E+03  0.00000000000E+00 0.  1.
          2   -1    0    0  502    0 -0.00000000000E+00 -0.00000000000E+00 -0.80450808047E+02  0.80450808047E+02  0.00000000000E+00 0.  1.
          2    1    1    2  501    0  0.36781826308E+02  0.86457250549E+02 -0.11239526865E+02  0.94626031742E+02  0.00000000000E+00 0.  1.
          2    1    1    2  502    0 -0.36781826308E+02 -0.86457250549E+02  0.52681746842E+02  0.10771780433E+03  0.00000000000E+00 0.  1.
</event>
<event>
 4    1  0.8104768E+003  0.2173011E+02  0.7546771E-02  0.1509091E+00
          2   -1    0    0  502    0  0.00000000000E+00  0.00000000000E+00  0.11907894860E+03  0.11907894860E+03  0.00000000000E+00 0. -1.
          2   -1    0    0  501    0 -0.00000000000E+00 -0.00000000000E+00 -0.24988567271E+02  0.24988567271E+02  0.00000000000E+00 0. -1.
          2    1    1    2  501    0  0.28179349486E+01 -0.21546618372E+02  0.11311671183E+03  0.11518501645E+03  0.00000000000E+00 0. -1.
          2    1    1    2  502    0 -0.28179349486E+01  0.21546618372E+02 -0.19026330496E+02  0.28882499421E+02  0.00000000000E+00 0. -1.
</event>
<event>
 4    1  0.8104768E+003  0.2281538E+02  0.7546771E-02  0.1494829E+00
          2   -1    0    0  502    0  0.00000000000E+00  0.00000000000E+00  0.58587014809E+03  0.58587014809E+03  0.00000000000E+00 0. -1.
          2   -1    0    0  501    0 -0.00000000000E+00 -0.00000000000E+00 -0.22503811200E+02  0.22503811200E+02  0.00000000000E+00 0.  1.
          2    1    1    2  501    0  0.12193699224E+02  0.19283553582E+02  0.57980473578E+03  0.58025345615E+03  0.00000000000E+00 0. -1.
          2    1    1    2  502    0 -0.12193699224E+02 -0.19283553582E+02 -0.16438398883E+02  0.28120503149E+02  0.00000000000E+00 0.  1.
</event>
<event>
 4    1  0.8104768E+003  0.2245759E+02  0.7546771E-02  0.1499424E+00
          2   -1    0    0  502    0  0.00000000000E+00  0.00000000000E+00  0.50703584146E+03  0.50703584146E+03  0.00000000000E+00 0. -1.
          2   -1    0    0  501    0 -0.00000000000E+00 -0.00000000000E+00 -0.42420496911E+03  0.42420496911E+03  0.00000000000E+00 0. -1.
          2    1    1    2  501    0  0.16058561124E+02 -0.15699231604E+02  0.50648962016E+03  0.50698725683E+03  0.00000000000E+00 0. -1.
          2    1    1    2  502    0 -0.16058561124E+02  0.15699231604E+02 -0.42365874782E+03  0.42425355374E+03  0.00000000000E+00 0. -1.
</event>
<event>
 4    1  0.8104768E+003  0.3642943E+02  0.7546771E-02  0.1370783E+00
          2   -1    0    0  501    0  0.00000000000E+00  0.00000000000E+00  0.20272332208E+03  0.20272332208E+03  0.00000000000E+00 0.  1.
          2   -1    0    0  502    0 -0.00000000000E+00 -0.00000000000E+00 -0.38099240739E+02  0.38099240739E+02  0.00000000000E+00 0.  1.
          2    1    1    2  501    0 -0.80782708614E+01 -0.35522455568E+02 -0.27267230641E+02  0.45503902871E+02  0.00000000000E+00 0.  1.
          2    1    1    2  502    0  0.80782708614E+01  0.35522455568E+02  0.19189131198E+03  0.19531865995E+03  0.00000000000E+00 0.  1.
</event>
<event>
 4    1  0.8104768E+003  0.2006511E+02  0.7546771E-02  0.1533043E+00
          2   -1    0    0  502    0  0.00000000000E+00  0.00000000000E+00  0.12853451433E+03  0.12853451433E+03  0.00000000000E+00 0. -1.
          2   -1    0    0  501    0 -0.00000000000E+00 -0.00000000000E+00 -0.31603218758E+01  0.31603218758E+01  0.00000000000E+00 0. -1.
          2    1    1    2  501    0 -0.85659300293E+01  0.18144786784E+02  0.56486483213E+02  0.59944401160E+02  0.00000000000E+00 0. -1.
          2    1    1    2  502    0  0.85659300293E+01 -0.18144786784E+02  0.68887709245E+02  0.71750435049E+02  0.00000000000E+00 0. -1.
</event>
<event>
 4    1  0.8104768E+003  0.3866059E+02  0.7546771E-02  0.1356519E+00
          2   -1    0    0  501    0  0.00000000000E+00  0.00000000000E+00  0.21693044674E+01  0.21693044674E+01  0.00000000000E+00 0. -1.
          2   -1    0    0  502    0 -0.00000000000E+00 -0.00000000000E+00 -0.87090136723E+03  0.87090136723E+03  0.00000000000E+00 0.  1.
          2    1    1    2  501    0  0.35927317361E+02  0.14278266284E+02 -0.63387309137E+03  0.63505097196E+03  0.00000000000E+00 0.  1.
          2    1    1    2  502    0 -0.35927317361E+02 -0.14278266284E+02 -0.23485897139E+03  0.23801969974E+03  0.00000000000E+00 0. -1.
</event>
<event>
 4    1  0.8104768E+003  0.3289036E+02  0.7546771E-02  0.1396034E+00
          2   -1    0    0  502    0  0.00000000000E+00  0.00000000000E+00  0.24337675485E+02  0.24337675485E+02  0.00000000000E+00 0. -1.
          2   -1    0    0  501    0 -0.00000000000E+00 -0.00000000000E+00 -0.15770057911E+04  0.15770057911E+04  0.00000000000E+00 0.  1.
          2    1    1    2  501    0  0.31324098569E+02  0.10028802601E+02  0.12973379690E+02  0.35356535652E+02  0.00000000000E+00 0. -1.
          2    1    1    2  502    0 -0.31324098569E+02 -0.10028802601E+02 -0.15656414953E+04  0.15659869309E+04  0.00000000000E+00 0.  1.
</event>
<event>
 4    1  0.8104768E+003  0.2098469E+02  0.7546771E-02  0.1519483E+00
          2   -1    0    0  501    0  0.00000000000E+00  0.00000000000E+00  0.14549610919E+03  0.14549610919E+03  0.00000000000E+00 0.  1.
          2   -1    0    0  502    0 -0.00000000000E+00 -0.00000000000E+00 -0.79052317355E+02  0.79052317355E+02  0.00000000000E+00 0. -1.
          2    1    1    2  501    0  0.18950548217E+02 -0.90129959381E+01 -0.76882080481E+02  0.79694489600E+02  0.00000000000E+00 0. -1.
          2    1    1    2  502    0 -0.18950548217E+02  0.90129959381E+01  0.14332587232E+03  0.14485393695E+03  0.00000000000E+00 0.  1.
</event>
<event>
 4    1  0.8104768E+003  0.2016521E+02  0.7546771E-02  0.1531525E+00
          2   -1    0    0  502    0  0.00000000000E+00  0.00000000000E+00  0.97662643306E+03  0.97662643306E+03  0.00000000000E+00 0. -1.
          2   -1    0    0  501    0 -0.00000000000E+00 -0.00000000000E+00 -0.30110658657E+01  0.30110658657E+01  0.00000000000E+00 0.  1.
          2    1    1    2  501    0 -0.93578724020E+01  0.17862416363E+02  0.94150113603E+03  0.94171706199E+03  0.00000000000E+00 0. -1.
          2    1    1    2  502    0  0.93578724020E+01 -0.17862416363E+02  0.32114231162E+02  0.37920436935E+02  0.00000000000E+00 0.  1.
</event>
<event>
 4    1  0.8104768E+003  0.2024943E+02  0.7546771E-02  0.1530256E+00
          2   -1    0    0  501    0  0.00000000000E+00  0.00000000000E+00  0.20534213370E+03  0.20534213370E+03  0.00000000000E+00 0.  1.
          2   -1    0    0  502    0 -0.00000000000E+00 -0.00000000000E+00 -0.13175769183E+02  0.13175769183E+02  0.00000000000E+00 0. -1.
          2    1    1    2  501    0  0.20249432570E+02 -0.99080007921E-02 -0.45563805379E+01  0.20755727431E+02  0.00000000000E+00 0. -1.
          2    1    1    2  502    0 -0.20249432570E+02  0.99080007921E-02  0.19672274505E+03  0.19776217545E+03  0.00000000000E+00 0.  1.
</event>
<event>
 4    1  0.8104768E+003  0.2423579E+02  0.7546771E-02  0.1477537E+00
          2   -1    0    0  501    0  0.00000000000E+00  0.00000000000E+00  0.14098734327E+04  0.14098734327E+04  0.00000000000E+00 0. -1.
          2   -1    0    0  502    0 -0.00000000000E+00 -0.00000000000E+00 -0.66973085748E+00  0.66973085748E+00  0.00000000000E+00 0.  1.
          2    1    1    2  501    0 -0.16422773233E+02  0.17823194955E+02  0.27102477768E+03  0.27210623638E+03  0.00000000000E+00 0.  1.
          2    1    1    2  502    0  0.16422773233E+02 -0.17823194955E+02  0.11381789242E+04  0.11384369272E+04  0.00000000000E+00 0. -1.
</event>
<event>
 4    1  0.8104768E+003  0.2050211E+02  0.7546771E-02  0.1526494E+00
          2   -1    0    0  502    0  0.00000000000E+00  0.00000000000E+00  0.94052299967E+03  0.94052299967E+03  0.00000000000E+00 0. -1.
          2   -1    0    0  501    0 -0.00000000000E+00 -0.00000000000E+00 -0.46802565675E+00  0.46802565675E+00  0.00000000000E+00 0. -1.
          2    1    1    2  501    0  0.13047311544E+02  0.15814676273E+02  0.56994562171E+03  0.57031425375E+03  0.00000000000E+00 0. -1.
          2    1    1    2  502    0 -0.13047311544E+02 -0.15814676273E+02  0.37010935230E+03  0.37067677157E+03  0.00000000000E+00 0. -1.
</event>
<event>
 4    1  0.8104768E+003  0.2299289E+02  0.7546771E-02  0.1492587E+00
          2   -1    0    0  501    0  0.00000000000E+00  0.00000000000E+00  0.18180455900E+02  0.18180455900E+02  0.00000000000E+00 0.  1.
          2   -1    0    0  502    0 -0.00000000000E+00 -0.00000000000E+00 -0.49427771595E+02  0.49427771595E+02  0.00000000000E+00 0. -1.
          2    1    1    2  501    0  0.12153175922E+01 -0.22960745811E+02 -0.37313238753E+02  0.43828650804E+02  0.00000000000E+00 0. -1.
          2    1    1    2  502    0 -0.12153175922E+01  0.22960745811E+02  0.60659230588E+01  0.23779576691E+02  0.00000000000E+00 0.  1.
</event>
<event>
 4    1  0.8104768E+003  0.2333991E+02  0.7546771E-02  0.1488273E+00
          2   -1    0    0  502    0  0.00000000000E+00  0.00000000000E+00  0.16347202027E+04  0.16347202027E+04  0.00000000000E+00 0. -1.
          2   -1    0    0  501    0 -0.00000000000E+00 -0.00000000000E+00 -0.45872393892E+01  0.45872393892E+01  0.00000000000E+00 0.  1.
          2    1    1    2  501    0 -0.81064216265E+01  0.21886918627E+02  0.16043872210E+04  0.16045569813E+04  0.00000000000E+00 0. -1.
          2    1    1    2  502    0  0.81064216265E+01 -0.21886918627E+02  0.25745742285E+02  0.34750460779E+02  0.00000000000E+00 0.  1.
</event>
<event>
 4    1  0.8104768E+003  0.2200910E+02  0.7546771E-02  0.1505330E+00
          2   -1    0    0  502    0  0.00000000000E+00  0.00000000000E+00  0.42905531045E+03  0.42905531045E+03  0.00000000000E+00 0. -1.
          2   -1    0    0  501    0 -0.00000000000E+00 -0.00000000000E+00 -0.11676457576E+02  0.11676457576E+02  0.00000000000E+00 0.  1.
          2    1    1    2  501    0 -0.18001888855E+02  0.12662246587E+02  0.41813097607E+03  0.41870982033E+03  0.00000000000E+00 0. -1.
          2    1    1    2  502    0  0.18001888855E+02 -0.12662246587E+02 -0.75212319745E+00  0.22021947694E+02  0.00000000000E+00 0.  1.
</event>
<event>
 4    1  0.8104768E+003  0.2213758E+02  0.7546771E-02  0.1503621E+00
          2   -1    0    0  501    0  0.00000000000E+00  0.00000000000E+00  0.10693950276E+04  0.10693950276E+04  0.00000000000E+00 0. -1.
          2   -1    0    0  502    0 -0.00000000000E+00 -0.00000000000E+00 -0.10376933628E+01  0.10376933628E+01  0.00000000000E+00 0. -1.
          2    1    1    2  501    0 -0.12062837623E+01 -0.22104690290E+02  0.13424074684E+03  0.13605385171E+03  0.00000000000E+00 0. -1.
          2    1    1    2  502    0  0.12062837623E+01  0.22104690290E+02  0.93411658740E+03  0.93437886925E+03  0.00000000000E+00 0. -1.
</event>
<event>
 4    1  0.8104768E+003  0.3079689E+02  0.7546771E-02  0.1412795E+00
          2   -1    0    0  502    0  0.00000000000E+00  0.00000000000E+00  0.80160556172E+03  0.80160556172E+03  0.00000000000E+00 0.  1.
          2   -1    0    0  501    0 -0.00000000000E+00 -0.00000000000E+00 -0.68112908431E+01  0.68112908431E+01  0.00000000000E+00 0. -1.
          2    1    1    2  501    0 -0.28064064353E+02  0.12682932649E+02  0.76482470430E+03  0.76544449622E+03  0.00000000000E+00 0.  1.
          2    1    1    2  502    0  0.28064064353E+02 -0.12682932649E+02  0.29969566571E+02  0.42972356336E+02  0.00000000000E+00 0. -1.
</event>
<event>
 4    1  0.8104768E+003  0.2254780E+02  0.7546771E-02  0.1498256E+00
          2   -1    0    0  501    0  0.00000000000E+00  0.00000000000E+00  0.19934982888E+03  0.19934982888E+03  0.00000000000E+00 0. -1.
          2   -1    0    0  502    0 -0.00000000000E+00 -0.00000000000E+00 -0.61320555631E+01  0.61320555631E+01  0.00000000000E+00 0.  1.
          2    1    1    2  501    0  0.94398667035E+01  0.20476623480E+02  0.18087479657E+02  0.28906056681E+02  0.00000000000E+00 0.  1.
          2    1    1    2  502    0 -0.94398667035E+01 -0.20476623480E+02  0.17513029366E+03  0.17657582776E+03  0.00000000000E+00 0. -1.
</event>
<event>
 4    1  0.8104768E+003  0.2725116E+02  0.7546771E-02  0.1445101E+00
          2   -1    0    0  502    0  0.00000000000E+00  0.00000000000E+00  0.10884924102E+03  0.10884924102E+03  0.00000000000E+00 0.  1.
          2   -1    0    0  501    0 -0.00000000000E+00 -0.00000000000E+00 -0.90723910734E+03  0.90723910734E+03  0.00000000000E+00 0. -1.
          2    1    1    2  501    0  0.27149278622E+02  0.23542731053E+01  0.10693536757E+03  0.11035306416E+03  0.00000000000E+00 0.  1.
          2    1    1    2  502    0 -0.27149278622E+02 -0.23542731053E+01 -0.90532523389E+03  0.90573528420E+03  0.00000000000E+00 0. -1.
</event>
<event>
 4    1  0.8104768E+003  0.2162876E+02  0.7546771E-02  0.1510474E+00
          2   -1    0    0  502    0  0.00000000000E+00  0.00000000000E+00  0.10408471589E+04  0.10408471589E+04  0.00000000000E+00 0. -1.
          2   -1    0    0  501    0 -0.00000000000E+00 -0.00000000000E+00 -0.37095582552E+01  0.37095582552E+01  0.00000000000E+00 0. -1.
          2    1    1    2  501    0  0.13827147912E+02 -0.16631696723E+02  0.10081867028E+04  0.10084186784E+04  0.00000000000E+00 0. -1.
          2    1    1    2  502    0 -0.13827147912E+02  0.16631696723E+02  0.28950897862E+02  0.36138038717E+02  0.00000000000E+00 0. -1.
</event>
<event>
 4    1  0.8104768E+003  0.2094128E+02  0.7546771E-02  0.1520105E+00
          2   -1    0    0  502    0  0.00000000000E+00  0.00000000000E+00  0.24251456989E+03  0.24251456989E+03  0.00000000000E+00 0.  1.
          2   -1    0    0  501    0 -0.00000000000E+00 -0.00000000000E+00 -0.44769573909E+02  0.44769573909E+02  0.00000000000E+00 0.  1.
          2    1    1    2  501    0  0.19734048003E+02  0.70074703648E+01  0.23958373898E+03  0.24049720430E+03  0.00000000000E+00 0.  1.
          2    1    1    2  502    0 -0.19734048003E+02 -0.70074703648E+01 -0.41838743003E+02  0.46786939498E+02  0.00000000000E+00 0.  1.
</event>
<event>
 4    1  0.8104768E+003  0.2494839E+02  0.7546771E-02  0.1469382E+00
          2   -1    0    0  502    0  0.00000000000E+00  0.00000000000E+00  0.20276810826E+03  0.20276810826E+03  0.00000000000E+00 0. -1.
          2   -1    0    0  501    0 -0.00000000000E+00 -0.00000000000E+00 -0.32907522368E+01  0.32907522368E+01  0.00000000000E+00 0. -1.
          2    1    1    2  501    0  0.24542014121E+02  0.44846190887E+01  0.12644621278E+03  0.12888392837E+03  0.00000000000E+00 0. -1.
          2    1    1    2  502    0 -0.24542014121E+02 -0.44846190887E+01  0.73031143243E+02  0.77174932127E+02  0.00000000000E+00 0. -1.
</event>
<event>
 4    1  0.8104768E+003  0.2962943E+02  0.7546771E-02  0.1422844E+00
          2   -1    0    0  502    0  0.00000000000E+00  0.00000000000E+00  0.12732958221E+03  0.12732958221E+03  0.00000000000E+00 0.  1.
          2   -1    0    0  501    0 -0.00000000000E+00 -0.00000000000E+00 -0.12230795913E+03  0.12230795913E+03  0.00000000000E+00 0.  1.
          2    1    1    2  501    0 -0.27798035104E+02 -0.10255352546E+02  0.12376041823E+03  0.12725778613E+03  0.00000000000E+00 0.  1.
          2    1    1    2  502    0  0.27798035104E+02  0.10255352546E+02 -0.11873879515E+03  0.12237975521E+03  0.00000000000E+00 0.  1.
</event>
<event>
 4    1  0.8104768E+003  0.2401012E+02  0.7546771E-02  0.1480189E+00
          2   -1    0    0  502    0  0.00000000000E+00  0.00000000000E+00  0.20789082805E+03  0.20789082805E+03  0.00000000000E+00 0.  1.
          2   -1    0    0  501    0 -0.00000000000E+00 -0.00000000000E+00 -0.42672708520E+02  0.42672708520E+02  0.00000000000E+00 0.  1.
          2    1    1    2  501    0 -0.86503451515E+01 -0.22397709184E+02  0.20375183303E+03  0.20516163216E+03  0.00000000000E+00 0.  1.
          2    1    1    2  502    0  0.86503451515E+01  0.22397709184E+02 -0.38533713499E+02  0.45401904409E+02  0.00000000000E+00 0.  1.
</event>
<event>
 4    1  0.8104768E+003  0.2727276E+02  0.7546771E-02  0.1444887E+00
          2   -1    0    0  501    0  0.00000000000E+00  0.00000000000E+00  0.14245557132E+04  0.14245557132E+04  0.00000000000E+00 0.  1.
          2   -1    0    0  502    0 -0.00000000000E+00 -0.00000000000E+00 -0.14210126187E+01  0.14210126187E+01  0.00000000000E+00 0. -1.
          2    1    1    2  501    0  0.19232041870E+02  0.19337323312E+02  0.14449963009E+03  0.14705083000E+03  0.00000000000E+00 0. -1.
          2    1    1    2  502    0 -0.19232041870E+02 -0.19337323312E+02  0.12786350705E+04  0.12789258959E+04  0.00000000000E+00 0.  1.
</event>
<event>
 4    1  0.8104768E+003  0.2907971E+02  0.7546771E-02  0.1427766E+00
          2   -1    0    0  502    0  0.00000000000E+00  0.00000000000E+00  0.10911264942E+02  0.10911264942E+02  0.00000000000E+00 0.  1.
          2   -1    0    0  501    0 -0.00000000000E+00 -0.00000000000E+00 -0.66876387601E+03  0.66876387601E+03  0.00000000000E+00 0.  1.
          2    1    1    2  501    0  0.20032528058E+02  0.21079069967E+02 -0.93861465940E+01  0.30556981510E+02  0.00000000000E+00 0.  1.
          2    1    1    2  502    0 -0.20032528058E+02 -0.21079069967E+02 -0.64846646447E+03  0.64911815944E+03  0.00000000000E+00 0.  1.
</event>
<event>
 4    1  0.8104768E+003  0.2175061E+02  0.7546771E-02  0.1508812E+00
          2   -1    0    0  502    0  0.00000000000E+00  0.00000000000E+00  0.34462960200E+02  0.34462960200E+02  0.00000000000E+00 0. -1.
          2   -1    0    0  501    0 -0.00000000000E+00 -0.00000000000E+00 -0.33037585303E+02  0.33037585303E+02  0.00000000000E+00 0.  1.
          2    1    1    2  501    0 -0.18496930399E+02 -0.11443451853E+02  0.26515416738E+02  0.34295135942E+02  0.00000000000E+00 0. -1.
          2    1    1    2  502    0  0.18496930399E+02  0.11443451853E+02 -0.25090041841E+02  0.33205409561E+02  0.00000000000E+00 0.  1.
</event>
<event>
 4    1  0.8104768E+003  0.2557265E+02  0.7546771E-02  0.1462498E+00
          2   -1    0    0  501    0  0.00000000000E+00  0.00000000000E+00  0.69564469535E+03  0.69564469535E+03  0.00000000000E+00 0.  1.
          2   -1    0    0  502    0 -0.00000000000E+00 -0.00000000000E+00 -0.15363145743E+03  0.15363145743E+03  0.00000000000E+00 0. -1.
          2    1    1    2  501    0 -0.20185617518E+02  0.15700362475E+02 -0.15233027333E+03  0.15446188109E+03  0.00000000000E+00 0. -1.
          2    1    1    2  502    0  0.20185617518E+02 -0.15700362475E+02  0.69434351125E+03  0.69481427169E+03  0.00000000000E+00 0.  1.
</event>
<event>
 4    1  0.8104768E+003  0.9583064E+02  0.7546771E-02  0.1171236E+00
          2   -1    0    0  502    0  0.00000000000E+00  0.00000000000E+00  0.62565002325E+02  0.62565002325E+02  0.00000000000E+00 0. -1.
          2   -1    0    0  501    0 -0.00000000000E+00 -0.00000000000E+00 -0.96699706295E+03  0.96699706295E+03  0.00000000000E+00 0. -1.
          2    1    1    2  501    0 -0.78055239238E+02  0.55595786310E+02  0.21887757179E+02  0.98298452390E+02  0.00000000000E+00 0. -1.
          2    1    1    2  502    0  0.78055239238E+02 -0.55595786310E+02 -0.92631981781E+03  0.93126361289E+03  0.00000000000E+00 0. -1.
</event>
<event>
 4    1  0.8104768E+003  0.2827885E+02  0.7546771E-02  0.1435168E+00
          2   -1    0    0  501    0  0.00000000000E+00  0.00000000000E+00  0.71163030559E+03  0.71163030559E+03  0.00000000000E+00 0.  1.
          2   -1    0    0  502    0 -0.00000000000E+00 -0.00000000000E+00 -0.91275576515E+02  0.91275576515E+02  0.00000000000E+00 0. -1.
          2    1    1    2  501    0 -0.28196019476E+02 -0.21628544385E+01 -0.88796658871E+02  0.93190879813E+02  0.00000000000E+00 0. -1.
          2    1    1    2  502    0  0.28196019476E+02  0.21628544385E+01  0.70915138794E+03  0.70971500229E+03  0.00000000000E+00 0.  1.
</event>
<event>
 4    1  0.8104768E+003  0.2043319E+02  0.7546771E-02  0.1527513E+00
          2   -1    0    0  501    0  0.00000000000E+00  0.00000000000E+00  0.12632431381E+03  0.12632431381E+03  0.00000000000E+00 0.  1.
          2   -1    0    0  502    0 -0.00000000000E+00 -0.00000000000E+00 -0.78070022514E+03  0.78070022514E+03  0.00000000000E+00 0. -1.
          2    1    1    2  501    0 -0.12810199633E+02  0.15918978632E+02 -0.77973923185E+03  0.78000691329E+03  0.00000000000E+00 0. -1.
          2    1    1    2  502    0  0.12810199633E+02 -0.15918978632E+02  0.12536332052E+03  0.12701762566E+03  0.00000000000E+00 0.  1.
</event>
<event>
 4    1  0.8104768E+003  0.2346361E+02  0.7546771E-02  0.1486757E+00
          2   -1    0    0  502    0  0.00000000000E+00  0.00000000000E+00  0.13521730548E+04  0.13521730548E+04  0.00000000000E+00 0.  1.
          2   -1    0    0  501    0 -0.00000000000E+00 -0.00000000000E+00 -0.43231636282E+02  0.43231636282E+02  0.00000000000E+00 0. -1.
          2    1    1    2  501    0 -0.15479501848E+02  0.17633089137E+02  0.13488798259E+04  0.13490838838E+04  0.00000000000E+00 0.  1.
          2    1    1    2  502    0  0.15479501848E+02 -0.17633089137E+02 -0.39938407342E+02  0.46320807322E+02  0.00000000000E+00 0. -1.
</event>
<event>
 4    1  0.8104768E+003  0.2385989E+02  0.7546771E-02  0.1481974E+00
          2   -1    0    0  501    0  0.00000000000E+00  0.00000000000E+00  0.20673590153E+04  0.20673590153E+04  0.00000000000E+00 0. -1.
          2   -1    0    0  502    0 -0.00000000000E+00 -0.00000000000E+00 -0.39799141692E+00  0.39799141692E+00  0.00000000000E+00 0. -1.
          2    1    1    2  501    0 -0.19778364112E+02  0.13345805732E+02  0.45961377818E+03  0.46023267954E+03  0.00000000000E+00 0. -1.
          2    1    1    2  502    0  0.19778364112E+02 -0.13345805732E+02  0.16073472457E+04  0.16075243271E+04  0.00000000000E+00 0. -1.
</event>
<event>
 4    1  0.8441015E+003  0.2594948E+02  0.7546771E-02  0.1458456E+00
          2   -1    0    0  502    0  0.00000000000E+00  0.00000000000E+00  0.46688253944E+03  0.46688253944E+03  0.00000000000E+00 0.  1.
          2   -1    0    0  501    0 -0.00000000000E+00 -0.00000000000E+00 -0.61221745973E+03  0.61221745973E+03  0.00000000000E+00 0. -1.
          2    1    1    2  501    0  0.17050572034E+02  0.19561526260E+02  0.46624662080E+03  0.46696818599E+03  0.00000000000E+00 0.  1.
          2    1    1    2  502    0 -0.17050572034E+02 -0.19561526260E+02 -0.61158154108E+03  0.61213181318E+03  0.00000000000E+00 0. -1.
</event>
<event>
 4    1  0.8104768E+003  0.2243311E+02  0.7546771E-02  0.1499742E+00
          2   -1    0    0  501    0  0.00000000000E+00  0.00000000000E+00  0.20159763316E+02  0.20159763316E+02  0.00000000000E+00 0.  1.
          2   -1    0    0  502    0 -0.00000000000E+00 -0.00000000000E+00 -0.25628933835E+03  0.25628933835E+03  0.00000000000E+00 0. -1.
          2    1    1    2  501    0  0.10459305572E+02  0.19845590775E+02 -0.24938531786E+03  0.25039225489E+03  0.00000000000E+00 0. -1.
          2    1    1    2  502    0 -0.10459305572E+02 -0.19845590775E+02  0.13255742821E+02  0.26056846778E+02  0.00000000000E+00 0.  1.
</event>
<event>
 4    1  0.8104768E+003  0.2760129E+02  0.7546771E-02  0.1441660E+00
          2   -1    0    0  502    0  0.00000000000E+00  0.00000000000E+00  0.45547063272E+02  0.45547063272E+02  0.00000000000E+00 0. -1.
          2   -1    0    0  501    0 -0.00000000000E+00 -0.00000000000E+00 -0.68900490951E+02  0.68900490951E+02  0.00000000000E+00 0.  1.
          2    1    1    2  501    0 -0.24721457354E+02 -0.12275207147E+02  0.38119172706E+02  0.47062750578E+02  0.00000000000E+00 0. -1.
          2    1    1    2  502    0  0.24721457354E+02  0.12275207147E+02 -0.61472600385E+02  0.67384803645E+02  0.00000000000E+00 0.  1.
</event>
<event>
 4    1  0.8104768E+003  0.2213067E+02  0.7546771E-02  0.1503713E+00
          2   -1    0    0  501    0  0.00000000000E+00  0.00000000000E+00  0.17025260201E+03  0.17025260201E+03  0.00000000000E+00 0.  1.
          2   -1    0    0  502    0 -0.00000000000E+00 -0.00000000000E+00 -0.40064315898E+03  0.40064315898E+03  0.00000000000E+00 0. -1.
          2    1    1    2  501    0  0.12596703787E+02  0.18195871503E+02 -0.39961652350E+03  0.40022885021E+03  0.00000000000E+00 0. -1.
          2    1    1    2  502    0 -0.12596703787E+02 -0.18195871503E+02  0.16922596653E+03  0.17066691078E+03  0.00000000000E+00 0.  1.
</event>
<event>
 4    1  0.8104768E+003  0.2493251E+02  0.7546771E-02  0.1469560E+00
          2   -1    0    0  501    0  0.00000000000E+00  0.00000000000E+00  0.11042816787E+02  0.11042816787E+02  0.00000000000E+00 0. -1.
          2   -1    0    0  502    0 -0.00000000000E+00 -0.00000000000E+00 -0.59773436233E+03  0.59773436233E+03  0.00000000000E+00 0.  1.
          2    1    1    2  501    0 -0.53663891847E+01  0.24348140617E+02 -0.58304683515E+03  0.58357967928E+03  0.00000000000E+00 0.  1.
          2    1    1    2  502    0  0.53663891847E+01 -0.24348140617E+02 -0.36447103920E+01  0.25197499841E+02  0.00000000000E+00 0. -1.
</event>
<event>
 4    1  0.8104768E+003  0.4305910E+02  0.7546771E-02  0.1331435E+00
          2   -1    0    0  501    0  0.00000000000E+00  0.00000000000E+00  0.93535536920E+03  0.93535536920E+03  0.00000000000E+00 0.  1.
          2   -1    0    0  502    0 -0.00000000000E+00 -0.00000000000E+00 -0.12032230630E+02  0.12032230630E+02  0.00000000000E+00 0. -1.
          2    1    1    2  501    0  0.13446718313E+02 -0.40905642181E+02  0.28741463450E+02  0.51770237752E+02  0.00000000000E+00 0. -1.
          2    1    1    2  502    0 -0.13446718313E+02  0.40905642181E+02  0.89458167512E+03  0.89561736208E+03  0.00000000000E+00 0.  1.
</event>
<event>
 4    1  0.8104768E+003  0.2135722E+02  0.7546771E-02  0.1514225E+00
          2   -1    0    0  501    0  0.00000000000E+00  0.00000000000E+00  0.10480689923E+04  0.10480689923E+04  0.00000000000E+00 0. -1.
          2   -1    0    0  502    0 -0.00000000000E+00 -0.00000000000E+00 -0.11126898830E+02  0.11126898830E+02  0.00000000000E+00 0. -1.
          2    1    1    2  501    0  0.20461726601E+02 -0.61195280566E+01 -0.66640666606E+00  0.21367615145E+02  0.00000000000E+00 0. -1.
          2    1    1    2  502    0 -0.20461726601E+02  0.61195280566E+01  0.10376085002E+04  0.10378282760E+04  0.00000000000E+00 0. -1.
</event>
<event>
 4    1  0.8104768E+003  0.2436501E+02  0.7546771E-02  0.1476034E+00
          2   -1    0    0  502    0  0.00000000000E+00  0.00000000000E+00  0.14321713711E+03  0.14321713711E+03  0.00000000000E+00 0. -1.
          2   -1    0    0  501    0 -0.00000000000E+00 -0.00000000000E+00 -0.28658789752E+03  0.28658789752E+03  0.00000000000E+00 0.  1.
          2    1    1    2  501    0  0.45525160779E+01 -0.23935916333E+02  0.14165733083E+03  0.14373744422E+03  0.00000000000E+00 0. -1.
          2    1    1    2  502    0 -0.45525160779E+01  0.23935916333E+02 -0.28502809123E+03  0.28606759041E+03  0.00000000000E+00 0.  1.
</event>
<event>
 4    1  0.8104768E+003  0.2834301E+02  0.7546771E-02  0.1434565E+00
          2   -1    0    0  502    0  0.00000000000E+00  0.00000000000E+00  0.21681343464E+01  0.21681343464E+01  0.00000000000E+00 0. -1.
          2   -1    0    0  501    0 -0.00000000000E+00 -0.00000000000E+00 -0.12771341528E+04  0.12771341528E+04  0.00000000000E+00 0. -1.
          2    1    1    2  501    0 -0.28340933775E+02 -0.34288601306E+00 -0.98546769329E+02  0.10254165906E+03  0.00000000000E+00 0. -1.
          2    1    1    2  502    0  0.28340933775E+02  0.34288601306E+00 -0.11764192491E+04  0.11767606281E+04  0.00000000000E+00 0. -1.
</event>
<event>
 4    1  0.8104768E+003  0.2039201E+02  0.7546771E-02  0.1528125E+00
          2   -1    0    0  502    0  0.00000000000E+00  0.00000000000E+00  0.86091076458E+00  0.86091076458E+00  0.00000000000E+00 0. -1.
          2   -1    0    0  501    0 -0.00000000000E+00 -0.00000000000E+00 -0.62301264504E+03  0.62301264504E+03  0.00000000000E+00 0.  1.
          2    1    1    2  501    0  0.14710789867E+02  0.14121849685E+02 -0.45894462306E+03  0.45939743252E+03  0.00000000000E+00 0.  1.
          2    1    1    2  502    0 -0.14710789867E+02 -0.14121849685E+02 -0.16320711122E+03  0.16447612328E+03  0.00000000000E+00 0. -1.
</event>
<event>
 4    1  0.8104768E+003  0.2613940E+02  0.7546771E-02  0.1456450E+00
          2   -1    0    0  502    0  0.00000000000E+00  0.00000000000E+00  0.88291073721E+03  0.88291073721E+03  0.00000000000E+00 0.  1.
          2   -1    0    0  501    0 -0.00000000000E+00 -0.00000000000E+00 -0.10196678978E+01  0.10196678978E+01  0.00000000000E+00 0.  1.
          2    1    1    2  501    0 -0.16351224033E+02 -0.20393767836E+02  0.65793448448E+03  0.65845353228E+03  0.00000000000E+00 0.  1.
          2    1    1    2  502    0  0.16351224033E+02  0.20393767836E+02  0.22395658483E+03  0.22547687284E+03  0.00000000000E+00 0.  1.
</event>
<event>
 4    1  0.1111018E+004  0.2111407E+02  0.7546771E-02  0.1517642E+00
          2   -1    0    0  502    0  0.00000000000E+00  0.00000000000E+00  0.10711999920E+04  0.10711999920E+04  0.00000000000E+00 0.  1.
          2   -1    0    0  501    0 -0.00000000000E+00 -0.00000000000E+00 -0.77776526067E+03  0.77776526067E+03  0.00000000000E+00 0.  1.
          2    1    1    2  501    0 -0.80203855479E+01  0.19531441147E+02  0.10709526195E+04  0.10711607335E+04  0.00000000000E+00 0.  1.
          2    1    1    2  502    0  0.80203855479E+01 -0.19531441147E+02 -0.77751788812E+03  0.77780451922E+03  0.00000000000E+00 0.  1.
</event>
<event>
 4    1  0.8104768E+003  0.2009750E+02  0.7546771E-02  0.1532550E+00
          2   -1    0    0  501    0  0.00000000000E+00  0.00000000000E+00  0.10978649880E+04  0.10978649880E+04  0.00000000000E+00 0.  1.
          2   -1    0    0  502    0 -0.00000000000E+00 -0.00000000000E+00 -0.16051181639E+03  0.16051181639E+03  0.00000000000E+00 0. -1.
          2    1    1    2  501    0 -0.16885217576E+02 -0.10899492882E+02 -0.15979033036E+03  0.16104924462E+03  0.00000000000E+00 0. -1.
          2    1    1    2  502    0  0.16885217576E+02  0.10899492882E+02  0.10971435019E+04  0.10973275597E+04  0.00000000000E+00 0.  1.
</event>
<event>
 4    1  0.8104768E+003  0.2815232E+02  0.7546771E-02  0.1436364E+00
          2   -1    0    0  501    0  0.00000000000E+00  0.00000000000E+00  0.29408161973E+03  0.29408161973E+03  0.00000000000E+00 0.  1.
          2   -1    0    0  502    0 -0.00000000000E+00 -0.00000000000E+00 -0.21706152362E+03  0.21706152362E+03  0.00000000000E+00 0. -1.
          2    1    1    2  501    0 -0.19708522849E+02 -0.20102914203E+02 -0.21546999480E+03  0.21730133844E+03  0.00000000000E+00 0. -1.
          2    1    1    2  502    0  0.19708522849E+02  0.20102914203E+02  0.29249009091E+03  0.29384180491E+03  0.00000000000E+00 0.  1.
</event>
<event>
 4    1  0.8104768E+003  0.2238601E+02  0.7546771E-02  0.1500355E+00
          2   -1    0    0  502    0  0.00000000000E+00  0.00000000000E+00  0.24299941645E+03  0.24299941645E+03  0.00000000000E+00 0.  1.
          2   -1    0    0  501    0 -0.00000000000E+00 -0.00000000000E+00 -0.32365799557E+02  0.32365799557E+02  0.00000000000E+00 0. -1.
          2    1    1    2  501    0  0.52624544950E+01  0.21758679785E+02  0.23854079586E+03  0.23958890806E+03  0.00000000000E+00 0.  1.
          2    1    1    2  502    0 -0.52624544950E+01 -0.21758679785E+02 -0.27907178964E+02  0.35776307957E+02  0.00000000000E+00 0. -1.
</event>
<event>
 4    1  0.8104768E+003  0.2259358E+02  0.7546771E-02  0.1497666E+00
          2   -1    0    0  501    0  0.00000000000E+00  0.00000000000E+00  0.12551224132E+02  0.12551224132E+02  0.00000000000E+00 0.  1.
          2   -1    0    0  502    0 -0.00000000000E+00 -0.00000000000E+00 -0.35165491587E+03  0.35165491587E+03  0.00000000000E+00 0.  1.
          2    1    1    2  501    0 -0.20680375865E+02 -0.90990119885E+01 -0.34080080221E+03  0.34154890829E+03  0.00000000000E+00 0.  1.
          2    1    1    2  502    0  0.20680375865E+02  0.90990119885E+01  0.16971104700E+01  0.22657231716E+02  0.00000000000E+00 0.  1.
</event>
<event>
 4    1  0.8104768E+003  0.4726207E+02  0.7546771E-02  0.1310500E+00
          2   -1    0    0  501    0  0.00000000000E+00  0.00000000000E+00  0.26262647346E+04  0.26262647346E+04  0.00000000000E+00 0.  1.
          2   -1    0    0  502    0 -0.00000000000E+00 -0.00000000000E+00 -0.75674087168E+01  0.75674087168E+01  0.00000000000E+00 0.  1.
          2    1    1    2  501    0  0.46728858848E+02 -0.70793502194E+01  0.68643979026E+02  0.83340862158E+02  0.00000000000E+00 0.  1.
          2    1    1    2  502    0 -0.46728858848E+02  0.70793502194E+01  0.25500533468E+04  0.25504912811E+04  0.00000000000E+00 0.  1.
</event>
<event>
 4    1  0.8104768E+003  0.3401233E+02  0.7546771E-02  0.1387643E+00
          2   -1    0    0  502    0  0.00000000000E+00  0.00000000000E+00  0.16787562960E+04  0.16787562960E+04  0.00000000000E+00 0.  1.
          2   -1    0    0  501    0 -0.00000000000E+00 -0.00000000000E+00 -0.75572402853E+02  0.75572402853E+02  0.00000000000E+00 0. -1.
          2    1    1    2  501    0 -0.31351431240E+02 -0.13188103739E+02  0.16747479409E+04  0.16750932821E+04  0.00000000000E+00 0.  1.
          2    1    1    2  502    0  0.31351431240E+02  0.13188103739E+02 -0.71564047786E+02  0.79235416681E+02  0.00000000000E+00 0. -1.
</event>
<event>
 4    1  0.8104768E+003  0.2480154E+02  0.7546771E-02  0.1471036E+00
          2   -1    0    0  501    0  0.00000000000E+00  0.00000000000E+00  0.14102362642E+04  0.14102362642E+04  0.00000000000E+00 0.  1.
          2   -1    0    0  502    0 -0.00000000000E+00 -0.00000000000E+00 -0.19914400202E+02  0.19914400202E+02  0.00000000000E+00 0.  1.
          2    1    1    2  501    0 -0.14699405499E+02  0.19976083924E+02 -0.12039993057E+02  0.27569510039E+02  0.00000000000E+00 0.  1.
          2    1    1    2  502    0  0.14699405499E+02 -0.19976083924E+02  0.14023618571E+04  0.14025811544E+04  0.00000000000E+00 0.  1.
</event>
<event>
 4    1  0.8104768E+003  0.4265986E+02  0.7546771E-02  0.1333566E+00
          2   -1    0    0  501    0  0.00000000000E+00  0.00000000000E+00  0.72629660554E+03  0.72629660554E+03  0.00000000000E+00 0.  1.
          2   -1    0    0  502    0 -0.00000000000E+00 -0.00000000000E+00 -0.66987677463E+02  0.66987677463E+02  0.00000000000E+00 0. -1.
          2    1    1    2  501    0 -0.41512077566E+02 -0.98291086877E+01 -0.59498774085E+02  0.73211802867E+02  0.00000000000E+00 0. -1.
          2    1    1    2  502    0  0.41512077566E+02  0.98291086877E+01  0.71880770216E+03  0.72007248013E+03  0.00000000000E+00 0.  1.
</event>
<event>
 4    1  0.8104768E+003  0.2552289E+02  0.7546771E-02  0.1463038E+00
          2   -1    0    0  502    0  0.00000000000E+00  0.00000000000E+00  0.22228042699E+02  0.22228042699E+02  0.00000000000E+00 0. -1.
          2   -1    0    0  501    0 -0.00000000000E+00 -0.00000000000E+00 -0.83289223176E+02  0.83289223176E+02  0.00000000000E+00 0.  1.
          2    1    1    2  501    0  0.44038067582E+01 -0.25140096461E+02  0.11943882930E+02  0.28179324042E+02  0.00000000000E+00 0. -1.
          2    1    1    2  502    0 -0.44038067582E+01  0.25140096461E+02 -0.73005063407E+02  0.77337941834E+02  0.00000000000E+00 0.  1.
</event>
<event>
 4    1  0.8104768E+003  0.2763016E+02  0.7546771E-02  0.1441379E+00
          2   -1    0    0  501    0  0.00000000000E+00  0.00000000000E+00  0.11445128980E+03  0.11445128980E+03  0.00000000000E+00 0. -1.
          2   -1    0    0  502    0 -0.00000000000E+00 -0.00000000000E+00 -0.13850477416E+03  0.13850477416E+03  0.00000000000E+00 0.  1.
          2    1    1    2  501    0 -0.27465746288E+02  0.30097256090E+01 -0.13542164080E+03  0.13821160032E+03  0.00000000000E+00 0.  1.
          2    1    1    2  502    0  0.27465746288E+02 -0.30097256090E+01  0.11136815644E+03  0.11474446364E+03  0.00000000000E+00 0. -1.
</event>
<event>
 4    1  0.8104768E+003  0.4288234E+02  0.7546771E-02  0.1332376E+00
          2   -1    0    0  502    0  0.00000000000E+00  0.00000000000E+00  0.12230897790E+04  0.12230897790E+04  0.00000000000E+00 0. -1.
          2   -1    0    0  501    0 -0.00000000000E+00 -0.00000000000E+00 -0.24448676075E+01  0.24448676075E+01  0.00000000000E+00 0.  1.
          2    1    1    2  501    0  0.42190787815E+02 -0.76702144291E+01  0.99055690089E+03  0.99148467899E+03  0.00000000000E+00 0. -1.
          2    1    1    2  502    0 -0.42190787815E+02  0.76702144291E+01  0.23008801048E+03  0.23404996759E+03  0.00000000000E+00 0.  1.
</event>
<event>
 4    1  0.8104768E+003  0.3345919E+02  0.7546771E-02  0.1391731E+00
          2   -1    0    0  501    0  0.00000000000E+00  0.00000000000E+00  0.68491993539E+01  0.68491993539E+01  0.00000000000E+00 0. -1.
          2   -1    0    0  502    0 -0.00000000000E+00 -0.00000000000E+00 -0.44589887931E+03  0.44589887931E+03  0.00000000000E+00 0. -1.
          2    1    1    2  501    0  0.33173713836E+02 -0.43614366414E+01 -0.39969239544E+03  0.40109042421E+03  0.00000000000E+00 0. -1.
          2    1    1    2  502    0 -0.33173713836E+02  0.43614366414E+01 -0.39357284514E+02  0.51657654453E+02  0.00000000000E+00 0. -1.
</event>
<event>
 4    1  0.8104768E+003  0.2039929E+02  0.7546771E-02  0.1528017E+00
          2   -1    0    0  501    0  0.00000000000E+00  0.00000000000E+00  0.93418364511E+00  0.93418364511E+00  0.00000000000E+00 0.  1.
          2   -1    0    0  502    0 -0.00000000000E+00 -0.00000000000E+00 -0.88704467707E+03  0.88704467707E+03  0.00000000000E+00 0. -1.
          2    1    1    2  501    0 -0.53740526692E+01 -0.19678679829E+02 -0.75632065606E+03  0.75659570820E+03  0.00000000000E+00 0. -1.
          2    1    1    2  502    0  0.53740526692E+01  0.19678679829E+02 -0.12978983736E+03  0.13138315251E+03  0.00000000000E+00 0.  1.
</event>
<event>
 4    1  0.8104768E+003  0.2000230E+02  0.7546771E-02  0.1534000E+00
          2   -1    0    0  501    0  0.00000000000E+00  0.00000000000E+00  0.18403144528E+03  0.18403144528E+03  0.00000000000E+00 0.  1.
          2   -1    0    0  502    0 -0.00000000000E+00 -0.00000000000E+00 -0.60669992491E+01  0.60669992491E+01  0.00000000000E+00 0.  1.
          2    1    1    2  501    0 -0.49744046232E+01 -0.19373879453E+02  0.12844222000E+02  0.23771115775E+02  0.00000000000E+00 0.  1.
          2    1    1    2  502    0  0.49744046232E+01  0.19373879453E+02  0.16512022403E+03  0.16632732875E+03  0.00000000000E+00 0.  1.
</event>
<event>
 4    1  0.8104768E+003  0.3558813E+02  0.7546771E-02  0.1376475E+00
          2   -1    0    0  502    0  0.00000000000E+00  0.00000000000E+00  0.14382259332E+02  0.14382259332E+02  0.00000000000E+00 0.  1.
          2   -1    0    0  501    0 -0.00000000000E+00 -0.00000000000E+00 -0.46118801739E+03  0.46118801739E+03  0.00000000000E+00 0.  1.
          2    1    1    2  501    0  0.26372425357E+02  0.23895825966E+02 -0.95209552870E+01  0.36839705582E+02  0.00000000000E+00 0.  1.
          2    1    1    2  502    0 -0.26372425357E+02 -0.23895825966E+02 -0.43728480277E+03  0.43873057114E+03  0.00000000000E+00 0.  1.
</event>
<event>
 4    1  0.8104768E+003  0.2278503E+02  0.7546771E-02  0.1495215E+00
          2   -1    0    0  501    0  0.00000000000E+00  0.00000000000E+00  0.10014377511E+04  0.10014377511E+04  0.00000000000E+00 0.  1.
          2   -1    0    0  502    0 -0.00000000000E+00 -0.00000000000E+00 -0.14101518511E+02  0.14101518511E+02  0.00000000000E+00 0. -1.
          2    1    1    2  501    0 -0.20737942213E+02 -0.94390368264E+01 -0.46805876775E+01  0.23260816074E+02  0.00000000000E+00 0. -1.
          2    1    1    2  502    0  0.20737942213E+02  0.94390368264E+01  0.99201682026E+03  0.99227845353E+03  0.00000000000E+00 0.  1.
</event>
<event>
 4    1  0.8104768E+003  0.2303069E+02  0.7546771E-02  0.1492113E+00
          2   -1    0    0  502    0  0.00000000000E+00  0.00000000000E+00  0.16089025267E+01  0.16089025267E+01  0.00000000000E+00 0. -1.
          2   -1    0    0  501    0 -0.00000000000E+00 -0.00000000000E+00 -0.50687257134E+03  0.50687257134E+03  0.00000000000E+00 0. -1.
          2    1    1    2  501    0  0.22372801492E+02  0.54653717980E+01 -0.10230848019E+03  0.10486866860E+03  0.00000000000E+00 0. -1.
          2    1    1    2  502    0 -0.22372801492E+02 -0.54653717980E+01 -0.40295518862E+03  0.40361280526E+03  0.00000000000E+00 0. -1.
</event>
<event>
 4    1  0.8104768E+003  0.2110132E+02  0.7546771E-02  0.1517823E+00
          2   -1    0    0  502    0  0.00000000000E+00  0.00000000000E+00  0.53865846053E+01  0.53865846053E+01  0.00000000000E+00 0. -1.
          2   -1    0    0  501    0 -0.00000000000E+00 -0.00000000000E+00 -0.63236913674E+03  0.63236913674E+03  0.00000000000E+00 0.  1.
          2    1    1    2  501    0 -0.19364137228E+02  0.83842658016E+01 -0.16184551506E+02  0.26593334335E+02  0.00000000000E+00 0. -1.
          2    1    1    2  502    0  0.19364137228E+02 -0.83842658016E+01 -0.61079800063E+03  0.61116238701E+03  0.00000000000E+00 0.  1.
</event>
<event>
 4    1  0.8104768E+003  0.2902424E+02  0.7546771E-02  0.1428269E+00
          2   -1    0    0  501    0  0.00000000000E+00  0.00000000000E+00  0.74096683745E+02  0.74096683745E+02  0.00000000000E+00 0. -1.
          2   -1    0    0  502    0 -0.00000000000E+00 -0.00000000000E+00 -0.11587780912E+03  0.11587780912E+03  0.00000000000E+00 0. -1.
          2    1    1    2  501    0  0.18471584802E+02 -0.22387652107E+02 -0.11109784020E+03  0.11482654967E+03  0.00000000000E+00 0. -1.
          2    1    1    2  502    0 -0.18471584802E+02  0.22387652107E+02  0.69316714827E+02  0.75147943194E+02  0.00000000000E+00 0. -1.
</event>
<event>
 4    1  0.8104768E+003  0.2326144E+02  0.7546771E-02  0.1489241E+00
          2   -1    0    0  502    0  0.00000000000E+00  0.00000000000E+00  0.89994770997E+00  0.89994770997E+00  0.00000000000E+00 0. -1.
          2   -1    0    0  501    0 -0.00000000000E+00 -0.00000000000E+00 -0.11190616041E+04  0.11190616041E+04  0.00000000000E+00 0.  1.
          2    1    1    2  501    0  0.32895615128E+01  0.23027663993E+02 -0.17816277072E+03  0.17967489361E+03  0.00000000000E+00 0. -1.
          2    1    1    2  502    0 -0.32895615128E+01 -0.23027663993E+02 -0.93999888566E+03  0.94028665819E+03  0.00000000000E+00 0.  1.
</event>
<event>
 4    1  0.8104768E+003  0.3873974E+02  0.7546771E-02  0.1356033E+00
          2   -1    0    0  502    0  0.00000000000E+00  0.00000000000E+00  0.62029481371E+02  0.62029481371E+02  0.00000000000E+00 0.  1.
          2   -1    0    0  501    0 -0.00000000000E+00 -0.00000000000E+00 -0.84563965951E+02  0.84563965951E+02  0.00000000000E+00 0. -1.
          2    1    1    2  501    0 -0.80263453857E+01 -0.37899142960E+02  0.50662724847E+02  0.63776790028E+02  0.00000000000E+00 0.  1.
          2    1    1    2  502    0  0.80263453857E+01  0.37899142960E+02 -0.73197209428E+02  0.82816657294E+02  0.00000000000E+00 0. -1.
</event>
<event>
 4    1  0.8104768E+003  0.2241773E+02  0.7546771E-02  0.1499942E+00
          2   -1    0    0  502    0  0.00000000000E+00  0.00000000000E+00  0.15085939794E+03  0.15085939794E+03  0.00000000000E+00 0. -1.
          2   -1    0    0  501    0 -0.00000000000E+00 -0.00000000000E+00 -0.27102022229E+03  0.27102022229E+03  0.00000000000E+00 0. -1.
          2    1    1    2  501    0  0.20557365528E+02 -0.89414293350E+01  0.14955899382E+03  0.15122978234E+03  0.00000000000E+00 0. -1.
          2    1    1    2  502    0 -0.20557365528E+02  0.89414293350E+01 -0.26971981816E+03  0.27064983788E+03  0.00000000000E+00 0. -1.
</event>
<event>
 4    1  0.8104768E+003  0.1200397E+03  0.7546771E-02  0.1133005E+00
          2   -1    0    0  501    0  0.00000000000E+00  0.00000000000E+00  0.30536791108E+02  0.30536791108E+02  0.00000000000E+00 0. -1.
          2   -1    0    0  502    0 -0.00000000000E+00 -0.00000000000E+00 -0.47237068541E+03  0.47237068541E+03  0.00000000000E+00 0. -1.
          2    1    1    2  501    0 -0.33338558143E+02  0.11531727865E+03 -0.21276762070E+03  0.24429407409E+03  0.00000000000E+00 0. -1.
          2    1    1    2  502    0  0.33338558143E+02 -0.11531727865E+03 -0.22906627360E+03  0.25861340243E+03  0.00000000000E+00 0. -1.
</event>
<event>
 4    1  0.8104768E+003  0.3421761E+02  0.7546771E-02  0.1386149E+00
          2   -1    0    0  501    0  0.00000000000E+00  0.00000000000E+00  0.17147079987E+04  0.17147079987E+04  0.00000000000E+00 0.  1.
          2   -1    0    0  502    0 -0.00000000000E+00 -0.00000000000E+00 -0.93993414828E+00  0.93993414828E+00  0.00000000000E+00 0. -1.
          2    1    1    2  501    0  0.64489033099E+01  0.33604413400E+02  0.40823318714E+03  0.40966471661E+03  0.00000000000E+00 0. -1.
          2    1    1    2  502    0 -0.64489033099E+01 -0.33604413400E+02  0.13055348774E+04  0.13059832162E+04  0.00000000000E+00 0.  1.
</event>
<event>
 4    1  0.8104768E+003  0.2545263E+02  0.7546771E-02  0.1463803E+00
          2   -1    0    0  501    0  0.00000000000E+00  0.00000000000E+00  0.54089971039E+03  0.54089971039E+03  0.00000000000E+00 0.  1.
          2   -1    0    0  502    0 -0.00000000000E+00 -0.00000000000E+00 -0.37561918885E+02  0.37561918885E+02  0.00000000000E+00 0. -1.
          2    1    1    2  501    0  0.11885453402E+02  0.22507166101E+02 -0.32913346390E+02  0.41606789098E+02  0.00000000000E+00 0. -1.
          2    1    1    2  502    0 -0.11885453402E+02 -0.22507166101E+02  0.53625113790E+03  0.53685484018E+03  0.00000000000E+00 0.  1.
</event>
<event>
 4    1  0.8104768E+003  0.2347927E+02  0.7546771E-02  0.1486566E+00
          2   -1    0    0  502    0  0.00000000000E+00  0.00000000000E+00  0.43411566420E+01  0.43411566420E+01  0.00000000000E+00 0. -1.
          2   -1    0    0  501    0 -0.00000000000E+00 -0.00000000000E+00 -0.98047219183E+03  0.98047219183E+03  0.00000000000E+00 0. -1.
          2    1    1    2  501    0  0.15482979404E+02  0.17650871933E+02 -0.28651793277E+02  0.37043234055E+02  0.00000000000E+00 0. -1.
          2    1    1    2  502    0 -0.15482979404E+02 -0.17650871933E+02 -0.94747924192E+03  0.94777011442E+03  0.00000000000E+00 0. -1.
</event>
<event>
 4    1  0.8104768E+003  0.2172162E+02  0.7546771E-02  0.1509206E+00
          2   -1    0    0  501    0  0.00000000000E+00  0.00000000000E+00  0.56838289669E+02  0.56838289669E+02  0.00000000000E+00 0.  1.
          2   -1    0    0  502    0 -0.00000000000E+00 -0.00000000000E+00 -0.98634300009E+03  0.98634300009E+03  0.00000000000E+00 0.  1.
          2    1    1    2  501    0 -0.14650686138E+02 -0.16037028671E+02 -0.98414345922E+03  0.98438314554E+03  0.00000000000E+00 0.  1.
          2    1    1    2  502    0  0.14650686138E+02  0.16037028671E+02  0.54638748802E+02  0.58798144218E+02  0.00000000000E+00 0.  1.
</event>
<event>
 4    1  0.8104768E+003  0.2299199E+02  0.7546771E-02  0.1492599E+00
          2   -1    0    0  502    0  0.00000000000E+00  0.00000000000E+00  0.30263999250E+02  0.30263999250E+02  0.00000000000E+00 0.  1.
          2   -1    0    0  501    0 -0.00000000000E+00 -0.00000000000E+00 -0.12306030548E+03  0.12306030548E+03  0.00000000000E+00 0. -1.
          2    1    1    2  501    0 -0.19215533569E+02 -0.12625167060E+02  0.24615116121E+02  0.33682866791E+02  0.00000000000E+00 0.  1.
          2    1    1    2  502    0  0.19215533569E+02  0.12625167060E+02 -0.11741142235E+03  0.11964143794E+03  0.00000000000E+00 0. -1.
</event>
<event>
 4    1  0.8104768E+003  0.4301021E+02  0.7546771E-02  0.1331695E+00
          2   -1    0    0  501    0  0.00000000000E+00  0.00000000000E+00  0.23153793102E+03  0.23153793102E+03  0.00000000000E+00 0. -1.
          2   -1    0    0  502    0 -0.00000000000E+00 -0.00000000000E+00 -0.14203105653E+04  0.14203105653E+04  0.00000000000E+00 0. -1.
          2    1    1    2  501    0 -0.38399476168E+02 -0.19374173397E+02 -0.14179842961E+04  0.14186364377E+04  0.00000000000E+00 0. -1.
          2    1    1    2  502    0  0.38399476168E+02  0.19374173397E+02  0.22921166183E+03  0.23321205862E+03  0.00000000000E+00 0. -1.
</event>
<event>
 4    1  0.8104768E+003  0.2209143E+02  0.7546771E-02  0.1504234E+00
          2   -1    0    0  501    0  0.00000000000E+00  0.00000000000E+00  0.18956640524E+03  0.18956640524E+03  0.00000000000E+00 0.  1.
          2   -1    0    0  502    0 -0.00000000000E+00 -0.00000000000E+00 -0.25884973460E+01  0.25884973460E+01  0.00000000000E+00 0.  1.
          2    1    1    2  501    0  0.10133371014E+02  0.19630228735E+02  0.10056422893E+03  0.10296210579E+03  0.00000000000E+00 0.  1.
          2    1    1    2  502    0 -0.10133371014E+02 -0.19630228735E+02  0.86413678963E+02  0.89192796796E+02  0.00000000000E+00 0.  1.
</event>
<event>
 4    1  0.8104768E+003  0.2218666E+02  0.7546771E-02  0.1502972E+00
          2   -1    0    0  501    0  0.00000000000E+00  0.00000000000E+00  0.48037986137E+03  0.48037986137E+03  0.00000000000E+00 0.  1.
          2   -1    0    0  502    0 -0.00000000000E+00 -0.00000000000E+00 -0.49488548886E+02  0.49488548886E+02  0.00000000000E+00 0. -1.
          2    1    1    2  501    0  0.18212455927E+02 -0.12671004127E+02 -0.46731349523E+02  0.51730715486E+02  0.00000000000E+00 0. -1.
          2    1    1    2  502    0 -0.18212455927E+02  0.12671004127E+02  0.47762266201E+03  0.47813769477E+03  0.00000000000E+00 0.  1.
</event>
<event>
 4    1  0.8104768E+003  0.2538364E+02  0.7546771E-02  0.1464557E+00
          2   -1    0    0  501    0  0.00000000000E+00  0.00000000000E+00  0.18290243088E+04  0.18290243088E+04  0.00000000000E+00 0.  1.
          2   -1    0    0  502    0 -0.00000000000E+00 -0.00000000000E+00 -0.42007924344E+00  0.42007924344E+00  0.00000000000E+00 0. -1.
          2    1    1    2  501    0 -0.22340114105E+02  0.12051901425E+02  0.54682065850E+03  0.54740950082E+03  0.00000000000E+00 0. -1.
          2    1    1    2  502    0  0.22340114105E+02 -0.12051901425E+02  0.12817835711E+04  0.12820348873E+04  0.00000000000E+00 0.  1.
</event>
<event>
 4    1  0.8104768E+003  0.2186327E+02  0.7546771E-02  0.1507288E+00
          2   -1    0    0  501    0  0.00000000000E+00  0.00000000000E+00  0.80069580385E+03  0.80069580385E+03  0.00000000000E+00 0. -1.
          2   -1    0    0  502    0 -0.00000000000E+00 -0.00000000000E+00 -0.10509378214E+01  0.10509378214E+01  0.00000000000E+00 0. -1.
          2    1    1    2  501    0  0.84757652018E+01 -0.20153514835E+02  0.13635652134E+03  0.13809816678E+03  0.00000000000E+00 0. -1.
          2    1    1    2  502    0 -0.84757652018E+01  0.20153514835E+02  0.66328834469E+03  0.66364857490E+03  0.00000000000E+00 0. -1.
</event>
<event>
 4    1  0.8104768E+003  0.2146202E+02  0.7546771E-02  0.1512770E+00
          2   -1    0    0  502    0  0.00000000000E+00  0.00000000000E+00  0.68266776025E+01  0.68266776025E+01  0.00000000000E+00 0.  1.
          2   -1    0    0  501    0 -0.00000000000E+00 -0.00000000000E+00 -0.52090508322E+03  0.52090508322E+03  0.00000000000E+00 0.  1.
          2    1    1    2  501    0  0.10292851500E+02 -0.18832828910E+02 -0.10855140142E+02  0.24051035409E+02  0.00000000000E+00 0.  1.
          2    1    1    2  502    0 -0.10292851500E+02  0.18832828910E+02 -0.50322326547E+03  0.50368072541E+03  0.00000000000E+00 0.  1.
</event>
<event>
 4    1  0.8104768E+003  0.2725163E+02  0.7546771E-02  0.1445097E+00
          2   -1    0    0  501    0  0.00000000000E+00  0.00000000000E+00  0.18277335151E+02  0.18277335151E+02  0.00000000000E+00 0.  1.
          2   -1    0    0  502    0 -0.00000000000E+00 -0.00000000000E+00 -0.43154655558E+03  0.43154655558E+03  0.00000000000E+00 0. -1.
          2    1    1    2  501    0 -0.24952521925E+02  0.10955498816E+02 -0.42069652909E+03  0.42157825002E+03  0.00000000000E+00 0. -1.
          2    1    1    2  502    0  0.24952521925E+02 -0.10955498816E+02  0.74273086651E+01  0.28245640703E+02  0.00000000000E+00 0.  1.
</event>
<event>
 4    1  0.8104768E+003  0.3022336E+02  0.7546771E-02  0.1417665E+00
          2   -1    0    0  502    0  0.00000000000E+00  0.00000000000E+00  0.74578598466E+01  0.74578598466E+01  0.00000000000E+00 0.  1.
          2   -1    0    0  501    0 -0.00000000000E+00 -0.00000000000E+00 -0.99867960536E+03  0.99867960536E+03  0.00000000000E+00 0.  1.
          2    1    1    2  501    0  0.29972848849E+02  0.38832997327E+01 -0.24399971523E+02  0.38843407360E+02  0.00000000000E+00 0.  1.
          2    1    1    2  502    0 -0.29972848849E+02 -0.38832997327E+01 -0.96682177399E+03  0.96729405784E+03  0.00000000000E+00 0.  1.
</event>
<event>
 4    1  0.8104768E+003  0.2305068E+02  0.7546771E-02  0.1491863E+00
          2   -1    0    0  502    0  0.00000000000E+00  0.00000000000E+00  0.15695799893E+03  0.15695799893E+03  0.00000000000E+00 0.  1.
          2   -1    0    0  501    0 -0.00000000000E+00 -0.00000000000E+00 -0.16101935740E+02  0.16101935740E+02  0.00000000000E+00 0.  1.
          2    1    1    2  501    0 -0.14667381132E+01 -0.23003969062E+02  0.14732608596E+03  0.14911844124E+03  0.00000000000E+00 0.  1.
          2    1    1    2  502    0  0.14667381132E+01  0.23003969062E+02 -0.64700227662E+01  0.23941493435E+02  0.00000000000E+00 0.  1.
</event>
<event>
 4    1  0.8104768E+003  0.3011791E+02  0.7546771E-02  0.1418574E+00
          2   -1    0    0  501    0  0.00000000000E+00  0.00000000000E+00  0.16941378154E+04  0.16941378154E+04  0.00000000000E+00 0. -1.
          2   -1    0    0  502    0 -0.00000000000E+00 -0.00000000000E+00 -0.15091862361E+03  0.15091862361E+03  0.00000000000E+00 0.  1.
          2    1    1    2  501    0  0.16730171483E+02  0.25043761593E+02 -0.14928070044E+03  0.15228859496E+03  0.00000000000E+00 0.  1.
          2    1    1    2  502    0 -0.16730171483E+02 -0.25043761593E+02  0.16924998923E+04  0.16927678441E+04  0.00000000000E+00 0. -1.
</event>
<event>
 4    1  0.8104768E+003  0.3583032E+02  0.7546771E-02  0.1374818E+00
          2   -1    0    0  501    0  0.00000000000E+00  0.00000000000E+00  0.28266960724E+02  0.28266960724E+02  0.00000000000E+00 0.  1.
          2   -1    0    0  502    0 -0.00000000000E+00 -0.00000000000E+00 -0.18011187513E+04  0.18011187513E+04  0.00000000000E+00 0.  1.
          2    1    1    2  501    0  0.12900473831E+02 -0.33427381906E+02 -0.17895125697E+04  0.17898712381E+04  0.00000000000E+00 0.  1.
          2    1    1    2  502    0 -0.12900473831E+02  0.33427381906E+02  0.16660779101E+02  0.39514473884E+02  0.00000000000E+00 0.  1.
</event>
<event>
 4    1  0.8104768E+003  0.4776161E+02  0.7546771E-02  0.1308180E+00
          2   -1    0    0  501    0  0.00000000000E+00  0.00000000000E+00  0.28009881199E+01  0.28009881199E+01  0.00000000000E+00 0.  1.
          2   -1    0    0  502    0 -0.00000000000E+00 -0.00000000000E+00 -0.18207356288E+04  0.18207356288E+04  0.00000000000E+00 0. -1.
          2    1    1    2  501    0 -0.29061326109E+01  0.47673109560E+02 -0.15868099970E+04  0.15875286257E+04  0.00000000000E+00 0. -1.
          2    1    1    2  502    0  0.29061326109E+01 -0.47673109560E+02 -0.23112464366E+03  0.23600799116E+03  0.00000000000E+00 0.  1.
</event>
<event>
 4    1  0.8104768E+003  0.2616967E+02  0.7546771E-02  0.1456132E+00
          2   -1    0    0  502    0  0.00000000000E+00  0.00000000000E+00  0.99724107883E+01  0.99724107883E+01  0.00000000000E+00 0.  1.
          2   -1    0    0  501    0 -0.00000000000E+00 -0.00000000000E+00 -0.14448800645E+03  0.14448800645E+03  0.00000000000E+00 0.  1.
          2    1    1    2  501    0  0.24044821923E+02 -0.10329475419E+02 -0.11314990563E+02  0.28511059874E+02  0.00000000000E+00 0.  1.
          2    1    1    2  502    0 -0.24044821923E+02  0.10329475419E+02 -0.12320060510E+03  0.12594935737E+03  0.00000000000E+00 0.  1.
</event>
<event>
 4    1  0.8104768E+003  0.2366953E+02  0.7546771E-02  0.1484258E+00
          2   -1    0    0  501    0  0.00000000000E+00  0.00000000000E+00  0.11067047011E+03  0.11067047011E+03  0.00000000000E+00 0.  1.
          2   -1    0    0  502    0 -0.00000000000E+00 -0.00000000000E+00 -0.83276586233E+01  0.83276586233E+01  0.00000000000E+00 0. -1.
          2    1    1    2  501    0 -0.15002713674E+02 -0.18307514068E+02  0.13913837819E+02  0.27456171835E+02  0.00000000000E+00 0. -1.
          2    1    1    2  502    0  0.15002713674E+02  0.18307514068E+02  0.88428973671E+02  0.91541956902E+02  0.00000000000E+00 0.  1.
</event>
<event>
 4    1  0.8104768E+003  0.5190642E+02  0.7546771E-02  0.1290112E+00
          2   -1    0    0  502    0  0.00000000000E+00  0.00000000000E+00  0.11351958647E+04  0.11351958647E+04  0.00000000000E+00 0.  1.
          2   -1    0    0  501    0 -0.00000000000E+00 -0.00000000000E+00 -0.34351221436E+01  0.34351221436E+01  0.00000000000E+00 0. -1.
          2    1    1    2  501    0 -0.16426815449E+02  0.49238562064E+02  0.24937074938E+03  0.25471561968E+03  0.00000000000E+00 0. -1.
          2    1    1    2  502    0  0.16426815449E+02 -0.49238562064E+02  0.88238999316E+03  0.88391536715E+03  0.00000000000E+00 0.  1.
</event>
<event>
 4    1  0.8104768E+003  0.2132374E+02  0.7546771E-02  0.1514693E+00
          2   -1    0    0  501    0  0.00000000000E+00  0.00000000000E+00  0.11297278602E+04  0.11297278602E+04  0.00000000000E+00 0. -1.
          2   -1    0    0  502    0 -0.00000000000E+00 -0.00000000000E+00 -0.40615090126E+02  0.40615090126E+02  0.00000000000E+00 0. -1.
          2    1    1    2  501    0 -0.11798987200E+02  0.17761924167E+02 -0.37708399779E+02  0.43320035352E+02  0.00000000000E+00 0. -1.
          2    1    1    2  502    0  0.11798987200E+02 -0.17761924167E+02  0.11268211699E+04  0.11270229150E+04  0.00000000000E+00 0. -1.
</event>
<event>
 4    1  0.8104768E+003  0.2478025E+02  0.7546771E-02  0.1471277E+00
          2   -1    0    0  501    0  0.00000000000E+00  0.00000000000E+00  0.74824093510E+01  0.74824093510E+01  0.00000000000E+00 0. -1.
          2   -1    0    0  502    0 -0.00000000000E+00 -0.00000000000E+00 -0.33215315308E+03  0.33215315308E+03  0.00000000000E+00 0.  1.
          2    1    1    2  501    0 -0.24557232520E+02  0.33170839339E+01 -0.30968823661E+03  0.31067807230E+03  0.00000000000E+00 0.  1.
          2    1    1    2  502    0  0.24557232520E+02 -0.33170839339E+01 -0.14982507115E+02  0.28957490125E+02  0.00000000000E+00 0. -1.
</event>
<event>
 4    1  0.8104768E+003  0.2278219E+02  0.7546771E-02  0.1495251E+00
          2   -1    0    0  501    0  0.00000000000E+00  0.00000000000E+00  0.39151755345E+03  0.39151755345E+03  0.00000000000E+00 0.  1.
          2   -1    0    0  502    0 -0.00000000000E+00 -0.00000000000E+00 -0.20203751380E+03  0.20203751380E+03  0.00000000000E+00 0. -1.
          2    1    1    2  501    0 -0.18868871037E+02  0.12766908848E+02 -0.20106224811E+03  0.20234884697E+03  0.00000000000E+00 0. -1.
          2    1    1    2  502    0  0.18868871037E+02 -0.12766908848E+02  0.39054228776E+03  0.39120622028E+03  0.00000000000E+00 0.  1.
</event>
<event>
 4    1  0.8104768E+003  0.2630606E+02  0.7546771E-02  0.1454706E+00
          2   -1    0    0  501    0  0.00000000000E+00  0.00000000000E+00  0.18657236572E+04  0.18657236572E+04  0.00000000000E+00 0.  1.
          2   -1    0    0  502    0 -0.00000000000E+00 -0.00000000000E+00 -0.29174290276E+03  0.29174290276E+03  0.00000000000E+00 0.  1.
          2    1    1    2  501    0 -0.55958645184E+01  0.25703992524E+02 -0.29105696255E+03  0.29224333077E+03  0.00000000000E+00 0.  1.
          2    1    1    2  502    0  0.55958645184E+01 -0.25703992524E+02  0.18650377170E+04  0.18652232292E+04  0.00000000000E+00 0.  1.
</event>
<event>
 4    1  0.8104768E+003  0.2012687E+02  0.7546771E-02  0.1532105E+00
          2   -1    0    0  502    0  0.00000000000E+00  0.00000000000E+00  0.72520269765E+03  0.72520269765E+03  0.00000000000E+00 0.  1.
          2   -1    0    0  501    0 -0.00000000000E+00 -0.00000000000E+00 -0.18269972521E+01  0.18269972521E+01  0.00000000000E+00 0. -1.
          2    1    1    2  501    0  0.18566634589E+02  0.77698851184E+01  0.66457618735E+03  0.66488089146E+03  0.00000000000E+00 0.  1.
          2    1    1    2  502    0 -0.18566634589E+02 -0.77698851184E+01  0.58799513048E+02  0.62148803443E+02  0.00000000000E+00 0. -1.
</event>
<event>
 4    1  0.8104768E+003  0.2793094E+02  0.7546771E-02  0.1438474E+00
          2   -1    0    0  502    0  0.00000000000E+00  0.00000000000E+00  0.25505357617E+03  0.25505357617E+03  0.00000000000E+00 0.  1.
          2   -1    0    0  501    0 -0.00000000000E+00 -0.00000000000E+00 -0.24132064906E+02  0.24132064906E+02  0.00000000000E+00 0.  1.
          2    1    1    2  501    0 -0.31310929463E+01 -0.27754885850E+02  0.24590730021E+03  0.24748845979E+03  0.00000000000E+00 0.  1.
          2    1    1    2  502    0  0.31310929463E+01  0.27754885850E+02 -0.14985788943E+02  0.31697181291E+02  0.00000000000E+00 0.  1.
</event>
<event>
 4    1  0.1026702E+004  0.2824900E+02  0.7546771E-02  0.1435450E+00
          2   -1    0    0  502    0  0.00000000000E+00  0.00000000000E+00  0.39682674588E+03  0.39682674588E+03  0.00000000000E+00 0.  1.
          2   -1    0    0  501    0 -0.00000000000E+00 -0.00000000000E+00 -0.20532262745E+04  0.20532262745E+04  0.00000000000E+00 0.  1.
          2    1    1    2  501    0 -0.26672348687E+02 -0.93054764075E+01  0.39622669191E+03  0.39723242246E+03  0.00000000000E+00 0.  1.
          2    1    1    2  502    0  0.26672348687E+02  0.93054764075E+01 -0.20526262205E+04  0.20528205979E+04  0.00000000000E+00 0.  1.
</event>
<event>
 4    1  0.8104768E+003  0.2569177E+02  0.7546771E-02  0.1461211E+00
          2   -1    0    0  502    0  0.00000000000E+00  0.00000000000E+00  0.59452524408E+00  0.59452524408E+00  0.00000000000E+00 0. -1.
          2   -1    0    0  501    0 -0.00000000000E+00 -0.00000000000E+00 -0.12383297040E+04  0.12383297040E+04  0.00000000000E+00 0. -1.
          2    1    1    2  501    0  0.11657850919E+02  0.22894578672E+02 -0.81809514214E+03  0.81849845988E+03  0.00000000000E+00 0. -1.
          2    1    1    2  502    0 -0.11657850919E+02 -0.22894578672E+02 -0.41964003660E+03  0.42042576935E+03  0.00000000000E+00 0. -1.
</event>
<event>
 4    1  0.8104768E+003  0.2025202E+02  0.7546771E-02  0.1530217E+00
          2   -1    0    0  501    0  0.00000000000E+00  0.00000000000E+00  0.19137820948E+03  0.19137820948E+03  0.00000000000E+00 0.  1.
          2   -1    0    0  502    0 -0.00000000000E+00 -0.00000000000E+00 -0.29989255421E+01  0.29989255421E+01  0.00000000000E+00 0.  1.
          2    1    1    2  501    0 -0.17470466692E+02  0.10243395102E+02  0.42271075133E+02  0.46872040094E+02  0.00000000000E+00 0.  1.
          2    1    1    2  502    0  0.17470466692E+02 -0.10243395102E+02  0.14610820881E+03  0.14750509493E+03  0.00000000000E+00 0.  1.
</event>
<event>
 4    1  0.8104768E+003  0.2172524E+02  0.7546771E-02  0.1509157E+00
          2   -1    0    0  501    0  0.00000000000E+00  0.00000000000E+00  0.35536512330E+01  0.35536512330E+01  0.00000000000E+00 0. -1.
          2   -1    0    0  502    0 -0.00000000000E+00 -0.00000000000E+00 -0.53705353846E+03  0.53705353846E+03  0.00000000000E+00 0.  1.
          2    1    1    2  501    0 -0.21540676096E+02 -0.28258343403E+01 -0.50125958203E+03  0.50173016119E+03  0.00000000000E+00 0.  1.
          2    1    1    2  502    0  0.21540676096E+02  0.28258343403E+01 -0.32240305199E+02  0.38877028510E+02  0.00000000000E+00 0. -1.
</event>
<event>
 4    1  0.8104768E+003  0.2254527E+02  0.7546771E-02  0.1498289E+00
          2   -1    0    0  502    0  0.00000000000E+00  0.00000000000E+00  0.36805150394E+01  0.36805150394E+01  0.00000000000E+00 0.  1.
          2   -1    0    0  501    0 -0.00000000000E+00 -0.00000000000E+00 -0.15652675867E+03  0.15652675867E+03  0.00000000000E+00 0.  1.
          2    1    1    2  501    0  0.12797198044E+02  0.18561273927E+02 -0.48940999913E+02  0.53884233687E+02  0.00000000000E+00 0.  1.
          2    1    1    2  502    0 -0.12797198044E+02 -0.18561273927E+02 -0.10390524371E+03  0.10632304002E+03  0.00000000000E+00 0.  1.
</event>
<event>
 4    1  0.8104768E+003  0.2190395E+02  0.7546771E-02  0.1506740E+00
          2   -1    0    0  502    0  0.00000000000E+00  0.00000000000E+00  0.16078905801E+03  0.16078905801E+03  0.00000000000E+00 0. -1.
          2   -1    0    0  501    0 -0.00000000000E+00 -0.00000000000E+00 -0.48710926992E+01  0.48710926992E+01  0.00000000000E+00 0.  1.
          2    1    1    2  501    0 -0.16971590786E+02  0.13847310623E+02  0.12951505320E+03  0.13135422304E+03  0.00000000000E+00 0. -1.
          2    1    1    2  502    0  0.16971590786E+02 -0.13847310623E+02  0.26402912113E+02  0.34305927671E+02  0.00000000000E+00 0.  1.
</event>
<event>
 4    1  0.8104768E+003  0.3339652E+02  0.7546771E-02  0.1392201E+00
          2   -1    0    0  501    0  0.00000000000E+00  0.00000000000E+00  0.29108836159E+03  0.29108836159E+03  0.00000000000E+00 0. -1.
          2   -1    0    0  502    0 -0.00000000000E+00 -0.00000000000E+00 -0.15108646977E+02  0.15108646977E+02  0.00000000000E+00 0.  1.
          2    1    1    2  501    0 -0.88249147761E+01 -0.32209444696E+02  0.57213963824E+01  0.33883061034E+02  0.00000000000E+00 0.  1.
          2    1    1    2  502    0  0.88249147761E+01  0.32209444696E+02  0.27025831823E+03  0.27231394753E+03  0.00000000000E+00 0. -1.
</event>
<event>
 4    1  0.8104768E+003  0.3631174E+02  0.7546771E-02  0.1371569E+00
          2   -1    0    0  502    0  0.00000000000E+00  0.00000000000E+00  0.39832687335E+03  0.39832687335E+03  0.00000000000E+00 0. -1.
          2   -1    0    0  501    0 -0.00000000000E+00 -0.00000000000E+00 -0.50745142920E+01  0.50745142920E+01  0.00000000000E+00 0. -1.
          2    1    1    2  501    0  0.24765925148E+02 -0.26555439151E+02  0.31555795080E+03  0.31764030398E+03  0.00000000000E+00 0. -1.
          2    1    1    2  502    0 -0.24765925148E+02  0.26555439151E+02  0.77694408256E+02  0.85761083664E+02  0.00000000000E+00 0. -1.
</event>
<event>
 4    1  0.8104768E+003  0.2076043E+02  0.7546771E-02  0.1522713E+00
          2   -1    0    0  502    0  0.00000000000E+00  0.00000000000E+00  0.14879884532E+03  0.14879884532E+03  0.00000000000E+00 0. -1.
          2   -1    0    0  501    0 -0.00000000000E+00 -0.00000000000E+00 -0.79398762157E+02  0.79398762157E+02  0.00000000000E+00 0. -1.
          2    1    1    2  501    0  0.63077953376E+00  0.20750844963E+02  0.14669832636E+03  0.14816002972E+03  0.00000000000E+00 0. -1.
          2    1    1    2  502    0 -0.63077953376E+00 -0.20750844963E+02 -0.77298243205E+02  0.80037577750E+02  0.00000000000E+00 0. -1.
</event>
<event>
 4    1  0.8104768E+003  0.2523249E+02  0.7546771E-02  0.1466219E+00
          2   -1    0    0  502    0  0.00000000000E+00  0.00000000000E+00  0.68992711935E+01  0.68992711935E+01  0.00000000000E+00 0.  1.
          2   -1    0    0  501    0 -0.00000000000E+00 -0.00000000000E+00 -0.17350973195E+03  0.17350973195E+03  0.00000000000E+00 0. -1.
          2    1    1    2  501    0 -0.18775533700E+02  0.16856990437E+02 -0.21586304521E+02  0.33206133999E+02  0.00000000000E+00 0.  1.
          2    1    1    2  502    0  0.18775533700E+02 -0.16856990437E+02 -0.14502415623E+03  0.14720286914E+03  0.00000000000E+00 0. -1.
</event>
<event>
 4    1  0.8104768E+003  0.2222060E+02  0.7546771E-02  0.1502524E+00
          2   -1    0    0  502    0  0.00000000000E+00  0.00000000000E+00  0.13266677019E+04  0.13266677019E+04  0.00000000000E+00 0.  1.
          2   -1    0    0  501    0 -0.00000000000E+00 -0.00000000000E+00 -0.43311579817E+00  0.43311579817E+00  0.00000000000E+00 0.  1.
          2    1    1    2  501    0 -0.11982123314E+02 -0.18713202945E+02  0.91201376928E+03  0.91228442418E+03  0.00000000000E+00 0.  1.
          2    1    1    2  502    0  0.11982123314E+02  0.18713202945E+02  0.41422081682E+03  0.41481639351E+03  0.00000000000E+00 0.  1.
</event>
<event>
 4    1  0.8104768E+003  0.3648201E+02  0.7546771E-02  0.1370433E+00
          2   -1    0    0  502    0  0.00000000000E+00  0.00000000000E+00  0.36660182848E+02  0.36660182848E+02  0.00000000000E+00 0. -1.
          2   -1    0    0  501    0 -0.00000000000E+00 -0.00000000000E+00 -0.58958956708E+02  0.58958956708E+02  0.00000000000E+00 0. -1.
          2    1    1    2  501    0 -0.28241821074E+02 -0.23094079105E+02  0.18486289714E+02  0.40898408950E+02  0.00000000000E+00 0. -1.
          2    1    1    2  502    0  0.28241821074E+02  0.23094079105E+02 -0.40785063575E+02  0.54720730606E+02  0.00000000000E+00 0. -1.
</event>
<event>
 4    1  0.8104768E+003  0.2095965E+02  0.7546771E-02  0.1519842E+00
          2   -1    0    0  502    0  0.00000000000E+00  0.00000000000E+00  0.62647049501E+01  0.62647049501E+01  0.00000000000E+00 0.  1.
          2   -1    0    0  501    0 -0.00000000000E+00 -0.00000000000E+00 -0.24770994123E+03  0.24770994123E+03  0.00000000000E+00 0. -1.
          2    1    1    2  501    0 -0.11719763424E+02  0.17376829620E+02 -0.13201748908E+02  0.24770814210E+02  0.00000000000E+00 0.  1.
          2    1    1    2  502    0  0.11719763424E+02 -0.17376829620E+02 -0.22824348737E+03  0.22920383197E+03  0.00000000000E+00 0. -1.
</event>
<event>
 4    1  0.8104768E+003  0.3605020E+02  0.7546771E-02  0.1373327E+00
          2   -1    0    0  501    0  0.00000000000E+00  0.00000000000E+00  0.67109223901E+01  0.67109223901E+01  0.00000000000E+00 0.  1.
          2   -1    0    0  502    0 -0.00000000000E+00 -0.00000000000E+00 -0.60613726572E+03  0.60613726572E+03  0.00000000000E+00 0. -1.
          2    1    1    2  501    0  0.32869248351E+02  0.14806403867E+02 -0.55249101657E+03  0.55366591052E+03  0.00000000000E+00 0. -1.
          2    1    1    2  502    0 -0.32869248351E+02 -0.14806403867E+02 -0.46935326762E+02  0.59182277591E+02  0.00000000000E+00 0.  1.
</event>
<event>
 4    1  0.8104768E+003  0.3019688E+02  0.7546771E-02  0.1417893E+00
          2   -1    0    0  502    0  0.00000000000E+00  0.00000000000E+00  0.12526512134E+04  0.12526512134E+04  0.00000000000E+00 0. -1.
          2   -1    0    0  501    0 -0.00000000000E+00 -0.00000000000E+00 -0.11920165947E+02  0.11920165947E+02  0.00000000000E+00 0.  1.
          2    1    1    2  501    0  0.57371872588E+01  0.29646857768E+02  0.12330409895E+04  0.12334106913E+04  0.00000000000E+00 0. -1.
          2    1    1    2  502    0 -0.57371872588E+01 -0.29646857768E+02  0.76900579863E+01  0.31160688134E+02  0.00000000000E+00 0.  1.
</event>
<event>
 4    1  0.8104768E+003  0.2160573E+02  0.7546771E-02  0.1510790E+00
          2   -1    0    0  501    0  0.00000000000E+00  0.00000000000E+00  0.23665975088E+02  0.23665975088E+02  0.00000000000E+00 0.  1.
          2   -1    0    0  502    0 -0.00000000000E+00 -0.00000000000E+00 -0.44657401749E+03  0.44657401749E+03  0.00000000000E+00 0.  1.
          2    1    1    2  501    0  0.13349262034E+02  0.16988372709E+02 -0.44132284005E+03  0.44185139668E+03  0.00000000000E+00 0.  1.
          2    1    1    2  502    0 -0.13349262034E+02 -0.16988372709E+02  0.18414797649E+02  0.28388595890E+02  0.00000000000E+00 0.  1.
</event>
<event>
 4    1  0.8104768E+003  0.3367661E+02  0.7546771E-02  0.1390113E+00
          2   -1    0    0  501    0  0.00000000000E+00  0.00000000000E+00  0.81534516499E+03  0.81534516499E+03  0.00000000000E+00 0. -1.
          2   -1    0    0  502    0 -0.00000000000E+00 -0.00000000000E+00 -0.15750124908E+01  0.15750124908E+01  0.00000000000E+00 0. -1.
          2    1    1    2  501    0  0.31072751496E+02  0.12984542220E+02  0.26725595681E+03  0.26936937590E+03  0.00000000000E+00 0. -1.
          2    1    1    2  502    0 -0.31072751496E+02 -0.12984542220E+02  0.54651419569E+03  0.54755080158E+03  0.00000000000E+00 0. -1.
</event>
<event>
 4    1  0.8104768E+003  0.2670470E+02  0.7546771E-02  0.1450597E+00
          2   -1    0    0  501    0  0.00000000000E+00  0.00000000000E+00  0.23294883075E+03  0.23294883075E+03  0.00000000000E+00 0. -1.
          2   -1    0    0  502    0 -0.00000000000E+00 -0.00000000000E+00 -0.16780856132E+03  0.16780856132E+03  0.00000000000E+00 0.  1.
          2    1    1    2  501    0  0.26423457251E+02 -0.38654749908E+01 -0.16597237512E+03  0.16810702035E+03  0.00000000000E+00 0.  1.
          2    1    1    2  502    0 -0.26423457251E+02  0.38654749908E+01  0.23111264455E+03  0.23265037172E+03  0.00000000000E+00 0. -1.
</event>
<event>
 4    1  0.8104768E+003  0.3315573E+02  0.7546771E-02  0.1394014E+00
          2   -1    0    0  502    0  0.00000000000E+00  0.00000000000E+00  0.17767202607E+03  0.17767202607E+03  0.00000000000E+00 0.  1.
          2   -1    0    0  501    0 -0.00000000000E+00 -0.00000000000E+00 -0.13816210987E+03  0.13816210987E+03  0.00000000000E+00 0.  1.
          2    1    1    2  501    0 -0.29429266485E+02 -0.15271560060E+02  0.17409555972E+03  0.17722462071E+03  0.00000000000E+00 0.  1.
          2    1    1    2  502    0  0.29429266485E+02  0.15271560060E+02 -0.13458564352E+03  0.13860951524E+03  0.00000000000E+00 0.  1.
</event>
<event>
 4    1  0.8104768E+003  0.2143803E+02  0.7546771E-02  0.1513102E+00
          2   -1    0    0  501    0  0.00000000000E+00  0.00000000000E+00  0.29605184310E+01  0.29605184310E+01  0.00000000000E+00 0.  1.
          2   -1    0    0  502    0 -0.00000000000E+00 -0.00000000000E+00 -0.56594362478E+03  0.56594362478E+03  0.00000000000E+00 0. -1.
          2    1    1    2  501    0  0.66340519711E+01 -0.20385745498E+02 -0.52381033190E+03  0.52424884652E+03  0.00000000000E+00 0. -1.
          2    1    1    2  502    0 -0.66340519711E+01  0.20385745498E+02 -0.39172774442E+02  0.44655296691E+02  0.00000000000E+00 0.  1.
</event>
<event>
 4    1  0.8104768E+003  0.3279445E+02  0.7546771E-02  0.1396769E+00
          2   -1    0    0  502    0  0.00000000000E+00  0.00000000000E+00  0.26585622830E+02  0.26585622830E+02  0.00000000000E+00 0.  1.
          2   -1    0    0  501    0 -0.00000000000E+00 -0.00000000000E+00 -0.54897933807E+02  0.54897933807E+02  0.00000000000E+00 0.  1.
          2    1    1    2  501    0  0.29631416504E+02 -0.14051866318E+02  0.67423614541E+01  0.33480370802E+02  0.00000000000E+00 0.  1.
          2    1    1    2  502    0 -0.29631416504E+02  0.14051866318E+02 -0.35054672431E+02  0.48003185835E+02  0.00000000000E+00 0.  1.
</event>
<event>
 4    1  0.8104768E+003  0.3062206E+02  0.7546771E-02  0.1414266E+00
          2   -1    0    0  501    0  0.00000000000E+00  0.00000000000E+00  0.13706227976E+04  0.13706227976E+04  0.00000000000E+00 0. -1.
          2   -1    0    0  502    0 -0.00000000000E+00 -0.00000000000E+00 -0.57057289192E+01  0.57057289192E+01  0.00000000000E+00 0.  1.
          2    1    1    2  501    0  0.30434072315E+02  0.33878964001E+01  0.36868636535E+02  0.47927100471E+02  0.00000000000E+00 0.  1.
          2    1    1    2  502    0 -0.30434072315E+02 -0.33878964001E+01  0.13280484321E+04  0.13284014260E+04  0.00000000000E+00 0. -1.
</event>
<event>
 4    1  0.8104768E+003  0.2455172E+02  0.7546771E-02  0.1473881E+00
          2   -1    0    0  502    0  0.00000000000E+00  0.00000000000E+00  0.35729682751E+01  0.35729682751E+01  0.00000000000E+00 0. -1.
          2   -1    0    0  501    0 -0.00000000000E+00 -0.00000000000E+00 -0.40880214436E+03  0.40880214436E+03  0.00000000000E+00 0.  1.
          2    1    1    2  501    0 -0.24345165161E+02  0.31780356603E+01 -0.44600068182E+02  0.50911227241E+02  0.00000000000E+00 0. -1.
          2    1    1    2  502    0  0.24345165161E+02 -0.31780356603E+01 -0.36062910791E+03  0.36146388540E+03  0.00000000000E+00 0.  1.
</event>
<event>
 4    1  0.8104768E+003  0.2032824E+02  0.7546771E-02  0.1529076E+00
          2   -1    0    0  501    0  0.00000000000E+00  0.00000000000E+00  0.13627310161E+03  0.13627310161E+03  0.00000000000E+00 0. -1.
          2   -1    0    0  502    0 -0.00000000000E+00 -0.00000000000E+00 -0.64614079589E+03  0.64614079589E+03  0.00000000000E+00 0. -1.
          2    1    1    2  501    0  0.20202948998E+02 -0.22534677210E+01 -0.64522172462E+03  0.64554187408E+03  0.00000000000E+00 0. -1.
          2    1    1    2  502    0 -0.20202948998E+02  0.22534677210E+01  0.13535403034E+03  0.13687202342E+03  0.00000000000E+00 0. -1.
</event>
<event>
 4    1  0.8104768E+003  0.2392305E+02  0.7546771E-02  0.1481222E+00
          2   -1    0    0  501    0  0.00000000000E+00  0.00000000000E+00  0.65699837232E+03  0.65699837232E+03  0.00000000000E+00 0. -1.
          2   -1    0    0  502    0 -0.00000000000E+00 -0.00000000000E+00 -0.16189745048E+01  0.16189745048E+01  0.00000000000E+00 0. -1.
          2    1    1    2  501    0  0.23898795673E+02 -0.10768866315E+01  0.10387059188E+03  0.10658992437E+03  0.00000000000E+00 0. -1.
          2    1    1    2  502    0 -0.23898795673E+02  0.10768866315E+01  0.55150880593E+03  0.55202742245E+03  0.00000000000E+00 0. -1.
</event>
<event>
 4    1  0.8104768E+003  0.2730377E+02  0.7546771E-02  0.1444580E+00
          2   -1    0    0  501    0  0.00000000000E+00  0.00000000000E+00  0.20498584230E+03  0.20498584230E+03  0.00000000000E+00 0. -1.
          2   -1    0    0  502    0 -0.00000000000E+00 -0.00000000000E+00 -0.10162644834E+03  0.10162644834E+03  0.00000000000E+00 0. -1.
          2    1    1    2  501    0 -0.27303177084E+02 -0.17937875593E+00 -0.98858342435E+02  0.10255958036E+03  0.00000000000E+00 0. -1.
          2    1    1    2  502    0  0.27303177084E+02  0.17937875593E+00  0.20221773640E+03  0.20405271028E+03  0.00000000000E+00 0. -1.
</event>
<event>
 4    1  0.8104768E+003  0.2498249E+02  0.7546771E-02  0.1468999E+00
          2   -1    0    0  501    0  0.00000000000E+00  0.00000000000E+00  0.49153835101E+02  0.49153835101E+02  0.00000000000E+00 0. -1.
          2   -1    0    0  502    0 -0.00000000000E+00 -0.00000000000E+00 -0.10359604025E+04  0.10359604025E+04  0.00000000000E+00 0. -1.
          2    1    1    2  501    0  0.94009560199E+01  0.23146209621E+02 -0.10326251910E+04  0.10329273499E+04  0.00000000000E+00 0. -1.
          2    1    1    2  502    0 -0.94009560199E+01 -0.23146209621E+02  0.45818623549E+02  0.52186887796E+02  0.00000000000E+00 0. -1.
</event>
<event>
 4    1  0.8104768E+003  0.3129332E+02  0.7546771E-02  0.1408681E+00
          2   -1    0    0  502    0  0.00000000000E+00  0.00000000000E+00  0.91480647558E+02  0.91480647558E+02  0.00000000000E+00 0.  1.
          2   -1    0    0  501    0 -0.00000000000E+00 -0.00000000000E+00 -0.13627569752E+02  0.13627569752E+02  0.00000000000E+00 0. -1.
          2    1    1    2  501    0 -0.35188059271E+00  0.31291339167E+02  0.63265561964E+02  0.70581889018E+02  0.00000000000E+00 0.  1.
          2    1    1    2  502    0  0.35188059271E+00 -0.31291339167E+02  0.14587515842E+02  0.34526328291E+02  0.00000000000E+00 0. -1.
</event>
<event>
 4    1  0.8104768E+003  0.3922308E+02  0.7546771E-02  0.1353100E+00
          2   -1    0    0  501    0  0.00000000000E+00  0.00000000000E+00  0.25019252971E+03  0.25019252971E+03  0.00000000000E+00 0.  1.
          2   -1    0    0  502    0 -0.00000000000E+00 -0.00000000000E+00 -0.25888004428E+03  0.25888004428E+03  0.00000000000E+00 0.  1.
          2    1    1    2  501    0 -0.32654667608E+02  0.21728388929E+02 -0.25583893224E+03  0.25882814656E+03  0.00000000000E+00 0.  1.
          2    1    1    2  502    0  0.32654667608E+02 -0.21728388929E+02  0.24715141767E+03  0.25024442743E+03  0.00000000000E+00 0.  1.
</event>
<event>
 4    1  0.8104768E+003  0.3185879E+02  0.7546771E-02  0.1404103E+00
          2   -1    0    0  501    0  0.00000000000E+00  0.00000000000E+00  0.59235374402E+03  0.59235374402E+03  0.00000000000E+00 0.  1.
          2   -1    0    0  502    0 -0.00000000000E+00 -0.00000000000E+00 -0.28558862876E+02  0.28558862876E+02  0.00000000000E+00 0. -1.
          2    1    1    2  501    0  0.27373764925E+02  0.16299061510E+02 -0.19101440171E+02  0.37146297647E+02  0.00000000000E+00 0. -1.
          2    1    1    2  502    0 -0.27373764925E+02 -0.16299061510E+02  0.58289632131E+03  0.58376630925E+03  0.00000000000E+00 0.  1.
</event>
<event>
 4    1  0.8104768E+003  0.3010513E+02  0.7546771E-02  0.1418685E+00
          2   -1    0    0  502    0  0.00000000000E+00  0.00000000000E+00  0.66212849977E+01  0.66212849977E+01  0.00000000000E+00 0. -1.
          2   -1    0    0  501    0 -0.00000000000E+00 -0.00000000000E+00 -0.21675972066E+03  0.21675972066E+03  0.00000000000E+00 0.  1.
          2    1    1    2  501    0 -0.13529040350E+02 -0.26893941037E+02 -0.37266633563E+02  0.47907420869E+02  0.00000000000E+00 0. -1.
          2    1    1    2  502    0  0.13529040350E+02  0.26893941037E+02 -0.17287180210E+03  0.17547358479E+03  0.00000000000E+00 0.  1.
</event>
<event>
 4    1  0.8104768E+003  0.2857549E+02  0.7546771E-02  0.1432393E+00
          2   -1    0    0  502    0  0.00000000000E+00  0.00000000000E+00  0.14056265634E+04  0.14056265634E+04  0.00000000000E+00 0.  1.
          2   -1    0    0  501    0 -0.00000000000E+00 -0.00000000000E+00 -0.63464160916E+01  0.63464160916E+01  0.00000000000E+00 0. -1.
          2    1    1    2  501    0 -0.26815879272E+02 -0.98725492314E+01  0.13725398836E+04  0.13728373140E+04  0.00000000000E+00 0.  1.
          2    1    1    2  502    0  0.26815879272E+02  0.98725492314E+01  0.26740263643E+02  0.39135665437E+02  0.00000000000E+00 0. -1.
</event>
<event>
 4    1  0.8104768E+003  0.2344817E+02  0.7546771E-02  0.1486946E+00
          2   -1    0    0  502    0  0.00000000000E+00  0.00000000000E+00  0.15917569501E+02  0.15917569501E+02  0.00000000000E+00 0.  1.
          2   -1    0    0  501    0 -0.00000000000E+00 -0.00000000000E+00 -0.51248645698E+03  0.51248645698E+03  0.00000000000E+00 0. -1.
          2    1    1    2  501    0  0.19331048820E+02 -0.13271290989E+02  0.68586816150E+01  0.24430680025E+02  0.00000000000E+00 0.  1.
          2    1    1    2  502    0 -0.19331048820E+02  0.13271290989E+02 -0.50342756909E+03  0.50397334645E+03  0.00000000000E+00 0. -1.
</event>
<event>
 4    1  0.8104768E+003  0.2080422E+02  0.7546771E-02  0.1522079E+00
          2   -1    0    0  502    0  0.00000000000E+00  0.00000000000E+00  0.51954249227E+03  0.51954249227E+03  0.00000000000E+00 0. -1.
          2   -1    0    0  501    0 -0.00000000000E+00 -0.00000000000E+00 -0.17585640944E+01  0.17585640944E+01  0.00000000000E+00 0.  1.
          2    1    1    2  501    0  0.39576977855E+01  0.20424302074E+02  0.44798095043E+03  0.44846376380E+03  0.00000000000E+00 0. -1.
          2    1    1    2  502    0 -0.39576977855E+01 -0.20424302074E+02  0.69802977739E+02  0.72837292565E+02  0.00000000000E+00 0.  1.
</event>
<event>
 4    1  0.8104768E+003  0.2728666E+02  0.7546771E-02  0.1444750E+00
          2   -1    0    0  502    0  0.00000000000E+00  0.00000000000E+00  0.64330185335E+03  0.64330185335E+03  0.00000000000E+00 0. -1.
          2   -1    0    0  501    0 -0.00000000000E+00 -0.00000000000E+00 -0.13097047476E+01  0.13097047476E+01  0.00000000000E+00 0.  1.
          2    1    1    2  501    0  0.25003400316E+02  0.10926657515E+02  0.43090388758E+03  0.43176697674E+03  0.00000000000E+00 0. -1.
          2    1    1    2  502    0 -0.25003400316E+02 -0.10926657515E+02  0.21108826103E+03  0.21284458136E+03  0.00000000000E+00 0.  1.
</event>
<event>
 4    1  0.8104768E+003  0.4442838E+02  0.7546771E-02  0.1324323E+00
          2   -1    0    0  502    0  0.00000000000E+00  0.00000000000E+00  0.97118445170E+02  0.97118445170E+02  0.00000000000E+00 0.  1.
          2   -1    0    0  501    0 -0.00000000000E+00 -0.00000000000E+00 -0.24333125038E+03  0.24333125038E+03  0.00000000000E+00 0.  1.
          2    1    1    2  501    0  0.43941623989E+02  0.65585288186E+01  0.89854359680E+02  0.10023814929E+03  0.00000000000E+00 0.  1.
          2    1    1    2  502    0 -0.43941623989E+02 -0.65585288186E+01 -0.23606716489E+03  0.24021154626E+03  0.00000000000E+00 0.  1.
</event>
<event>
 4    1  0.8104768E+003  0.4082565E+02  0.7546771E-02  0.1343714E+00
          2   -1    0    0  502    0  0.00000000000E+00  0.00000000000E+00  0.11874167689E+02  0.11874167689E+02  0.00000000000E+00 0. -1.
          2   -1    0    0  501    0 -0.00000000000E+00 -0.00000000000E+00 -0.74673119612E+03  0.74673119612E+03  0.00000000000E+00 0. -1.
          2    1    1    2  501    0 -0.21157119708E+02 -0.34915759613E+02 -0.25629535115E+02  0.48203807463E+02  0.00000000000E+00 0. -1.
          2    1    1    2  502    0  0.21157119708E+02  0.34915759613E+02 -0.70922749331E+03  0.71040155634E+03  0.00000000000E+00 0. -1.
</event>
<event>
 4    1  0.1025727E+004  0.2028991E+02  0.7546771E-02  0.1529649E+00
          2   -1    0    0  502    0  0.00000000000E+00  0.00000000000E+00  0.10938762778E+04  0.10938762778E+04  0.00000000000E+00 0. -1.
          2   -1    0    0  501    0 -0.00000000000E+00 -0.00000000000E+00 -0.85670205447E+03  0.85670205447E+03  0.00000000000E+00 0.  1.
          2    1    1    2  501    0 -0.12319758868E+02 -0.16121535808E+02  0.10936620316E+04  0.10938502272E+04  0.00000000000E+00 0. -1.
          2    1    1    2  502    0  0.12319758868E+02  0.16121535808E+02 -0.85648780820E+03  0.85672810504E+03  0.00000000000E+00 0.  1.
</event>
<event>
 4    1  0.8104768E+003  0.3555770E+02  0.7546771E-02  0.1376684E+00
          2   -1    0    0  501    0  0.00000000000E+00  0.00000000000E+00  0.11348555489E+02  0.11348555489E+02  0.00000000000E+00 0.  1.
          2   -1    0    0  502    0 -0.00000000000E+00 -0.00000000000E+00 -0.13907864267E+03  0.13907864267E+03  0.00000000000E+00 0.  1.
          2    1    1    2  501    0  0.15949177389E+02  0.31780080411E+02 -0.97412152200E+02  0.10369897380E+03  0.00000000000E+00 0.  1.
          2    1    1    2  502    0 -0.15949177389E+02 -0.31780080411E+02 -0.30317934978E+02  0.46728224358E+02  0.00000000000E+00 0.  1.
</event>
<event>
 4    1  0.8104768E+003  0.2202598E+02  0.7546771E-02  0.1505105E+00
          2   -1    0    0  502    0  0.00000000000E+00  0.00000000000E+00  0.11858071539E+04  0.11858071539E+04  0.00000000000E+00 0.  1.
          2   -1    0    0  501    0 -0.00000000000E+00 -0.00000000000E+00 -0.25978728712E+02  0.25978728712E+02  0.00000000000E+00 0.  1.
          2    1    1    2  501    0  0.67821008531E+00 -0.22015535171E+02  0.11810172760E+04  0.11812226505E+04  0.00000000000E+00 0.  1.
          2    1    1    2  502    0 -0.67821008531E+00  0.22015535171E+02 -0.21188850840E+02  0.30563232121E+02  0.00000000000E+00 0.  1.
</event>
<event>
 4    1  0.8104768E+003  0.2612701E+02  0.7546771E-02  0.1456580E+00
          2   -1    0    0  501    0  0.00000000000E+00  0.00000000000E+00  0.24516710861E+02  0.24516710861E+02  0.00000000000E+00 0.  1.
          2   -1    0    0  502    0 -0.00000000000E+00 -0.00000000000E+00 -0.35577063707E+03  0.35577063707E+03  0.00000000000E+00 0. -1.
          2    1    1    2  501    0 -0.64069802405E+01  0.25329260169E+02 -0.34817862258E+03  0.34915752038E+03  0.00000000000E+00 0. -1.
          2    1    1    2  502    0  0.64069802405E+01 -0.25329260169E+02  0.16924696367E+02  0.31129827555E+02  0.00000000000E+00 0.  1.
</event>
<event>
 4    1  0.8104768E+003  0.4618707E+02  0.7546771E-02  0.1315608E+00
          2   -1    0    0  502    0  0.00000000000E+00  0.00000000000E+00  0.17424938589E+04  0.17424938589E+04  0.00000000000E+00 0.  1.
          2   -1    0    0  501    0 -0.00000000000E+00 -0.00000000000E+00 -0.33708500663E+01  0.33708500663E+01  0.00000000000E+00 0. -1.
          2    1    1    2  501    0  0.22603000522E+01  0.46131731184E+02  0.15661665065E+04  0.15668473990E+04  0.00000000000E+00 0.  1.
          2    1    1    2  502    0 -0.22603000522E+01 -0.46131731184E+02  0.17295650231E+03  0.17901730997E+03  0.00000000000E+00 0. -1.
</event>
<event>
 4    1  0.8104768E+003  0.2884142E+02  0.7546771E-02  0.1429939E+00
          2   -1    0    0  501    0  0.00000000000E+00  0.00000000000E+00  0.13477920354E+03  0.13477920354E+03  0.00000000000E+00 0.  1.
          2   -1    0    0  502    0 -0.00000000000E+00 -0.00000000000E+00 -0.50745985286E+03  0.50745985286E+03  0.00000000000E+00 0.  1.
          2    1    1    2  501    0  0.18020050569E+02 -0.22519004610E+02 -0.50550113394E+03  0.50632324083E+03  0.00000000000E+00 0.  1.
          2    1    1    2  502    0 -0.18020050569E+02  0.22519004610E+02  0.13282048461E+03  0.13591581558E+03  0.00000000000E+00 0.  1.
</event>
<event>
 4    1  0.8104768E+003  0.4672753E+02  0.7546771E-02  0.1313020E+00
          2   -1    0    0  501    0  0.00000000000E+00  0.00000000000E+00  0.83071094148E+03  0.83071094148E+03  0.00000000000E+00 0. -1.
          2   -1    0    0  502    0 -0.00000000000E+00 -0.00000000000E+00 -0.92412383863E+03  0.92412383863E+03  0.00000000000E+00 0.  1.
          2    1    1    2  501    0 -0.27315378469E+02  0.37912169101E+02 -0.92287515906E+03  0.92405736926E+03  0.00000000000E+00 0.  1.
          2    1    1    2  502    0  0.27315378469E+02 -0.37912169101E+02  0.82946226190E+03  0.83077741086E+03  0.00000000000E+00 0. -1.
</event>
<event>
 4    1  0.8104768E+003  0.2595719E+02  0.7546771E-02  0.1458374E+00
          2   -1    0    0  501    0  0.00000000000E+00  0.00000000000E+00  0.14740492305E+04  0.14740492305E+04  0.00000000000E+00 0.  1.
          2   -1    0    0  502    0 -0.00000000000E+00 -0.00000000000E+00 -0.27718074799E+01  0.27718074799E+01  0.00000000000E+00 0.  1.
          2    1    1    2  501    0 -0.13995521143E+02 -0.21860944160E+02  0.60854067239E+02  0.66158846659E+02  0.00000000000E+00 0.  1.
          2    1    1    2  502    0  0.13995521143E+02  0.21860944160E+02  0.14104233557E+04  0.14106621913E+04  0.00000000000E+00 0.  1.
</event>
<event>
 4    1  0.1018062E+004  0.3070978E+02  0.7546771E-02  0.1413527E+00
          2   -1    0    0  501    0  0.00000000000E+00  0.00000000000E+00  0.11507229461E+04  0.11507229461E+04  0.00000000000E+00 0. -1.
          2   -1    0    0  502    0 -0.00000000000E+00 -0.00000000000E+00 -0.45211264688E+03  0.45211264688E+03  0.00000000000E+00 0. -1.
          2    1    1    2  501    0 -0.29626496476E+02  0.80846261787E+01 -0.45138593566E+03  0.45242939049E+03  0.00000000000E+00 0. -1.
          2    1    1    2  502    0  0.29626496476E+02 -0.80846261787E+01  0.11499962349E+04  0.11504062025E+04  0.00000000000E+00 0. -1.
</event>
<event>
 4    1  0.8104768E+003  0.2109171E+02  0.7546771E-02  0.1517959E+00
          2   -1    0    0  501    0  0.00000000000E+00  0.00000000000E+00  0.85153582878E+01  0.85153582878E+01  0.00000000000E+00 0. -1.
          2   -1    0    0  502    0 -0.00000000000E+00 -0.00000000000E+00 -0.14719801946E+03  0.14719801946E+03  0.00000000000E+00 0. -1.
          2    1    1    2  501    0  0.29541479479E+01  0.20883798958E+02 -0.13187386181E+03  0.13354989883E+03  0.00000000000E+00 0. -1.
          2    1    1    2  502    0 -0.29541479479E+01 -0.20883798958E+02 -0.68087993634E+01  0.22163478918E+02  0.00000000000E+00 0. -1.
</event>
<event>
 4    1  0.8104768E+003  0.2913644E+02  0.7546771E-02  0.1427252E+00
          2   -1    0    0  501    0  0.00000000000E+00  0.00000000000E+00  0.19016334771E+02  0.19016334771E+02  0.00000000000E+00 0. -1.
          2   -1    0    0  502    0 -0.00000000000E+00 -0.00000000000E+00 -0.43140337694E+03  0.43140337694E+03  0.00000000000E+00 0. -1.
          2    1    1    2  501    0  0.16153979695E+02  0.24248320661E+02 -0.41943271233E+03  0.42044349476E+03  0.00000000000E+00 0. -1.
          2    1    1    2  502    0 -0.16153979695E+02 -0.24248320661E+02  0.70456701567E+01  0.29976216953E+02  0.00000000000E+00 0. -1.
</event>
<event>
 4    1  0.8104768E+003  0.2187444E+02  0.7546771E-02  0.1507137E+00
          2   -1    0    0  501    0  0.00000000000E+00  0.00000000000E+00  0.64762328185E+03  0.64762328185E+03  0.00000000000E+00 0. -1.
          2   -1    0    0  502    0 -0.00000000000E+00 -0.00000000000E+00 -0.23042563288E+01  0.23042563288E+01  0.00000000000E+00 0.  1.
          2    1    1    2  501    0  0.55700672192E+01  0.21153374904E+02  0.54814059386E+02  0.59017556922E+02  0.00000000000E+00 0.  1.
          2    1    1    2  502    0 -0.55700672192E+01 -0.21153374904E+02  0.59050496613E+03  0.59090998126E+03  0.00000000000E+00 0. -1.
</event>
<event>
 4    1  0.8104768E+003  0.2621753E+02  0.7546771E-02  0.1455630E+00
          2   -1    0    0  501    0  0.00000000000E+00  0.00000000000E+00  0.53684889593E+02  0.53684889593E+02  0.00000000000E+00 0.  1.
          2   -1    0    0  502    0 -0.00000000000E+00 -0.00000000000E+00 -0.11944278158E+03  0.11944278158E+03  0.00000000000E+00 0.  1.
          2    1    1    2  501    0  0.31391570705E+01 -0.26028921932E+02 -0.11467172572E+03  0.11763062426E+03  0.00000000000E+00 0.  1.
          2    1    1    2  502    0 -0.31391570705E+01  0.26028921932E+02  0.48913833741E+02  0.55497046906E+02  0.00000000000E+00 0.  1.
</event>
<event>
 4    1  0.8104768E+003  0.2780728E+02  0.7546771E-02  0.1439663E+00
          2   -1    0    0  501    0  0.00000000000E+00  0.00000000000E+00  0.14172015777E+01  0.14172015777E+01  0.00000000000E+00 0.  1.
          2   -1    0    0  502    0 -0.00000000000E+00 -0.00000000000E+00 -0.82324391355E+03  0.82324391355E+03  0.00000000000E+00 0.  1.
          2    1    1    2  501    0 -0.25629058193E+02 -0.10788715558E+02 -0.65036310925E+03  0.65095730957E+03  0.00000000000E+00 0.  1.
          2    1    1    2  502    0  0.25629058193E+02  0.10788715558E+02 -0.17146360272E+03  0.17370380556E+03  0.00000000000E+00 0.  1.
</event>
<event>
 4    1  0.8104768E+003  0.2395268E+02  0.7546771E-02  0.1480870E+00
          2   -1    0    0  502    0  0.00000000000E+00  0.00000000000E+00  0.13991782747E+02  0.13991782747E+02  0.00000000000E+00 0. -1.
          2   -1    0    0  501    0 -0.00000000000E+00 -0.00000000000E+00 -0.59931766145E+02  0.59931766145E+02  0.00000000000E+00 0. -1.
          2    1    1    2  501    0 -0.90612435469E+01 -0.22172615520E+02 -0.21986689720E+01  0.24053381444E+02  0.00000000000E+00 0. -1.
          2    1    1    2  502    0  0.90612435469E+01  0.22172615520E+02 -0.43741314426E+02  0.49870167448E+02  0.00000000000E+00 0. -1.
</event>
<event>
 4    1  0.8104768E+003  0.2043303E+02  0.7546771E-02  0.1527516E+00
          2   -1    0    0  502    0  0.00000000000E+00  0.00000000000E+00  0.15083765268E+03  0.15083765268E+03  0.00000000000E+00 0.  1.
          2   -1    0    0  501    0 -0.00000000000E+00 -0.00000000000E+00 -0.12830520736E+04  0.12830520736E+04  0.00000000000E+00 0.  1.
          2    1    1    2  501    0 -0.89541439389E+01  0.18366597932E+02  0.15006390106E+03  0.15144861510E+03  0.00000000000E+00 0.  1.
          2    1    1    2  502    0  0.89541439389E+01 -0.18366597932E+02 -0.12822783220E+04  0.12824411112E+04  0.00000000000E+00 0.  1.
</event>
<event>
 4    1  0.8104768E+003  0.2100644E+02  0.7546771E-02  0.1519173E+00
          2   -1    0    0  502    0  0.00000000000E+00  0.00000000000E+00  0.74099112423E+02  0.74099112423E+02  0.00000000000E+00 0.  1.
          2   -1    0    0  501    0 -0.00000000000E+00 -0.00000000000E+00 -0.59622695831E+01  0.59622695831E+01  0.00000000000E+00 0.  1.
          2    1    1    2  501    0  0.17039642727E+02  0.12284986521E+02  0.35453040821E+02  0.41209081785E+02  0.00000000000E+00 0.  1.
          2    1    1    2  502    0 -0.17039642727E+02 -0.12284986521E+02  0.32683802019E+02  0.38852300222E+02  0.00000000000E+00 0.  1.
</event>
<event>
 4    1  0.8104768E+003  0.2554920E+02  0.7546771E-02  0.1462752E+00
          2   -1    0    0  502    0  0.00000000000E+00  0.00000000000E+00  0.78856751944E+02  0.78856751944E+02  0.00000000000E+00 0.  1.
          2   -1    0    0  501    0 -0.00000000000E+00 -0.00000000000E+00 -0.24166001198E+02  0.24166001198E+02  0.00000000000E+00 0. -1.
          2    1    1    2  501    0 -0.18450457805E+02 -0.17673201673E+02  0.69112823953E+02  0.73684081628E+02  0.00000000000E+00 0.  1.
          2    1    1    2  502    0  0.18450457805E+02  0.17673201673E+02 -0.14422073207E+02  0.29338671513E+02  0.00000000000E+00 0. -1.
</event>
<event>
 4    1  0.8104768E+003  0.2026756E+02  0.7546771E-02  0.1529984E+00
          2   -1    0    0  501    0  0.00000000000E+00  0.00000000000E+00  0.43610508280E+03  0.43610508280E+03  0.00000000000E+00 0.  1.
          2   -1    0    0  502    0 -0.00000000000E+00 -0.00000000000E+00 -0.46793925863E+01  0.46793925863E+01  0.00000000000E+00 0.  1.
          2    1    1    2  501    0  0.85268271185E+00 -0.20249617134E+02  0.18747041405E+02  0.27608433917E+02  0.00000000000E+00 0.  1.
          2    1    1    2  502    0 -0.85268271185E+00  0.20249617134E+02  0.41267864881E+03  0.41317604147E+03  0.00000000000E+00 0.  1.
</event>
<event>
 4    1  0.8104768E+003  0.3215729E+02  0.7546771E-02  0.1401731E+00
          2   -1    0    0  501    0  0.00000000000E+00  0.00000000000E+00  0.54241776348E+01  0.54241776348E+01  0.00000000000E+00 0. -1.
          2   -1    0    0  502    0 -0.00000000000E+00 -0.00000000000E+00 -0.15836606575E+04  0.15836606575E+04  0.00000000000E+00 0.  1.
          2    1    1    2  501    0  0.31785308501E+02 -0.48770325045E+01 -0.15343031521E+04  0.15346401056E+04  0.00000000000E+00 0.  1.
          2    1    1    2  502    0 -0.31785308501E+02  0.48770325045E+01 -0.43933327807E+02  0.54444729540E+02  0.00000000000E+00 0. -1.
</event>
<event>
 4    1  0.8104768E+003  0.2021167E+02  0.7546771E-02  0.1530824E+00
          2   -1    0    0  501    0  0.00000000000E+00  0.00000000000E+00  0.37676671328E+02  0.37676671328E+02  0.00000000000E+00 0. -1.
          2   -1    0    0  502    0 -0.00000000000E+00 -0.00000000000E+00 -0.57606701910E+02  0.57606701910E+02  0.00000000000E+00 0. -1.
          2    1    1    2  501    0  0.21414877378E+01  0.20097906027E+02 -0.52889696561E+02  0.56620065337E+02  0.00000000000E+00 0. -1.
          2    1    1    2  502    0 -0.21414877378E+01 -0.20097906027E+02  0.32959665979E+02  0.38663307901E+02  0.00000000000E+00 0. -1.
</event>
<event>
 4    1  0.8104768E+003  0.4976614E+02  0.7546771E-02  0.1299190E+00
          2   -1    0    0  502    0  0.00000000000E+00  0.00000000000E+00  0.24925447818E+04  0.24925447818E+04  0.00000000000E+00 0. -1.
          2   -1    0    0  501    0 -0.00000000000E+00 -0.00000000000E+00 -0.10199795816E+01  0.10199795816E+01  0.00000000000E+00 0. -1.
          2    1    1    2  501    0 -0.27018598028E+02 -0.41793112595E+02  0.10453722394E+04  0.10465561561E+04  0.00000000000E+00 0. -1.
          2    1    1    2  502    0  0.27018598028E+02  0.41793112595E+02  0.14461525628E+04  0.14470086052E+04  0.00000000000E+00 0. -1.
</event>
<event>
 4    1  0.8104768E+003  0.3600569E+02  0.7546771E-02  0.1373628E+00
          2   -1    0    0  501    0  0.00000000000E+00  0.00000000000E+00  0.13730548601E+04  0.13730548601E+04  0.00000000000E+00 0.  1.
          2   -1    0    0  502    0 -0.00000000000E+00 -0.00000000000E+00 -0.68918931719E+01  0.68918931719E+01  0.00000000000E+00 0.  1.
          2    1    1    2  501    0  0.14246596917E+02 -0.33067264773E+02  0.42110882102E+02  0.55405197542E+02  0.00000000000E+00 0.  1.
          2    1    1    2  502    0 -0.14246596917E+02  0.33067264773E+02  0.13240520849E+04  0.13245415558E+04  0.00000000000E+00 0.  1.
</event>
<event>
 4    1  0.8104768E+003  0.2121200E+02  0.7546771E-02  0.1516260E+00
          2   -1    0    0  501    0  0.00000000000E+00  0.00000000000E+00  0.36972237866E+01  0.36972237866E+01  0.00000000000E+00 0.  1.
          2   -1    0    0  502    0 -0.00000000000E+00 -0.00000000000E+00 -0.13239373407E+04  0.13239373407E+04  0.00000000000E+00 0. -1.
          2    1    1    2  501    0 -0.21172184240E+02 -0.12989803312E+01 -0.12926922729E+04  0.12928662967E+04  0.00000000000E+00 0. -1.
          2    1    1    2  502    0  0.21172184240E+02  0.12989803312E+01 -0.27547844048E+02  0.34768267818E+02  0.00000000000E+00 0.  1.
</event>
<event>
 4    1  0.8104768E+003  0.2063630E+02  0.7546771E-02  0.1524521E+00
          2   -1    0    0  502    0  0.00000000000E+00  0.00000000000E+00  0.16170980135E+03  0.16170980135E+03  0.00000000000E+00 0.  1.
          2   -1    0    0  501    0 -0.00000000000E+00 -0.00000000000E+00 -0.11922853820E+02  0.11922853820E+02  0.00000000000E+00 0.  1.
          2    1    1    2  501    0  0.20451271726E+02  0.27572286047E+01  0.15152454768E+03  0.15292333169E+03  0.00000000000E+00 0.  1.
          2    1    1    2  502    0 -0.20451271726E+02 -0.27572286047E+01 -0.17376001516E+01  0.20709323482E+02  0.00000000000E+00 0.  1.
</event>
<event>
 4    1  0.8104768E+003  0.2473230E+02  0.7546771E-02  0.1471821E+00
          2   -1    0    0  502    0  0.00000000000E+00  0.00000000000E+00  0.13517998017E+04  0.13517998017E+04  0.00000000000E+00 0. -1.
          2   -1    0    0  501    0 -0.00000000000E+00 -0.00000000000E+00 -0.10355105766E+01  0.10355105766E+01  0.00000000000E+00 0.  1.
          2    1    1    2  501    0  0.64579779504E+01  0.23874276828E+02  0.11829296119E+04  0.11831881309E+04  0.00000000000E+00 0. -1.
          2    1    1    2  502    0 -0.64579779504E+01 -0.23874276828E+02  0.16783467927E+03  0.16964718134E+03  0.00000000000E+00 0.  1.
</event>
<event>
 4    1  0.8104768E+003  0.2622169E+02  0.7546771E-02  0.1455587E+00
          2   -1    0    0  502    0  0.00000000000E+00  0.00000000000E+00  0.54975924703E+00  0.54975924703E+00  0.00000000000E+00 0. -1.
          2   -1    0    0  501    0 -0.00000000000E+00 -0.00000000000E+00 -0.22244504513E+04  0.22244504513E+04  0.00000000000E+00 0. -1.
          2    1    1    2  501    0  0.15308421180E+01  0.26176965408E+02 -0.37588677353E+03  0.37680027005E+03  0.00000000000E+00 0. -1.
          2    1    1    2  502    0 -0.15308421180E+01 -0.26176965408E+02 -0.18480139185E+04  0.18481999405E+04  0.00000000000E+00 0. -1.
</event>
<event>
 4    1  0.8104768E+003  0.2761178E+02  0.7546771E-02  0.1441558E+00
          2   -1    0    0  501    0  0.00000000000E+00  0.00000000000E+00  0.80274748617E+02  0.80274748617E+02  0.00000000000E+00 0. -1.
          2   -1    0    0  502    0 -0.00000000000E+00 -0.00000000000E+00 -0.32221007880E+02  0.32221007880E+02  0.00000000000E+00 0.  1.
          2    1    1    2  501    0 -0.27259418267E+02 -0.43971244714E+01 -0.23209240525E+02  0.36070478700E+02  0.00000000000E+00 0.  1.
          2    1    1    2  502    0  0.27259418267E+02  0.43971244714E+01  0.71262981263E+02  0.76425277797E+02  0.00000000000E+00 0. -1.
</event>
<event>
 4    1  0.8104768E+003  0.3119715E+02  0.7546771E-02  0.1409471E+00
          2   -1    0    0  502    0  0.00000000000E+00  0.00000000000E+00  0.62444440424E+03  0.62444440424E+03  0.00000000000E+00 0.  1.
          2   -1    0    0  501    0 -0.00000000000E+00 -0.00000000000E+00 -0.14589787261E+02  0.14589787261E+02  0.00000000000E+00 0.  1.
          2    1    1    2  501    0  0.19250825978E+02 -0.24549294494E+02  0.60689573096E+03  0.60769703835E+03  0.00000000000E+00 0.  1.
          2    1    1    2  502    0 -0.19250825978E+02  0.24549294494E+02  0.29588860168E+01  0.31337153149E+02  0.00000000000E+00 0.  1.
</event>
<event>
 4    1  0.8104768E+003  0.2707451E+02  0.7546771E-02  0.1446861E+00
          2   -1    0    0  502    0  0.00000000000E+00  0.00000000000E+00  0.14794986111E+03  0.14794986111E+03  0.00000000000E+00 0.  1.
          2   -1    0    0  501    0 -0.00000000000E+00 -0.00000000000E+00 -0.40546637495E+03  0.40546637495E+03  0.00000000000E+00 0. -1.
          2    1    1    2  501    0  0.12838549521E+02  0.23836961388E+02  0.14625405367E+03  0.14873895689E+03  0.00000000000E+00 0.  1.
          2    1    1    2  502    0 -0.12838549521E+02 -0.23836961388E+02 -0.40377056752E+03  0.40467727917E+03  0.00000000000E+00 0. -1.
</event>
<event>
 4    1  0.8104768E+003  0.4154346E+02  0.7546771E-02  0.1339671E+00
          2   -1    0    0  501    0  0.00000000000E+00  0.00000000000E+00  0.43275483221E+03  0.43275483221E+03  0.00000000000E+00 0.  1.
          2   -1    0    0  502    0 -0.00000000000E+00 -0.00000000000E+00 -0.39883822248E+01  0.39883822248E+01  0.00000000000E+00 0.  1.
          2    1    1    2  501    0 -0.40439728863E+02 -0.95124952327E+01  0.21629613128E+03  0.22024957580E+03  0.00000000000E+00 0.  1.
          2    1    1    2  502    0  0.40439728863E+02  0.95124952327E+01  0.21247031871E+03  0.21649363864E+03  0.00000000000E+00 0.  1.
</event>
<event>
 4    1  0.8104768E+003  0.3469357E+02  0.7546771E-02  0.1382730E+00
          2   -1    0    0  502    0  0.00000000000E+00  0.00000000000E+00  0.28098990429E+01  0.28098990429E+01  0.00000000000E+00 0. -1.
          2   -1    0    0  501    0 -0.00000000000E+00 -0.00000000000E+00 -0.43238004649E+03  0.43238004649E+03  0.00000000000E+00 0. -1.
          2    1    1    2  501    0  0.32156650307E+02  0.13022809074E+02 -0.23577064181E+03  0.23830954503E+03  0.00000000000E+00 0. -1.
          2    1    1    2  502    0 -0.32156650307E+02 -0.13022809074E+02 -0.19379950564E+03  0.19688040050E+03  0.00000000000E+00 0. -1.
</event>
<event>
 4    1  0.8104768E+003  0.2088771E+02  0.7546771E-02  0.1520874E+00
          2   -1    0    0  501    0  0.00000000000E+00  0.00000000000E+00  0.13888937054E+04  0.13888937054E+04  0.00000000000E+00 0.  1.
          2   -1    0    0  502    0 -0.00000000000E+00 -0.00000000000E+00 -0.45832726467E+00  0.45832726467E+00  0.00000000000E+00 0. -1.
          2    1    1    2  501    0 -0.58211828510E+01  0.20060163388E+02  0.30457228374E+03  0.30528768784E+03  0.00000000000E+00 0. -1.
          2    1    1    2  502    0  0.58211828510E+01 -0.20060163388E+02  0.10838630944E+04  0.10840643448E+04  0.00000000000E+00 0.  1.
</event>
<event>
 4    1  0.8104768E+003  0.3274937E+02  0.7546771E-02  0.1397116E+00
          2   -1    0    0  501    0  0.00000000000E+00  0.00000000000E+00  0.70539931520E+02  0.70539931520E+02  0.00000000000E+00 0. -1.
          2   -1    0    0  502    0 -0.00000000000E+00 -0.00000000000E+00 -0.79727083783E+02  0.79727083783E+02  0.00000000000E+00 0.  1.
          2    1    1    2  501    0 -0.18117479409E+01  0.32699222127E+02 -0.72184243612E+02  0.79265923222E+02  0.00000000000E+00 0.  1.
          2    1    1    2  502    0  0.18117479409E+01 -0.32699222127E+02  0.62997091349E+02  0.71001092081E+02  0.00000000000E+00 0. -1.
</event>
<event>
 4    1  0.8104768E+003  0.2394535E+02  0.7546771E-02  0.1480957E+00
          2   -1    0    0  501    0  0.00000000000E+00  0.00000000000E+00  0.13429079755E+03  0.13429079755E+03  0.00000000000E+00 0.  1.
          2   -1    0    0  502    0 -0.00000000000E+00 -0.00000000000E+00 -0.16806775618E+03  0.16806775618E+03  0.00000000000E+00 0. -1.
          2    1    1    2  501    0 -0.98183195549E+01  0.21839884677E+02 -0.16613508022E+03  0.16785185385E+03  0.00000000000E+00 0. -1.
          2    1    1    2  502    0  0.98183195549E+01 -0.21839884677E+02  0.13235812159E+03  0.13450669988E+03  0.00000000000E+00 0.  1.
</event>
<event>
 4    1  0.8104768E+003  0.2031615E+02  0.7546771E-02  0.1529256E+00
          2   -1    0    0  502    0  0.00000000000E+00  0.00000000000E+00  0.15066316081E+02  0.15066316081E+02  0.00000000000E+00 0. -1.
          2   -1    0    0  501    0 -0.00000000000E+00 -0.00000000000E+00 -0.28875775180E+02  0.28875775180E+02  0.00000000000E+00 0.  1.
          2    1    1    2  501    0  0.20316083734E+02 -0.50820947854E-01 -0.19297828003E+01  0.20407594241E+02  0.00000000000E+00 0. -1.
          2    1    1    2  502    0 -0.20316083734E+02  0.50820947854E-01 -0.11879676299E+02  0.23534497020E+02  0.00000000000E+00 0.  1.
</event>
<event>
 4    1  0.8104768E+003  0.4021905E+02  0.7546771E-02  0.1347207E+00
          2   -1    0    0  502    0  0.00000000000E+00  0.00000000000E+00  0.14888528882E+03  0.14888528882E+03  0.00000000000E+00 0. -1.
          2   -1    0    0  501    0 -0.00000000000E+00 -0.00000000000E+00 -0.17317902581E+04  0.17317902581E+04  0.00000000000E+00 0. -1.
          2    1    1    2  501    0  0.40134946127E+02  0.25996300541E+01  0.14593099847E+03  0.15137182132E+03  0.00000000000E+00 0. -1.
          2    1    1    2  502    0 -0.40134946127E+02 -0.25996300541E+01 -0.17288359678E+04  0.17293037256E+04  0.00000000000E+00 0. -1.
</event>
<event>
 4    1  0.8104768E+003  0.2182120E+02  0.7546771E-02  0.1507856E+00
          2   -1    0    0  502    0  0.00000000000E+00  0.00000000000E+00  0.35422069248E+03  0.35422069248E+03  0.00000000000E+00 0. -1.
          2   -1    0    0  501    0 -0.00000000000E+00 -0.00000000000E+00 -0.14489924610E+02  0.14489924610E+02  0.00000000000E+00 0.  1.
          2    1    1    2  501    0  0.20795087044E+02 -0.66127977519E+01  0.34546107607E+03  0.34614956279E+03  0.00000000000E+00 0. -1.
          2    1    1    2  502    0 -0.20795087044E+02  0.66127977519E+01 -0.57303081974E+01  0.22561054304E+02  0.00000000000E+00 0.  1.
</event>
<event>
 4    1  0.8104768E+003  0.4804345E+02  0.7546771E-02  0.1306886E+00
          2   -1    0    0  502    0  0.00000000000E+00  0.00000000000E+00  0.29691271508E+04  0.29691271508E+04  0.00000000000E+00 0. -1.
          2   -1    0    0  501    0 -0.00000000000E+00 -0.00000000000E+00 -0.71107135544E+02  0.71107135544E+02  0.00000000000E+00 0.  1.
          2    1    1    2  501    0 -0.41084908729E+02  0.24903891398E+02  0.29607948405E+04  0.29611846043E+04  0.00000000000E+00 0. -1.
          2    1    1    2  502    0  0.41084908729E+02 -0.24903891398E+02 -0.62774825266E+02  0.79049681968E+02  0.00000000000E+00 0.  1.
</event>
<event>
 4    1  0.8104768E+003  0.3240929E+02  0.7546771E-02  0.1399753E+00
          2   -1    0    0  501    0  0.00000000000E+00  0.00000000000E+00  0.10113747377E+02  0.10113747377E+02  0.00000000000E+00 0.  1.
          2   -1    0    0  502    0 -0.00000000000E+00 -0.00000000000E+00 -0.69840829299E+03  0.69840829299E+03  0.00000000000E+00 0. -1.
          2    1    1    2  501    0  0.43033650846E+01 -0.32122318606E+02 -0.67100902401E+03  0.67179124183E+03  0.00000000000E+00 0. -1.
          2    1    1    2  502    0 -0.43033650846E+01  0.32122318606E+02 -0.17285521602E+02  0.36730798531E+02  0.00000000000E+00 0.  1.
</event>
<event>
 4    1  0.8104768E+003  0.2653264E+02  0.7546771E-02  0.1452360E+00
          2   -1    0    0  501    0  0.00000000000E+00  0.00000000000E+00  0.31169651016E+02  0.31169651016E+02  0.00000000000E+00 0. -1.
          2   -1    0    0  502    0 -0.00000000000E+00 -0.00000000000E+00 -0.82284978591E+02  0.82284978591E+02  0.00000000000E+00 0. -1.
          2    1    1    2  501    0  0.22078104721E+02 -0.14715240344E+02 -0.73876598323E+02  0.78496705576E+02  0.00000000000E+00 0. -1.
          2    1    1    2  502    0 -0.22078104721E+02  0.14715240344E+02  0.22761270748E+02  0.34957924031E+02  0.00000000000E+00 0. -1.
</event>
<event>
 4    1  0.8104768E+003  0.2013115E+02  0.7546771E-02  0.1532040E+00
          2   -1    0    0  502    0  0.00000000000E+00  0.00000000000E+00  0.72936649530E+01  0.72936649530E+01  0.00000000000E+00 0.  1.
          2   -1    0    0  501    0 -0.00000000000E+00 -0.00000000000E+00 -0.44569664268E+03  0.44569664268E+03  0.00000000000E+00 0.  1.
          2    1    1    2  501    0  0.17912156869E+02 -0.91879229524E+01 -0.72943815325E+01  0.21411942785E+02  0.00000000000E+00 0.  1.
          2    1    1    2  502    0 -0.17912156869E+02  0.91879229524E+01 -0.43110859620E+03  0.43157836485E+03  0.00000000000E+00 0.  1.
</event>
<event>
 4    1  0.8104768E+003  0.2713631E+02  0.7546771E-02  0.1446244E+00
          2   -1    0    0  501    0  0.00000000000E+00  0.00000000000E+00  0.29138983587E+03  0.29138983587E+03  0.00000000000E+00 0.  1.
          2   -1    0    0  502    0 -0.00000000000E+00 -0.00000000000E+00 -0.10121940826E+03  0.10121940826E+03  0.00000000000E+00 0. -1.
          2    1    1    2  501    0 -0.18317282256E+02 -0.20021401491E+02 -0.98753366576E+02  0.10241389924E+03  0.00000000000E+00 0. -1.
          2    1    1    2  502    0  0.18317282256E+02  0.20021401491E+02  0.28892379419E+03  0.29019534489E+03  0.00000000000E+00 0.  1.
</event>
<event>
 4    1  0.8104768E+003  0.2044139E+02  0.7546771E-02  0.1527392E+00
          2   -1    0    0  501    0  0.00000000000E+00  0.00000000000E+00  0.39473159933E+02  0.39473159933E+02  0.00000000000E+00 0. -1.
          2   -1    0    0  502    0 -0.00000000000E+00 -0.00000000000E+00 -0.10913515415E+03  0.10913515415E+03  0.00000000000E+00 0. -1.
          2    1    1    2  501    0 -0.20040808079E+02  0.40269528444E+01 -0.10543965045E+03  0.10740284086E+03  0.00000000000E+00 0. -1.
          2    1    1    2  502    0  0.20040808079E+02 -0.40269528444E+01  0.35777656236E+02  0.41205473221E+02  0.00000000000E+00 0. -1.
</event>
<event>
 4    1  0.8104768E+003  0.3171458E+02  0.7546771E-02  0.1405260E+00
          2   -1    0    0  501    0  0.00000000000E+00  0.00000000000E+00  0.35783664040E+03  0.35783664040E+03  0.00000000000E+00 0.  1.
          2   -1    0    0  502    0 -0.00000000000E+00 -0.00000000000E+00 -0.57465965700E+01  0.57465965700E+01  0.00000000000E+00 0. -1.
          2    1    1    2  501    0 -0.13905110925E+02  0.28503732009E+02  0.46108898414E+02  0.55962892717E+02  0.00000000000E+00 0. -1.
          2    1    1    2  502    0  0.13905110925E+02 -0.28503732009E+02  0.30598114542E+03  0.30762034426E+03  0.00000000000E+00 0.  1.
</event>
<event>
 4    1  0.8104768E+003  0.2097392E+02  0.7546771E-02  0.1519637E+00
          2   -1    0    0  501    0  0.00000000000E+00  0.00000000000E+00  0.14871384109E+01  0.14871384109E+01  0.00000000000E+00 0. -1.
          2   -1    0    0  502    0 -0.00000000000E+00 -0.00000000000E+00 -0.54524163710E+03  0.54524163710E+03  0.00000000000E+00 0.  1.
          2    1    1    2  501    0 -0.58391020508E+01 -0.20144728139E+02 -0.45677271452E+03  0.45725399716E+03  0.00000000000E+00 0.  1.
          2    1    1    2  502    0  0.58391020508E+01  0.20144728139E+02 -0.86981784168E+02  0.89474778354E+02  0.00000000000E+00 0. -1.
</event>
<event>
 4    1  0.8104768E+003  0.2429793E+02  0.7546771E-02  0.1476813E+00
          2   -1    0    0  502    0  0.00000000000E+00  0.00000000000E+00  0.79127241238E+00  0.79127241238E+00  0.00000000000E+00 0.  1.
          2   -1    0    0  501    0 -0.00000000000E+00 -0.00000000000E+00 -0.16016387575E+04  0.16016387575E+04  0.00000000000E+00 0. -1.
          2    1    1    2  501    0  0.23751675742E+02 -0.51232286651E+01 -0.21485237850E+03  0.21622195568E+03  0.00000000000E+00 0.  1.
          2    1    1    2  502    0 -0.23751675742E+02  0.51232286651E+01 -0.13859951066E+04  0.13862080742E+04  0.00000000000E+00 0. -1.
</event>
<event>
 4    1  0.8104768E+003  0.3287544E+02  0.7546771E-02  0.1396148E+00
          2   -1    0    0  502    0  0.00000000000E+00  0.00000000000E+00  0.72174493482E+01  0.72174493482E+01  0.00000000000E+00 0. -1.
          2   -1    0    0  501    0 -0.00000000000E+00 -0.00000000000E+00 -0.44089962334E+03  0.44089962334E+03  0.00000000000E+00 0. -1.
          2    1    1    2  501    0  0.31364449663E+02  0.98521864028E+01 -0.34765513881E+02  0.47848043168E+02  0.00000000000E+00 0. -1.
          2    1    1    2  502    0 -0.31364449663E+02 -0.98521864028E+01 -0.39891666011E+03  0.40026902952E+03  0.00000000000E+00 0. -1.
</event>
<event>
 4    1  0.8104768E+003  0.2045640E+02  0.7546771E-02  0.1527169E+00
          2   -1    0    0  502    0  0.00000000000E+00  0.00000000000E+00  0.71018533216E+03  0.71018533216E+03  0.00000000000E+00 0. -1.
          2   -1    0    0  501    0 -0.00000000000E+00 -0.00000000000E+00 -0.27611307493E+01  0.27611307493E+01  0.00000000000E+00 0. -1.
          2    1    1    2  501    0  0.20269681218E+02 -0.27575971103E+01  0.66986936780E+03  0.67018164272E+03  0.00000000000E+00 0. -1.
          2    1    1    2  502    0 -0.20269681218E+02  0.27575971103E+01  0.37554833611E+02  0.42764820192E+02  0.00000000000E+00 0. -1.
</event>
<event>
 4    1  0.8104768E+003  0.2256913E+02  0.7546771E-02  0.1497981E+00
          2   -1    0    0  502    0  0.00000000000E+00  0.00000000000E+00  0.86300594147E+02  0.86300594147E+02  0.00000000000E+00 0. -1.
          2   -1    0    0  501    0 -0.00000000000E+00 -0.00000000000E+00 -0.23377109057E+02  0.23377109057E+02  0.00000000000E+00 0. -1.
          2    1    1    2  501    0 -0.30369816903E+00  0.22567088633E+02  0.78875030482E+02  0.82040454383E+02  0.00000000000E+00 0. -1.
          2    1    1    2  502    0  0.30369816903E+00 -0.22567088633E+02 -0.15951545392E+02  0.27637248820E+02  0.00000000000E+00 0. -1.
</event>
<event>
 4    1  0.8104768E+003  0.4441510E+02  0.7546771E-02  0.1324390E+00
          2   -1    0    0  501    0  0.00000000000E+00  0.00000000000E+00  0.33412085689E+02  0.33412085689E+02  0.00000000000E+00 0. -1.
          2   -1    0    0  502    0 -0.00000000000E+00 -0.00000000000E+00 -0.14586770194E+04  0.14586770194E+04  0.00000000000E+00 0.  1.
          2    1    1    2  501    0  0.25953778444E+02  0.36043068219E+02 -0.14434225793E+04  0.14441057592E+04  0.00000000000E+00 0.  1.
          2    1    1    2  502    0 -0.25953778444E+02 -0.36043068219E+02  0.18157645628E+02  0.47983345829E+02  0.00000000000E+00 0. -1.
</event>
<event>
 4    1  0.8104768E+003  0.2797889E+02  0.7546771E-02  0.1438015E+00
          2   -1    0    0  502    0  0.00000000000E+00  0.00000000000E+00  0.18043920996E+03  0.18043920996E+03  0.00000000000E+00 0.  1.
          2   -1    0    0  501    0 -0.00000000000E+00 -0.00000000000E+00 -0.35531746608E+03  0.35531746608E+03  0.00000000000E+00 0.  1.
          2    1    1    2  501    0  0.27836896903E+02 -0.28151710656E+01  0.17879879875E+03  0.18097466246E+03  0.00000000000E+00 0.  1.
          2    1    1    2  502    0 -0.27836896903E+02  0.28151710656E+01 -0.35367705488E+03  0.35478201358E+03  0.00000000000E+00 0.  1.
</event>
<event>
 4    1  0.8104768E+003  0.2019227E+02  0.7546771E-02  0.1531117E+00
          2   -1    0    0  501    0  0.00000000000E+00  0.00000000000E+00  0.54660269989E+03  0.54660269989E+03  0.00000000000E+00 0. -1.
          2   -1    0    0  502    0 -0.00000000000E+00 -0.00000000000E+00 -0.69235749352E+02  0.69235749352E+02  0.00000000000E+00 0.  1.
          2    1    1    2  501    0 -0.17694115145E+02 -0.97286282501E+01 -0.67572529759E+02  0.70524993417E+02  0.00000000000E+00 0.  1.
          2    1    1    2  502    0  0.17694115145E+02  0.97286282501E+01  0.54493948029E+03  0.54531345582E+03  0.00000000000E+00 0. -1.
</event>
<event>
 4    1  0.8104768E+003  0.2753983E+02  0.7546771E-02  0.1442259E+00
          2   -1    0    0  501    0  0.00000000000E+00  0.00000000000E+00  0.17389319200E+04  0.17389319200E+04  0.00000000000E+00 0. -1.
          2   -1    0    0  502    0 -0.00000000000E+00 -0.00000000000E+00 -0.44158629662E+00  0.44158629662E+00  0.00000000000E+00 0. -1.
          2    1    1    2  501    0 -0.10622780781E+02 -0.25408639931E+02  0.96570331866E+03  0.96609592801E+03  0.00000000000E+00 0. -1.
          2    1    1    2  502    0  0.10622780781E+02  0.25408639931E+02  0.77278701508E+03  0.77327757832E+03  0.00000000000E+00 0. -1.
</event>
<event>
 4    1  0.8104768E+003  0.3568462E+02  0.7546771E-02  0.1375813E+00
          2   -1    0    0  501    0  0.00000000000E+00  0.00000000000E+00  0.11303082466E+04  0.11303082466E+04  0.00000000000E+00 0. -1.
          2   -1    0    0  502    0 -0.00000000000E+00 -0.00000000000E+00 -0.97256904783E+01  0.97256904783E+01  0.00000000000E+00 0. -1.
          2    1    1    2  501    0  0.34410306087E+02 -0.94510947501E+01  0.24304458678E+02  0.43175213591E+02  0.00000000000E+00 0. -1.
          2    1    1    2  502    0 -0.34410306087E+02  0.94510947501E+01  0.10962780975E+04  0.10968587235E+04  0.00000000000E+00 0. -1.
</event>
<event>
 4    1  0.8104768E+003  0.2202841E+02  0.7546771E-02  0.1505073E+00
          2   -1    0    0  502    0  0.00000000000E+00  0.00000000000E+00  0.59423488350E+00  0.59423488350E+00  0.00000000000E+00 0. -1.
          2   -1    0    0  501    0 -0.00000000000E+00 -0.00000000000E+00 -0.11976738003E+04  0.11976738003E+04  0.00000000000E+00 0. -1.
          2    1    1    2  501    0 -0.70947375465E+01 -0.20854625381E+02 -0.26058336894E+03  0.26151279676E+03  0.00000000000E+00 0. -1.
          2    1    1    2  502    0  0.70947375465E+01  0.20854625381E+02 -0.93649619645E+03  0.93675523840E+03  0.00000000000E+00 0. -1.
</event>
<event>
 4    1  0.8104768E+003  0.2204230E+02  0.7546771E-02  0.1504887E+00
          2   -1    0    0  501    0  0.00000000000E+00  0.00000000000E+00  0.37142329954E+01  0.37142329954E+01  0.00000000000E+00 0. -1.
          2   -1    0    0  502    0 -0.00000000000E+00 -0.00000000000E+00 -0.16007587828E+04  0.16007587828E+04  0.00000000000E+00 0. -1.
          2    1    1    2  501    0 -0.71022936237E+01  0.20866729704E+02 -0.15672816250E+04  0.15674366192E+04  0.00000000000E+00 0. -1.
          2    1    1    2  502    0  0.71022936237E+01 -0.20866729704E+02 -0.29762924775E+02  0.37036396617E+02  0.00000000000E+00 0. -1.
</event>
<event>
 4    1  0.8104768E+003  0.2157873E+02  0.7546771E-02  0.1511160E+00
          2   -1    0    0  502    0  0.00000000000E+00  0.00000000000E+00  0.34169536494E+01  0.34169536494E+01  0.00000000000E+00 0. -1.
          2   -1    0    0  501    0 -0.00000000000E+00 -0.00000000000E+00 -0.22847950418E+03  0.22847950418E+03  0.00000000000E+00 0. -1.
          2    1    1    2  501    0  0.19032956301E+02  0.10167990306E+02 -0.38873388295E+02  0.44461014046E+02  0.00000000000E+00 0. -1.
          2    1    1    2  502    0 -0.19032956301E+02 -0.10167990306E+02 -0.18618916223E+03  0.18743544378E+03  0.00000000000E+00 0. -1.
</event>
<event>
 4    1  0.8104768E+003  0.2820603E+02  0.7546771E-02  0.1435855E+00
          2   -1    0    0  502    0  0.00000000000E+00  0.00000000000E+00  0.59031946814E+01  0.59031946814E+01  0.00000000000E+00 0.  1.
          2   -1    0    0  501    0 -0.00000000000E+00 -0.00000000000E+00 -0.13678154862E+03  0.13678154862E+03  0.00000000000E+00 0.  1.
          2    1    1    2  501    0  0.15946257229E+02  0.23265789429E+02 -0.56789904010E+02  0.63408779162E+02  0.00000000000E+00 0.  1.
          2    1    1    2  502    0 -0.15946257229E+02 -0.23265789429E+02 -0.74088449929E+02  0.79275964140E+02  0.00000000000E+00 0.  1.
</event>
<event>
 4    1  0.8104768E+003  0.2820000E+02  0.7546771E-02  0.1435913E+00
          2   -1    0    0  501    0  0.00000000000E+00  0.00000000000E+00  0.10127835638E+03  0.10127835638E+03  0.00000000000E+00 0. -1.
          2   -1    0    0  502    0 -0.00000000000E+00 -0.00000000000E+00 -0.14569095497E+02  0.14569095497E+02  0.00000000000E+00 0. -1.
          2    1    1    2  501    0 -0.25105786752E+02 -0.12842867397E+02  0.40240568077E+01  0.28485659631E+02  0.00000000000E+00 0. -1.
          2    1    1    2  502    0  0.25105786752E+02  0.12842867397E+02  0.82685204078E+02  0.87361792249E+02  0.00000000000E+00 0. -1.
</event>
<event>
 4    1  0.8554024E+003  0.3451813E+02  0.7546771E-02  0.1383983E+00
          2   -1    0    0  501    0  0.00000000000E+00  0.00000000000E+00  0.68535246865E+03  0.68535246865E+03  0.00000000000E+00 0. -1.
          2   -1    0    0  502    0 -0.00000000000E+00 -0.00000000000E+00 -0.52719635194E+03  0.52719635194E+03  0.00000000000E+00 0. -1.
          2    1    1    2  501    0 -0.28509160696E+02  0.19460966443E+02 -0.52619587766E+03  0.52732684658E+03  0.00000000000E+00 0. -1.
          2    1    1    2  502    0  0.28509160696E+02 -0.19460966443E+02  0.68435199437E+03  0.68522197400E+03  0.00000000000E+00 0. -1.
</event>
<event>
 4    1  0.8104768E+003  0.4319443E+02  0.7546771E-02  0.1330719E+00
          2   -1    0    0  501    0  0.00000000000E+00  0.00000000000E+00  0.21458474498E+02  0.21458474498E+02  0.00000000000E+00 0.  1.
          2   -1    0    0  502    0 -0.00000000000E+00 -0.00000000000E+00 -0.54047670162E+03  0.54047670162E+03  0.00000000000E+00 0.  1.
          2    1    1    2  501    0  0.31659860150E+02 -0.29383873512E+02 -0.51688651136E+03  0.51868817646E+03  0.00000000000E+00 0.  1.
          2    1    1    2  502    0 -0.31659860150E+02  0.29383873512E+02 -0.21317157554E+01  0.43246999657E+02  0.00000000000E+00 0.  1.
</event>
<event>
 4    1  0.8104768E+003  0.6123565E+02  0.7546771E-02  0.1255691E+00
          2   -1    0    0  502    0  0.00000000000E+00  0.00000000000E+00  0.14866955369E+04  0.14866955369E+04  0.00000000000E+00 0.  1.
          2   -1    0    0  501    0 -0.00000000000E+00 -0.00000000000E+00 -0.11130117956E+03  0.11130117956E+03  0.00000000000E+00 0. -1.
          2    1    1    2  501    0  0.30279987070E+02  0.53225248893E+02  0.14775904447E+04  0.14788587922E+04  0.00000000000E+00 0.  1.
          2    1    1    2  502    0 -0.30279987070E+02 -0.53225248893E+02 -0.10219608738E+03  0.11913792433E+03  0.00000000000E+00 0. -1.
</event>
<event>
 4    1  0.1597979E+004  0.3194678E+02  0.7546771E-02  0.1403401E+00
          2   -1    0    0  501    0  0.00000000000E+00  0.00000000000E+00  0.16784555485E+04  0.16784555485E+04  0.00000000000E+00 0. -1.
          2   -1    0    0  502    0 -0.00000000000E+00 -0.00000000000E+00 -0.58995284700E+03  0.58995284700E+03  0.00000000000E+00 0.  1.
          2    1    1    2  501    0 -0.31946621040E+02 -0.10173397361E+00 -0.58936819112E+03  0.59023339591E+03  0.00000000000E+00 0.  1.
          2    1    1    2  502    0  0.31946621040E+02  0.10173397361E+00  0.16778708926E+04  0.16781749996E+04  0.00000000000E+00 0. -1.
</event>
<event>
 4    1  0.8104768E+003  0.2737966E+02  0.7546771E-02  0.1443831E+00
          2   -1    0    0  501    0  0.00000000000E+00  0.00000000000E+00  0.24326813211E+01  0.24326813211E+01  0.00000000000E+00 0.  1.
          2   -1    0    0  502    0 -0.00000000000E+00 -0.00000000000E+00 -0.55084965668E+03  0.55084965668E+03  0.00000000000E+00 0. -1.
          2    1    1    2  501    0 -0.72997073461E+01 -0.26388636984E+02 -0.45783241938E+03  0.45865037896E+03  0.00000000000E+00 0. -1.
          2    1    1    2  502    0  0.72997073461E+01  0.26388636984E+02 -0.90584555981E+02  0.94631959038E+02  0.00000000000E+00 0.  1.
</event>
<event>
 4    1  0.8104768E+003  0.2149963E+02  0.7546771E-02  0.1512250E+00
          2   -1    0    0  502    0  0.00000000000E+00  0.00000000000E+00  0.72661383634E+00  0.72661383634E+00  0.00000000000E+00 0. -1.
          2   -1    0    0  501    0 -0.00000000000E+00 -0.00000000000E+00 -0.87437599397E+03  0.87437599397E+03  0.00000000000E+00 0.  1.
          2    1    1    2  501    0 -0.18935818317E+02  0.10181800917E+02 -0.20843534885E+03  0.20954123445E+03  0.00000000000E+00 0. -1.
          2    1    1    2  502    0  0.18935818317E+02 -0.10181800917E+02 -0.66521403128E+03  0.66556137336E+03  0.00000000000E+00 0.  1.
</event>
<event>
 4    1  0.1549773E+004  0.2646830E+02  0.7546771E-02  0.1453023E+00
          2   -1    0    0  502    0  0.00000000000E+00  0.00000000000E+00  0.18287874625E+04  0.18287874625E+04  0.00000000000E+00 0.  1.
          2   -1    0    0  501    0 -0.00000000000E+00 -0.00000000000E+00 -0.74875127921E+03  0.74875127921E+03  0.00000000000E+00 0.  1.
          2    1    1    2  501    0 -0.57935752197E+01  0.25826446429E+02  0.18284577374E+04  0.18286493016E+04  0.00000000000E+00 0.  1.
          2    1    1    2  502    0  0.57935752197E+01 -0.25826446429E+02 -0.74842155411E+03  0.74888944010E+03  0.00000000000E+00 0.  1.
</event>
<event>
 4    1  0.8104768E+003  0.2321929E+02  0.7546771E-02  0.1489763E+00
          2   -1    0    0  501    0  0.00000000000E+00  0.00000000000E+00  0.37415178656E+03  0.37415178656E+03  0.00000000000E+00 0.  1.
          2   -1    0    0  502    0 -0.00000000000E+00 -0.00000000000E+00 -0.73603271560E+02  0.73603271560E+02  0.00000000000E+00 0.  1.
          2    1    1    2  501    0  0.11541949434E+02 -0.20147423051E+02 -0.71400980821E+02  0.75081524455E+02  0.00000000000E+00 0.  1.
          2    1    1    2  502    0 -0.11541949434E+02  0.20147423051E+02  0.37194949582E+03  0.37267353366E+03  0.00000000000E+00 0.  1.
</event>
<event>
 4    1  0.8104768E+003  0.3540209E+02  0.7546771E-02  0.1377758E+00
          2   -1    0    0  501    0  0.00000000000E+00  0.00000000000E+00  0.11522206146E+03  0.11522206146E+03  0.00000000000E+00 0.  1.
          2   -1    0    0  502    0 -0.00000000000E+00 -0.00000000000E+00 -0.72896870971E+02  0.72896870971E+02  0.00000000000E+00 0. -1.
          2    1    1    2  501    0  0.34816729882E+02 -0.64111845373E+01 -0.65595968295E+02  0.74539513169E+02  0.00000000000E+00 0. -1.
          2    1    1    2  502    0 -0.34816729882E+02  0.64111845373E+01  0.10792115878E+03  0.11357941926E+03  0.00000000000E+00 0.  1.
</event>
<event>
 4    1  0.8104768E+003  0.2162570E+02  0.7546771E-02  0.1510516E+00
          2   -1    0    0  501    0  0.00000000000E+00  0.00000000000E+00  0.74549515383E+03  0.74549515383E+03  0.00000000000E+00 0. -1.
          2   -1    0    0  502    0 -0.00000000000E+00 -0.00000000000E+00 -0.15327339863E+02  0.15327339863E+02  0.00000000000E+00 0. -1.
          2    1    1    2  501    0  0.19591168081E+02 -0.91573507441E+01 -0.74611267426E+01  0.22876611456E+02  0.00000000000E+00 0. -1.
          2    1    1    2  502    0 -0.19591168081E+02  0.91573507441E+01  0.73762894071E+03  0.73794588224E+03  0.00000000000E+00 0. -1.
</event>
<event>
 4    1  0.8104768E+003  0.2384772E+02  0.7546771E-02  0.1482119E+00
          2   -1    0    0  501    0  0.00000000000E+00  0.00000000000E+00  0.90261043465E+03  0.90261043465E+03  0.00000000000E+00 0.  1.
          2   -1    0    0  502    0 -0.00000000000E+00 -0.00000000000E+00 -0.75797049081E+01  0.75797049081E+01  0.00000000000E+00 0.  1.
          2    1    1    2  501    0  0.21313300076E+02 -0.10698446538E+02  0.11745918122E+02  0.26583455588E+02  0.00000000000E+00 0.  1.
          2    1    1    2  502    0 -0.21313300076E+02  0.10698446538E+02  0.88328481162E+03  0.88360668397E+03  0.00000000000E+00 0.  1.
</event>
<event>
 4    1  0.8104768E+003  0.9859590E+02  0.7546771E-02  0.1166264E+00
          2   -1    0    0  502    0  0.00000000000E+00  0.00000000000E+00  0.23223959233E+03  0.23223959233E+03  0.00000000000E+00 0. -1.
          2   -1    0    0  501    0 -0.00000000000E+00 -0.00000000000E+00 -0.53514713792E+03  0.53514713792E+03  0.00000000000E+00 0. -1.
          2    1    1    2  501    0  0.94097900072E+02  0.29440380695E+02  0.21692817266E+03  0.23828340880E+03  0.00000000000E+00 0. -1.
          2    1    1    2  502    0 -0.94097900072E+02 -0.29440380695E+02 -0.51983571824E+03  0.52910332146E+03  0.00000000000E+00 0. -1.
</event>
<event>
 4    1  0.8104768E+003  0.2297483E+02  0.7546771E-02  0.1492814E+00
          2   -1    0    0  501    0  0.00000000000E+00  0.00000000000E+00  0.92041646582E+00  0.92041646582E+00  0.00000000000E+00 0. -1.
          2   -1    0    0  502    0 -0.00000000000E+00 -0.00000000000E+00 -0.16692684453E+04  0.16692684453E+04  0.00000000000E+00 0. -1.
          2    1    1    2  501    0  0.21398853729E+02 -0.83625355798E+01 -0.15107791876E+04  0.15109538698E+04  0.00000000000E+00 0. -1.
          2    1    1    2  502    0 -0.21398853729E+02  0.83625355798E+01 -0.15756884123E+03  0.15923499197E+03  0.00000000000E+00 0. -1.
</event>
<event>
 4    1  0.8104768E+003  0.2805552E+02  0.7546771E-02  0.1437284E+00
          2   -1    0    0  502    0  0.00000000000E+00  0.00000000000E+00  0.33662481601E+03  0.33662481601E+03  0.00000000000E+00 0.  1.
          2   -1    0    0  501    0 -0.00000000000E+00 -0.00000000000E+00 -0.48560450668E+01  0.48560450668E+01  0.00000000000E+00 0.  1.
          2    1    1    2  501    0 -0.12019471354E+01 -0.28029762262E+02  0.28882783469E+03  0.29018723325E+03  0.00000000000E+00 0.  1.
          2    1    1    2  502    0  0.12019471354E+01  0.28029762262E+02  0.42940936256E+02  0.51293627830E+02  0.00000000000E+00 0.  1.
</event>
<event>
 4    1  0.8104768E+003  0.3506648E+02  0.7546771E-02  0.1380096E+00
          2   -1    0    0  502    0  0.00000000000E+00  0.00000000000E+00  0.38158950784E+01  0.38158950784E+01  0.00000000000E+00 0. -1.
          2   -1    0    0  501    0 -0.00000000000E+00 -0.00000000000E+00 -0.74935456491E+03  0.74935456491E+03  0.00000000000E+00 0.  1.
          2    1    1    2  501    0 -0.28720075460E+02 -0.20120023038E+02 -0.88461653984E+02  0.95158406286E+02  0.00000000000E+00 0. -1.
          2    1    1    2  502    0  0.28720075460E+02  0.20120023038E+02 -0.65707701585E+03  0.65801205371E+03  0.00000000000E+00 0.  1.
</event>
<event>
 4    1  0.8104768E+003  0.2178757E+02  0.7546771E-02  0.1508311E+00
          2   -1    0    0  501    0  0.00000000000E+00  0.00000000000E+00  0.18421464491E+01  0.18421464491E+01  0.00000000000E+00 0. -1.
          2   -1    0    0  502    0 -0.00000000000E+00 -0.00000000000E+00 -0.71434570632E+03  0.71434570632E+03  0.00000000000E+00 0.  1.
          2    1    1    2  501    0  0.21423205148E+02  0.39679410073E+01 -0.64256297336E+03  0.64293224605E+03  0.00000000000E+00 0.  1.
          2    1    1    2  502    0 -0.21423205148E+02 -0.39679410073E+01 -0.69940586512E+02  0.73255606722E+02  0.00000000000E+00 0. -1.
</event>
<event>
 4    1  0.8104768E+003  0.4383162E+02  0.7546771E-02  0.1327386E+00
          2   -1    0    0  502    0  0.00000000000E+00  0.00000000000E+00  0.26068946815E+01  0.26068946815E+01  0.00000000000E+00 0. -1.
          2   -1    0    0  501    0 -0.00000000000E+00 -0.00000000000E+00 -0.13838057703E+04  0.13838057703E+04  0.00000000000E+00 0.  1.
          2    1    1    2  501    0 -0.22382095602E+02  0.37686244458E+02 -0.21666209400E+03  0.22105129314E+03  0.00000000000E+00 0. -1.
          2    1    1    2  502    0  0.22382095602E+02 -0.37686244458E+02 -0.11645367817E+04  0.11653613719E+04  0.00000000000E+00 0.  1.
</event>
<event>
 4    1  0.8104768E+003  0.3729530E+02  0.7546771E-02  0.1365108E+00
          2   -1    0    0  502    0  0.00000000000E+00  0.00000000000E+00  0.97505285477E+03  0.97505285477E+03  0.00000000000E+00 0.  1.
          2   -1    0    0  501    0 -0.00000000000E+00 -0.00000000000E+00 -0.13968397269E+02  0.13968397269E+02  0.00000000000E+00 0.  1.
          2    1    1    2  501    0  0.62529639394E+01 -0.36767376292E+02  0.94912194598E+03  0.94985441403E+03  0.00000000000E+00 0.  1.
          2    1    1    2  502    0 -0.62529639394E+01  0.36767376292E+02  0.11962511518E+02  0.39166838004E+02  0.00000000000E+00 0.  1.
</event>
<event>
 4    1  0.8104768E+003  0.2414063E+02  0.7546771E-02  0.1478651E+00
          2   -1    0    0  501    0  0.00000000000E+00  0.00000000000E+00  0.14302465184E+04  0.14302465184E+04  0.00000000000E+00 0.  1.
          2   -1    0    0  502    0 -0.00000000000E+00 -0.00000000000E+00 -0.10295474898E+02  0.10295474898E+02  0.00000000000E+00 0. -1.
          2    1    1    2  501    0 -0.26086183431E+01 -0.23999278247E+02  0.41013996969E+01  0.24486562142E+02  0.00000000000E+00 0. -1.
          2    1    1    2  502    0  0.26086183431E+01  0.23999278247E+02  0.14158496438E+04  0.14160554312E+04  0.00000000000E+00 0.  1.
</event>
<event>
 4    1  0.8104768E+003  0.5165384E+02  0.7546771E-02  0.1291157E+00
          2   -1    0    0  502    0  0.00000000000E+00  0.00000000000E+00  0.21267781006E+02  0.21267781006E+02  0.00000000000E+00 0.  1.
          2   -1    0    0  501    0 -0.00000000000E+00 -0.00000000000E+00 -0.51869569394E+03  0.51869569394E+03  0.00000000000E+00 0.  1.
          2    1    1    2  501    0  0.10142822609E+02  0.50648218387E+02 -0.13638067153E+02  0.53423924901E+02  0.00000000000E+00 0.  1.
          2    1    1    2  502    0 -0.10142822609E+02 -0.50648218387E+02 -0.48378984578E+03  0.48653955004E+03  0.00000000000E+00 0.  1.
</event>
<event>
 4    1  0.8104768E+003  0.2092416E+02  0.7546771E-02  0.1520350E+00
          2   -1    0    0  502    0  0.00000000000E+00  0.00000000000E+00  0.56995779400E+03  0.56995779400E+03  0.00000000000E+00 0.  1.
          2   -1    0    0  501    0 -0.00000000000E+00 -0.00000000000E+00 -0.78854866941E+00  0.78854866941E+00  0.00000000000E+00 0. -1.
          2    1    1    2  501    0  0.20863926073E+02  0.15864909500E+01  0.33046887925E+03  0.33113063965E+03  0.00000000000E+00 0.  1.
          2    1    1    2  502    0 -0.20863926073E+02 -0.15864909500E+01  0.23870036608E+03  0.23961570301E+03  0.00000000000E+00 0. -1.
</event>
<event>
 4    1  0.8104768E+003  0.2533372E+02  0.7546771E-02  0.1465105E+00
          2   -1    0    0  502    0  0.00000000000E+00  0.00000000000E+00  0.30634889778E+02  0.30634889778E+02  0.00000000000E+00 0.  1.
          2   -1    0    0  501    0 -0.00000000000E+00 -0.00000000000E+00 -0.82314706530E+02  0.82314706530E+02  0.00000000000E+00 0. -1.
          2    1    1    2  501    0  0.13305727881E+02  0.21558173190E+02  0.22921442668E+02  0.34164158994E+02  0.00000000000E+00 0.  1.
          2    1    1    2  502    0 -0.13305727881E+02 -0.21558173190E+02 -0.74601259420E+02  0.78785437314E+02  0.00000000000E+00 0. -1.
</event>
<event>
 4    1  0.8104768E+003  0.3075274E+02  0.7546771E-02  0.1413166E+00
          2   -1    0    0  502    0  0.00000000000E+00  0.00000000000E+00  0.12104074566E+04  0.12104074566E+04  0.00000000000E+00 0. -1.
          2   -1    0    0  501    0 -0.00000000000E+00 -0.00000000000E+00 -0.83587654402E+01  0.83587654402E+01  0.00000000000E+00 0. -1.
          2    1    1    2  501    0 -0.13101001852E+01 -0.30724820272E+02  0.11812279053E+04  0.11816281544E+04  0.00000000000E+00 0. -1.
          2    1    1    2  502    0  0.13101001852E+01  0.30724820272E+02  0.20820785764E+02  0.37138067573E+02  0.00000000000E+00 0. -1.
</event>
<event>
 4    1  0.8104768E+003  0.3204937E+02  0.7546771E-02  0.1402585E+00
          2   -1    0    0  502    0  0.00000000000E+00  0.00000000000E+00  0.30158560549E+03  0.30158560549E+03  0.00000000000E+00 0.  1.
          2   -1    0    0  501    0 -0.00000000000E+00 -0.00000000000E+00 -0.95666483236E+01  0.95666483236E+01  0.00000000000E+00 0.  1.
          2    1    1    2  501    0 -0.16253171136E+02 -0.27622391597E+02  0.27085723937E+03  0.27274678038E+03  0.00000000000E+00 0.  1.
          2    1    1    2  502    0  0.16253171136E+02  0.27622391597E+02  0.21161717800E+02  0.38405473435E+02  0.00000000000E+00 0.  1.
</event>
<event>
 4    1  0.8104768E+003  0.2094123E+02  0.7546771E-02  0.1520105E+00
          2   -1    0    0  502    0  0.00000000000E+00  0.00000000000E+00  0.13136126102E+03  0.13136126102E+03  0.00000000000E+00 0.  1.
          2   -1    0    0  501    0 -0.00000000000E+00 -0.00000000000E+00 -0.72680555401E+01  0.72680555401E+01  0.00000000000E+00 0. -1.
          2    1    1    2  501    0  0.76570291623E+01 -0.19491156452E+02  0.11301414560E+03  0.11493795013E+03  0.00000000000E+00 0.  1.
          2    1    1    2  502    0 -0.76570291623E+01  0.19491156452E+02  0.11079059885E+02  0.23691366430E+02  0.00000000000E+00 0. -1.
</event>
<event>
 4    1  0.8104768E+003  0.4056228E+02  0.7546771E-02  0.1345222E+00
          2   -1    0    0  501    0  0.00000000000E+00  0.00000000000E+00  0.53675250296E+03  0.53675250296E+03  0.00000000000E+00 0. -1.
          2   -1    0    0  502    0 -0.00000000000E+00 -0.00000000000E+00 -0.93387454185E+01  0.93387454185E+01  0.00000000000E+00 0.  1.
          2    1    1    2  501    0  0.11612805859E+02  0.38864397315E+02  0.39914865788E+02  0.56907777583E+02  0.00000000000E+00 0.  1.
          2    1    1    2  502    0 -0.11612805859E+02 -0.38864397315E+02  0.48749889176E+03  0.48918347080E+03  0.00000000000E+00 0. -1.
</event>
<event>
 4    1  0.8104768E+003  0.3160800E+02  0.7546771E-02  0.1406119E+00
          2   -1    0    0  501    0  0.00000000000E+00  0.00000000000E+00  0.22854126132E+02  0.22854126132E+02  0.00000000000E+00 0.  1.
          2   -1    0    0  502    0 -0.00000000000E+00 -0.00000000000E+00 -0.58906759139E+03  0.58906759139E+03  0.00000000000E+00 0. -1.
          2    1    1    2  501    0 -0.27649062953E+02 -0.15316491712E+02 -0.57749604612E+03  0.57836039706E+03  0.00000000000E+00 0. -1.
          2    1    1    2  502    0  0.27649062953E+02  0.15316491712E+02  0.11282580861E+02  0.33561320466E+02  0.00000000000E+00 0.  1.
</event>
<event>
 4    1  0.8104768E+003  0.2275370E+02  0.7546771E-02  0.1495614E+00
          2   -1    0    0  501    0  0.00000000000E+00  0.00000000000E+00  0.11139383154E+01  0.11139383154E+01  0.00000000000E+00 0.  1.
          2   -1    0    0  502    0 -0.00000000000E+00 -0.00000000000E+00 -0.99888848909E+03  0.99888848909E+03  0.00000000000E+00 0. -1.
          2    1    1    2  501    0  0.18035717042E+02 -0.13872411545E+02 -0.86450669131E+03  0.86480607665E+03  0.00000000000E+00 0. -1.
          2    1    1    2  502    0 -0.18035717042E+02  0.13872411545E+02 -0.13326785947E+03  0.13519635076E+03  0.00000000000E+00 0.  1.
</event>
<event>
 4    1  0.8104768E+003  0.2376068E+02  0.7546771E-02  0.1483161E+00
          2   -1    0    0  501    0  0.00000000000E+00  0.00000000000E+00  0.18786663246E+01  0.18786663246E+01  0.00000000000E+00 0.  1.
          2   -1    0    0  502    0 -0.00000000000E+00 -0.00000000000E+00 -0.30855203685E+03  0.30855203685E+03  0.00000000000E+00 0. -1.
          2    1    1    2  501    0  0.58651128562E+00  0.23753438605E+02 -0.17838528694E+03  0.17996077472E+03  0.00000000000E+00 0. -1.
          2    1    1    2  502    0 -0.58651128562E+00 -0.23753438605E+02 -0.12828808359E+03  0.13046992846E+03  0.00000000000E+00 0.  1.
</event>
<event>
 4    1  0.8104768E+003  0.2332798E+02  0.7546771E-02  0.1488420E+00
          2   -1    0    0  501    0  0.00000000000E+00  0.00000000000E+00  0.68267650027E+03  0.68267650027E+03  0.00000000000E+00 0. -1.
          2   -1    0    0  502    0 -0.00000000000E+00 -0.00000000000E+00 -0.19820646991E+03  0.19820646991E+03  0.00000000000E+00 0. -1.
          2    1    1    2  501    0 -0.21146901602E+02 -0.98490194038E+01 -0.19731989178E+03  0.19869407218E+03  0.00000000000E+00 0. -1.
          2    1    1    2  502    0  0.21146901602E+02  0.98490194038E+01  0.68178992213E+03  0.68218889800E+03  0.00000000000E+00 0. -1.
</event>
<event>
 4    1  0.8104768E+003  0.2446499E+02  0.7546771E-02  0.1474878E+00
          2   -1    0    0  502    0  0.00000000000E+00  0.00000000000E+00  0.10557714374E+03  0.10557714374E+03  0.00000000000E+00 0. -1.
          2   -1    0    0  501    0 -0.00000000000E+00 -0.00000000000E+00 -0.67793592980E+03  0.67793592980E+03  0.00000000000E+00 0. -1.
          2    1    1    2  501    0  0.12128639301E+02 -0.21246927382E+02  0.10393569005E+03  0.10677623088E+03  0.00000000000E+00 0. -1.
          2    1    1    2  502    0 -0.12128639301E+02  0.21246927382E+02 -0.67629447611E+03  0.67673684267E+03  0.00000000000E+00 0. -1.
</event>
<event>
 4    1  0.8104768E+003  0.2654082E+02  0.7546771E-02  0.1452276E+00
          2   -1    0    0  501    0  0.00000000000E+00  0.00000000000E+00  0.52321672417E+02  0.52321672417E+02  0.00000000000E+00 0. -1.
          2   -1    0    0  502    0 -0.00000000000E+00 -0.00000000000E+00 -0.22874281512E+03  0.22874281512E+03  0.00000000000E+00 0.  1.
          2    1    1    2  501    0 -0.25545073522E+02  0.72017025755E+01 -0.22454443391E+03  0.22610753659E+03  0.00000000000E+00 0.  1.
          2    1    1    2  502    0  0.25545073522E+02 -0.72017025755E+01  0.48123291206E+02  0.54956950950E+02  0.00000000000E+00 0. -1.
</event>
<event>
 4    1  0.8104768E+003  0.2215330E+02  0.7546771E-02  0.1503413E+00
          2   -1    0    0  501    0  0.00000000000E+00  0.00000000000E+00  0.43566356420E+02  0.43566356420E+02  0.00000000000E+00 0. -1.
          2   -1    0    0  502    0 -0.00000000000E+00 -0.00000000000E+00 -0.88955837997E+02  0.88955837997E+02  0.00000000000E+00 0.  1.
          2    1    1    2  501    0 -0.21200767539E+02 -0.64262089587E+01 -0.84618412918E+02  0.87470249288E+02  0.00000000000E+00 0.  1.
          2    1    1    2  502    0  0.21200767539E+02  0.64262089587E+01  0.39228931340E+02  0.45051945129E+02  0.00000000000E+00 0. -1.
</event>
<event>
 4    1  0.8104768E+003  0.4868955E+02  0.7546771E-02  0.1303956E+00
          2   -1    0    0  502    0  0.00000000000E+00  0.00000000000E+00  0.41313656469E+03  0.41313656469E+03  0.00000000000E+00 0.  1.
          2   -1    0    0  501    0 -0.00000000000E+00 -0.00000000000E+00 -0.20268876227E+02  0.20268876227E+02  0.00000000000E+00 0.  1.
          2    1    1    2  501    0  0.41856429070E+02 -0.24873918465E+02  0.37991522443E+03  0.38302251922E+03  0.00000000000E+00 0.  1.
          2    1    1    2  502    0 -0.41856429070E+02  0.24873918465E+02  0.12952464032E+02  0.50382921698E+02  0.00000000000E+00 0.  1.
</event>
<event>
 4    1  0.8104768E+003  0.3889089E+02  0.7546771E-02  0.1355111E+00
          2   -1    0    0  501    0  0.00000000000E+00  0.00000000000E+00  0.41059005902E+03  0.41059005902E+03  0.00000000000E+00 0. -1.
          2   -1    0    0  502    0 -0.00000000000E+00 -0.00000000000E+00 -0.36967111895E+01  0.36967111895E+01  0.00000000000E+00 0. -1.
          2    1    1    2  501    0  0.38838421102E+02 -0.20194400950E+01  0.19116959806E+03  0.19508540775E+03  0.00000000000E+00 0. -1.
          2    1    1    2  502    0 -0.38838421102E+02  0.20194400950E+01  0.21572374976E+03  0.21920136246E+03  0.00000000000E+00 0. -1.
</event>
<event>
 4    1  0.8104768E+003  0.2298186E+02  0.7546771E-02  0.1492726E+00
          2   -1    0    0  501    0  0.00000000000E+00  0.00000000000E+00  0.34325057935E+01  0.34325057935E+01  0.00000000000E+00 0. -1.
          2   -1    0    0  502    0 -0.00000000000E+00 -0.00000000000E+00 -0.10782956463E+04  0.10782956463E+04  0.00000000000E+00 0. -1.
          2    1    1    2  501    0 -0.20564980094E+02  0.10259027021E+02 -0.10382205547E+04  0.10384748848E+04  0.00000000000E+00 0. -1.
          2    1    1    2  502    0  0.20564980094E+02 -0.10259027021E+02 -0.36642585793E+02  0.43253267337E+02  0.00000000000E+00 0. -1.
</event>
<event>
 4    1  0.8104768E+003  0.2271427E+02  0.7546771E-02  0.1496118E+00
          2   -1    0    0  501    0  0.00000000000E+00  0.00000000000E+00  0.13359874491E+02  0.13359874491E+02  0.00000000000E+00 0.  1.
          2   -1    0    0  502    0 -0.00000000000E+00 -0.00000000000E+00 -0.21707964579E+03  0.21707964579E+03  0.00000000000E+00 0.  1.
          2    1    1    2  501    0  0.47336963839E+01 -0.22215538420E+02 -0.20632932861E+03  0.20757584126E+03  0.00000000000E+00 0.  1.
          2    1    1    2  502    0 -0.47336963839E+01  0.22215538420E+02  0.26095573195E+01  0.22863679016E+02  0.00000000000E+00 0.  1.
</event>
<event>
 4    1  0.8104768E+003  0.2394125E+02  0.7546771E-02  0.1481005E+00
          2   -1    0    0  501    0  0.00000000000E+00  0.00000000000E+00  0.70151945914E+02  0.70151945914E+02  0.00000000000E+00 0. -1.
          2   -1    0    0  502    0 -0.00000000000E+00 -0.00000000000E+00 -0.10855717979E+02  0.10855717979E+02  0.00000000000E+00 0. -1.
          2    1    1    2  501    0  0.23060392708E+02  0.64344252595E+01  0.95039863643E+01  0.25758674210E+02  0.00000000000E+00 0. -1.
          2    1    1    2  502    0 -0.23060392708E+02 -0.64344252595E+01  0.49792241571E+02  0.55248989682E+02  0.00000000000E+00 0. -1.
</event>
<event>
 4    1  0.8104768E+003  0.3685680E+02  0.7546771E-02  0.1367959E+00
          2   -1    0    0  502    0  0.00000000000E+00  0.00000000000E+00  0.28930678864E+02  0.28930678864E+02  0.00000000000E+00 0.  1.
          2   -1    0    0  501    0 -0.00000000000E+00 -0.00000000000E+00 -0.60958109135E+02  0.60958109135E+02  0.00000000000E+00 0.  1.
          2    1    1    2  501    0 -0.53023512569E+01  0.36473402263E+02  0.55280165110E+01  0.37269061808E+02  0.00000000000E+00 0.  1.
          2    1    1    2  502    0  0.53023512569E+01 -0.36473402263E+02 -0.37555446781E+02  0.52619726191E+02  0.00000000000E+00 0.  1.
</event>
<event>
 4    1  0.8104768E+003  0.2727152E+02  0.7546771E-02  0.1444900E+00
          2   -1    0    0  502    0  0.00000000000E+00  0.00000000000E+00  0.13556430390E+03  0.13556430390E+03  0.00000000000E+00 0.  1.
          2   -1    0    0  501    0 -0.00000000000E+00 -0.00000000000E+00 -0.28772961366E+02  0.28772961366E+02  0.00000000000E+00 0.  1.
          2    1    1    2  501    0  0.18395786039E+02 -0.20132824069E+02  0.12731672375E+03  0.13020477601E+03  0.00000000000E+00 0.  1.
          2    1    1    2  502    0 -0.18395786039E+02  0.20132824069E+02 -0.20525381214E+02  0.34132489258E+02  0.00000000000E+00 0.  1.
</event>
<event>
 4    1  0.8104768E+003  0.4712304E+02  0.7546771E-02  0.1311152E+00
          2   -1    0    0  502    0  0.00000000000E+00  0.00000000000E+00  0.71216087551E+03  0.71216087551E+03  0.00000000000E+00 0.  1.
          2   -1    0    0  501    0 -0.00000000000E+00 -0.00000000000E+00 -0.13862565546E+04  0.13862565546E+04  0.00000000000E+00 0.  1.
          2    1    1    2  501    0 -0.24279876741E+02  0.40386488609E+02  0.71098022547E+03  0.71254014756E+03  0.00000000000E+00 0.  1.
          2    1    1    2  502    0  0.24279876741E+02 -0.40386488609E+02 -0.13850759045E+04  0.13858772825E+04  0.00000000000E+00 0.  1.
</event>
<event>
 4    1  0.8104768E+003  0.2182501E+02  0.7546771E-02  0.1507804E+00
          2   -1    0    0  501    0  0.00000000000E+00  0.00000000000E+00  0.16793281951E+01  0.16793281951E+01  0.00000000000E+00 0. -1.
          2   -1    0    0  502    0 -0.00000000000E+00 -0.00000000000E+00 -0.43259542437E+03  0.43259542437E+03  0.00000000000E+00 0. -1.
          2    1    1    2  501    0  0.19752467305E+02  0.92828362269E+01 -0.34287178764E+03  0.34356570517E+03  0.00000000000E+00 0. -1.
          2    1    1    2  502    0 -0.19752467305E+02 -0.92828362269E+01 -0.88044308540E+02  0.90709047395E+02  0.00000000000E+00 0. -1.
</event>
<event>
 4    1  0.8104768E+003  0.2006243E+02  0.7546771E-02  0.1533084E+00
          2   -1    0    0  502    0  0.00000000000E+00  0.00000000000E+00  0.53293706603E+02  0.53293706603E+02  0.00000000000E+00 0.  1.
          2   -1    0    0  501    0 -0.00000000000E+00 -0.00000000000E+00 -0.62161564474E+02  0.62161564474E+02  0.00000000000E+00 0.  1.
          2    1    1    2  501    0 -0.32809934847E+01  0.19792322722E+02  0.49673282515E+02  0.53571783177E+02  0.00000000000E+00 0.  1.
          2    1    1    2  502    0  0.32809934847E+01 -0.19792322722E+02 -0.58541140386E+02  0.61883487900E+02  0.00000000000E+00 0.  1.
</event>
<event>
 4    1  0.8104768E+003  0.2368199E+02  0.7546771E-02  0.1484107E+00
          2   -1    0    0  502    0  0.00000000000E+00  0.00000000000E+00  0.83944796709E+03  0.83944796709E+03  0.00000000000E+00 0. -1.
          2   -1    0    0  501    0 -0.00000000000E+00 -0.00000000000E+00 -0.52655550209E+01  0.52655550209E+01  0.00000000000E+00 0.  1.
          2    1    1    2  501    0  0.23381256923E+02  0.37621372980E+01  0.81174476531E+03  0.81209014331E+03  0.00000000000E+00 0. -1.
          2    1    1    2  502    0 -0.23381256923E+02 -0.37621372980E+01  0.22437646761E+02  0.32623378804E+02  0.00000000000E+00 0.  1.
</event>
<event>
 4    1  0.8104768E+003  0.2202091E+02  0.7546771E-02  0.1505173E+00
          2   -1    0    0  502    0  0.00000000000E+00  0.00000000000E+00  0.37857875271E+03  0.37857875271E+03  0.00000000000E+00 0.  1.
          2   -1    0    0  501    0 -0.00000000000E+00 -0.00000000000E+00 -0.21584313785E+02  0.21584313785E+02  0.00000000000E+00 0. -1.
          2    1    1    2  501    0  0.59645320228E+01 -0.21197758185E+02  0.37255114962E+03  0.37320139292E+03  0.00000000000E+00 0.  1.
          2    1    1    2  502    0 -0.59645320228E+01  0.21197758185E+02 -0.15556710695E+02  0.26961673575E+02  0.00000000000E+00 0. -1.
</event>
<event>
 4    1  0.8104768E+003  0.4716137E+02  0.7546771E-02  0.1310972E+00
          2   -1    0    0  502    0  0.00000000000E+00  0.00000000000E+00  0.12169035750E+01  0.12169035750E+01  0.00000000000E+00 0. -1.
          2   -1    0    0  501    0 -0.00000000000E+00 -0.00000000000E+00 -0.18281333105E+04  0.18281333105E+04  0.00000000000E+00 0.  1.
          2    1    1    2  501    0  0.46929139691E+02 -0.46744683569E+01 -0.92671275730E+03  0.92791202673E+03  0.00000000000E+00 0.  1.
          2    1    1    2  502    0 -0.46929139691E+02  0.46744683569E+01 -0.90020364963E+03  0.90143818735E+03  0.00000000000E+00 0. -1.
</event>
<event>
 4    1  0.8104768E+003  0.2144389E+02  0.7546771E-02  0.1513021E+00
          2   -1    0    0  502    0  0.00000000000E+00  0.00000000000E+00  0.27385164688E+01  0.27385164688E+01  0.00000000000E+00 0.  1.
          2   -1    0    0  501    0 -0.00000000000E+00 -0.00000000000E+00 -0.44738590870E+03  0.44738590870E+03  0.00000000000E+00 0.  1.
          2    1    1    2  501    0  0.62369180053E+01 -0.20516856851E+02 -0.44442922979E+02  0.49345860659E+02  0.00000000000E+00 0.  1.
          2    1    1    2  502    0 -0.62369180053E+01  0.20516856851E+02 -0.40020446925E+03  0.40077856451E+03  0.00000000000E+00 0.  1.
</event>
<event>
 4    1  0.8104768E+003  0.3784163E+02  0.7546771E-02  0.1361620E+00
          2   -1    0    0  502    0  0.00000000000E+00  0.00000000000E+00  0.35099843668E+03  0.35099843668E+03  0.00000000000E+00 0.  1.
          2   -1    0    0  501    0 -0.00000000000E+00 -0.00000000000E+00 -0.13040946430E+03  0.13040946430E+03  0.00000000000E+00 0.  1.
          2    1    1    2  501    0  0.33333786634E+02 -0.17912230202E+02  0.34720340062E+03  0.34925948910E+03  0.00000000000E+00 0.  1.
          2    1    1    2  502    0 -0.33333786634E+02  0.17912230202E+02 -0.12661442824E+03  0.13214841188E+03  0.00000000000E+00 0.  1.
</event>
<event>
 4    1  0.8104768E+003  0.4294611E+02  0.7546771E-02  0.1332036E+00
          2   -1    0    0  502    0  0.00000000000E+00  0.00000000000E+00  0.36679300934E+03  0.36679300934E+03  0.00000000000E+00 0.  1.
          2   -1    0    0  501    0 -0.00000000000E+00 -0.00000000000E+00 -0.51294091926E+01  0.51294091926E+01  0.00000000000E+00 0. -1.
          2    1    1    2  501    0  0.28760783168E+02  0.31893347110E+02  0.20693234618E+03  0.21134181823E+03  0.00000000000E+00 0.  1.
          2    1    1    2  502    0 -0.28760783168E+02 -0.31893347110E+02  0.15473125396E+03  0.16058060030E+03  0.00000000000E+00 0. -1.
</event>
<event>
 4    1  0.1005120E+004  0.2116816E+02  0.7546771E-02  0.1516877E+00
          2   -1    0    0  502    0  0.00000000000E+00  0.00000000000E+00  0.63076686791E+03  0.63076686791E+03  0.00000000000E+00 0. -1.
          2   -1    0    0  501    0 -0.00000000000E+00 -0.00000000000E+00 -0.14004435430E+04  0.14004435430E+04  0.00000000000E+00 0. -1.
          2    1    1    2  501    0  0.17990136270E+02  0.11155536101E+02  0.63050924663E+03  0.63086448709E+03  0.00000000000E+00 0. -1.
          2    1    1    2  502    0 -0.17990136270E+02 -0.11155536101E+02 -0.14001859217E+04  0.14003459238E+04  0.00000000000E+00 0. -1.
</event>
<event>
 4    1  0.8104768E+003  0.2669662E+02  0.7546771E-02  0.1450680E+00
          2   -1    0    0  502    0  0.00000000000E+00  0.00000000000E+00  0.98562354409E+03  0.98562354409E+03  0.00000000000E+00 0. -1.
          2   -1    0    0  501    0 -0.00000000000E+00 -0.00000000000E+00 -0.24520980558E+03  0.24520980558E+03  0.00000000000E+00 0. -1.
          2    1    1    2  501    0  0.12216512546E+02 -0.23737445253E+02  0.98471546551E+03  0.98507728504E+03  0.00000000000E+00 0. -1.
          2    1    1    2  502    0 -0.12216512546E+02  0.23737445253E+02 -0.24430172700E+03  0.24575606463E+03  0.00000000000E+00 0. -1.
</event>
<event>
 4    1  0.8104768E+003  0.2021852E+02  0.7546771E-02  0.1530721E+00
          2   -1    0    0  502    0  0.00000000000E+00  0.00000000000E+00  0.69729895542E+00  0.69729895542E+00  0.00000000000E+00 0. -1.
          2   -1    0    0  501    0 -0.00000000000E+00 -0.00000000000E+00 -0.90581324478E+03  0.90581324478E+03  0.00000000000E+00 0. -1.
          2    1    1    2  501    0  0.15410641271E+02  0.13088187052E+02 -0.18333948970E+03  0.18445096093E+03  0.00000000000E+00 0. -1.
          2    1    1    2  502    0 -0.15410641271E+02 -0.13088187052E+02 -0.72177645613E+03  0.72205958281E+03  0.00000000000E+00 0. -1.
</event>
<event>
 4    1  0.8104768E+003  0.2043095E+02  0.7546771E-02  0.1527547E+00
          2   -1    0    0  502    0  0.00000000000E+00  0.00000000000E+00  0.22858847284E+03  0.22858847284E+03  0.00000000000E+00 0. -1.
          2   -1    0    0  501    0 -0.00000000000E+00 -0.00000000000E+00 -0.75717587454E+02  0.75717587454E+02  0.00000000000E+00 0. -1.
          2    1    1    2  501    0  0.19394055722E+02  0.64260805489E+01  0.22674252542E+03  0.22766114456E+03  0.00000000000E+00 0. -1.
          2    1    1    2  502    0 -0.19394055722E+02 -0.64260805489E+01 -0.73871640028E+02  0.76644915741E+02  0.00000000000E+00 0. -1.
</event>
<event>
 4    1  0.8104768E+003  0.2235776E+02  0.7546771E-02  0.1500724E+00
          2   -1    0    0  502    0  0.00000000000E+00  0.00000000000E+00  0.71845811955E+02  0.71845811955E+02  0.00000000000E+00 0. -1.
          2   -1    0    0  501    0 -0.00000000000E+00 -0.00000000000E+00 -0.13020998077E+04  0.13020998077E+04  0.00000000000E+00 0.  1.
          2    1    1    2  501    0  0.63776353745E+01 -0.21428843459E+02  0.70007996815E+02  0.73491422514E+02  0.00000000000E+00 0. -1.
          2    1    1    2  502    0 -0.63776353745E+01  0.21428843459E+02 -0.13002619926E+04  0.13004541972E+04  0.00000000000E+00 0.  1.
</event>
<event>
 4    1  0.8104768E+003  0.2513880E+02  0.7546771E-02  0.1467257E+00
          2   -1    0    0  501    0  0.00000000000E+00  0.00000000000E+00  0.40408616929E+03  0.40408616929E+03  0.00000000000E+00 0. -1.
          2   -1    0    0  502    0 -0.00000000000E+00 -0.00000000000E+00 -0.60292573160E+01  0.60292573160E+01  0.00000000000E+00 0.  1.
          2    1    1    2  501    0 -0.17607158876E+02 -0.17942885555E+02  0.22558309275E+02  0.33776271302E+02  0.00000000000E+00 0.  1.
          2    1    1    2  502    0  0.17607158876E+02  0.17942885555E+02  0.37549860270E+03  0.37633915531E+03  0.00000000000E+00 0. -1.
</event>
<event>
 4    1  0.8104768E+003  0.3978989E+02  0.7546771E-02  0.1349721E+00
          2   -1    0    0  501    0  0.00000000000E+00  0.00000000000E+00  0.27726011083E+02  0.27726011083E+02  0.00000000000E+00 0.  1.
          2   -1    0    0  502    0 -0.00000000000E+00 -0.00000000000E+00 -0.17924861424E+03  0.17924861424E+03  0.00000000000E+00 0.  1.
          2    1    1    2  501    0  0.20003180120E+02  0.34396337234E+02 -0.16118892978E+03  0.16602742639E+03  0.00000000000E+00 0.  1.
          2    1    1    2  502    0 -0.20003180120E+02 -0.34396337234E+02  0.96663266242E+01  0.40947198933E+02  0.00000000000E+00 0.  1.
</event>
<event>
 4    1  0.8104768E+003  0.2325845E+02  0.7546771E-02  0.1489278E+00
          2   -1    0    0  501    0  0.00000000000E+00  0.00000000000E+00  0.23126963927E+02  0.23126963927E+02  0.00000000000E+00 0.  1.
          2   -1    0    0  502    0 -0.00000000000E+00 -0.00000000000E+00 -0.30885366222E+03  0.30885366222E+03  0.00000000000E+00 0.  1.
          2    1    1    2  501    0 -0.23251975140E+02  0.54862526971E+00 -0.30244438072E+03  0.30333736790E+03  0.00000000000E+00 0.  1.
          2    1    1    2  502    0  0.23251975140E+02 -0.54862526971E+00  0.16717682422E+02  0.28643258250E+02  0.00000000000E+00 0.  1.
</event>
<event>
 4    1  0.8104768E+003  0.3751952E+02  0.7546771E-02  0.1363668E+00
          2   -1    0    0  502    0  0.00000000000E+00  0.00000000000E+00  0.24327303801E+03  0.24327303801E+03  0.00000000000E+00 0.  1.
          2   -1    0    0  501    0 -0.00000000000E+00 -0.00000000000E+00 -0.15135063366E+02  0.15135063366E+02  0.00000000000E+00 0. -1.
          2    1    1    2  501    0  0.34593892373E+02 -0.14525036327E+02  0.21561317000E+03  0.21885326853E+03  0.00000000000E+00 0.  1.
          2    1    1    2  502    0 -0.34593892373E+02  0.14525036327E+02  0.12524804642E+02  0.39554832841E+02  0.00000000000E+00 0. -1.
</event>
<event>
 4    1  0.8104768E+003  0.2506991E+02  0.7546771E-02  0.1468023E+00
          2   -1    0    0  502    0  0.00000000000E+00  0.00000000000E+00  0.45023891318E+02  0.45023891318E+02  0.00000000000E+00 0.  1.
          2   -1    0    0  501    0 -0.00000000000E+00 -0.00000000000E+00 -0.62057598628E+02  0.62057598628E+02  0.00000000000E+00 0.  1.
          2    1    1    2  501    0 -0.21401334839E+02  0.13056928316E+02  0.38619060462E+02  0.46042722996E+02  0.00000000000E+00 0.  1.
          2    1    1    2  502    0  0.21401334839E+02 -0.13056928316E+02 -0.55652767772E+02  0.61038766949E+02  0.00000000000E+00 0.  1.
</event>
<event>
 4    1  0.8104768E+003  0.2217161E+02  0.7546771E-02  0.1503171E+00
          2   -1    0    0  502    0  0.00000000000E+00  0.00000000000E+00  0.89669302144E+02  0.89669302144E+02  0.00000000000E+00 0. -1.
          2   -1    0    0  501    0 -0.00000000000E+00 -0.00000000000E+00 -0.11263458466E+04  0.11263458466E+04  0.00000000000E+00 0.  1.
          2    1    1    2  501    0 -0.65353599041E+01 -0.21186538083E+02  0.88187850941E+02  0.90932268082E+02  0.00000000000E+00 0. -1.
          2    1    1    2  502    0  0.65353599041E+01  0.21186538083E+02 -0.11248643954E+04  0.11250828806E+04  0.00000000000E+00 0.  1.
</event>
<event>
 4    1  0.8104768E+003  0.4222411E+02  0.7546771E-02  0.1335923E+00
          2   -1    0    0  501    0  0.00000000000E+00  0.00000000000E+00  0.18509576302E+03  0.18509576302E+03  0.00000000000E+00 0.  1.
          2   -1    0    0  502    0 -0.00000000000E+00 -0.00000000000E+00 -0.16984426131E+02  0.16984426131E+02  0.00000000000E+00 0. -1.
          2    1    1    2  501    0  0.38446769976E+02 -0.17456261533E+02  0.17577597789E+02  0.45736715364E+02  0.00000000000E+00 0. -1.
          2    1    1    2  502    0 -0.38446769976E+02  0.17456261533E+02  0.15053373910E+03  0.15634347379E+03  0.00000000000E+00 0.  1.
</event>
<event>
 4    1  0.8104768E+003  0.3128782E+02  0.7546771E-02  0.1408726E+00
          2   -1    0    0  502    0  0.00000000000E+00  0.00000000000E+00  0.17247725773E+03  0.17247725773E+03  0.00000000000E+00 0.  1.
          2   -1    0    0  501    0 -0.00000000000E+00 -0.00000000000E+00 -0.58298048362E+01  0.58298048362E+01  0.00000000000E+00 0.  1.
          2    1    1    2  501    0 -0.19162227961E+02  0.24733313489E+02  0.68828297445E+02  0.75605967395E+02  0.00000000000E+00 0.  1.
          2    1    1    2  502    0  0.19162227961E+02 -0.24733313489E+02  0.97819155447E+02  0.10270109517E+03  0.00000000000E+00 0.  1.
</event>
<event>
 4    1  0.8104768E+003  0.2003861E+02  0.7546771E-02  0.1533446E+00
          2   -1    0    0  502    0  0.00000000000E+00  0.00000000000E+00  0.11874920890E+03  0.11874920890E+03  0.00000000000E+00 0.  1.
          2   -1    0    0  501    0 -0.00000000000E+00 -0.00000000000E+00 -0.46047789192E+01  0.46047789192E+01  0.00000000000E+00 0. -1.
          2    1    1    2  501    0  0.17989841330E+02 -0.88267508342E+01  0.88862053478E+02  0.91093416171E+02  0.00000000000E+00 0.  1.
          2    1    1    2  502    0 -0.17989841330E+02  0.88267508342E+01  0.25282376498E+02  0.32260571643E+02  0.00000000000E+00 0. -1.
</event>
<event>
 4    1  0.8104768E+003  0.3018091E+02  0.7546771E-02  0.1418031E+00
          2   -1    0    0  501    0  0.00000000000E+00  0.00000000000E+00  0.84107379367E+03  0.84107379367E+03  0.00000000000E+00 0. -1.
          2   -1    0    0  502    0 -0.00000000000E+00 -0.00000000000E+00 -0.24760191356E+01  0.24760191356E+01  0.00000000000E+00 0.  1.
          2    1    1    2  501    0 -0.11903843058E+02  0.27734200968E+02  0.10293897016E+03  0.10727217235E+03  0.00000000000E+00 0.  1.
          2    1    1    2  502    0  0.11903843058E+02 -0.27734200968E+02  0.73565880437E+03  0.73627764045E+03  0.00000000000E+00 0. -1.
</event>
<event>
 4    1  0.8104768E+003  0.2351515E+02  0.7546771E-02  0.1486129E+00
          2   -1    0    0  501    0  0.00000000000E+00  0.00000000000E+00  0.40941209604E+02  0.40941209604E+02  0.00000000000E+00 0. -1.
          2   -1    0    0  502    0 -0.00000000000E+00 -0.00000000000E+00 -0.37163781457E+02  0.37163781457E+02  0.00000000000E+00 0.  1.
          2    1    1    2  501    0 -0.96802325418E+01  0.21430241919E+02 -0.29269572332E+02  0.37545572779E+02  0.00000000000E+00 0.  1.
          2    1    1    2  502    0  0.96802325418E+01 -0.21430241919E+02  0.33047000478E+02  0.40559418282E+02  0.00000000000E+00 0. -1.
</event>
<event>
 4    1  0.8104768E+003  0.2172862E+02  0.7546771E-02  0.1509111E+00
          2   -1    0    0  501    0  0.00000000000E+00  0.00000000000E+00  0.11688652145E+03  0.11688652145E+03  0.00000000000E+00 0. -1.
          2   -1    0    0  502    0 -0.00000000000E+00 -0.00000000000E+00 -0.34202038540E+02  0.34202038540E+02  0.00000000000E+00 0. -1.
          2    1    1    2  501    0  0.20721997955E+02  0.65369423719E+01 -0.29601060914E+02  0.36719962173E+02  0.00000000000E+00 0. -1.
          2    1    1    2  502    0 -0.20721997955E+02 -0.65369423719E+01  0.11228554382E+03  0.11436859781E+03  0.00000000000E+00 0. -1.
</event>
<event>
 4    1  0.8104768E+003  0.2492643E+02  0.7546771E-02  0.1469628E+00
          2   -1    0    0  501    0  0.00000000000E+00  0.00000000000E+00  0.23675113107E+01  0.23675113107E+01  0.00000000000E+00 0.  1.
          2   -1    0    0  502    0 -0.00000000000E+00 -0.00000000000E+00 -0.18803265085E+04  0.18803265085E+04  0.00000000000E+00 0.  1.
          2    1    1    2  501    0  0.24510128632E+02 -0.45365907258E+01 -0.18121665515E+04  0.18123379755E+04  0.00000000000E+00 0.  1.
          2    1    1    2  502    0 -0.24510128632E+02  0.45365907258E+01 -0.65792445644E+02  0.70356044266E+02  0.00000000000E+00 0.  1.
</event>
<event>
 4    1  0.8104768E+003  0.3443246E+02  0.7546771E-02  0.1384598E+00
          2   -1    0    0  502    0  0.00000000000E+00  0.00000000000E+00  0.34209431849E+01  0.34209431849E+01  0.00000000000E+00 0. -1.
          2   -1    0    0  501    0 -0.00000000000E+00 -0.00000000000E+00 -0.47277694943E+03  0.47277694943E+03  0.00000000000E+00 0. -1.
          2    1    1    2  501    0 -0.25889611147E+02  0.22700712466E+02 -0.11165907154E+03  0.11684751846E+03  0.00000000000E+00 0. -1.
          2    1    1    2  502    0  0.25889611147E+02 -0.22700712466E+02 -0.35769693470E+03  0.35935037416E+03  0.00000000000E+00 0. -1.
</event>
<event>
 4    1  0.8104768E+003  0.2088794E+02  0.7546771E-02  0.1520871E+00
          2   -1    0    0  502    0  0.00000000000E+00  0.00000000000E+00  0.35358099173E+03  0.35358099173E+03  0.00000000000E+00 0.  1.
          2   -1    0    0  501    0 -0.00000000000E+00 -0.00000000000E+00 -0.40138214202E+03  0.40138214202E+03  0.00000000000E+00 0.  1.
          2    1    1    2  501    0 -0.12718800075E+02 -0.16569189945E+02  0.35300030208E+03  0.35361775861E+03  0.00000000000E+00 0.  1.
          2    1    1    2  502    0  0.12718800075E+02  0.16569189945E+02 -0.40080145237E+03  0.40134537515E+03  0.00000000000E+00 0.  1.
</event>
<event>
 4    1  0.8104768E+003  0.2965259E+02  0.7546771E-02  0.1422640E+00
          2   -1    0    0  502    0  0.00000000000E+00  0.00000000000E+00  0.11971256762E+01  0.11971256762E+01  0.00000000000E+00 0. -1.
          2   -1    0    0  501    0 -0.00000000000E+00 -0.00000000000E+00 -0.13148879019E+04  0.13148879019E+04  0.00000000000E+00 0.  1.
          2    1    1    2  501    0 -0.19019073621E+02 -0.22749741000E+02 -0.21965278527E+03  0.22164526152E+03  0.00000000000E+00 0. -1.
          2    1    1    2  502    0  0.19019073621E+02  0.22749741000E+02 -0.10940379910E+04  0.10944397661E+04  0.00000000000E+00 0.  1.
</event>
<event>
 4    1  0.8104768E+003  0.2707428E+02  0.7546771E-02  0.1446863E+00
          2   -1    0    0  501    0  0.00000000000E+00  0.00000000000E+00  0.14304401894E+04  0.14304401894E+04  0.00000000000E+00 0. -1.
          2   -1    0    0  502    0 -0.00000000000E+00 -0.00000000000E+00 -0.58360339493E+00  0.58360339493E+00  0.00000000000E+00 0.  1.
          2    1    1    2  501    0 -0.14747820501E+02 -0.22705027483E+02  0.46507640726E+03  0.46586380099E+03  0.00000000000E+00 0.  1.
          2    1    1    2  502    0  0.14747820501E+02  0.22705027483E+02  0.96478017874E+03  0.96515999180E+03  0.00000000000E+00 0. -1.
</event>
<event>
 4    1  0.8104768E+003  0.3020440E+02  0.7546771E-02  0.1417828E+00
          2   -1    0    0  502    0  0.00000000000E+00  0.00000000000E+00  0.17481426823E+03  0.17481426823E+03  0.00000000000E+00 0.  1.
          2   -1    0    0  501    0 -0.00000000000E+00 -0.00000000000E+00 -0.56175625247E+02  0.56175625247E+02  0.00000000000E+00 0. -1.
          2    1    1    2  501    0  0.15664258135E+02  0.25825120923E+02  0.16931878541E+03  0.17199173511E+03  0.00000000000E+00 0.  1.
          2    1    1    2  502    0 -0.15664258135E+02 -0.25825120923E+02 -0.50680142430E+02  0.58998158364E+02  0.00000000000E+00 0. -1.
</event>
<event>
 4    1  0.8104768E+003  0.2822494E+02  0.7546771E-02  0.1435677E+00
          2   -1    0    0  502    0  0.00000000000E+00  0.00000000000E+00  0.56587263805E+03  0.56587263805E+03  0.00000000000E+00 0.  1.
          2   -1    0    0  501    0 -0.00000000000E+00 -0.00000000000E+00 -0.63804525742E+01  0.63804525742E+01  0.00000000000E+00 0. -1.
          2    1    1    2  501    0  0.24336137107E+02 -0.14296846908E+02  0.53234155768E+03  0.53308928092E+03  0.00000000000E+00 0.  1.
          2    1    1    2  502    0 -0.24336137107E+02  0.14296846908E+02  0.27150627800E+02  0.39163809707E+02  0.00000000000E+00 0. -1.
</event>
<event>
 4    1  0.8104768E+003  0.1216243E+03  0.7546771E-02  0.1130858E+00
          2   -1    0    0  501    0  0.00000000000E+00  0.00000000000E+00  0.13631337776E+03  0.13631337776E+03  0.00000000000E+00 0.  1.
          2   -1    0    0  502    0 -0.00000000000E+00 -0.00000000000E+00 -0.13989738462E+03  0.13989738462E+03  0.00000000000E+00 0.  1.
          2    1    1    2  501    0 -0.11614114899E+03 -0.36106902455E+02 -0.67199422271E+02  0.13895408323E+03  0.00000000000E+00 0.  1.
          2    1    1    2  502    0  0.11614114899E+03  0.36106902455E+02  0.63615415409E+02  0.13725667915E+03  0.00000000000E+00 0.  1.
</event>
<event>
 4    1  0.8104768E+003  0.2467892E+02  0.7546771E-02  0.1472427E+00
          2   -1    0    0  502    0  0.00000000000E+00  0.00000000000E+00  0.41353054629E+02  0.41353054629E+02  0.00000000000E+00 0. -1.
          2   -1    0    0  501    0 -0.00000000000E+00 -0.00000000000E+00 -0.11634739951E+04  0.11634739951E+04  0.00000000000E+00 0. -1.
          2    1    1    2  501    0 -0.24611589052E+02 -0.18217854216E+01  0.37528033838E+02  0.44915504467E+02  0.00000000000E+00 0. -1.
          2    1    1    2  502    0  0.24611589052E+02  0.18217854216E+01 -0.11596489743E+04  0.11599115453E+04  0.00000000000E+00 0. -1.
</event>
<event>
 4    1  0.8104768E+003  0.2404029E+02  0.7546771E-02  0.1479833E+00
          2   -1    0    0  501    0  0.00000000000E+00  0.00000000000E+00  0.16645627218E+03  0.16645627218E+03  0.00000000000E+00 0.  1.
          2   -1    0    0  502    0 -0.00000000000E+00 -0.00000000000E+00 -0.19615329955E+03  0.19615329955E+03  0.00000000000E+00 0. -1.
          2    1    1    2  501    0  0.19025173259E+02  0.14696194019E+02 -0.19454155050E+03  0.19602130040E+03  0.00000000000E+00 0. -1.
          2    1    1    2  502    0 -0.19025173259E+02 -0.14696194019E+02  0.16484452314E+03  0.16658827133E+03  0.00000000000E+00 0.  1.
</event>
<event>
 4    1  0.8104768E+003  0.7402515E+02  0.7546771E-02  0.1218442E+00
          2   -1    0    0  501    0  0.00000000000E+00  0.00000000000E+00  0.83654436860E+03  0.83654436860E+03  0.00000000000E+00 0. -1.
          2   -1    0    0  502    0 -0.00000000000E+00 -0.00000000000E+00 -0.16856371231E+03  0.16856371231E+03  0.00000000000E+00 0.  1.
          2    1    1    2  501    0 -0.69031858627E+02 -0.26726861641E+02 -0.15870227253E+03  0.17511748612E+03  0.00000000000E+00 0.  1.
          2    1    1    2  502    0  0.69031858627E+02  0.26726861641E+02  0.82668292882E+03  0.82999059479E+03  0.00000000000E+00 0. -1.
</event>
<event>
 4    1  0.8104768E+003  0.2020019E+02  0.7546771E-02  0.1530997E+00
          2   -1    0    0  501    0  0.00000000000E+00  0.00000000000E+00  0.50754036442E+03  0.50754036442E+03  0.00000000000E+00 0. -1.
          2   -1    0    0  502    0 -0.00000000000E+00 -0.00000000000E+00 -0.59729560868E+02  0.59729560868E+02  0.00000000000E+00 0.  1.
          2    1    1    2  501    0 -0.91845918804E+01  0.17991411708E+02 -0.57814204611E+02  0.61241569853E+02  0.00000000000E+00 0.  1.
          2    1    1    2  502    0  0.91845918804E+01 -0.17991411708E+02  0.50562500817E+03  0.50602835544E+03  0.00000000000E+00 0. -1.
</event>
<event>
 4    1  0.8104768E+003  0.2219049E+02  0.7546771E-02  0.1502921E+00
          2   -1    0    0  501    0  0.00000000000E+00  0.00000000000E+00  0.14321854159E+03  0.14321854159E+03  0.00000000000E+00 0.  1.
          2   -1    0    0  502    0 -0.00000000000E+00 -0.00000000000E+00 -0.96377771980E+01  0.96377771980E+01  0.00000000000E+00 0. -1.
          2    1    1    2  501    0  0.21093567030E+02  0.68905359163E+01  0.54925661661E+01  0.22860147383E+02  0.00000000000E+00 0. -1.
          2    1    1    2  502    0 -0.21093567030E+02 -0.68905359163E+01  0.12808819823E+03  0.12999617141E+03  0.00000000000E+00 0.  1.
</event>
<event>
 4    1  0.8104768E+003  0.2664949E+02  0.7546771E-02  0.1451161E+00
          2   -1    0    0  501    0  0.00000000000E+00  0.00000000000E+00  0.13395612641E+03  0.13395612641E+03  0.00000000000E+00 0. -1.
          2   -1    0    0  502    0 -0.00000000000E+00 -0.00000000000E+00 -0.56390994344E+01  0.56390994344E+01  0.00000000000E+00 0.  1.
          2    1    1    2  501    0  0.15617190498E+02 -0.21593956181E+02  0.81231362855E+02  0.85491110028E+02  0.00000000000E+00 0.  1.
          2    1    1    2  502    0 -0.15617190498E+02  0.21593956181E+02  0.47085664121E+02  0.54104115817E+02  0.00000000000E+00 0. -1.
</event>
<event>
 4    1  0.8104768E+003  0.4092949E+02  0.7546771E-02  0.1343123E+00
          2   -1    0    0  502    0  0.00000000000E+00  0.00000000000E+00  0.94735314578E+02  0.94735314578E+02  0.00000000000E+00 0.  1.
          2   -1    0    0  501    0 -0.00000000000E+00 -0.00000000000E+00 -0.94175710897E+03  0.94175710897E+03  0.00000000000E+00 0.  1.
          2    1    1    2  501    0  0.29538993452E+02  0.28331442160E+02  0.89846753269E+02  0.98730247756E+02  0.00000000000E+00 0.  1.
          2    1    1    2  502    0 -0.29538993452E+02 -0.28331442160E+02 -0.93686854766E+03  0.93776217579E+03  0.00000000000E+00 0.  1.
</event>
<event>
 4    1  0.8104768E+003  0.2069958E+02  0.7546771E-02  0.1523598E+00
          2   -1    0    0  502    0  0.00000000000E+00  0.00000000000E+00  0.17888103427E+04  0.17888103427E+04  0.00000000000E+00 0.  1.
          2   -1    0    0  501    0 -0.00000000000E+00 -0.00000000000E+00 -0.37510213225E+00  0.37510213225E+00  0.00000000000E+00 0. -1.
          2    1    1    2  501    0  0.18111728778E+02  0.10021880543E+02  0.14320372416E+04  0.14321868364E+04  0.00000000000E+00 0.  1.
          2    1    1    2  502    0 -0.18111728778E+02 -0.10021880543E+02  0.35639799893E+03  0.35699860847E+03  0.00000000000E+00 0. -1.
</event>
<event>
 4    1  0.8104768E+003  0.2580655E+02  0.7546771E-02  0.1459979E+00
          2   -1    0    0  502    0  0.00000000000E+00  0.00000000000E+00  0.32078109635E+02  0.32078109635E+02  0.00000000000E+00 0.  1.
          2   -1    0    0  501    0 -0.00000000000E+00 -0.00000000000E+00 -0.15213493883E+04  0.15213493883E+04  0.00000000000E+00 0.  1.
          2    1    1    2  501    0  0.19912291068E+02  0.16415804505E+02  0.26760181990E+02  0.37176408020E+02  0.00000000000E+00 0.  1.
          2    1    1    2  502    0 -0.19912291068E+02 -0.16415804505E+02 -0.15160314607E+04  0.15162510900E+04  0.00000000000E+00 0.  1.
</event>
<event>
 4    1  0.8104768E+003  0.5156929E+02  0.7546771E-02  0.1291508E+00
          2   -1    0    0  501    0  0.00000000000E+00  0.00000000000E+00  0.16363670141E+04  0.16363670141E+04  0.00000000000E+00 0.  1.
          2   -1    0    0  502    0 -0.00000000000E+00 -0.00000000000E+00 -0.10698772067E+04  0.10698772067E+04  0.00000000000E+00 0.  1.
          2    1    1    2  501    0  0.51448104091E+02  0.35332623707E+01 -0.10688490966E+04  0.10700924179E+04  0.00000000000E+00 0.  1.
          2    1    1    2  502    0 -0.51448104091E+02 -0.35332623707E+01  0.16353389041E+04  0.16361518030E+04  0.00000000000E+00 0.  1.
</event>
<event>
 4    1  0.8104768E+003  0.2038361E+02  0.7546771E-02  0.1528250E+00
          2   -1    0    0  501    0  0.00000000000E+00  0.00000000000E+00  0.13268219194E+04  0.13268219194E+04  0.00000000000E+00 0.  1.
          2   -1    0    0  502    0 -0.00000000000E+00 -0.00000000000E+00 -0.13110802201E+01  0.13110802201E+01  0.00000000000E+00 0.  1.
          2    1    1    2  501    0 -0.20366635905E+02 -0.83175258262E+00  0.83396823475E+02  0.85851743349E+02  0.00000000000E+00 0.  1.
          2    1    1    2  502    0  0.20366635905E+02  0.83175258262E+00  0.12421140157E+04  0.12422812562E+04  0.00000000000E+00 0.  1.
</event>
<event>
 4    1  0.8104768E+003  0.3368971E+02  0.7546771E-02  0.1390016E+00
          2   -1    0    0  502    0  0.00000000000E+00  0.00000000000E+00  0.91364200484E+03  0.91364200484E+03  0.00000000000E+00 0. -1.
          2   -1    0    0  501    0 -0.00000000000E+00 -0.00000000000E+00 -0.42083226387E+01  0.42083226387E+01  0.00000000000E+00 0.  1.
          2    1    1    2  501    0  0.14425402424E+02  0.30445101544E+02  0.83999667005E+03  0.84067199438E+03  0.00000000000E+00 0. -1.
          2    1    1    2  502    0 -0.14425402424E+02 -0.30445101544E+02  0.69437012156E+02  0.77178333101E+02  0.00000000000E+00 0.  1.
</event>
<event>
 4    1  0.8104768E+003  0.2811203E+02  0.7546771E-02  0.1436746E+00
          2   -1    0    0  502    0  0.00000000000E+00  0.00000000000E+00  0.15264401038E+04  0.15264401038E+04  0.00000000000E+00 0.  1.
          2   -1    0    0  501    0 -0.00000000000E+00 -0.00000000000E+00 -0.80234201782E+00  0.80234201782E+00  0.00000000000E+00 0.  1.
          2    1    1    2  501    0 -0.13666422412E+02 -0.24566541945E+02  0.12176222932E+04  0.12179467702E+04  0.00000000000E+00 0.  1.
          2    1    1    2  502    0  0.13666422412E+02  0.24566541945E+02  0.30801546854E+03  0.30929567560E+03  0.00000000000E+00 0.  1.
</event>
<event>
 4    1  0.8104768E+003  0.2109172E+02  0.7546771E-02  0.1517959E+00
          2   -1    0    0  501    0  0.00000000000E+00  0.00000000000E+00  0.14597798063E+03  0.14597798063E+03  0.00000000000E+00 0.  1.
          2   -1    0    0  502    0 -0.00000000000E+00 -0.00000000000E+00 -0.33954119881E+03  0.33954119881E+03  0.00000000000E+00 0.  1.
          2    1    1    2  501    0 -0.20675896212E+02  0.41675115034E+01 -0.33844933491E+03  0.33910590254E+03  0.00000000000E+00 0.  1.
          2    1    1    2  502    0  0.20675896212E+02 -0.41675115034E+01  0.14488611672E+03  0.14641327691E+03  0.00000000000E+00 0.  1.
</event>
<event>
 4    1  0.8104768E+003  0.2053467E+02  0.7546771E-02  0.1526013E+00
          2   -1    0    0  502    0  0.00000000000E+00  0.00000000000E+00  0.14076070943E+01  0.14076070943E+01  0.00000000000E+00 0. -1.
          2   -1    0    0  501    0 -0.00000000000E+00 -0.00000000000E+00 -0.12303461683E+04  0.12303461683E+04  0.00000000000E+00 0. -1.
          2    1    1    2  501    0  0.49670487409E+01 -0.19924882783E+02 -0.78791551248E+02  0.81423467595E+02  0.00000000000E+00 0. -1.
          2    1    1    2  502    0 -0.49670487409E+01  0.19924882783E+02 -0.11501470100E+04  0.11503303078E+04  0.00000000000E+00 0. -1.
</event>
<event>
 4    1  0.8104768E+003  0.2234223E+02  0.7546771E-02  0.1500927E+00
          2   -1    0    0  501    0  0.00000000000E+00  0.00000000000E+00  0.95091197020E+02  0.95091197020E+02  0.00000000000E+00 0.  1.
          2   -1    0    0  502    0 -0.00000000000E+00 -0.00000000000E+00 -0.67986275252E+01  0.67986275252E+01  0.00000000000E+00 0.  1.
          2    1    1    2  501    0  0.19017413400E+02 -0.11726605915E+02  0.19827462632E+02  0.29871450804E+02  0.00000000000E+00 0.  1.
          2    1    1    2  502    0 -0.19017413400E+02  0.11726605915E+02  0.68465106863E+02  0.72018373742E+02  0.00000000000E+00 0.  1.
</event>
<event>
 4    1  0.8104768E+003  0.4541166E+02  0.7546771E-02  0.1319394E+00
          2   -1    0    0  502    0  0.00000000000E+00  0.00000000000E+00  0.71763698770E+01  0.71763698770E+01  0.00000000000E+00 0.  1.
          2   -1    0    0  501    0 -0.00000000000E+00 -0.00000000000E+00 -0.50690231035E+03  0.50690231035E+03  0.00000000000E+00 0. -1.
          2    1    1    2  501    0 -0.26883221256E+02 -0.36599333119E+02 -0.80704317521E+02  0.92603486092E+02  0.00000000000E+00 0.  1.
          2    1    1    2  502    0  0.26883221256E+02  0.36599333119E+02 -0.41902162295E+03  0.42147519414E+03  0.00000000000E+00 0. -1.
</event>
<event>
 4    1  0.8104768E+003  0.2051474E+02  0.7546771E-02  0.1526307E+00
          2   -1    0    0  501    0  0.00000000000E+00  0.00000000000E+00  0.48319044865E+02  0.48319044865E+02  0.00000000000E+00 0.  1.
          2   -1    0    0  502    0 -0.00000000000E+00 -0.00000000000E+00 -0.47997937646E+03  0.47997937646E+03  0.00000000000E+00 0. -1.
          2    1    1    2  501    0  0.73048920386E+01  0.19170112138E+02 -0.47757172122E+03  0.47801213746E+03  0.00000000000E+00 0. -1.
          2    1    1    2  502    0 -0.73048920386E+01 -0.19170112138E+02  0.45911389630E+02  0.50286283864E+02  0.00000000000E+00 0.  1.
</event>
<event>
 4    1  0.8104768E+003  0.2071221E+02  0.7546771E-02  0.1523414E+00
          2   -1    0    0  502    0  0.00000000000E+00  0.00000000000E+00  0.13185440947E+03  0.13185440947E+03  0.00000000000E+00 0. -1.
          2   -1    0    0  501    0 -0.00000000000E+00 -0.00000000000E+00 -0.11398754466E+03  0.11398754466E+03  0.00000000000E+00 0.  1.
          2    1    1    2  501    0 -0.11763146216E+02 -0.17047695645E+02  0.13008743834E+03  0.13172599269E+03  0.00000000000E+00 0. -1.
          2    1    1    2  502    0  0.11763146216E+02  0.17047695645E+02 -0.11222057353E+03  0.11411596145E+03  0.00000000000E+00 0.  1.
</event>
<event>
 4    1  0.8104768E+003  0.3612788E+02  0.7546771E-02  0.1372803E+00
          2   -1    0    0  502    0  0.00000000000E+00  0.00000000000E+00  0.30604599799E+01  0.30604599799E+01  0.00000000000E+00 0.  1.
          2   -1    0    0  501    0 -0.00000000000E+00 -0.00000000000E+00 -0.12743592863E+04  0.12743592863E+04  0.00000000000E+00 0.  1.
          2    1    1    2  501    0  0.24478365981E+02 -0.26571293704E+02 -0.11466494578E+03  0.12022176941E+03  0.00000000000E+00 0.  1.
          2    1    1    2  502    0 -0.24478365981E+02  0.26571293704E+02 -0.11566338806E+04  0.11571979769E+04  0.00000000000E+00 0.  1.
</event>
<event>
 4    1  0.8104768E+003  0.2410792E+02  0.7546771E-02  0.1479036E+00
          2   -1    0    0  502    0  0.00000000000E+00  0.00000000000E+00  0.80126445821E+03  0.80126445821E+03  0.00000000000E+00 0. -1.
          2   -1    0    0  501    0 -0.00000000000E+00 -0.00000000000E+00 -0.23722812030E+01  0.23722812030E+01  0.00000000000E+00 0. -1.
          2    1    1    2  501    0 -0.17268390801E+02 -0.16822443949E+02  0.73424596839E+03  0.73464163647E+03  0.00000000000E+00 0. -1.
          2    1    1    2  502    0  0.17268390801E+02  0.16822443949E+02  0.64646208617E+02  0.68995102941E+02  0.00000000000E+00 0. -1.
</event>
<event>
 4    1  0.8104768E+003  0.2558896E+02  0.7546771E-02  0.1462321E+00
          2   -1    0    0  501    0  0.00000000000E+00  0.00000000000E+00  0.38561718637E+03  0.38561718637E+03  0.00000000000E+00 0. -1.
          2   -1    0    0  502    0 -0.00000000000E+00 -0.00000000000E+00 -0.20896264084E+02  0.20896264084E+02  0.00000000000E+00 0. -1.
          2    1    1    2  501    0 -0.14786685301E+02  0.20884176258E+02 -0.12462923991E+02  0.28462595711E+02  0.00000000000E+00 0. -1.
          2    1    1    2  502    0  0.14786685301E+02 -0.20884176258E+02  0.37718384628E+03  0.37805085475E+03  0.00000000000E+00 0. -1.
</event>
<event>
 4    1  0.8812467E+003  0.3434147E+02  0.7546771E-02  0.1385253E+00
          2   -1    0    0  502    0  0.00000000000E+00  0.00000000000E+00  0.46242238605E+03  0.46242238605E+03  0.00000000000E+00 0. -1.
          2   -1    0    0  501    0 -0.00000000000E+00 -0.00000000000E+00 -0.91631069593E+03  0.91631069593E+03  0.00000000000E+00 0. -1.
          2    1    1    2  501    0  0.28714346075E+02 -0.18836745798E+02  0.46146236909E+03  0.46273843017E+03  0.00000000000E+00 0. -1.
          2    1    1    2  502    0 -0.28714346075E+02  0.18836745798E+02 -0.91535067897E+03  0.91599465182E+03  0.00000000000E+00 0. -1.
</event>
<event>
 4    1  0.8104768E+003  0.2218603E+02  0.7546771E-02  0.1502980E+00
          2   -1    0    0  501    0  0.00000000000E+00  0.00000000000E+00  0.63594642563E+01  0.63594642563E+01  0.00000000000E+00 0.  1.
          2   -1    0    0  502    0 -0.00000000000E+00 -0.00000000000E+00 -0.29982222201E+03  0.29982222201E+03  0.00000000000E+00 0. -1.
          2    1    1    2  501    0 -0.22021549129E+02  0.26965450476E+01 -0.27858947023E+03  0.27947148853E+03  0.00000000000E+00 0. -1.
          2    1    1    2  502    0  0.22021549129E+02 -0.26965450476E+01 -0.14873287531E+02  0.26710197738E+02  0.00000000000E+00 0.  1.
</event>
<event>
 4    1  0.8104768E+003  0.2280232E+02  0.7546771E-02  0.1494995E+00
          2   -1    0    0  502    0  0.00000000000E+00  0.00000000000E+00  0.15915094955E+02  0.15915094955E+02  0.00000000000E+00 0. -1.
          2   -1    0    0  501    0 -0.00000000000E+00 -0.00000000000E+00 -0.18191949516E+03  0.18191949516E+03  0.00000000000E+00 0. -1.
          2    1    1    2  501    0 -0.20933579930E+02 -0.90405335684E+01  0.65938901653E+01  0.23736583650E+02  0.00000000000E+00 0. -1.
          2    1    1    2  502    0  0.20933579930E+02  0.90405335684E+01 -0.17259829037E+03  0.17409800646E+03  0.00000000000E+00 0. -1.
</event>
<event>
 4    1  0.8104768E+003  0.4696126E+02  0.7546771E-02  0.1311914E+00
          2   -1    0    0  501    0  0.00000000000E+00  0.00000000000E+00  0.25578623514E+02  0.25578623514E+02  0.00000000000E+00 0.  1.
          2   -1    0    0  502    0 -0.00000000000E+00 -0.00000000000E+00 -0.86230343455E+02  0.86230343455E+02  0.00000000000E+00 0.  1.
          2    1    1    2  501    0  0.43708828526E+02  0.17172598020E+02 -0.29680781050E+02  0.55554554967E+02  0.00000000000E+00 0.  1.
          2    1    1    2  502    0 -0.43708828526E+02 -0.17172598020E+02 -0.30970938891E+02  0.56254412002E+02  0.00000000000E+00 0.  1.
</event>
<event>
 4    1  0.8104768E+003  0.2309436E+02  0.7546771E-02  0.1491317E+00
          2   -1    0    0  501    0  0.00000000000E+00  0.00000000000E+00  0.90525010525E+02  0.90525010525E+02  0.00000000000E+00 0.  1.
          2   -1    0    0  502    0 -0.00000000000E+00 -0.00000000000E+00 -0.60303254865E+01  0.60303254865E+01  0.00000000000E+00 0.  1.
          2    1    1    2  501    0  0.40514803736E+01 -0.22736206823E+02  0.49566124173E+02  0.54682266408E+02  0.00000000000E+00 0.  1.
          2    1    1    2  502    0 -0.40514803736E+01  0.22736206823E+02  0.34928560866E+02  0.41873069604E+02  0.00000000000E+00 0.  1.
</event>
<event>
 4    1  0.8104768E+003  0.2019451E+02  0.7546771E-02  0.1531083E+00
          2   -1    0    0  502    0  0.00000000000E+00  0.00000000000E+00  0.15811051501E+02  0.15811051501E+02  0.00000000000E+00 0.  1.
          2   -1    0    0  501    0 -0.00000000000E+00 -0.00000000000E+00 -0.26128346516E+02  0.26128346516E+02  0.00000000000E+00 0.  1.
          2    1    1    2  501    0  0.17444155542E+02  0.10174465897E+02 -0.27838603926E+01  0.20385489878E+02  0.00000000000E+00 0.  1.
          2    1    1    2  502    0 -0.17444155542E+02 -0.10174465897E+02 -0.75334346224E+01  0.21553908139E+02  0.00000000000E+00 0.  1.
</event>
<event>
 4    1  0.8104768E+003  0.2290689E+02  0.7546771E-02  0.1493671E+00
          2   -1    0    0  501    0  0.00000000000E+00  0.00000000000E+00  0.65288432970E+03  0.65288432970E+03  0.00000000000E+00 0.  1.
          2   -1    0    0  502    0 -0.00000000000E+00 -0.00000000000E+00 -0.15316926961E+01  0.15316926961E+01  0.00000000000E+00 0.  1.
          2    1    1    2  501    0  0.22392222936E+02 -0.48284649044E+01  0.10009639905E+03  0.10268405341E+03  0.00000000000E+00 0.  1.
          2    1    1    2  502    0 -0.22392222936E+02  0.48284649044E+01  0.55125623795E+03  0.55173196899E+03  0.00000000000E+00 0.  1.
</event>
<event>
 4    1  0.8104768E+003  0.3116630E+02  0.7546771E-02  0.1409725E+00
          2   -1    0    0  501    0  0.00000000000E+00  0.00000000000E+00  0.15939378884E+04  0.15939378884E+04  0.00000000000E+00 0.  1.
          2   -1    0    0  502    0 -0.00000000000E+00 -0.00000000000E+00 -0.22935704108E+02  0.22935704108E+02  0.00000000000E+00 0. -1.
          2    1    1    2  501    0  0.30449130960E+02 -0.66474520646E+01 -0.12123430742E+02  0.33441228568E+02  0.00000000000E+00 0. -1.
          2    1    1    2  502    0 -0.30449130960E+02  0.66474520646E+01  0.15831256150E+04  0.15834323639E+04  0.00000000000E+00 0.  1.
</event>
<event>
 4    1  0.8300479E+003  0.2702220E+02  0.7546771E-02  0.1447385E+00
          2   -1    0    0  501    0  0.00000000000E+00  0.00000000000E+00  0.86230416557E+03  0.86230416557E+03  0.00000000000E+00 0.  1.
          2   -1    0    0  502    0 -0.00000000000E+00 -0.00000000000E+00 -0.30685392324E+03  0.30685392324E+03  0.00000000000E+00 0. -1.
          2    1    1    2  501    0  0.17408102472E+02  0.20667777822E+02 -0.30604675829E+03  0.30723739573E+03  0.00000000000E+00 0. -1.
          2    1    1    2  502    0 -0.17408102472E+02 -0.20667777822E+02  0.86149700062E+03  0.86192069308E+03  0.00000000000E+00 0.  1.
</event>
<event>
 4    1  0.8104768E+003  0.3042069E+02  0.7546771E-02  0.1415975E+00
          2   -1    0    0  501    0  0.00000000000E+00  0.00000000000E+00  0.18269088160E+04  0.18269088160E+04  0.00000000000E+00 0. -1.
          2   -1    0    0  502    0 -0.00000000000E+00 -0.00000000000E+00 -0.79733418589E+01  0.79733418589E+01  0.00000000000E+00 0. -1.
          2    1    1    2  501    0  0.30389024891E+02 -0.13876864897E+01  0.21647487158E+02  0.37336740724E+02  0.00000000000E+00 0. -1.
          2    1    1    2  502    0 -0.30389024891E+02  0.13876864897E+01  0.17972879870E+04  0.17975454172E+04  0.00000000000E+00 0. -1.
</event>
<event>
 4    1  0.8104768E+003  0.2137705E+02  0.7546771E-02  0.1513949E+00
          2   -1    0    0  501    0  0.00000000000E+00  0.00000000000E+00  0.15528913672E+04  0.15528913672E+04  0.00000000000E+00 0. -1.
          2   -1    0    0  502    0 -0.00000000000E+00 -0.00000000000E+00 -0.61777303041E+00  0.61777303041E+00  0.00000000000E+00 0.  1.
          2    1    1    2  501    0  0.29474257898E+01  0.21172879321E+02  0.21404827146E+03  0.21511308806E+03  0.00000000000E+00 0.  1.
          2    1    1    2  502    0 -0.29474257898E+01 -0.21172879321E+02  0.13382253227E+04  0.13383960521E+04  0.00000000000E+00 0. -1.
</event>
<event>
 4    1  0.8104768E+003  0.3833682E+02  0.7546771E-02  0.1358518E+00
          2   -1    0    0  502    0  0.00000000000E+00  0.00000000000E+00  0.11181940028E+04  0.11181940028E+04  0.00000000000E+00 0.  1.
          2   -1    0    0  501    0 -0.00000000000E+00 -0.00000000000E+00 -0.44013311146E+01  0.44013311146E+01  0.00000000000E+00 0.  1.
          2    1    1    2  501    0 -0.71711637902E+01 -0.37660143199E+02  0.10269715378E+04  0.10276868450E+04  0.00000000000E+00 0.  1.
          2    1    1    2  502    0  0.71711637902E+01  0.37660143199E+02  0.86821133935E+02  0.94908488944E+02  0.00000000000E+00 0.  1.
</event>
<event>
 4    1  0.8104768E+003  0.2356236E+02  0.7546771E-02  0.1485555E+00
          2   -1    0    0  502    0  0.00000000000E+00  0.00000000000E+00  0.48257718492E+02  0.48257718492E+02  0.00000000000E+00 0.  1.
          2   -1    0    0  501    0 -0.00000000000E+00 -0.00000000000E+00 -0.74794967996E+02  0.74794967996E+02  0.00000000000E+00 0. -1.
          2    1    1    2  501    0  0.23384722365E+02 -0.28877960993E+01  0.43328426571E+02  0.49320757856E+02  0.00000000000E+00 0.  1.
          2    1    1    2  502    0 -0.23384722365E+02  0.28877960993E+01 -0.69865676075E+02  0.73731928632E+02  0.00000000000E+00 0. -1.
</event>
<event>
 4    1  0.8104768E+003  0.5481217E+02  0.7546771E-02  0.1278556E+00
          2   -1    0    0  501    0  0.00000000000E+00  0.00000000000E+00  0.18676169780E+01  0.18676169780E+01  0.00000000000E+00 0.  1.
          2   -1    0    0  502    0 -0.00000000000E+00 -0.00000000000E+00 -0.18393321863E+04  0.18393321863E+04  0.00000000000E+00 0.  1.
          2    1    1    2  501    0  0.14041537407E+02 -0.52983105957E+02 -0.12447428080E+04  0.12459490488E+04  0.00000000000E+00 0.  1.
          2    1    1    2  502    0 -0.14041537407E+02  0.52983105957E+02 -0.59272176135E+03  0.59525075445E+03  0.00000000000E+00 0.  1.
</event>
<event>
 4    1  0.8104768E+003  0.2220677E+02  0.7546771E-02  0.1502706E+00
          2   -1    0    0  501    0  0.00000000000E+00  0.00000000000E+00  0.14620880177E+02  0.14620880177E+02  0.00000000000E+00 0. -1.
          2   -1    0    0  502    0 -0.00000000000E+00 -0.00000000000E+00 -0.24572747181E+03  0.24572747181E+03  0.00000000000E+00 0.  1.
          2    1    1    2  501    0 -0.18562224656E+02  0.12189523896E+02 -0.23646402379E+03  0.23750447411E+03  0.00000000000E+00 0.  1.
          2    1    1    2  502    0  0.18562224656E+02 -0.12189523896E+02  0.53574321568E+01  0.22843877874E+02  0.00000000000E+00 0. -1.
</event>
<event>
 4    1  0.8104768E+003  0.2182985E+02  0.7546771E-02  0.1507739E+00
          2   -1    0    0  502    0  0.00000000000E+00  0.00000000000E+00  0.24306779605E+03  0.24306779605E+03  0.00000000000E+00 0. -1.
          2   -1    0    0  501    0 -0.00000000000E+00 -0.00000000000E+00 -0.21615584747E+01  0.21615584747E+01  0.00000000000E+00 0. -1.
          2    1    1    2  501    0  0.20649912249E+02 -0.70797907076E+01  0.83060570778E+02  0.85881317703E+02  0.00000000000E+00 0. -1.
          2    1    1    2  502    0 -0.20649912249E+02  0.70797907076E+01  0.15784566679E+03  0.15934803682E+03  0.00000000000E+00 0. -1.
</event>
<event>
 4    1  0.8104768E+003  0.2526290E+02  0.7546771E-02  0.1465884E+00
          2   -1    0    0  501    0  0.00000000000E+00  0.00000000000E+00  0.23053319315E+02  0.23053319315E+02  0.00000000000E+00 0.  1.
          2   -1    0    0  502    0 -0.00000000000E+00 -0.00000000000E+00 -0.18267401902E+04  0.18267401902E+04  0.00000000000E+00 0.  1.
          2    1    1    2  501    0 -0.25222587089E+02 -0.14265675833E+01 -0.18197050266E+04  0.18198803801E+04  0.00000000000E+00 0.  1.
          2    1    1    2  502    0  0.25222587089E+02  0.14265675833E+01  0.16018155770E+02  0.29913129372E+02  0.00000000000E+00 0.  1.
</event>
<event>
 4    1  0.8104768E+003  0.2845934E+02  0.7546771E-02  0.1433475E+00
          2   -1    0    0  501    0  0.00000000000E+00  0.00000000000E+00  0.96299832244E+03  0.96299832244E+03  0.00000000000E+00 0. -1.
          2   -1    0    0  502    0 -0.00000000000E+00 -0.00000000000E+00 -0.56199504449E+01  0.56199504449E+01  0.00000000000E+00 0. -1.
          2    1    1    2  501    0 -0.41063250742E+01  0.28161536524E+02  0.32087655079E+02  0.42889994794E+02  0.00000000000E+00 0. -1.
          2    1    1    2  502    0  0.41063250742E+01 -0.28161536524E+02  0.92529071692E+03  0.92572827809E+03  0.00000000000E+00 0. -1.
</event>
<event>
 4    1  0.8104768E+003  0.3663047E+02  0.7546771E-02  0.1369449E+00
          2   -1    0    0  502    0  0.00000000000E+00  0.00000000000E+00  0.77094390720E+02  0.77094390720E+02  0.00000000000E+00 0. -1.
          2   -1    0    0  501    0 -0.00000000000E+00 -0.00000000000E+00 -0.25038502118E+03  0.25038502118E+03  0.00000000000E+00 0.  1.
          2    1    1    2  501    0 -0.28213210595E+02 -0.23362487018E+02  0.71301043875E+02  0.80160026881E+02  0.00000000000E+00 0. -1.
          2    1    1    2  502    0  0.28213210595E+02  0.23362487018E+02 -0.24459167433E+03  0.24731938502E+03  0.00000000000E+00 0.  1.
</event>
<event>
 4    1  0.8104768E+003  0.5387938E+02  0.7546771E-02  0.1282176E+00
          2   -1    0    0  502    0  0.00000000000E+00  0.00000000000E+00  0.36581753790E+01  0.36581753790E+01  0.00000000000E+00 0.  1.
          2   -1    0    0  501    0 -0.00000000000E+00 -0.00000000000E+00 -0.90002294598E+03  0.90002294598E+03  0.00000000000E+00 0.  1.
          2    1    1    2  501    0  0.48004752409E+02  0.24464899438E+02 -0.29278118440E+03  0.29769751342E+03  0.00000000000E+00 0.  1.
          2    1    1    2  502    0 -0.48004752409E+02 -0.24464899438E+02 -0.60358358620E+03  0.60598360794E+03  0.00000000000E+00 0.  1.
</event>
<event>
 4    1  0.8104768E+003  0.2718714E+02  0.7546771E-02  0.1445737E+00
          2   -1    0    0  501    0  0.00000000000E+00  0.00000000000E+00  0.16813109727E+03  0.16813109727E+03  0.00000000000E+00 0. -1.
          2   -1    0    0  502    0 -0.00000000000E+00 -0.00000000000E+00 -0.92613906396E+03  0.92613906396E+03  0.00000000000E+00 0. -1.
          2    1    1    2  501    0 -0.11760286837E+01  0.27161694140E+02 -0.92483894313E+03  0.92523846191E+03  0.00000000000E+00 0. -1.
          2    1    1    2  502    0  0.11760286837E+01 -0.27161694140E+02  0.16683097645E+03  0.16903169932E+03  0.00000000000E+00 0. -1.
</event>
<event>
 4    1  0.8104768E+003  0.2181076E+02  0.7546771E-02  0.1507997E+00
          2   -1    0    0  501    0  0.00000000000E+00  0.00000000000E+00  0.32653062419E+01  0.32653062419E+01  0.00000000000E+00 0. -1.
          2   -1    0    0  502    0 -0.00000000000E+00 -0.00000000000E+00 -0.34424908359E+03  0.34424908359E+03  0.00000000000E+00 0. -1.
          2    1    1    2  501    0  0.18374746489E+01  0.21733225644E+02 -0.30245594398E+03  0.30324133534E+03  0.00000000000E+00 0. -1.
          2    1    1    2  502    0 -0.18374746489E+01 -0.21733225644E+02 -0.38527833365E+02  0.44273054489E+02  0.00000000000E+00 0. -1.
</event>
<event>
 4    1  0.8104768E+003  0.3197944E+02  0.7546771E-02  0.1403141E+00
          2   -1    0    0  502    0  0.00000000000E+00  0.00000000000E+00  0.94355738326E+01  0.94355738326E+01  0.00000000000E+00 0.  1.
          2   -1    0    0  501    0 -0.00000000000E+00 -0.00000000000E+00 -0.15255016456E+03  0.15255016456E+03  0.00000000000E+00 0. -1.
          2    1    1    2  501    0 -0.23960585499E+02  0.21179589754E+02 -0.27978506670E+02  0.42490958040E+02  0.00000000000E+00 0.  1.
          2    1    1    2  502    0  0.23960585499E+02 -0.21179589754E+02 -0.11513608405E+03  0.11949478035E+03  0.00000000000E+00 0. -1.
</event>
<event>
 4    1  0.8104768E+003  0.2107271E+02  0.7546771E-02  0.1518229E+00
          2   -1    0    0  502    0  0.00000000000E+00  0.00000000000E+00  0.12839598440E+03  0.12839598440E+03  0.00000000000E+00 0.  1.
          2   -1    0    0  501    0 -0.00000000000E+00 -0.00000000000E+00 -0.63436473429E+02  0.63436473429E+02  0.00000000000E+00 0.  1.
          2    1    1    2  501    0 -0.20566201109E+02 -0.45924524373E+01  0.12574469749E+03  0.12749818898E+03  0.00000000000E+00 0.  1.
          2    1    1    2  502    0  0.20566201109E+02  0.45924524373E+01 -0.60785186520E+02  0.64334268844E+02  0.00000000000E+00 0.  1.
</event>
<event>
 4    1  0.8104768E+003  0.7039199E+02  0.7546771E-02  0.1228102E+00
          2   -1    0    0  501    0  0.00000000000E+00  0.00000000000E+00  0.44393318033E+01  0.44393318033E+01  0.00000000000E+00 0.  1.
          2   -1    0    0  502    0 -0.00000000000E+00 -0.00000000000E+00 -0.11225998999E+04  0.11225998999E+04  0.00000000000E+00 0.  1.
          2    1    1    2  501    0 -0.22032157512E+02 -0.66855191799E+02 -0.51642007864E+03  0.52119548181E+03  0.00000000000E+00 0.  1.
          2    1    1    2  502    0  0.22032157512E+02  0.66855191799E+02 -0.60174048947E+03  0.60584374991E+03  0.00000000000E+00 0.  1.
</event>
<event>
 4    1  0.8104768E+003  0.2232989E+02  0.7546771E-02  0.1501089E+00
          2   -1    0    0  502    0  0.00000000000E+00  0.00000000000E+00  0.12680358144E+02  0.12680358144E+02  0.00000000000E+00 0. -1.
          2   -1    0    0  501    0 -0.00000000000E+00 -0.00000000000E+00 -0.79263160753E+03  0.79263160753E+03  0.00000000000E+00 0. -1.
          2    1    1    2  501    0  0.55340485075E+01 -0.21633263327E+02  0.25654103409E+01  0.22476768124E+02  0.00000000000E+00 0. -1.
          2    1    1    2  502    0 -0.55340485075E+01  0.21633263327E+02 -0.78251665972E+03  0.78283519755E+03  0.00000000000E+00 0. -1.
</event>
<event>
 4    1  0.8104768E+003  0.5204684E+02  0.7546771E-02  0.1289534E+00
          2   -1    0    0  502    0  0.00000000000E+00  0.00000000000E+00  0.18445986764E+03  0.18445986764E+03  0.00000000000E+00 0.  1.
          2   -1    0    0  501    0 -0.00000000000E+00 -0.00000000000E+00 -0.85038934521E+02  0.85038934521E+02  0.00000000000E+00 0. -1.
          2    1    1    2  501    0 -0.51986273021E+02 -0.25102370327E+01  0.17227386173E+03  0.17996432232E+03  0.00000000000E+00 0.  1.
          2    1    1    2  502    0  0.51986273021E+02  0.25102370327E+01 -0.72852928613E+02  0.89534479839E+02  0.00000000000E+00 0. -1.
</event>
<event>
 4    1  0.8104768E+003  0.2480252E+02  0.7546771E-02  0.1471025E+00
          2   -1    0    0  502    0  0.00000000000E+00  0.00000000000E+00  0.16242580526E+02  0.16242580526E+02  0.00000000000E+00 0. -1.
          2   -1    0    0  501    0 -0.00000000000E+00 -0.00000000000E+00 -0.13517839304E+04  0.13517839304E+04  0.00000000000E+00 0. -1.
          2    1    1    2  501    0 -0.19410576045E+02  0.15440035527E+02  0.65923347508E+01  0.25663671541E+02  0.00000000000E+00 0. -1.
          2    1    1    2  502    0  0.19410576045E+02 -0.15440035527E+02 -0.13421336846E+04  0.13423628394E+04  0.00000000000E+00 0. -1.
</event>
<event>
 4    1  0.8104768E+003  0.2661055E+02  0.7546771E-02  0.1451560E+00
          2   -1    0    0  502    0  0.00000000000E+00  0.00000000000E+00  0.33020253894E+01  0.33020253894E+01  0.00000000000E+00 0.  1.
          2   -1    0    0  501    0 -0.00000000000E+00 -0.00000000000E+00 -0.19088229824E+04  0.19088229824E+04  0.00000000000E+00 0. -1.
          2    1    1    2  501    0  0.21060382551E+02 -0.16265960785E+02 -0.52002961080E+02  0.58416000843E+02  0.00000000000E+00 0.  1.
          2    1    1    2  502    0 -0.21060382551E+02  0.16265960785E+02 -0.18535179959E+04  0.18537090070E+04  0.00000000000E+00 0. -1.
</event>
<event>
 4    1  0.8104768E+003  0.3361442E+02  0.7546771E-02  0.1390575E+00
          2   -1    0    0  501    0  0.00000000000E+00  0.00000000000E+00  0.24035906617E+02  0.24035906617E+02  0.00000000000E+00 0.  1.
          2   -1    0    0  502    0 -0.00000000000E+00 -0.00000000000E+00 -0.53588851508E+02  0.53588851508E+02  0.00000000000E+00 0.  1.
          2    1    1    2  501    0  0.22025046138E+01 -0.33542187242E+02 -0.28375447727E+02  0.43989719086E+02  0.00000000000E+00 0.  1.
          2    1    1    2  502    0 -0.22025046138E+01  0.33542187242E+02 -0.11774971641E+01  0.33635039038E+02  0.00000000000E+00 0.  1.
</event>
<event>
 4    1  0.8104768E+003  0.2488050E+02  0.7546771E-02  0.1470145E+00
          2   -1    0    0  502    0  0.00000000000E+00  0.00000000000E+00  0.29596065550E+02  0.29596065550E+02  0.00000000000E+00 0. -1.
          2   -1    0    0  501    0 -0.00000000000E+00 -0.00000000000E+00 -0.21449696146E+02  0.21449696146E+02  0.00000000000E+00 0. -1.
          2    1    1    2  501    0  0.38563706272E+01 -0.24579818001E+02  0.80981275387E+01  0.26165219606E+02  0.00000000000E+00 0. -1.
          2    1    1    2  502    0 -0.38563706272E+01  0.24579818001E+02  0.48241865622E-01  0.24880542090E+02  0.00000000000E+00 0. -1.
</event>
<event>
 4    1  0.8104768E+003  0.2758368E+02  0.7546771E-02  0.1441831E+00
          2   -1    0    0  502    0  0.00000000000E+00  0.00000000000E+00  0.29642317558E+02  0.29642317558E+02  0.00000000000E+00 0. -1.
          2   -1    0    0  501    0 -0.00000000000E+00 -0.00000000000E+00 -0.92503814728E+03  0.92503814728E+03  0.00000000000E+00 0.  1.
          2    1    1    2  501    0  0.23841527639E+02  0.13872305113E+02  0.22973096062E+02  0.35897387537E+02  0.00000000000E+00 0. -1.
          2    1    1    2  502    0 -0.23841527639E+02 -0.13872305113E+02 -0.91836892578E+03  0.91878307730E+03  0.00000000000E+00 0.  1.
</event>
<event>
 4    1  0.8104768E+003  0.2031578E+02  0.7546771E-02  0.1529262E+00
          2   -1    0    0  501    0  0.00000000000E+00  0.00000000000E+00  0.66498094972E+01  0.66498094972E+01  0.00000000000E+00 0.  1.
          2   -1    0    0  502    0 -0.00000000000E+00 -0.00000000000E+00 -0.11172425800E+03  0.11172425800E+03  0.00000000000E+00 0. -1.
          2    1    1    2  501    0  0.40255746607E+00 -0.20311791976E+02 -0.91996220295E+02  0.94212714080E+02  0.00000000000E+00 0. -1.
          2    1    1    2  502    0 -0.40255746607E+00  0.20311791976E+02 -0.13078228203E+02  0.24161353413E+02  0.00000000000E+00 0.  1.
</event>
<event>
 4    1  0.8104768E+003  0.2637887E+02  0.7546771E-02  0.1453949E+00
          2   -1    0    0  502    0  0.00000000000E+00  0.00000000000E+00  0.14622009271E+04  0.14622009271E+04  0.00000000000E+00 0.  1.
          2   -1    0    0  501    0 -0.00000000000E+00 -0.00000000000E+00 -0.40969755043E+01  0.40969755043E+01  0.00000000000E+00 0.  1.
          2    1    1    2  501    0  0.26003720550E+02 -0.44329634606E+01  0.14183071138E+04  0.14185524008E+04  0.00000000000E+00 0.  1.
          2    1    1    2  502    0 -0.26003720550E+02  0.44329634606E+01  0.39796837777E+02  0.47745501825E+02  0.00000000000E+00 0.  1.
</event>
<event>
 4    1  0.8104768E+003  0.2013142E+02  0.7546771E-02  0.1532036E+00
          2   -1    0    0  501    0  0.00000000000E+00  0.00000000000E+00  0.11015081104E+04  0.11015081104E+04  0.00000000000E+00 0. -1.
          2   -1    0    0  502    0 -0.00000000000E+00 -0.00000000000E+00 -0.18513239871E+01  0.18513239871E+01  0.00000000000E+00 0. -1.
          2    1    1    2  501    0  0.20063846132E+02  0.16480195647E+01  0.56001667219E+02  0.59510172419E+02  0.00000000000E+00 0. -1.
          2    1    1    2  502    0 -0.20063846132E+02 -0.16480195647E+01  0.10436551192E+04  0.10438492620E+04  0.00000000000E+00 0. -1.
</event>
<event>
 4    1  0.8104768E+003  0.3088387E+02  0.7546771E-02  0.1412068E+00
          2   -1    0    0  501    0  0.00000000000E+00  0.00000000000E+00  0.38301137881E+02  0.38301137881E+02  0.00000000000E+00 0. -1.
          2   -1    0    0  502    0 -0.00000000000E+00 -0.00000000000E+00 -0.29379725671E+02  0.29379725671E+02  0.00000000000E+00 0. -1.
          2    1    1    2  501    0 -0.21366681164E+01 -0.30809865176E+02  0.17670388850E+02  0.35581677658E+02  0.00000000000E+00 0. -1.
          2    1    1    2  502    0  0.21366681164E+01  0.30809865176E+02 -0.87489766402E+01  0.32099185894E+02  0.00000000000E+00 0. -1.
</event>
<event>
 4    1  0.8104768E+003  0.2013179E+02  0.7546771E-02  0.1532031E+00
          2   -1    0    0  501    0  0.00000000000E+00  0.00000000000E+00  0.13357657335E+04  0.13357657335E+04  0.00000000000E+00 0. -1.
          2   -1    0    0  502    0 -0.00000000000E+00 -0.00000000000E+00 -0.62332207860E+01  0.62332207860E+01  0.00000000000E+00 0.  1.
          2    1    1    2  501    0  0.18513962516E+02 -0.79070990769E+01  0.10301558542E+02  0.22614400992E+02  0.00000000000E+00 0.  1.
          2    1    1    2  502    0 -0.18513962516E+02  0.79070990769E+01  0.13192309542E+04  0.13193845533E+04  0.00000000000E+00 0. -1.
</event>
<event>
 4    1  0.8104768E+003  0.2402456E+02  0.7546771E-02  0.1480018E+00
          2   -1    0    0  501    0  0.00000000000E+00  0.00000000000E+00  0.44364604105E+02  0.44364604105E+02  0.00000000000E+00 0.  1.
          2   -1    0    0  502    0 -0.00000000000E+00 -0.00000000000E+00 -0.49865829680E+02  0.49865829680E+02  0.00000000000E+00 0. -1.
          2    1    1    2  501    0 -0.17178789423E+02 -0.16794902151E+02 -0.43256046936E+02  0.49479946856E+02  0.00000000000E+00 0. -1.
          2    1    1    2  502    0  0.17178789423E+02  0.16794902151E+02  0.37754821362E+02  0.44750486929E+02  0.00000000000E+00 0.  1.
</event>
<event>
 4    1  0.8104768E+003  0.2147780E+02  0.7546771E-02  0.1512551E+00
          2   -1    0    0  502    0  0.00000000000E+00  0.00000000000E+00  0.10018752343E+02  0.10018752343E+02  0.00000000000E+00 0.  1.
          2   -1    0    0  501    0 -0.00000000000E+00 -0.00000000000E+00 -0.74968962264E+02  0.74968962264E+02  0.00000000000E+00 0.  1.
          2    1    1    2  501    0 -0.16201252168E+02  0.14100182787E+02 -0.60797455080E+01  0.22321716598E+02  0.00000000000E+00 0.  1.
          2    1    1    2  502    0  0.16201252168E+02 -0.14100182787E+02 -0.58870464413E+02  0.62665998010E+02  0.00000000000E+00 0.  1.
</event>
<event>
 4    1  0.8104768E+003  0.3638113E+02  0.7546771E-02  0.1371105E+00
          2   -1    0    0  501    0  0.00000000000E+00  0.00000000000E+00  0.43122167545E+02  0.43122167545E+02  0.00000000000E+00 0. -1.
          2   -1    0    0  502    0 -0.00000000000E+00 -0.00000000000E+00 -0.14185387164E+04  0.14185387164E+04  0.00000000000E+00 0.  1.
          2    1    1    2  501    0  0.63252939436E+01  0.35827050532E+02 -0.14105887391E+04  0.14110578222E+04  0.00000000000E+00 0.  1.
          2    1    1    2  502    0 -0.63252939436E+01 -0.35827050532E+02  0.35172190196E+02  0.50603061731E+02  0.00000000000E+00 0. -1.
</event>
<event>
 4    1  0.8104768E+003  0.7399172E+02  0.7546771E-02  0.1218528E+00
          2   -1    0    0  501    0  0.00000000000E+00  0.00000000000E+00  0.28084242630E+03  0.28084242630E+03  0.00000000000E+00 0. -1.
          2   -1    0    0  502    0 -0.00000000000E+00 -0.00000000000E+00 -0.38029975826E+02  0.38029975826E+02  0.00000000000E+00 0. -1.
          2    1    1    2  501    0  0.69442578062E+02 -0.25544145272E+02  0.10097226983E+02  0.74677499947E+02  0.00000000000E+00 0. -1.
          2    1    1    2  502    0 -0.69442578062E+02  0.25544145272E+02  0.23271522350E+03  0.24419490218E+03  0.00000000000E+00 0. -1.
</event>
<event>
 4    1  0.8104768E+003  0.2094741E+02  0.7546771E-02  0.1520017E+00
          2   -1    0    0  502    0  0.00000000000E+00  0.00000000000E+00  0.73204724168E+03  0.73204724168E+03  0.00000000000E+00 0.  1.
          2   -1    0    0  501    0 -0.00000000000E+00 -0.00000000000E+00 -0.83092630201E+01  0.83092630201E+01  0.00000000000E+00 0. -1.
          2    1    1    2  501    0  0.20067210166E+02  0.60084132617E+01  0.71844555069E+03  0.71875086313E+03  0.00000000000E+00 0.  1.
          2    1    1    2  502    0 -0.20067210166E+02 -0.60084132617E+01  0.52924279764E+01  0.21605641570E+02  0.00000000000E+00 0. -1.
</event>
<event>
 4    1  0.8104768E+003  0.2198957E+02  0.7546771E-02  0.1505591E+00
          2   -1    0    0  502    0  0.00000000000E+00  0.00000000000E+00  0.46266899079E+03  0.46266899079E+03  0.00000000000E+00 0. -1.
          2   -1    0    0  501    0 -0.00000000000E+00 -0.00000000000E+00 -0.37867770536E+02  0.37867770536E+02  0.00000000000E+00 0.  1.
          2    1    1    2  501    0 -0.46359449743E+01  0.21495334587E+02  0.45919124736E+03  0.45971746002E+03  0.00000000000E+00 0. -1.
          2    1    1    2  502    0  0.46359449743E+01 -0.21495334587E+02 -0.34390027106E+02  0.40819301307E+02  0.00000000000E+00 0.  1.
</event>
<event>
 4    1  0.8104768E+003  0.3337643E+02  0.7546771E-02  0.1392351E+00
          2   -1    0    0  501    0  0.00000000000E+00  0.00000000000E+00  0.49510910897E+03  0.49510910897E+03  0.00000000000E+00 0. -1.
          2   -1    0    0  502    0 -0.00000000000E+00 -0.00000000000E+00 -0.66890794533E+02  0.66890794533E+02  0.00000000000E+00 0.  1.
          2    1    1    2  501    0 -0.30238732129E+02  0.14128176548E+02 -0.62124423750E+02  0.70522551852E+02  0.00000000000E+00 0.  1.
          2    1    1    2  502    0  0.30238732129E+02 -0.14128176548E+02  0.49034273819E+03  0.49147735165E+03  0.00000000000E+00 0. -1.
</event>
<event>
 4    1  0.8104768E+003  0.2622081E+02  0.7546771E-02  0.1455596E+00
          2   -1    0    0  502    0  0.00000000000E+00  0.00000000000E+00  0.88481067508E+01  0.88481067508E+01  0.00000000000E+00 0.  1.
          2   -1    0    0  501    0 -0.00000000000E+00 -0.00000000000E+00 -0.53393888721E+03  0.53393888721E+03  0.00000000000E+00 0. -1.
          2    1    1    2  501    0 -0.20802030065E+02 -0.15962652709E+02 -0.11675786337E+02  0.28702869594E+02  0.00000000000E+00 0.  1.
          2    1    1    2  502    0  0.20802030065E+02  0.15962652709E+02 -0.51341499413E+03  0.51408412437E+03  0.00000000000E+00 0. -1.
</event>
<event>
 4    1  0.8104768E+003  0.2015376E+02  0.7546771E-02  0.1531698E+00
          2   -1    0    0  501    0  0.00000000000E+00  0.00000000000E+00  0.40055370195E+02  0.40055370195E+02  0.00000000000E+00 0. -1.
          2   -1    0    0  502    0 -0.00000000000E+00 -0.00000000000E+00 -0.10399191666E+02  0.10399191666E+02  0.00000000000E+00 0. -1.
          2    1    1    2  501    0 -0.11192470712E+02 -0.16760151723E+02  0.10847780277E+02  0.22887735216E+02  0.00000000000E+00 0. -1.
          2    1    1    2  502    0  0.11192470712E+02  0.16760151723E+02  0.18808398252E+02  0.27566826644E+02  0.00000000000E+00 0. -1.
</event>
<event>
 4    1  0.8104768E+003  0.7199231E+02  0.7546771E-02  0.1223767E+00
          2   -1    0    0  501    0  0.00000000000E+00  0.00000000000E+00  0.13728760077E+02  0.13728760077E+02  0.00000000000E+00 0.  1.
          2   -1    0    0  502    0 -0.00000000000E+00 -0.00000000000E+00 -0.62311885465E+03  0.62311885465E+03  0.00000000000E+00 0.  1.
          2    1    1    2  501    0 -0.67261436459E+02  0.25666927219E+02 -0.50460415376E+03  0.50971388443E+03  0.00000000000E+00 0.  1.
          2    1    1    2  502    0  0.67261436459E+02 -0.25666927219E+02 -0.10478594081E+03  0.12713373030E+03  0.00000000000E+00 0.  1.
</event>
<event>
 4    1  0.8104768E+003  0.4668747E+02  0.7546771E-02  0.1313211E+00
          2   -1    0    0  501    0  0.00000000000E+00  0.00000000000E+00  0.50955692785E+03  0.50955692785E+03  0.00000000000E+00 0.  1.
          2   -1    0    0  502    0 -0.00000000000E+00 -0.00000000000E+00 -0.38610023041E+02  0.38610023041E+02  0.00000000000E+00 0. -1.
          2    1    1    2  501    0 -0.31198481685E+02  0.34732906377E+02 -0.22981323426E+02  0.52037114363E+02  0.00000000000E+00 0. -1.
          2    1    1    2  502    0  0.31198481685E+02 -0.34732906377E+02  0.49392822823E+03  0.49612983653E+03  0.00000000000E+00 0.  1.
</event>
<event>
 4    1  0.8104768E+003  0.2387544E+02  0.7546771E-02  0.1481788E+00
          2   -1    0    0  502    0  0.00000000000E+00  0.00000000000E+00  0.59373916513E+02  0.59373916513E+02  0.00000000000E+00 0. -1.
          2   -1    0    0  501    0 -0.00000000000E+00 -0.00000000000E+00 -0.17032889499E+04  0.17032889499E+04  0.00000000000E+00 0.  1.
          2    1    1    2  501    0  0.13449552622E+02  0.19726786684E+02  0.56886541609E+02  0.61693720871E+02  0.00000000000E+00 0. -1.
          2    1    1    2  502    0 -0.13449552622E+02 -0.19726786684E+02 -0.17008015750E+04  0.17009691456E+04  0.00000000000E+00 0.  1.
</event>
<event>
 4    1  0.8104768E+003  0.2099773E+02  0.7546771E-02  0.1519297E+00
          2   -1    0    0  502    0  0.00000000000E+00  0.00000000000E+00  0.38529143438E+00  0.38529143438E+00  0.00000000000E+00 0. -1.
          2   -1    0    0  501    0 -0.00000000000E+00 -0.00000000000E+00 -0.14204429308E+04  0.14204429308E+04  0.00000000000E+00 0. -1.
          2    1    1    2  501    0  0.16343429254E+02 -0.13183206098E+02 -0.39681942600E+03  0.39737458582E+03  0.00000000000E+00 0. -1.
          2    1    1    2  502    0 -0.16343429254E+02  0.13183206098E+02 -0.10232382133E+04  0.10234536364E+04  0.00000000000E+00 0. -1.
</event>
<event>
 4    1  0.8104768E+003  0.3480224E+02  0.7546771E-02  0.1381959E+00
          2   -1    0    0  502    0  0.00000000000E+00  0.00000000000E+00  0.11288959503E+01  0.11288959503E+01  0.00000000000E+00 0. -1.
          2   -1    0    0  501    0 -0.00000000000E+00 -0.00000000000E+00 -0.11341895420E+04  0.11341895420E+04  0.00000000000E+00 0.  1.
          2    1    1    2  501    0 -0.33871993037E+02  0.79927395938E+01 -0.43457479106E+03  0.43596610513E+03  0.00000000000E+00 0. -1.
          2    1    1    2  502    0  0.33871993037E+02 -0.79927395938E+01 -0.69848585500E+03  0.69935233283E+03  0.00000000000E+00 0.  1.
</event>
<event>
 4    1  0.8104768E+003  0.5001232E+02  0.7546771E-02  0.1298119E+00
          2   -1    0    0  501    0  0.00000000000E+00  0.00000000000E+00  0.15123584316E+01  0.15123584316E+01  0.00000000000E+00 0.  1.
          2   -1    0    0  502    0 -0.00000000000E+00 -0.00000000000E+00 -0.17086655314E+04  0.17086655314E+04  0.00000000000E+00 0.  1.
          2    1    1    2  501    0 -0.49762929524E+02  0.49882735577E+01 -0.70043704971E+03  0.70222025935E+03  0.00000000000E+00 0.  1.
          2    1    1    2  502    0  0.49762929524E+02 -0.49882735577E+01 -0.10067161232E+04  0.10079576305E+04  0.00000000000E+00 0.  1.
</event>
<event>
 4    1  0.8104768E+003  0.3199623E+02  0.7546771E-02  0.1403007E+00
          2   -1    0    0  501    0  0.00000000000E+00  0.00000000000E+00  0.21378002972E+02  0.21378002972E+02  0.00000000000E+00 0. -1.
          2   -1    0    0  502    0 -0.00000000000E+00 -0.00000000000E+00 -0.15264491642E+03  0.15264491642E+03  0.00000000000E+00 0. -1.
          2    1    1    2  501    0 -0.61944505445E+01 -0.31390884426E+02 -0.13771527921E+03  0.14138336879E+03  0.00000000000E+00 0. -1.
          2    1    1    2  502    0  0.61944505445E+01  0.31390884426E+02  0.64483657611E+01  0.32639550603E+02  0.00000000000E+00 0. -1.
</event>
<event>
 4    1  0.1042355E+004  0.2664306E+02  0.7546771E-02  0.1451227E+00
          2   -1    0    0  502    0  0.00000000000E+00  0.00000000000E+00  0.41126294249E+03  0.41126294249E+03  0.00000000000E+00 0. -1.
          2   -1    0    0  501    0 -0.00000000000E+00 -0.00000000000E+00 -0.13148456251E+04  0.13148456251E+04  0.00000000000E+00 0.  1.
          2    1    1    2  501    0 -0.26517562663E+02  0.25829483842E+01  0.41069627977E+03  0.41155957888E+03  0.00000000000E+00 0. -1.
          2    1    1    2  502    0  0.26517562663E+02 -0.25829483842E+01 -0.13142789624E+04  0.13145489888E+04  0.00000000000E+00 0.  1.
</event>
<event>
 4    1  0.8104768E+003  0.2658798E+02  0.7546771E-02  0.1451791E+00
          2   -1    0    0  502    0  0.00000000000E+00  0.00000000000E+00  0.13393725324E+04  0.13393725324E+04  0.00000000000E+00 0.  1.
          2   -1    0    0  501    0 -0.00000000000E+00 -0.00000000000E+00 -0.13248078050E+02  0.13248078050E+02  0.00000000000E+00 0.  1.
          2    1    1    2  501    0  0.12687217437E+02 -0.23365688714E+02  0.13257635956E+04  0.13260301777E+04  0.00000000000E+00 0.  1.
          2    1    1    2  502    0 -0.12687217437E+02  0.23365688714E+02  0.36085881646E+00  0.26590432762E+02  0.00000000000E+00 0.  1.
</event>
<event>
 4    1  0.8104768E+003  0.2306389E+02  0.7546771E-02  0.1491697E+00
          2   -1    0    0  501    0  0.00000000000E+00  0.00000000000E+00  0.73569899168E+02  0.73569899168E+02  0.00000000000E+00 0.  1.
          2   -1    0    0  502    0 -0.00000000000E+00 -0.00000000000E+00 -0.24110407449E+03  0.24110407449E+03  0.00000000000E+00 0. -1.
          2    1    1    2  501    0  0.22863536205E+02  0.30334018714E+01 -0.23872693695E+03  0.23983847323E+03  0.00000000000E+00 0. -1.
          2    1    1    2  502    0 -0.22863536205E+02 -0.30334018714E+01  0.71192761634E+02  0.74835500424E+02  0.00000000000E+00 0.  1.
</event>
<event>
 4    1  0.8104768E+003  0.2020050E+02  0.7546771E-02  0.1530992E+00
          2   -1    0    0  501    0  0.00000000000E+00  0.00000000000E+00  0.14772484316E+04  0.14772484316E+04  0.00000000000E+00 0.  1.
          2   -1    0    0  502    0 -0.00000000000E+00 -0.00000000000E+00 -0.39938039732E+00  0.39938039732E+00  0.00000000000E+00 0. -1.
          2    1    1    2  501    0 -0.30096484553E+01  0.19975042832E+02  0.32815855808E+03  0.32877971281E+03  0.00000000000E+00 0. -1.
          2    1    1    2  502    0  0.30096484553E+01 -0.19975042832E+02  0.11486904931E+04  0.11488680992E+04  0.00000000000E+00 0.  1.
</event>
<event>
 4    1  0.8104768E+003  0.2667403E+02  0.7546771E-02  0.1450910E+00
          2   -1    0    0  502    0  0.00000000000E+00  0.00000000000E+00  0.12390658655E+04  0.12390658655E+04  0.00000000000E+00 0.  1.
          2   -1    0    0  501    0 -0.00000000000E+00 -0.00000000000E+00 -0.25266052202E+01  0.25266052202E+01  0.00000000000E+00 0.  1.
          2    1    1    2  501    0 -0.20391905440E+02  0.17195171799E+02  0.11639803398E+04  0.11642859336E+04  0.00000000000E+00 0.  1.
          2    1    1    2  502    0  0.20391905440E+02 -0.17195171799E+02  0.72558920536E+02  0.77306537175E+02  0.00000000000E+00 0.  1.
</event>
<event>
 4    1  0.8104768E+003  0.2164578E+02  0.7546771E-02  0.1510241E+00
          2   -1    0    0  501    0  0.00000000000E+00  0.00000000000E+00  0.76106943926E+03  0.76106943926E+03  0.00000000000E+00 0. -1.
          2   -1    0    0  502    0 -0.00000000000E+00 -0.00000000000E+00 -0.66338784520E+00  0.66338784520E+00  0.00000000000E+00 0.  1.
          2    1    1    2  501    0  0.95110550488E+01 -0.19444274503E+02  0.27801628361E+03  0.27885765891E+03  0.00000000000E+00 0.  1.
          2    1    1    2  502    0 -0.95110550488E+01  0.19444274503E+02  0.48238976780E+03  0.48287516819E+03  0.00000000000E+00 0. -1.
</event>
<event>
 4    1  0.8104768E+003  0.3573545E+02  0.7546771E-02  0.1375465E+00
          2   -1    0    0  502    0  0.00000000000E+00  0.00000000000E+00  0.22331789427E+03  0.22331789427E+03  0.00000000000E+00 0. -1.
          2   -1    0    0  501    0 -0.00000000000E+00 -0.00000000000E+00 -0.26930239529E+03  0.26930239529E+03  0.00000000000E+00 0.  1.
          2    1    1    2  501    0  0.33446708801E+02 -0.12583314348E+02  0.22068877049E+03  0.22356331441E+03  0.00000000000E+00 0. -1.
          2    1    1    2  502    0 -0.33446708801E+02  0.12583314348E+02 -0.26667327152E+03  0.26905697515E+03  0.00000000000E+00 0.  1.
</event>
<event>
 4    1  0.8104768E+003  0.2263811E+02  0.7546771E-02  0.1497093E+00
          2   -1    0    0  501    0  0.00000000000E+00  0.00000000000E+00  0.31751159278E+03  0.31751159278E+03  0.00000000000E+00 0.  1.
          2   -1    0    0  502    0 -0.00000000000E+00 -0.00000000000E+00 -0.45848976623E+01  0.45848976623E+01  0.00000000000E+00 0. -1.
          2    1    1    2  501    0  0.21786255250E+02  0.61516618663E+01  0.26825926993E+02  0.35101484592E+02  0.00000000000E+00 0. -1.
          2    1    1    2  502    0 -0.21786255250E+02 -0.61516618663E+01  0.28610076813E+03  0.28699500585E+03  0.00000000000E+00 0.  1.
</event>
<event>
 4    1  0.8104768E+003  0.2316909E+02  0.7546771E-02  0.1490386E+00
          2   -1    0    0  501    0  0.00000000000E+00  0.00000000000E+00  0.39379377141E+02  0.39379377141E+02  0.00000000000E+00 0.  1.
          2   -1    0    0  502    0 -0.00000000000E+00 -0.00000000000E+00 -0.90249351907E+03  0.90249351907E+03  0.00000000000E+00 0. -1.
          2    1    1    2  501    0 -0.11853257147E+01 -0.23138749468E+02 -0.89892336767E+03  0.89922190123E+03  0.00000000000E+00 0. -1.
          2    1    1    2  502    0  0.11853257147E+01  0.23138749468E+02  0.35809225741E+02  0.42650994973E+02  0.00000000000E+00 0.  1.
</event>
<event>
 4    1  0.8104768E+003  0.3019872E+02  0.7546771E-02  0.1417877E+00
          2   -1    0    0  501    0  0.00000000000E+00  0.00000000000E+00  0.27913939072E+03  0.27913939072E+03  0.00000000000E+00 0.  1.
          2   -1    0    0  502    0 -0.00000000000E+00 -0.00000000000E+00 -0.13259127449E+02  0.13259127449E+02  0.00000000000E+00 0. -1.
          2    1    1    2  501    0  0.19905810743E+02 -0.22709496339E+02  0.60243639689E+01  0.30793757266E+02  0.00000000000E+00 0. -1.
          2    1    1    2  502    0 -0.19905810743E+02  0.22709496339E+02  0.25985589930E+03  0.26160476090E+03  0.00000000000E+00 0.  1.
</event>
<event>
 4    1  0.8104768E+003  0.8489324E+02  0.7546771E-02  0.1192922E+00
          2   -1    0    0  502    0  0.00000000000E+00  0.00000000000E+00  0.21944069895E+04  0.21944069895E+04  0.00000000000E+00 0.  1.
          2   -1    0    0  501    0 -0.00000000000E+00 -0.00000000000E+00 -0.66749435744E+01  0.66749435744E+01  0.00000000000E+00 0.  1.
          2    1    1    2  501    0 -0.80568321050E+02  0.26750834049E+02  0.18782526454E+04  0.18801701682E+04  0.00000000000E+00 0.  1.
          2    1    1    2  502    0  0.80568321050E+02 -0.26750834049E+02  0.30947940058E+03  0.32091176492E+03  0.00000000000E+00 0.  1.
</event>
<event>
 4    1  0.8104768E+003  0.2960653E+02  0.7546771E-02  0.1423047E+00
          2   -1    0    0  502    0  0.00000000000E+00  0.00000000000E+00  0.35570179167E+01  0.35570179167E+01  0.00000000000E+00 0. -1.
          2   -1    0    0  501    0 -0.00000000000E+00 -0.00000000000E+00 -0.44111037118E+03  0.44111037118E+03  0.00000000000E+00 0.  1.
          2    1    1    2  501    0 -0.12293609015E+02  0.26933506645E+02 -0.71071520365E+02  0.76991607398E+02  0.00000000000E+00 0. -1.
          2    1    1    2  502    0  0.12293609015E+02 -0.26933506645E+02 -0.36648183290E+03  0.36767578170E+03  0.00000000000E+00 0.  1.
</event>
<event>
 4    1  0.8104768E+003  0.2015184E+02  0.7546771E-02  0.1531727E+00
          2   -1    0    0  501    0  0.00000000000E+00  0.00000000000E+00  0.14934037527E+01  0.14934037527E+01  0.00000000000E+00 0. -1.
          2   -1    0    0  502    0 -0.00000000000E+00 -0.00000000000E+00 -0.76606439523E+03  0.76606439523E+03  0.00000000000E+00 0. -1.
          2    1    1    2  501    0  0.76040074976E+01 -0.18662145927E+02 -0.69051369458E+03  0.69080768599E+03  0.00000000000E+00 0. -1.
          2    1    1    2  502    0 -0.76040074976E+01  0.18662145927E+02 -0.74057296893E+02  0.76750112989E+02  0.00000000000E+00 0. -1.
</event>
<event>
 4    1  0.8104768E+003  0.2392305E+02  0.7546771E-02  0.1481222E+00
          2   -1    0    0  501    0  0.00000000000E+00  0.00000000000E+00  0.19012572598E+03  0.19012572598E+03  0.00000000000E+00 0.  1.
          2   -1    0    0  502    0 -0.00000000000E+00 -0.00000000000E+00 -0.13883683284E+03  0.13883683284E+03  0.00000000000E+00 0.  1.
          2    1    1    2  501    0  0.99896238821E+01  0.21737515960E+02 -0.13704396907E+03  0.13911636009E+03  0.00000000000E+00 0.  1.
          2    1    1    2  502    0 -0.99896238821E+01 -0.21737515960E+02  0.18833286221E+03  0.18984619874E+03  0.00000000000E+00 0.  1.
</event>
<event>
 4    1  0.8104768E+003  0.2956351E+02  0.7546771E-02  0.1423428E+00
          2   -1    0    0  502    0  0.00000000000E+00  0.00000000000E+00  0.28891772174E+03  0.28891772174E+03  0.00000000000E+00 0. -1.
          2   -1    0    0  501    0 -0.00000000000E+00 -0.00000000000E+00 -0.53871516889E+01  0.53871516889E+01  0.00000000000E+00 0. -1.
          2    1    1    2  501    0 -0.21589695423E+02  0.20196198733E+02  0.23920448343E+03  0.24102445163E+03  0.00000000000E+00 0. -1.
          2    1    1    2  502    0  0.21589695423E+02 -0.20196198733E+02  0.44326086624E+02  0.53280421799E+02  0.00000000000E+00 0. -1.
</event>
<event>
 4    1  0.8104768E+003  0.2216906E+02  0.7546771E-02  0.1503204E+00
          2   -1    0    0  502    0  0.00000000000E+00  0.00000000000E+00  0.90723466147E+01  0.90723466147E+01  0.00000000000E+00 0.  1.
          2   -1    0    0  501    0 -0.00000000000E+00 -0.00000000000E+00 -0.22056333967E+03  0.22056333967E+03  0.00000000000E+00 0.  1.
          2    1    1    2  501    0 -0.22027105464E+02  0.25047547726E+01 -0.60195705543E+01  0.22971774011E+02  0.00000000000E+00 0.  1.
          2    1    1    2  502    0  0.22027105464E+02 -0.25047547726E+01 -0.20547142250E+03  0.20666391228E+03  0.00000000000E+00 0.  1.
</event>
<event>
 4    1  0.8104768E+003  0.2350992E+02  0.7546771E-02  0.1486192E+00
          2   -1    0    0  501    0  0.00000000000E+00  0.00000000000E+00  0.74334815864E+00  0.74334815864E+00  0.00000000000E+00 0. -1.
          2   -1    0    0  502    0 -0.00000000000E+00 -0.00000000000E+00 -0.89448058533E+03  0.89448058533E+03  0.00000000000E+00 0.  1.
          2    1    1    2  501    0 -0.15766643456E+02  0.17439299068E+02 -0.26300089995E+03  0.26404959681E+03  0.00000000000E+00 0. -1.
          2    1    1    2  502    0  0.15766643456E+02 -0.17439299068E+02 -0.63073633722E+03  0.63117433668E+03  0.00000000000E+00 0.  1.
</event>
<event>
 4    1  0.8104768E+003  0.6186590E+02  0.7546771E-02  0.1253621E+00
          2   -1    0    0  501    0  0.00000000000E+00  0.00000000000E+00  0.67293095528E+01  0.67293095528E+01  0.00000000000E+00 0.  1.
          2   -1    0    0  502    0 -0.00000000000E+00 -0.00000000000E+00 -0.56922046076E+03  0.56922046076E+03  0.00000000000E+00 0. -1.
          2    1    1    2  501    0 -0.25839161729E+02 -0.56211453274E+02 -0.27309170526E+03  0.28001155198E+03  0.00000000000E+00 0. -1.
          2    1    1    2  502    0  0.25839161729E+02  0.56211453274E+02 -0.28939944595E+03  0.29593821834E+03  0.00000000000E+00 0.  1.
</event>
<event>
 4    1  0.8104768E+003  0.4125945E+02  0.7546771E-02  0.1341259E+00
          2   -1    0    0  501    0  0.00000000000E+00  0.00000000000E+00  0.11605990367E+04  0.11605990367E+04  0.00000000000E+00 0. -1.
          2   -1    0    0  502    0 -0.00000000000E+00 -0.00000000000E+00 -0.10568729016E+02  0.10568729016E+02  0.00000000000E+00 0.  1.
          2    1    1    2  501    0 -0.14692340885E+02  0.38554863572E+02  0.31583470830E+02  0.51960157961E+02  0.00000000000E+00 0.  1.
          2    1    1    2  502    0  0.14692340885E+02 -0.38554863572E+02  0.11184468369E+04  0.11192076078E+04  0.00000000000E+00 0. -1.
</event>
<event>
 4    1  0.8104768E+003  0.2693811E+02  0.7546771E-02  0.1448231E+00
          2   -1    0    0  502    0  0.00000000000E+00  0.00000000000E+00  0.95529634846E+01  0.95529634846E+01  0.00000000000E+00 0.  1.
          2   -1    0    0  501    0 -0.00000000000E+00 -0.00000000000E+00 -0.12124278882E+03  0.12124278882E+03  0.00000000000E+00 0.  1.
          2    1    1    2  501    0 -0.11433488404E+01  0.26913839159E+02 -0.15878718691E+02  0.31269724848E+02  0.00000000000E+00 0.  1.
          2    1    1    2  502    0  0.11433488404E+01 -0.26913839159E+02 -0.95811106649E+02  0.99526027461E+02  0.00000000000E+00 0.  1.
</event>
<event>
 4    1  0.8104768E+003  0.3568129E+02  0.7546771E-02  0.1375836E+00
          2   -1    0    0  501    0  0.00000000000E+00  0.00000000000E+00  0.90460814780E+02  0.90460814780E+02  0.00000000000E+00 0.  1.
          2   -1    0    0  502    0 -0.00000000000E+00 -0.00000000000E+00 -0.82187696651E+03  0.82187696651E+03  0.00000000000E+00 0.  1.
          2    1    1    2  501    0 -0.29131431685E+02  0.20603747181E+02 -0.81795430485E+03  0.81873219036E+03  0.00000000000E+00 0.  1.
          2    1    1    2  502    0  0.29131431685E+02 -0.20603747181E+02  0.86538153114E+02  0.93605590935E+02  0.00000000000E+00 0.  1.
</event>
<event>
 4    1  0.8104768E+003  0.2364591E+02  0.7546771E-02  0.1484543E+00
          2   -1    0    0  501    0  0.00000000000E+00  0.00000000000E+00  0.10316308387E+02  0.10316308387E+02  0.00000000000E+00 0. -1.
          2   -1    0    0  502    0 -0.00000000000E+00 -0.00000000000E+00 -0.56637523807E+02  0.56637523807E+02  0.00000000000E+00 0.  1.
          2    1    1    2  501    0 -0.18737087795E+02 -0.14423952154E+02 -0.30107615027E+02  0.38283120789E+02  0.00000000000E+00 0. -1.
          2    1    1    2  502    0  0.18737087795E+02  0.14423952154E+02 -0.16213600393E+02  0.28670711405E+02  0.00000000000E+00 0.  1.
</event>
<event>
 4    1  0.8104768E+003  0.5538421E+02  0.7546771E-02  0.1276377E+00
          2   -1    0    0  501    0  0.00000000000E+00  0.00000000000E+00  0.20733025817E+04  0.20733025817E+04  0.00000000000E+00 0.  1.
          2   -1    0    0  502    0 -0.00000000000E+00 -0.00000000000E+00 -0.15439114156E+01  0.15439114156E+01  0.00000000000E+00 0.  1.
          2    1    1    2  501    0 -0.48516345937E+02  0.26712814103E+02  0.82394919873E+03  0.82580850828E+03  0.00000000000E+00 0.  1.
          2    1    1    2  502    0  0.48516345937E+02 -0.26712814103E+02  0.12478094716E+04  0.12490379848E+04  0.00000000000E+00 0.  1.
</event>
<event>
 4    1  0.8104768E+003  0.2290895E+02  0.7546771E-02  0.1493645E+00
          2   -1    0    0  501    0  0.00000000000E+00  0.00000000000E+00  0.77938219005E+01  0.77938219005E+01  0.00000000000E+00 0.  1.
          2   -1    0    0  502    0 -0.00000000000E+00 -0.00000000000E+00 -0.25366854216E+03  0.25366854216E+03  0.00000000000E+00 0. -1.
          2    1    1    2  501    0 -0.13934431591E+02  0.18183826484E+02 -0.23498119699E+03  0.23609528345E+03  0.00000000000E+00 0. -1.
          2    1    1    2  502    0  0.13934431591E+02 -0.18183826484E+02 -0.10893523269E+02  0.25367080608E+02  0.00000000000E+00 0.  1.
</event>
<event>
 4    1  0.8104768E+003  0.2047572E+02  0.7546771E-02  0.1526883E+00
          2   -1    0    0  501    0  0.00000000000E+00  0.00000000000E+00  0.63606094796E+02  0.63606094796E+02  0.00000000000E+00 0. -1.
          2   -1    0    0  502    0 -0.00000000000E+00 -0.00000000000E+00 -0.14324460050E+04  0.14324460050E+04  0.00000000000E+00 0.  1.
          2    1    1    2  501    0 -0.11496292961E+02  0.16943746216E+02 -0.14307229912E+04  0.14308695024E+04  0.00000000000E+00 0.  1.
          2    1    1    2  502    0  0.11496292961E+02 -0.16943746216E+02  0.61883081015E+02  0.65182597398E+02  0.00000000000E+00 0. -1.
</event>
<event>
 4    1  0.8104768E+003  0.2005274E+02  0.7546771E-02  0.1533231E+00
          2   -1    0    0  502    0  0.00000000000E+00  0.00000000000E+00  0.10714267540E+02  0.10714267540E+02  0.00000000000E+00 0. -1.
          2   -1    0    0  501    0 -0.00000000000E+00 -0.00000000000E+00 -0.13288429170E+03  0.13288429170E+03  0.00000000000E+00 0. -1.
          2    1    1    2  501    0 -0.11262034962E+02  0.16591528832E+02 -0.26420854854E+00  0.20054477471E+02  0.00000000000E+00 0. -1.
          2    1    1    2  502    0  0.11262034962E+02 -0.16591528832E+02 -0.12190581561E+03  0.12354408177E+03  0.00000000000E+00 0. -1.
</event>
<event>
 4    1  0.8104768E+003  0.2189156E+02  0.7546771E-02  0.1506906E+00
          2   -1    0    0  501    0  0.00000000000E+00  0.00000000000E+00  0.65996654159E+02  0.65996654159E+02  0.00000000000E+00 0. -1.
          2   -1    0    0  502    0 -0.00000000000E+00 -0.00000000000E+00 -0.10941827024E+03  0.10941827024E+03  0.00000000000E+00 0.  1.
          2    1    1    2  501    0  0.82287476172E+01 -0.20286160559E+02 -0.10645794002E+03  0.10868548013E+03  0.00000000000E+00 0.  1.
          2    1    1    2  502    0 -0.82287476172E+01  0.20286160559E+02  0.63036323936E+02  0.66729444273E+02  0.00000000000E+00 0. -1.
</event>
<event>
 4    1  0.8104768E+003  0.2506016E+02  0.7546771E-02  0.1468131E+00
          2   -1    0    0  501    0  0.00000000000E+00  0.00000000000E+00  0.24943060619E+01  0.24943060619E+01  0.00000000000E+00 0.  1.
          2   -1    0    0  502    0 -0.00000000000E+00 -0.00000000000E+00 -0.71476314922E+03  0.71476314922E+03  0.00000000000E+00 0.  1.
          2    1    1    2  501    0  0.71027141483E+00  0.25050096529E+02 -0.64476839504E+03  0.64525521700E+03  0.00000000000E+00 0.  1.
          2    1    1    2  502    0 -0.71027141483E+00 -0.25050096529E+02 -0.67500448114E+02  0.72002238279E+02  0.00000000000E+00 0.  1.
</event>
<event>
 4    1  0.8104768E+003  0.3773124E+02  0.7546771E-02  0.1362319E+00
          2   -1    0    0  501    0  0.00000000000E+00  0.00000000000E+00  0.39042034597E+02  0.39042034597E+02  0.00000000000E+00 0.  1.
          2   -1    0    0  502    0 -0.00000000000E+00 -0.00000000000E+00 -0.40493224173E+02  0.40493224173E+02  0.00000000000E+00 0.  1.
          2    1    1    2  501    0 -0.20190969296E+02  0.31874308942E+02  0.11818066117E+02  0.39538759445E+02  0.00000000000E+00 0.  1.
          2    1    1    2  502    0  0.20190969296E+02 -0.31874308942E+02 -0.13269255694E+02  0.39996499326E+02  0.00000000000E+00 0.  1.
</event>
<event>
 4    1  0.8104768E+003  0.2097154E+02  0.7546771E-02  0.1519672E+00
          2   -1    0    0  501    0  0.00000000000E+00  0.00000000000E+00  0.19632441877E+01  0.19632441877E+01  0.00000000000E+00 0.  1.
          2   -1    0    0  502    0 -0.00000000000E+00 -0.00000000000E+00 -0.44155520008E+03  0.44155520008E+03  0.00000000000E+00 0. -1.
          2    1    1    2  501    0  0.50099470346E+01  0.20364324907E+02 -0.37544783139E+03  0.37603308285E+03  0.00000000000E+00 0. -1.
          2    1    1    2  502    0 -0.50099470346E+01 -0.20364324907E+02 -0.64144124498E+02  0.67485361419E+02  0.00000000000E+00 0.  1.
</event>
<event>
 4    1  0.8104768E+003  0.5638516E+02  0.7546771E-02  0.1272635E+00
          2   -1    0    0  502    0  0.00000000000E+00  0.00000000000E+00  0.14873319660E+03  0.14873319660E+03  0.00000000000E+00 0. -1.
          2   -1    0    0  501    0 -0.00000000000E+00 -0.00000000000E+00 -0.21321794721E+03  0.21321794721E+03  0.00000000000E+00 0.  1.
          2    1    1    2  501    0 -0.98471034213E+00  0.56376565562E+02  0.13942197913E+03  0.15039207114E+03  0.00000000000E+00 0. -1.
          2    1    1    2  502    0  0.98471034213E+00 -0.56376565562E+02 -0.20390672973E+03  0.21155907267E+03  0.00000000000E+00 0.  1.
</event>
<event>
 4    1  0.8104768E+003  0.2059498E+02  0.7546771E-02  0.1525127E+00
          2   -1    0    0  501    0  0.00000000000E+00  0.00000000000E+00  0.83723398554E+01  0.83723398554E+01  0.00000000000E+00 0. -1.
          2   -1    0    0  502    0 -0.00000000000E+00 -0.00000000000E+00 -0.12608730017E+03  0.12608730017E+03  0.00000000000E+00 0. -1.
          2    1    1    2  501    0  0.20578029746E+02 -0.83541348582E+00 -0.11085551746E+03  0.11275237902E+03  0.00000000000E+00 0. -1.
          2    1    1    2  502    0 -0.20578029746E+02  0.83541348582E+00 -0.68594428535E+01  0.21707261002E+02  0.00000000000E+00 0. -1.
</event>
<event>
 4    1  0.8104768E+003  0.2533351E+02  0.7546771E-02  0.1465107E+00
          2   -1    0    0  501    0  0.00000000000E+00  0.00000000000E+00  0.17510493741E+04  0.17510493741E+04  0.00000000000E+00 0. -1.
          2   -1    0    0  502    0 -0.00000000000E+00 -0.00000000000E+00 -0.24740530744E+03  0.24740530744E+03  0.00000000000E+00 0.  1.
          2    1    1    2  501    0 -0.19031677632E+02 -0.16720707193E+02 -0.24666488661E+03  0.24796240257E+03  0.00000000000E+00 0.  1.
          2    1    1    2  502    0  0.19031677632E+02  0.16720707193E+02  0.17503089533E+04  0.17504922790E+04  0.00000000000E+00 0. -1.
</event>
<event>
 4    1  0.8104768E+003  0.2204917E+02  0.7546771E-02  0.1504796E+00
          2   -1    0    0  502    0  0.00000000000E+00  0.00000000000E+00  0.15006248719E+04  0.15006248719E+04  0.00000000000E+00 0.  1.
          2   -1    0    0  501    0 -0.00000000000E+00 -0.00000000000E+00 -0.70300740862E+01  0.70300740862E+01  0.00000000000E+00 0. -1.
          2    1    1    2  501    0 -0.90384838436E+01 -0.20111477321E+02  0.14830502282E+04  0.14832141265E+04  0.00000000000E+00 0.  1.
          2    1    1    2  502    0  0.90384838436E+01  0.20111477321E+02  0.10544569679E+02  0.24440819543E+02  0.00000000000E+00 0. -1.
</event>
<event>
 4    1  0.8104768E+003  0.4608171E+02  0.7546771E-02  0.1316117E+00
          2   -1    0    0  502    0  0.00000000000E+00  0.00000000000E+00  0.92516745626E+03  0.92516745626E+03  0.00000000000E+00 0. -1.
          2   -1    0    0  501    0 -0.00000000000E+00 -0.00000000000E+00 -0.45024785401E+02  0.45024785401E+02  0.00000000000E+00 0.  1.
          2    1    1    2  501    0 -0.46081635483E+02 -0.84784855496E-01  0.91264103960E+03  0.91380369417E+03  0.00000000000E+00 0. -1.
          2    1    1    2  502    0  0.46081635483E+02  0.84784855496E-01 -0.32498368741E+02  0.56388547490E+02  0.00000000000E+00 0.  1.
</event>
<event>
 4    1  0.8104768E+003  0.2246143E+02  0.7546771E-02  0.1499374E+00
          2   -1    0    0  502    0  0.00000000000E+00  0.00000000000E+00  0.94180860953E+03  0.94180860953E+03  0.00000000000E+00 0. -1.
          2   -1    0    0  501    0 -0.00000000000E+00 -0.00000000000E+00 -0.18132957646E+02  0.18132957646E+02  0.00000000000E+00 0.  1.
          2    1    1    2  501    0 -0.22287629059E+02 -0.27887669119E+01  0.93466575568E+03  0.93493560766E+03  0.00000000000E+00 0. -1.
          2    1    1    2  502    0  0.22287629059E+02  0.27887669119E+01 -0.10990103794E+02  0.25005959517E+02  0.00000000000E+00 0.  1.
</event>
<event>
 4    1  0.8104768E+003  0.2410881E+02  0.7546771E-02  0.1479025E+00
          2   -1    0    0  501    0  0.00000000000E+00  0.00000000000E+00  0.73248867678E+03  0.73248867678E+03  0.00000000000E+00 0.  1.
          2   -1    0    0  502    0 -0.00000000000E+00 -0.00000000000E+00 -0.76019676445E+01  0.76019676445E+01  0.00000000000E+00 0.  1.
          2    1    1    2  501    0 -0.15041638703E+02  0.18841016212E+02  0.12243162040E+02  0.27039412041E+02  0.00000000000E+00 0.  1.
          2    1    1    2  502    0  0.15041638703E+02 -0.18841016212E+02  0.71264354709E+03  0.71305123238E+03  0.00000000000E+00 0.  1.
</event>
<event>
 4    1  0.8104768E+003  0.2418268E+02  0.7546771E-02  0.1478158E+00
          2   -1    0    0  501    0  0.00000000000E+00  0.00000000000E+00  0.30835812385E+03  0.30835812385E+03  0.00000000000E+00 0.  1.
          2   -1    0    0  502    0 -0.00000000000E+00 -0.00000000000E+00 -0.26770784533E+02  0.26770784533E+02  0.00000000000E+00 0. -1.
          2    1    1    2  501    0 -0.33963754280E+01  0.23942983970E+02 -0.20726449755E+02  0.31849451594E+02  0.00000000000E+00 0. -1.
          2    1    1    2  502    0  0.33963754280E+01 -0.23942983970E+02  0.30231378907E+03  0.30327945679E+03  0.00000000000E+00 0.  1.
</event>
<event>
 4    1  0.1211782E+004  0.2442151E+02  0.7546771E-02  0.1475380E+00
          2   -1    0    0  501    0  0.00000000000E+00  0.00000000000E+00  0.12677950305E+04  0.12677950305E+04  0.00000000000E+00 0.  1.
          2   -1    0    0  502    0 -0.00000000000E+00 -0.00000000000E+00 -0.51644209186E+03  0.51644209186E+03  0.00000000000E+00 0.  1.
          2    1    1    2  501    0  0.17565540127E+02 -0.16966501136E+02 -0.51603568033E+03  0.51661323418E+03  0.00000000000E+00 0.  1.
          2    1    1    2  502    0 -0.17565540127E+02  0.16966501136E+02  0.12673886190E+04  0.12676238882E+04  0.00000000000E+00 0.  1.
</event>
<event>
 4    1  0.8104768E+003  0.2469822E+02  0.7546771E-02  0.1472208E+00
          2   -1    0    0  502    0  0.00000000000E+00  0.00000000000E+00  0.18688469132E+04  0.18688469132E+04  0.00000000000E+00 0. -1.
          2   -1    0    0  501    0 -0.00000000000E+00 -0.00000000000E+00 -0.14327109871E+01  0.14327109871E+01  0.00000000000E+00 0.  1.
          2    1    1    2  501    0  0.20228858315E+02 -0.14170220897E+02  0.17554477841E+04  0.17556215209E+04  0.00000000000E+00 0. -1.
          2    1    1    2  502    0 -0.20228858315E+02  0.14170220897E+02  0.11196641805E+03  0.11465810324E+03  0.00000000000E+00 0.  1.
</event>
<event>
 4    1  0.8104768E+003  0.2333650E+02  0.7546771E-02  0.1488315E+00
          2   -1    0    0  502    0  0.00000000000E+00  0.00000000000E+00  0.45590969351E+02  0.45590969351E+02  0.00000000000E+00 0.  1.
          2   -1    0    0  501    0 -0.00000000000E+00 -0.00000000000E+00 -0.84428520327E+03  0.84428520327E+03  0.00000000000E+00 0. -1.
          2    1    1    2  501    0  0.61640505254E+01 -0.22507702853E+02  0.42432204122E+02  0.48426068943E+02  0.00000000000E+00 0.  1.
          2    1    1    2  502    0 -0.61640505254E+01  0.22507702853E+02 -0.84112643804E+03  0.84145010368E+03  0.00000000000E+00 0. -1.
</event>
<event>
 4    1  0.8104768E+003  0.2035461E+02  0.7546771E-02  0.1528682E+00
          2   -1    0    0  501    0  0.00000000000E+00  0.00000000000E+00  0.48108517286E+03  0.48108517286E+03  0.00000000000E+00 0. -1.
          2   -1    0    0  502    0 -0.00000000000E+00 -0.00000000000E+00 -0.86152219272E+00  0.86152219272E+00  0.00000000000E+00 0. -1.
          2    1    1    2  501    0  0.16180968873E+02  0.12348530255E+02  0.23544276584E+03  0.23632098075E+03  0.00000000000E+00 0. -1.
          2    1    1    2  502    0 -0.16180968873E+02 -0.12348530255E+02  0.24478088482E+03  0.24562571430E+03  0.00000000000E+00 0. -1.
</event>
<event>
 4    1  0.8104768E+003  0.2105921E+02  0.7546771E-02  0.1518421E+00
          2   -1    0    0  502    0  0.00000000000E+00  0.00000000000E+00  0.12604432138E+01  0.12604432138E+01  0.00000000000E+00 0.  1.
          2   -1    0    0  501    0 -0.00000000000E+00 -0.00000000000E+00 -0.47097910652E+03  0.47097910652E+03  0.00000000000E+00 0.  1.
          2    1    1    2  501    0  0.18266997811E+02  0.10478898898E+02 -0.11610887305E+03  0.11800322424E+03  0.00000000000E+00 0.  1.
          2    1    1    2  502    0 -0.18266997811E+02 -0.10478898898E+02 -0.35360979025E+03  0.35423632549E+03  0.00000000000E+00 0.  1.
</event>
<event>
 4    1  0.8104768E+003  0.2043433E+02  0.7546771E-02  0.1527496E+00
          2   -1    0    0  501    0  0.00000000000E+00  0.00000000000E+00  0.43794502934E+03  0.43794502934E+03  0.00000000000E+00 0. -1.
          2   -1    0    0  502    0 -0.00000000000E+00 -0.00000000000E+00 -0.97765212356E+03  0.97765212356E+03  0.00000000000E+00 0. -1.
          2    1    1    2  501    0 -0.92926957319E+01  0.18199114099E+02 -0.97730689829E+03  0.97752050382E+03  0.00000000000E+00 0. -1.
          2    1    1    2  502    0  0.92926957319E+01 -0.18199114099E+02  0.43759980406E+03  0.43807664908E+03  0.00000000000E+00 0. -1.
</event>
<event>
 4    1  0.8104768E+003  0.2057037E+02  0.7546771E-02  0.1525488E+00
          2   -1    0    0  501    0  0.00000000000E+00  0.00000000000E+00  0.75163901448E+03  0.75163901448E+03  0.00000000000E+00 0.  1.
          2   -1    0    0  502    0 -0.00000000000E+00 -0.00000000000E+00 -0.85565044941E+01  0.85565044941E+01  0.00000000000E+00 0. -1.
          2    1    1    2  501    0  0.50946759859E+01  0.19929482815E+02  0.41600672982E+01  0.20986809396E+02  0.00000000000E+00 0. -1.
          2    1    1    2  502    0 -0.50946759859E+01 -0.19929482815E+02  0.73892244269E+03  0.73920870958E+03  0.00000000000E+00 0.  1.
</event>
<event>
 4    1  0.8104768E+003  0.2153765E+02  0.7546771E-02  0.1511725E+00
          2   -1    0    0  501    0  0.00000000000E+00  0.00000000000E+00  0.75086234123E+01  0.75086234123E+01  0.00000000000E+00 0.  1.
          2   -1    0    0  502    0 -0.00000000000E+00 -0.00000000000E+00 -0.38779299385E+03  0.38779299385E+03  0.00000000000E+00 0.  1.
          2    1    1    2  501    0  0.19457254868E+02  0.92350289601E+01 -0.37136678773E+03  0.37199080843E+03  0.00000000000E+00 0.  1.
          2    1    1    2  502    0 -0.19457254868E+02 -0.92350289601E+01 -0.89175827003E+01  0.23310808826E+02  0.00000000000E+00 0.  1.
</event>
<event>
 4    1  0.8104768E+003  0.2648123E+02  0.7546771E-02  0.1452890E+00
          2   -1    0    0  502    0  0.00000000000E+00  0.00000000000E+00  0.53318109720E+02  0.53318109720E+02  0.00000000000E+00 0.  1.
          2   -1    0    0  501    0 -0.00000000000E+00 -0.00000000000E+00 -0.18406571581E+02  0.18406571581E+02  0.00000000000E+00 0.  1.
          2    1    1    2  501    0 -0.10513566695E+02 -0.24304736881E+02  0.36616355212E+02  0.45188635613E+02  0.00000000000E+00 0.  1.
          2    1    1    2  502    0  0.10513566695E+02  0.24304736881E+02 -0.17048170732E+01  0.26536045688E+02  0.00000000000E+00 0.  1.
</event>
<event>
 4    1  0.8104768E+003  0.2602574E+02  0.7546771E-02  0.1457648E+00
          2   -1    0    0  501    0  0.00000000000E+00  0.00000000000E+00  0.12146457953E+04  0.12146457953E+04  0.00000000000E+00 0.  1.
          2   -1    0    0  502    0 -0.00000000000E+00 -0.00000000000E+00 -0.27096145144E+02  0.27096145144E+02  0.00000000000E+00 0. -1.
          2    1    1    2  501    0  0.35292336085E+01  0.25785334056E+02 -0.20674117801E+02  0.33237901394E+02  0.00000000000E+00 0. -1.
          2    1    1    2  502    0 -0.35292336085E+01 -0.25785334056E+02  0.12082237679E+04  0.12085040390E+04  0.00000000000E+00 0.  1.
</event>
<event>
 4    1  0.8104768E+003  0.2764158E+02  0.7546771E-02  0.1441268E+00
          2   -1    0    0  501    0  0.00000000000E+00  0.00000000000E+00  0.68701698214E+03  0.68701698214E+03  0.00000000000E+00 0. -1.
          2   -1    0    0  502    0 -0.00000000000E+00 -0.00000000000E+00 -0.20969493482E+03  0.20969493482E+03  0.00000000000E+00 0.  1.
          2    1    1    2  501    0 -0.10077834602E+02  0.25738966575E+02 -0.20850440477E+03  0.21032865701E+03  0.00000000000E+00 0.  1.
          2    1    1    2  502    0  0.10077834602E+02 -0.25738966575E+02  0.68582645209E+03  0.68638325995E+03  0.00000000000E+00 0. -1.
</event>
<event>
 4    1  0.8104768E+003  0.7375444E+02  0.7546771E-02  0.1219140E+00
          2   -1    0    0  501    0  0.00000000000E+00  0.00000000000E+00  0.19815567836E+03  0.19815567836E+03  0.00000000000E+00 0.  1.
          2   -1    0    0  502    0 -0.00000000000E+00 -0.00000000000E+00 -0.23415465329E+03  0.23415465329E+03  0.00000000000E+00 0.  1.
          2    1    1    2  501    0 -0.41530965700E+02  0.60949947774E+02 -0.22108901364E+03  0.23306666256E+03  0.00000000000E+00 0.  1.
          2    1    1    2  502    0  0.41530965700E+02 -0.60949947774E+02  0.18509003870E+03  0.19924366909E+03  0.00000000000E+00 0.  1.
</event>
<event>
 4    1  0.8104768E+003  0.4146920E+02  0.7546771E-02  0.1340085E+00
          2   -1    0    0  501    0  0.00000000000E+00  0.00000000000E+00  0.18109212163E+04  0.18109212163E+04  0.00000000000E+00 0. -1.
          2   -1    0    0  502    0 -0.00000000000E+00 -0.00000000000E+00 -0.17535093107E+01  0.17535093107E+01  0.00000000000E+00 0. -1.
          2    1    1    2  501    0  0.39965611895E+02  0.11065447832E+02  0.29091668497E+03  0.29385746862E+03  0.00000000000E+00 0. -1.
          2    1    1    2  502    0 -0.39965611895E+02 -0.11065447832E+02  0.15182510220E+04  0.15188172570E+04  0.00000000000E+00 0. -1.
</event>
<event>
 4    1  0.8104768E+003  0.2601657E+02  0.7546771E-02  0.1457745E+00
          2   -1    0    0  501    0  0.00000000000E+00  0.00000000000E+00  0.84045527006E+02  0.84045527006E+02  0.00000000000E+00 0. -1.
          2   -1    0    0  502    0 -0.00000000000E+00 -0.00000000000E+00 -0.49469905374E+02  0.49469905374E+02  0.00000000000E+00 0.  1.
          2    1    1    2  501    0 -0.16775584464E+02 -0.19885713258E+02 -0.43794725122E+02  0.50939569829E+02  0.00000000000E+00 0.  1.
          2    1    1    2  502    0  0.16775584464E+02  0.19885713258E+02  0.78370346753E+02  0.82575862551E+02  0.00000000000E+00 0. -1.
</event>
<event>
 4    1  0.8104768E+003  0.2110629E+02  0.7546771E-02  0.1517753E+00
          2   -1    0    0  501    0  0.00000000000E+00  0.00000000000E+00  0.16036788264E+02  0.16036788264E+02  0.00000000000E+00 0. -1.
          2   -1    0    0  502    0 -0.00000000000E+00 -0.00000000000E+00 -0.48109202850E+02  0.48109202850E+02  0.00000000000E+00 0. -1.
          2    1    1    2  501    0  0.76650961295E+01 -0.19665244791E+02 -0.36886070957E+02  0.42497738552E+02  0.00000000000E+00 0. -1.
          2    1    1    2  502    0 -0.76650961295E+01  0.19665244791E+02  0.48136563709E+01  0.21648252562E+02  0.00000000000E+00 0. -1.
</event>
<event>
 4    1  0.8104768E+003  0.2185057E+02  0.7546771E-02  0.1507459E+00
          2   -1    0    0  501    0  0.00000000000E+00  0.00000000000E+00  0.23630178864E+01  0.23630178864E+01  0.00000000000E+00 0. -1.
          2   -1    0    0  502    0 -0.00000000000E+00 -0.00000000000E+00 -0.35423423860E+03  0.35423423860E+03  0.00000000000E+00 0. -1.
          2    1    1    2  501    0  0.20614606906E+02  0.72446871719E+01 -0.29280148808E+03  0.29361566534E+03  0.00000000000E+00 0. -1.
          2    1    1    2  502    0 -0.20614606906E+02 -0.72446871719E+01 -0.59069732628E+02  0.62981591142E+02  0.00000000000E+00 0. -1.
</event>
<event>
 4    1  0.8104768E+003  0.3746671E+02  0.7546771E-02  0.1364006E+00
          2   -1    0    0  502    0  0.00000000000E+00  0.00000000000E+00  0.20057329146E+01  0.20057329146E+01  0.00000000000E+00 0. -1.
          2   -1    0    0  501    0 -0.00000000000E+00 -0.00000000000E+00 -0.19192483657E+04  0.19192483657E+04  0.00000000000E+00 0. -1.
          2    1    1    2  501    0 -0.37026475716E+02  0.57266139672E+01 -0.19292190732E+03  0.19652637568E+03  0.00000000000E+00 0. -1.
          2    1    1    2  502    0  0.37026475716E+02 -0.57266139672E+01 -0.17243207254E+04  0.17247277229E+04  0.00000000000E+00 0. -1.
</event>
<event>
 4    1  0.8104768E+003  0.6085645E+02  0.7546771E-02  0.1256950E+00
          2   -1    0    0  501    0  0.00000000000E+00  0.00000000000E+00  0.15927676253E+02  0.15927676253E+02  0.00000000000E+00 0. -1.
          2   -1    0    0  502    0 -0.00000000000E+00 -0.00000000000E+00 -0.82452976587E+03  0.82452976587E+03  0.00000000000E+00 0.  1.
          2    1    1    2  501    0  0.33899944656E+02  0.50540091536E+02 -0.76038049427E+03  0.76281190550E+03  0.00000000000E+00 0.  1.
          2    1    1    2  502    0 -0.33899944656E+02 -0.50540091536E+02 -0.48221595346E+02  0.77645536625E+02  0.00000000000E+00 0. -1.
</event>
<event>
 4    1  0.8104768E+003  0.9878968E+02  0.7546771E-02  0.1165922E+00
          2   -1    0    0  501    0  0.00000000000E+00  0.00000000000E+00  0.34926024785E+02  0.34926024785E+02  0.00000000000E+00 0.  1.
          2   -1    0    0  502    0 -0.00000000000E+00 -0.00000000000E+00 -0.70588781795E+03  0.70588781795E+03  0.00000000000E+00 0.  1.
          2    1    1    2  501    0 -0.27345131408E+01  0.98751823157E+02 -0.62338574812E+03  0.63116494761E+03  0.00000000000E+00 0.  1.
          2    1    1    2  502    0  0.27345131408E+01 -0.98751823157E+02 -0.47576045045E+02  0.10964889512E+03  0.00000000000E+00 0.  1.
</event>
<event>
 4    1  0.8104768E+003  0.3015213E+02  0.7546771E-02  0.1418279E+00
          2   -1    0    0  501    0  0.00000000000E+00  0.00000000000E+00  0.21475754549E+02  0.21475754549E+02  0.00000000000E+00 0. -1.
          2   -1    0    0  502    0 -0.00000000000E+00 -0.00000000000E+00 -0.11704610889E+03  0.11704610889E+03  0.00000000000E+00 0.  1.
          2    1    1    2  501    0  0.42984481189E+01 -0.29844171357E+02 -0.10312092626E+03  0.10743871115E+03  0.00000000000E+00 0.  1.
          2    1    1    2  502    0 -0.42984481189E+01  0.29844171357E+02  0.75505719178E+01  0.31083152294E+02  0.00000000000E+00 0. -1.
</event>
<event>
 4    1  0.8104768E+003  0.2783812E+02  0.7546771E-02  0.1439366E+00
          2   -1    0    0  501    0  0.00000000000E+00  0.00000000000E+00  0.39208628488E+02  0.39208628488E+02  0.00000000000E+00 0. -1.
          2   -1    0    0  502    0 -0.00000000000E+00 -0.00000000000E+00 -0.19666915531E+03  0.19666915531E+03  0.00000000000E+00 0. -1.
          2    1    1    2  501    0  0.63925930175E+01  0.27094197949E+02 -0.19058589720E+03  0.19260826830E+03  0.00000000000E+00 0. -1.
          2    1    1    2  502    0 -0.63925930175E+01 -0.27094197949E+02  0.33125370380E+02  0.43269515491E+02  0.00000000000E+00 0. -1.
</event>
<event>
 4    1  0.8104768E+003  0.4906051E+02  0.7546771E-02  0.1302298E+00
          2   -1    0    0  502    0  0.00000000000E+00  0.00000000000E+00  0.57780599179E+03  0.57780599179E+03  0.00000000000E+00 0. -1.
          2   -1    0    0  501    0 -0.00000000000E+00 -0.00000000000E+00 -0.24059554544E+03  0.24059554544E+03  0.00000000000E+00 0.  1.
          2    1    1    2  501    0 -0.45444879223E+02 -0.18485031747E+02  0.57424809736E+03  0.57634001316E+03  0.00000000000E+00 0. -1.
          2    1    1    2  502    0  0.45444879223E+02  0.18485031747E+02 -0.23703765101E+03  0.24206152408E+03  0.00000000000E+00 0.  1.
</event>
<event>
 4    1  0.8104768E+003  0.7429272E+02  0.7546771E-02  0.1217755E+00
          2   -1    0    0  502    0  0.00000000000E+00  0.00000000000E+00  0.36104079089E+02  0.36104079089E+02  0.00000000000E+00 0. -1.
          2   -1    0    0  501    0 -0.00000000000E+00 -0.00000000000E+00 -0.39019813509E+03  0.39019813509E+03  0.00000000000E+00 0.  1.
          2    1    1    2  501    0 -0.22101999543E+02  0.70928903887E+02 -0.10814840462E+02  0.75075752175E+02  0.00000000000E+00 0. -1.
          2    1    1    2  502    0  0.22101999543E+02 -0.70928903887E+02 -0.34327921554E+03  0.35122646200E+03  0.00000000000E+00 0.  1.
</event>
<event>
 4    1  0.8104768E+003  0.3753485E+02  0.7546771E-02  0.1363570E+00
          2   -1    0    0  501    0  0.00000000000E+00  0.00000000000E+00  0.46247384765E+03  0.46247384765E+03  0.00000000000E+00 0.  1.
          2   -1    0    0  502    0 -0.00000000000E+00 -0.00000000000E+00 -0.22881178585E+04  0.22881178585E+04  0.00000000000E+00 0. -1.
          2    1    1    2  501    0 -0.30071588172E+02 -0.22462511723E+02 -0.22872020292E+04  0.22875099972E+04  0.00000000000E+00 0. -1.
          2    1    1    2  502    0  0.30071588172E+02  0.22462511723E+02  0.46155801836E+03  0.46308170895E+03  0.00000000000E+00 0.  1.
</event>
<event>
 4    1  0.8104768E+003  0.2066054E+02  0.7546771E-02  0.1524167E+00
          2   -1    0    0  502    0  0.00000000000E+00  0.00000000000E+00  0.11475809760E+03  0.11475809760E+03  0.00000000000E+00 0.  1.
          2   -1    0    0  501    0 -0.00000000000E+00 -0.00000000000E+00 -0.79545672277E+03  0.79545672277E+03  0.00000000000E+00 0.  1.
          2    1    1    2  501    0 -0.58827544124E+01 -0.19805333157E+02  0.11369278748E+03  0.11555478331E+03  0.00000000000E+00 0.  1.
          2    1    1    2  502    0  0.58827544124E+01  0.19805333157E+02 -0.79439141264E+03  0.79466003706E+03  0.00000000000E+00 0.  1.
</event>
<event>
 4    1  0.8104768E+003  0.3182218E+02  0.7546771E-02  0.1404396E+00
          2   -1    0    0  501    0  0.00000000000E+00  0.00000000000E+00  0.35955690366E+03  0.35955690366E+03  0.00000000000E+00 0. -1.
          2   -1    0    0  502    0 -0.00000000000E+00 -0.00000000000E+00 -0.27215531539E+03  0.27215531539E+03  0.00000000000E+00 0. -1.
          2    1    1    2  501    0  0.27175975626E+02  0.16556485196E+02 -0.27051675474E+03  0.27238202116E+03  0.00000000000E+00 0. -1.
          2    1    1    2  502    0 -0.27175975626E+02 -0.16556485196E+02  0.35791834301E+03  0.35933019789E+03  0.00000000000E+00 0. -1.
</event>
<event>
 4    1  0.8104768E+003  0.4107435E+02  0.7546771E-02  0.1342303E+00
          2   -1    0    0  501    0  0.00000000000E+00  0.00000000000E+00  0.27372382910E+01  0.27372382910E+01  0.00000000000E+00 0.  1.
          2   -1    0    0  502    0 -0.00000000000E+00 -0.00000000000E+00 -0.79761944245E+03  0.79761944245E+03  0.00000000000E+00 0.  1.
          2    1    1    2  501    0  0.13846570640E+02  0.38670073564E+02 -0.58821357024E+03  0.58964591606E+03  0.00000000000E+00 0.  1.
          2    1    1    2  502    0 -0.13846570640E+02 -0.38670073564E+02 -0.20666863392E+03  0.21071076468E+03  0.00000000000E+00 0.  1.
</event>
<event>
 4    1  0.9604693E+003  0.2660308E+02  0.7546771E-02  0.1451636E+00
          2   -1    0    0  502    0  0.00000000000E+00  0.00000000000E+00  0.12058196977E+04  0.12058196977E+04  0.00000000000E+00 0. -1.
          2   -1    0    0  501    0 -0.00000000000E+00 -0.00000000000E+00 -0.41766989372E+03  0.41766989372E+03  0.00000000000E+00 0. -1.
          2    1    1    2  501    0 -0.24166177394E+02  0.11122945878E+02  0.12052491518E+04  0.12055427168E+04  0.00000000000E+00 0. -1.
          2    1    1    2  502    0  0.24166177394E+02 -0.11122945878E+02 -0.41709934783E+03  0.41794687464E+03  0.00000000000E+00 0. -1.
</event>
<event>
 4    1  0.8104768E+003  0.5543756E+02  0.7546771E-02  0.1276175E+00
          2   -1    0    0  502    0  0.00000000000E+00  0.00000000000E+00  0.24163633650E+02  0.24163633650E+02  0.00000000000E+00 0.  1.
          2   -1    0    0  501    0 -0.00000000000E+00 -0.00000000000E+00 -0.15257869872E+04  0.15257869872E+04  0.00000000000E+00 0. -1.
          2    1    1    2  501    0  0.53037846606E+02 -0.16134114592E+02 -0.88396585269E+01  0.56137887288E+02  0.00000000000E+00 0.  1.
          2    1    1    2  502    0 -0.53037846606E+02  0.16134114592E+02 -0.14927836950E+04  0.14938127336E+04  0.00000000000E+00 0. -1.
</event>
<event>
 4    1  0.8104768E+003  0.2094139E+02  0.7546771E-02  0.1520103E+00
          2   -1    0    0  502    0  0.00000000000E+00  0.00000000000E+00  0.78575769311E+01  0.78575769311E+01  0.00000000000E+00 0. -1.
          2   -1    0    0  501    0 -0.00000000000E+00 -0.00000000000E+00 -0.18027485452E+03  0.18027485452E+03  0.00000000000E+00 0.  1.
          2    1    1    2  501    0 -0.18878842486E+02 -0.90626275946E+01 -0.80481759217E+01  0.22434684045E+02  0.00000000000E+00 0. -1.
          2    1    1    2  502    0  0.18878842486E+02  0.90626275946E+01 -0.16436910167E+03  0.16569774741E+03  0.00000000000E+00 0.  1.
</event>
<event>
 4    1  0.8104768E+003  0.4941975E+02  0.7546771E-02  0.1300708E+00
          2   -1    0    0  502    0  0.00000000000E+00  0.00000000000E+00  0.10649467617E+02  0.10649467617E+02  0.00000000000E+00 0.  1.
          2   -1    0    0  501    0 -0.00000000000E+00 -0.00000000000E+00 -0.12573882156E+04  0.12573882156E+04  0.00000000000E+00 0.  1.
          2    1    1    2  501    0 -0.49403357047E+01 -0.49172192309E+02 -0.50078594560E+02  0.70357494600E+02  0.00000000000E+00 0.  1.
          2    1    1    2  502    0  0.49403357047E+01  0.49172192309E+02 -0.11966601534E+04  0.11976801886E+04  0.00000000000E+00 0.  1.
</event>
<event>
 4    1  0.8104768E+003  0.2865287E+02  0.7546771E-02  0.1431676E+00
          2   -1    0    0  502    0  0.00000000000E+00  0.00000000000E+00  0.28407317708E+03  0.28407317708E+03  0.00000000000E+00 0. -1.
          2   -1    0    0  501    0 -0.00000000000E+00 -0.00000000000E+00 -0.40157347306E+01  0.40157347306E+01  0.00000000000E+00 0. -1.
          2    1    1    2  501    0 -0.28161138134E+02 -0.52855878099E+01  0.21629304767E+03  0.21818265194E+03  0.00000000000E+00 0. -1.
          2    1    1    2  502    0  0.28161138134E+02  0.52855878099E+01  0.63764394676E+02  0.69906259862E+02  0.00000000000E+00 0. -1.
</event>
<event>
 4    1  0.8104768E+003  0.2288072E+02  0.7546771E-02  0.1494001E+00
          2   -1    0    0  502    0  0.00000000000E+00  0.00000000000E+00  0.78591568579E+02  0.78591568579E+02  0.00000000000E+00 0. -1.
          2   -1    0    0  501    0 -0.00000000000E+00 -0.00000000000E+00 -0.10070846339E+02  0.10070846339E+02  0.00000000000E+00 0. -1.
          2    1    1    2  501    0 -0.84170117608E+01  0.21276308817E+02  0.60054468768E+02  0.64265594394E+02  0.00000000000E+00 0. -1.
          2    1    1    2  502    0  0.84170117608E+01 -0.21276308817E+02  0.84662534716E+01  0.24396820524E+02  0.00000000000E+00 0. -1.
</event>
<event>
 4    1  0.8104768E+003  0.8426586E+02  0.7546771E-02  0.1194276E+00
          2   -1    0    0  501    0  0.00000000000E+00  0.00000000000E+00  0.18473130628E+04  0.18473130628E+04  0.00000000000E+00 0.  1.
          2   -1    0    0  502    0 -0.00000000000E+00 -0.00000000000E+00 -0.17532346532E+03  0.17532346532E+03  0.00000000000E+00 0.  1.
          2    1    1    2  501    0 -0.62511722884E+01 -0.84033674167E+02 -0.16417587902E+03  0.18453849138E+03  0.00000000000E+00 0.  1.
          2    1    1    2  502    0  0.62511722884E+01  0.84033674167E+02  0.18361654765E+04  0.18380980368E+04  0.00000000000E+00 0.  1.
</event>
<event>
 4    1  0.8104768E+003  0.1294574E+03  0.7546771E-02  0.1120754E+00
          2   -1    0    0  502    0  0.00000000000E+00  0.00000000000E+00  0.77295924002E+03  0.77295924002E+03  0.00000000000E+00 0. -1.
          2   -1    0    0  501    0 -0.00000000000E+00 -0.00000000000E+00 -0.44129517381E+02  0.44129517381E+02  0.00000000000E+00 0.  1.
          2    1    1    2  501    0 -0.87329107219E+02 -0.95565957077E+02  0.65579488468E+03  0.66845056354E+03  0.00000000000E+00 0. -1.
          2    1    1    2  502    0  0.87329107219E+02  0.95565957077E+02  0.73034837958E+02  0.14863819386E+03  0.00000000000E+00 0.  1.
</event>
<event>
 4    1  0.8104768E+003  0.2015993E+02  0.7546771E-02  0.1531605E+00
          2   -1    0    0  502    0  0.00000000000E+00  0.00000000000E+00  0.15109204104E+02  0.15109204104E+02  0.00000000000E+00 0.  1.
          2   -1    0    0  501    0 -0.00000000000E+00 -0.00000000000E+00 -0.12511330700E+04  0.12511330700E+04  0.00000000000E+00 0. -1.
          2    1    1    2  501    0 -0.16980704790E+02  0.10866395505E+02  0.82662562008E+01  0.21788847560E+02  0.00000000000E+00 0.  1.
          2    1    1    2  502    0  0.16980704790E+02 -0.10866395505E+02 -0.12442901221E+04  0.12444534265E+04  0.00000000000E+00 0. -1.
</event>
<event>
 4    1  0.8104768E+003  0.2087764E+02  0.7546771E-02  0.1521019E+00
          2   -1    0    0  501    0  0.00000000000E+00  0.00000000000E+00  0.21053200838E+02  0.21053200838E+02  0.00000000000E+00 0.  1.
          2   -1    0    0  502    0 -0.00000000000E+00 -0.00000000000E+00 -0.43558284305E+03  0.43558284305E+03  0.00000000000E+00 0.  1.
          2    1    1    2  501    0  0.17975587307E+02  0.10618567915E+02 -0.43009073536E+03  0.43059716251E+03  0.00000000000E+00 0.  1.
          2    1    1    2  502    0 -0.17975587307E+02 -0.10618567915E+02  0.15561093143E+02  0.26038881378E+02  0.00000000000E+00 0.  1.
</event>
<event>
 4    1  0.8104768E+003  0.2203229E+02  0.7546771E-02  0.1505021E+00
          2   -1    0    0  502    0  0.00000000000E+00  0.00000000000E+00  0.88474593279E+03  0.88474593279E+03  0.00000000000E+00 0.  1.
          2   -1    0    0  501    0 -0.00000000000E+00 -0.00000000000E+00 -0.45967595391E+01  0.45967595391E+01  0.00000000000E+00 0.  1.
          2    1    1    2  501    0  0.16107627640E+02  0.15032176001E+02  0.85736557745E+03  0.85764862000E+03  0.00000000000E+00 0.  1.
          2    1    1    2  502    0 -0.16107627640E+02 -0.15032176001E+02  0.22783595804E+02  0.31694072337E+02  0.00000000000E+00 0.  1.
</event>
<event>
 4    1  0.8104768E+003  0.2616578E+02  0.7546771E-02  0.1456173E+00
          2   -1    0    0  501    0  0.00000000000E+00  0.00000000000E+00  0.25565209888E+03  0.25565209888E+03  0.00000000000E+00 0. -1.
          2   -1    0    0  502    0 -0.00000000000E+00 -0.00000000000E+00 -0.17079953548E+03  0.17079953548E+03  0.00000000000E+00 0.  1.
          2    1    1    2  501    0  0.79692842625E+00 -0.26153643338E+02 -0.16912129706E+03  0.17113346041E+03  0.00000000000E+00 0.  1.
          2    1    1    2  502    0 -0.79692842625E+00  0.26153643338E+02  0.25397386046E+03  0.25531817395E+03  0.00000000000E+00 0. -1.
</event>
<event>
 4    1  0.8104768E+003  0.3425694E+02  0.7546771E-02  0.1385864E+00
          2   -1    0    0  502    0  0.00000000000E+00  0.00000000000E+00  0.50604848213E+01  0.50604848213E+01  0.00000000000E+00 0. -1.
          2   -1    0    0  501    0 -0.00000000000E+00 -0.00000000000E+00 -0.14413489373E+04  0.14413489373E+04  0.00000000000E+00 0. -1.
          2    1    1    2  501    0 -0.20699989928E+02  0.27295571044E+02 -0.55668383499E+02  0.65364414654E+02  0.00000000000E+00 0. -1.
          2    1    1    2  502    0  0.20699989928E+02 -0.27295571044E+02 -0.13806200690E+04  0.13810450075E+04  0.00000000000E+00 0. -1.
</event>
<event>
 4    1  0.8104768E+003  0.4271338E+02  0.7546771E-02  0.1333279E+00
          2   -1    0    0  501    0  0.00000000000E+00  0.00000000000E+00  0.50052954478E+03  0.50052954478E+03  0.00000000000E+00 0. -1.
          2   -1    0    0  502    0 -0.00000000000E+00 -0.00000000000E+00 -0.60758280085E+01  0.60758280085E+01  0.00000000000E+00 0.  1.
          2    1    1    2  501    0 -0.42687205971E+02 -0.14951815120E+01  0.87007992681E+02  0.96926899836E+02  0.00000000000E+00 0.  1.
          2    1    1    2  502    0  0.42687205971E+02  0.14951815120E+01  0.40744572409E+03  0.40967847296E+03  0.00000000000E+00 0. -1.
</event>
<event>
 4    1  0.8104768E+003  0.2332036E+02  0.7546771E-02  0.1488514E+00
          2   -1    0    0  501    0  0.00000000000E+00  0.00000000000E+00  0.19117865780E+02  0.19117865780E+02  0.00000000000E+00 0. -1.
          2   -1    0    0  502    0 -0.00000000000E+00 -0.00000000000E+00 -0.47309042085E+03  0.47309042085E+03  0.00000000000E+00 0.  1.
          2    1    1    2  501    0  0.21251917504E+02 -0.96018384333E+01 -0.46557667068E+03  0.46616035393E+03  0.00000000000E+00 0.  1.
          2    1    1    2  502    0 -0.21251917504E+02  0.96018384333E+01  0.11604115607E+02  0.26047932699E+02  0.00000000000E+00 0. -1.
</event>
<event>
 4    1  0.8104768E+003  0.2435612E+02  0.7546771E-02  0.1476137E+00
          2   -1    0    0  501    0  0.00000000000E+00  0.00000000000E+00  0.31383997590E+00  0.31383997590E+00  0.00000000000E+00 0. -1.
          2   -1    0    0  502    0 -0.00000000000E+00 -0.00000000000E+00 -0.19246129831E+04  0.19246129831E+04  0.00000000000E+00 0. -1.
          2    1    1    2  501    0  0.41358475975E+01 -0.24002404757E+02 -0.10908460625E+04  0.10911179372E+04  0.00000000000E+00 0. -1.
          2    1    1    2  502    0 -0.41358475975E+01  0.24002404757E+02 -0.83345308054E+03  0.83380888586E+03  0.00000000000E+00 0. -1.
</event>
<event>
 4    1  0.8104768E+003  0.2408976E+02  0.7546771E-02  0.1479249E+00
          2   -1    0    0  501    0  0.00000000000E+00  0.00000000000E+00  0.77756094760E+02  0.77756094760E+02  0.00000000000E+00 0.  1.
          2   -1    0    0  502    0 -0.00000000000E+00 -0.00000000000E+00 -0.13028591239E+03  0.13028591239E+03  0.00000000000E+00 0.  1.
          2    1    1    2  501    0  0.24073452872E+02  0.88614578946E+00 -0.12726261041E+03  0.12952254011E+03  0.00000000000E+00 0.  1.
          2    1    1    2  502    0 -0.24073452872E+02 -0.88614578946E+00  0.74732792782E+02  0.78519467042E+02  0.00000000000E+00 0.  1.
</event>
<event>
 4    1  0.8104768E+003  0.2543661E+02  0.7546771E-02  0.1463978E+00
          2   -1    0    0  501    0  0.00000000000E+00  0.00000000000E+00  0.60912598618E+03  0.60912598618E+03  0.00000000000E+00 0. -1.
          2   -1    0    0  502    0 -0.00000000000E+00 -0.00000000000E+00 -0.14900515091E+01  0.14900515091E+01  0.00000000000E+00 0.  1.
          2    1    1    2  501    0  0.34237051745E+01  0.25205142009E+02  0.14021996111E+03  0.14250845040E+03  0.00000000000E+00 0.  1.
          2    1    1    2  502    0 -0.34237051745E+01 -0.25205142009E+02  0.46741597356E+03  0.46810758729E+03  0.00000000000E+00 0. -1.
</event>
<event>
 4    1  0.8104768E+003  0.2385131E+02  0.7546771E-02  0.1482076E+00
          2   -1    0    0  501    0  0.00000000000E+00  0.00000000000E+00  0.11054990635E+04  0.11054990635E+04  0.00000000000E+00 0.  1.
          2   -1    0    0  502    0 -0.00000000000E+00 -0.00000000000E+00 -0.60710219332E+00  0.60710219332E+00  0.00000000000E+00 0. -1.
          2    1    1    2  501    0 -0.13023507428E+02 -0.19981820082E+02  0.33656100532E+03  0.33740509063E+03  0.00000000000E+00 0. -1.
          2    1    1    2  502    0  0.13023507428E+02  0.19981820082E+02  0.76833095602E+03  0.76870107510E+03  0.00000000000E+00 0.  1.
</event>
<event>
 4    1  0.8104768E+003  0.2193183E+02  0.7546771E-02  0.1506365E+00
          2   -1    0    0  501    0  0.00000000000E+00  0.00000000000E+00  0.51000802693E+03  0.51000802693E+03  0.00000000000E+00 0. -1.
          2   -1    0    0  502    0 -0.00000000000E+00 -0.00000000000E+00 -0.14893553508E+03  0.14893553508E+03  0.00000000000E+00 0. -1.
          2    1    1    2  501    0 -0.21303448108E+02 -0.52123377109E+01 -0.14789068979E+03  0.14950806498E+03  0.00000000000E+00 0. -1.
          2    1    1    2  502    0  0.21303448108E+02  0.52123377109E+01  0.50896318164E+03  0.50943549703E+03  0.00000000000E+00 0. -1.
</event>
<event>
 4    1  0.9221677E+003  0.2598674E+02  0.7546771E-02  0.1458061E+00
          2   -1    0    0  501    0  0.00000000000E+00  0.00000000000E+00  0.36669233343E+03  0.36669233343E+03  0.00000000000E+00 0.  1.
          2   -1    0    0  502    0 -0.00000000000E+00 -0.00000000000E+00 -0.10677392009E+04  0.10677392009E+04  0.00000000000E+00 0. -1.
          2    1    1    2  501    0 -0.24204646280E+02  0.94575763893E+01 -0.10671204102E+04  0.10674367805E+04  0.00000000000E+00 0. -1.
          2    1    1    2  502    0  0.24204646280E+02 -0.94575763893E+01  0.36607354269E+03  0.36699475380E+03  0.00000000000E+00 0.  1.
</event>
<event>
 4    1  0.8104768E+003  0.4733667E+02  0.7546771E-02  0.1310152E+00
          2   -1    0    0  501    0  0.00000000000E+00  0.00000000000E+00  0.11018444633E+02  0.11018444633E+02  0.00000000000E+00 0. -1.
          2   -1    0    0  502    0 -0.00000000000E+00 -0.00000000000E+00 -0.10017582359E+04  0.10017582359E+04  0.00000000000E+00 0.  1.
          2    1    1    2  501    0 -0.24225994686E+02 -0.40667690387E+02 -0.94744523023E+03  0.94862702057E+03  0.00000000000E+00 0.  1.
          2    1    1    2  502    0  0.24225994686E+02  0.40667690387E+02 -0.43294561070E+02  0.64149660001E+02  0.00000000000E+00 0. -1.
</event>
<event>
 4    1  0.8104768E+003  0.2231473E+02  0.7546771E-02  0.1501287E+00
          2   -1    0    0  501    0  0.00000000000E+00  0.00000000000E+00  0.10461244770E+04  0.10461244770E+04  0.00000000000E+00 0. -1.
          2   -1    0    0  502    0 -0.00000000000E+00 -0.00000000000E+00 -0.33628529846E+03  0.33628529846E+03  0.00000000000E+00 0.  1.
          2    1    1    2  501    0 -0.99242205344E+01  0.19986420891E+02 -0.33579594508E+03  0.33653657142E+03  0.00000000000E+00 0.  1.
          2    1    1    2  502    0  0.99242205344E+01 -0.19986420891E+02  0.10456351236E+04  0.10458732040E+04  0.00000000000E+00 0. -1.
</event>
<event>
 4    1  0.8104768E+003  0.3327323E+02  0.7546771E-02  0.1393127E+00
          2   -1    0    0  502    0  0.00000000000E+00  0.00000000000E+00  0.22706868168E+04  0.22706868168E+04  0.00000000000E+00 0.  1.
          2   -1    0    0  501    0 -0.00000000000E+00 -0.00000000000E+00 -0.42543214655E+01  0.42543214655E+01  0.00000000000E+00 0. -1.
          2    1    1    2  501    0 -0.21757674171E+02  0.25173628846E+02  0.22035242539E+04  0.22037754526E+04  0.00000000000E+00 0.  1.
          2    1    1    2  502    0  0.21757674171E+02 -0.25173628846E+02  0.62908241393E+02  0.71165685620E+02  0.00000000000E+00 0. -1.
</event>
<event>
 4    1  0.8104768E+003  0.5548125E+02  0.7546771E-02  0.1276010E+00
          2   -1    0    0  502    0  0.00000000000E+00  0.00000000000E+00  0.30155837078E+01  0.30155837078E+01  0.00000000000E+00 0. -1.
          2   -1    0    0  501    0 -0.00000000000E+00 -0.00000000000E+00 -0.17917983973E+04  0.17917983973E+04  0.00000000000E+00 0. -1.
          2    1    1    2  501    0 -0.13505279088E+02 -0.53812422393E+02 -0.30570426869E+03  0.31069803550E+03  0.00000000000E+00 0. -1.
          2    1    1    2  502    0  0.13505279088E+02  0.53812422393E+02 -0.14830785449E+04  0.14841159455E+04  0.00000000000E+00 0. -1.
</event>
<event>
 4    1  0.8104768E+003  0.2401986E+02  0.7546771E-02  0.1480074E+00
          2   -1    0    0  501    0  0.00000000000E+00  0.00000000000E+00  0.16678607323E+02  0.16678607323E+02  0.00000000000E+00 0.  1.
          2   -1    0    0  502    0 -0.00000000000E+00 -0.00000000000E+00 -0.84243247712E+02  0.84243247712E+02  0.00000000000E+00 0.  1.
          2    1    1    2  501    0 -0.18636495504E+02 -0.15153703175E+02 -0.72521537993E+02  0.76395858248E+02  0.00000000000E+00 0.  1.
          2    1    1    2  502    0  0.18636495504E+02  0.15153703175E+02  0.49568976040E+01  0.24525996787E+02  0.00000000000E+00 0.  1.
</event>
<event>
 4    1  0.8104768E+003  0.2304137E+02  0.7546771E-02  0.1491979E+00
          2   -1    0    0  501    0  0.00000000000E+00  0.00000000000E+00  0.47105209231E+01  0.47105209231E+01  0.00000000000E+00 0. -1.
          2   -1    0    0  502    0 -0.00000000000E+00 -0.00000000000E+00 -0.85931716773E+03  0.85931716773E+03  0.00000000000E+00 0.  1.
          2    1    1    2  501    0  0.66455238078E+01  0.22062224351E+02 -0.82999079151E+03  0.83031055559E+03  0.00000000000E+00 0.  1.
          2    1    1    2  502    0 -0.66455238078E+01 -0.22062224351E+02 -0.24615855291E+02  0.33717133059E+02  0.00000000000E+00 0. -1.
</event>
<event>
 4    1  0.8104768E+003  0.2107982E+02  0.7546771E-02  0.1518128E+00
          2   -1    0    0  501    0  0.00000000000E+00  0.00000000000E+00  0.23445862053E+02  0.23445862053E+02  0.00000000000E+00 0.  1.
          2   -1    0    0  502    0 -0.00000000000E+00 -0.00000000000E+00 -0.47240024054E+03  0.47240024054E+03  0.00000000000E+00 0. -1.
          2    1    1    2  501    0 -0.18836332790E+02 -0.94631621571E+01 -0.46737603467E+03  0.46785116934E+03  0.00000000000E+00 0. -1.
          2    1    1    2  502    0  0.18836332790E+02  0.94631621571E+01  0.18421656186E+02  0.27994933249E+02  0.00000000000E+00 0.  1.
</event>
<event>
 4    1  0.8104768E+003  0.2478756E+02  0.7546771E-02  0.1471194E+00
          2   -1    0    0  501    0  0.00000000000E+00  0.00000000000E+00  0.11696012892E+03  0.11696012892E+03  0.00000000000E+00 0. -1.
          2   -1    0    0  502    0 -0.00000000000E+00 -0.00000000000E+00 -0.90353041972E+02  0.90353041972E+02  0.00000000000E+00 0. -1.
          2    1    1    2  501    0  0.24781549166E+02 -0.54600586269E+00 -0.87294539283E+02  0.90745577799E+02  0.00000000000E+00 0. -1.
          2    1    1    2  502    0 -0.24781549166E+02  0.54600586269E+00  0.11390162623E+03  0.11656759309E+03  0.00000000000E+00 0. -1.
</event>
<event>
 4    1  0.8104768E+003  0.2433330E+02  0.7546771E-02  0.1476402E+00
          2   -1    0    0  501    0  0.00000000000E+00  0.00000000000E+00  0.97133186153E+00  0.97133186153E+00  0.00000000000E+00 0.  1.
          2   -1    0    0  502    0 -0.00000000000E+00 -0.00000000000E+00 -0.11123790476E+04  0.11123790476E+04  0.00000000000E+00 0. -1.
          2    1    1    2  501    0 -0.20774920851E+02  0.12669344500E+02 -0.92996126036E+03  0.93027955766E+03  0.00000000000E+00 0. -1.
          2    1    1    2  502    0  0.20774920851E+02 -0.12669344500E+02 -0.18144645541E+03  0.18307082183E+03  0.00000000000E+00 0.  1.
</event>
<event>
 4    1  0.8104768E+003  0.4300397E+02  0.7546771E-02  0.1331728E+00
          2   -1    0    0  502    0  0.00000000000E+00  0.00000000000E+00  0.16081027258E+03  0.16081027258E+03  0.00000000000E+00 0. -1.
          2   -1    0    0  501    0 -0.00000000000E+00 -0.00000000000E+00 -0.35169712443E+03  0.35169712443E+03  0.00000000000E+00 0. -1.
          2    1    1    2  501    0 -0.92548617982E+01  0.41996301176E+02  0.15658583095E+03  0.16238369448E+03  0.00000000000E+00 0. -1.
          2    1    1    2  502    0  0.92548617982E+01 -0.41996301176E+02 -0.34747268280E+03  0.35012370253E+03  0.00000000000E+00 0. -1.
</event>
<event>
 4    1  0.8104768E+003  0.2213447E+02  0.7546771E-02  0.1503662E+00
          2   -1    0    0  501    0  0.00000000000E+00  0.00000000000E+00  0.33891508640E+01  0.33891508640E+01  0.00000000000E+00 0. -1.
          2   -1    0    0  502    0 -0.00000000000E+00 -0.00000000000E+00 -0.63637511327E+03  0.63637511327E+03  0.00000000000E+00 0. -1.
          2    1    1    2  501    0  0.21829682534E+02  0.36605621313E+01 -0.59770536377E+03  0.59811506973E+03  0.00000000000E+00 0. -1.
          2    1    1    2  502    0 -0.21829682534E+02 -0.36605621313E+01 -0.35280598633E+02  0.41649194405E+02  0.00000000000E+00 0. -1.
</event>
<event>
 4    1  0.8104768E+003  0.3208504E+02  0.7546771E-02  0.1402303E+00
          2   -1    0    0  501    0  0.00000000000E+00  0.00000000000E+00  0.17900633697E+04  0.17900633697E+04  0.00000000000E+00 0. -1.
          2   -1    0    0  502    0 -0.00000000000E+00 -0.00000000000E+00 -0.15044788697E+02  0.15044788697E+02  0.00000000000E+00 0.  1.
          2    1    1    2  501    0 -0.14383389716E+02  0.28680442615E+02  0.23734769773E+01  0.32172707086E+02  0.00000000000E+00 0.  1.
          2    1    1    2  502    0  0.14383389716E+02 -0.28680442615E+02  0.17726451041E+04  0.17729354514E+04  0.00000000000E+00 0. -1.
</event>
<event>
 4    1  0.8104768E+003  0.2347222E+02  0.7546771E-02  0.1486652E+00
          2   -1    0    0  501    0  0.00000000000E+00  0.00000000000E+00  0.21254057804E+03  0.21254057804E+03  0.00000000000E+00 0.  1.
          2   -1    0    0  502    0 -0.00000000000E+00 -0.00000000000E+00 -0.29762070539E+02  0.29762070539E+02  0.00000000000E+00 0.  1.
          2    1    1    2  501    0  0.22414682985E+02  0.69661346110E+01 -0.24365938006E+02  0.33832587540E+02  0.00000000000E+00 0.  1.
          2    1    1    2  502    0 -0.22414682985E+02 -0.69661346110E+01  0.20714444551E+03  0.20847006104E+03  0.00000000000E+00 0.  1.
</event>
<event>
 4    1  0.8104768E+003  0.2388917E+02  0.7546771E-02  0.1481625E+00
          2   -1    0    0  501    0  0.00000000000E+00  0.00000000000E+00  0.28171332546E+01  0.28171332546E+01  0.00000000000E+00 0.  1.
          2   -1    0    0  502    0 -0.00000000000E+00 -0.00000000000E+00 -0.14770817993E+04  0.14770817993E+04  0.00000000000E+00 0.  1.
          2    1    1    2  501    0  0.23099833959E+02 -0.60901513159E+01 -0.14244700413E+04  0.14246703446E+04  0.00000000000E+00 0.  1.
          2    1    1    2  502    0 -0.23099833959E+02  0.60901513159E+01 -0.49794624749E+02  0.55228587941E+02  0.00000000000E+00 0.  1.
</event>
<event>
 4    1  0.8104768E+003  0.2046688E+02  0.7546771E-02  0.1527014E+00
          2   -1    0    0  501    0  0.00000000000E+00  0.00000000000E+00  0.43776979627E+03  0.43776979627E+03  0.00000000000E+00 0.  1.
          2   -1    0    0  502    0 -0.00000000000E+00 -0.00000000000E+00 -0.13224369713E+01  0.13224369713E+01  0.00000000000E+00 0. -1.
          2    1    1    2  501    0  0.16168193216E+02  0.12549217582E+02  0.10279451000E+03  0.10481223507E+03  0.00000000000E+00 0. -1.
          2    1    1    2  502    0 -0.16168193216E+02 -0.12549217582E+02  0.33365284930E+03  0.33427999817E+03  0.00000000000E+00 0.  1.
</event>
<event>
 4    1  0.8104768E+003  0.2005954E+02  0.7546771E-02  0.1533127E+00
          2   -1    0    0  502    0  0.00000000000E+00  0.00000000000E+00  0.35742437968E+02  0.35742437968E+02  0.00000000000E+00 0. -1.
          2   -1    0    0  501    0 -0.00000000000E+00 -0.00000000000E+00 -0.23586261771E+03  0.23586261771E+03  0.00000000000E+00 0. -1.
          2    1    1    2  501    0  0.99751406460E+01  0.17403497972E+02  0.32461831443E+02  0.38159607875E+02  0.00000000000E+00 0. -1.
          2    1    1    2  502    0 -0.99751406460E+01 -0.17403497972E+02 -0.23258201118E+03  0.23344544780E+03  0.00000000000E+00 0. -1.
</event>
<event>
 4    1  0.8104768E+003  0.2093865E+02  0.7546771E-02  0.1520143E+00
          2   -1    0    0  501    0  0.00000000000E+00  0.00000000000E+00  0.54505147346E+01  0.54505147346E+01  0.00000000000E+00 0.  1.
          2   -1    0    0  502    0 -0.00000000000E+00 -0.00000000000E+00 -0.71724517518E+03  0.71724517518E+03  0.00000000000E+00 0. -1.
          2    1    1    2  501    0  0.72796450107E+01  0.19632465977E+02 -0.69638055723E+03  0.69669527588E+03  0.00000000000E+00 0. -1.
          2    1    1    2  502    0 -0.72796450107E+01 -0.19632465977E+02 -0.15414103216E+02  0.26000414031E+02  0.00000000000E+00 0.  1.
</event>
<event>
 4    1  0.8104768E+003  0.2004541E+02  0.7546771E-02  0.1533343E+00
          2   -1    0    0  501    0  0.00000000000E+00  0.00000000000E+00  0.12365722855E+04  0.12365722855E+04  0.00000000000E+00 0.  1.
          2   -1    0    0  502    0 -0.00000000000E+00 -0.00000000000E+00 -0.35365267675E+01  0.35365267675E+01  0.00000000000E+00 0.  1.
          2    1    1    2  501    0  0.19959117620E+02  0.18580281696E+01  0.25635854242E+02  0.32542520916E+02  0.00000000000E+00 0.  1.
          2    1    1    2  502    0 -0.19959117620E+02 -0.18580281696E+01  0.12073999045E+04  0.12075662914E+04  0.00000000000E+00 0.  1.
</event>
<event>
 4    1  0.8104768E+003  0.2542081E+02  0.7546771E-02  0.1464150E+00
          2   -1    0    0  502    0  0.00000000000E+00  0.00000000000E+00  0.18513819806E+01  0.18513819806E+01  0.00000000000E+00 0.  1.
          2   -1    0    0  501    0 -0.00000000000E+00 -0.00000000000E+00 -0.49244121170E+03  0.49244121170E+03  0.00000000000E+00 0.  1.
          2    1    1    2  501    0  0.48221152075E+01 -0.24959260160E+02 -0.11192918488E+03  0.11477961444E+03  0.00000000000E+00 0.  1.
          2    1    1    2  502    0 -0.48221152075E+01  0.24959260160E+02 -0.37866064484E+03  0.37951297925E+03  0.00000000000E+00 0.  1.
</event>
<event>
 4    1  0.8104768E+003  0.2027307E+02  0.7546771E-02  0.1529902E+00
          2   -1    0    0  501    0  0.00000000000E+00  0.00000000000E+00  0.12431606477E+04  0.12431606477E+04  0.00000000000E+00 0.  1.
          2   -1    0    0  502    0 -0.00000000000E+00 -0.00000000000E+00 -0.30357998815E+01  0.30357998815E+01  0.00000000000E+00 0. -1.
          2    1    1    2  501    0  0.14523415557E+02  0.14144528333E+02  0.31870465365E+02  0.37771998144E+02  0.00000000000E+00 0. -1.
          2    1    1    2  502    0 -0.14523415557E+02 -0.14144528333E+02  0.12082543824E+04  0.12084244494E+04  0.00000000000E+00 0.  1.
</event>
<event>
 4    1  0.8104768E+003  0.2060477E+02  0.7546771E-02  0.1524983E+00
          2   -1    0    0  501    0  0.00000000000E+00  0.00000000000E+00  0.13556623094E+03  0.13556623094E+03  0.00000000000E+00 0. -1.
          2   -1    0    0  502    0 -0.00000000000E+00 -0.00000000000E+00 -0.73337015589E+01  0.73337015589E+01  0.00000000000E+00 0. -1.
          2    1    1    2  501    0 -0.14180241003E+02 -0.14949152975E+02  0.10032473528E+02  0.22917393714E+02  0.00000000000E+00 0. -1.
          2    1    1    2  502    0  0.14180241003E+02  0.14949152975E+02  0.11820005586E+03  0.11998253879E+03  0.00000000000E+00 0. -1.
</event>
<event>
 4    1  0.8104768E+003  0.2328106E+02  0.7546771E-02  0.1488999E+00
          2   -1    0    0  501    0  0.00000000000E+00  0.00000000000E+00  0.80219853720E+03  0.80219853720E+03  0.00000000000E+00 0.  1.
          2   -1    0    0  502    0 -0.00000000000E+00 -0.00000000000E+00 -0.91022232785E+02  0.91022232785E+02  0.00000000000E+00 0. -1.
          2    1    1    2  501    0 -0.10166677994E+02  0.20943885330E+02 -0.89361563720E+02  0.92344446203E+02  0.00000000000E+00 0. -1.
          2    1    1    2  502    0  0.10166677994E+02 -0.20943885330E+02  0.80053786813E+03  0.80087632378E+03  0.00000000000E+00 0.  1.
</event>
<event>
 4    1  0.8104768E+003  0.2015119E+02  0.7546771E-02  0.1531737E+00
          2   -1    0    0  502    0  0.00000000000E+00  0.00000000000E+00  0.56261967095E+01  0.56261967095E+01  0.00000000000E+00 0.  1.
          2   -1    0    0  501    0 -0.00000000000E+00 -0.00000000000E+00 -0.59807010646E+03  0.59807010646E+03  0.00000000000E+00 0.  1.
          2    1    1    2  501    0  0.20014810431E+02  0.23405040652E+01 -0.13172678491E+02  0.24074676622E+02  0.00000000000E+00 0.  1.
          2    1    1    2  502    0 -0.20014810431E+02 -0.23405040652E+01 -0.57927123126E+03  0.57962162655E+03  0.00000000000E+00 0.  1.
</event>
<event>
 4    1  0.8104768E+003  0.3650729E+02  0.7546771E-02  0.1370265E+00
          2   -1    0    0  502    0  0.00000000000E+00  0.00000000000E+00  0.21865383862E+03  0.21865383862E+03  0.00000000000E+00 0.  1.
          2   -1    0    0  501    0 -0.00000000000E+00 -0.00000000000E+00 -0.11497437600E+04  0.11497437600E+04  0.00000000000E+00 0. -1.
          2    1    1    2  501    0  0.14100542928E+02  0.33674279887E+02  0.21683777876E+03  0.21988952848E+03  0.00000000000E+00 0.  1.
          2    1    1    2  502    0 -0.14100542928E+02 -0.33674279887E+02 -0.11479277001E+04  0.11485080701E+04  0.00000000000E+00 0. -1.
</event>
<event>
 4    1  0.8104768E+003  0.3554961E+02  0.7546771E-02  0.1376740E+00
          2   -1    0    0  501    0  0.00000000000E+00  0.00000000000E+00  0.43051918709E+03  0.43051918709E+03  0.00000000000E+00 0. -1.
          2   -1    0    0  502    0 -0.00000000000E+00 -0.00000000000E+00 -0.56498609640E+01  0.56498609640E+01  0.00000000000E+00 0. -1.
          2    1    1    2  501    0 -0.27209320183E+02  0.22878547612E+02  0.61272751711E+02  0.70838726329E+02  0.00000000000E+00 0. -1.
          2    1    1    2  502    0  0.27209320183E+02 -0.22878547612E+02  0.36359657442E+03  0.36533032173E+03  0.00000000000E+00 0. -1.
</event>
<event>
 4    1  0.8104768E+003  0.2472005E+02  0.7546771E-02  0.1471960E+00
          2   -1    0    0  501    0  0.00000000000E+00  0.00000000000E+00  0.11620170564E+04  0.11620170564E+04  0.00000000000E+00 0. -1.
          2   -1    0    0  502    0 -0.00000000000E+00 -0.00000000000E+00 -0.21460038738E+03  0.21460038738E+03  0.00000000000E+00 0.  1.
          2    1    1    2  501    0  0.25369552880E+01 -0.24589527057E+02 -0.21375651777E+03  0.21518115595E+03  0.00000000000E+00 0.  1.
          2    1    1    2  502    0 -0.25369552880E+01  0.24589527057E+02  0.11611731868E+04  0.11614362879E+04  0.00000000000E+00 0. -1.
</event>
<event>
 4    1  0.8104768E+003  0.5246524E+02  0.7546771E-02  0.1287824E+00
          2   -1    0    0  502    0  0.00000000000E+00  0.00000000000E+00  0.62874173073E+03  0.62874173073E+03  0.00000000000E+00 0.  1.
          2   -1    0    0  501    0 -0.00000000000E+00 -0.00000000000E+00 -0.46147081247E+02  0.46147081247E+02  0.00000000000E+00 0.  1.
          2    1    1    2  501    0  0.48033821390E+02 -0.21103386673E+02  0.61233634890E+03  0.61457986064E+03  0.00000000000E+00 0.  1.
          2    1    1    2  502    0 -0.48033821390E+02  0.21103386673E+02 -0.29741699418E+02  0.60308951331E+02  0.00000000000E+00 0.  1.
</event>
<event>
 4    1  0.8104768E+003  0.2203555E+02  0.7546771E-02  0.1504977E+00
          2   -1    0    0  502    0  0.00000000000E+00  0.00000000000E+00  0.13740275791E+04  0.13740275791E+04  0.00000000000E+00 0.  1.
          2   -1    0    0  501    0 -0.00000000000E+00 -0.00000000000E+00 -0.20969358335E+02  0.20969358335E+02  0.00000000000E+00 0. -1.
          2    1    1    2  501    0 -0.19819307841E+02  0.96312326579E+01  0.13681252692E+04  0.13683027142E+04  0.00000000000E+00 0.  1.
          2    1    1    2  502    0  0.19819307841E+02 -0.96312326579E+01 -0.15067048399E+02  0.26694223219E+02  0.00000000000E+00 0. -1.
</event>
<event>
 4    1  0.8104768E+003  0.2085531E+02  0.7546771E-02  0.1521341E+00
          2   -1    0    0  501    0  0.00000000000E+00  0.00000000000E+00  0.42475205925E+03  0.42475205925E+03  0.00000000000E+00 0. -1.
          2   -1    0    0  502    0 -0.00000000000E+00 -0.00000000000E+00 -0.22721075944E+02  0.22721075944E+02  0.00000000000E+00 0. -1.
          2    1    1    2  501    0  0.89665540829E+01 -0.18829358072E+02 -0.17621268435E+02  0.27302983698E+02  0.00000000000E+00 0. -1.
          2    1    1    2  502    0 -0.89665540829E+01  0.18829358072E+02  0.41965225174E+03  0.42017015150E+03  0.00000000000E+00 0. -1.
</event>
<event>
 4    1  0.8104768E+003  0.2434911E+02  0.7546771E-02  0.1476218E+00
          2   -1    0    0  501    0  0.00000000000E+00  0.00000000000E+00  0.82701665943E+02  0.82701665943E+02  0.00000000000E+00 0.  1.
          2   -1    0    0  502    0 -0.00000000000E+00 -0.00000000000E+00 -0.13430270889E+03  0.13430270889E+03  0.00000000000E+00 0.  1.
          2    1    1    2  501    0  0.12979948328E+02  0.20600977047E+02 -0.13136714966E+03  0.13360466804E+03  0.00000000000E+00 0.  1.
          2    1    1    2  502    0 -0.12979948328E+02 -0.20600977047E+02  0.79766106708E+02  0.83399706793E+02  0.00000000000E+00 0.  1.
</event>
<event>
 4    1  0.8104768E+003  0.2125655E+02  0.7546771E-02  0.1515633E+00
          2   -1    0    0  502    0  0.00000000000E+00  0.00000000000E+00  0.72239278730E+03  0.72239278730E+03  0.00000000000E+00 0. -1.
          2   -1    0    0  501    0 -0.00000000000E+00 -0.00000000000E+00 -0.22726195586E+01  0.22726195586E+01  0.00000000000E+00 0.  1.
          2    1    1    2  501    0 -0.24949579743E+01  0.21109621974E+02  0.66852771458E+03  0.66886556655E+03  0.00000000000E+00 0. -1.
          2    1    1    2  502    0  0.24949579743E+01 -0.21109621974E+02  0.51592453160E+02  0.55799840307E+02  0.00000000000E+00 0.  1.
</event>
<event>
 4    1  0.8104768E+003  0.2634073E+02  0.7546771E-02  0.1454345E+00
          2   -1    0    0  502    0  0.00000000000E+00  0.00000000000E+00  0.24808337184E+01  0.24808337184E+01  0.00000000000E+00 0.  1.
          2   -1    0    0  501    0 -0.00000000000E+00 -0.00000000000E+00 -0.55092562423E+03  0.55092562423E+03  0.00000000000E+00 0.  1.
          2    1    1    2  501    0  0.23989969330E+02  0.10877285859E+02 -0.80066349749E+02  0.84287925222E+02  0.00000000000E+00 0.  1.
          2    1    1    2  502    0 -0.23989969330E+02 -0.10877285859E+02 -0.46837844076E+03  0.46911853273E+03  0.00000000000E+00 0.  1.
</event>
<event>
 4    1  0.8104768E+003  0.9647909E+02  0.7546771E-02  0.1170053E+00
          2   -1    0    0  501    0  0.00000000000E+00  0.00000000000E+00  0.38647257448E+04  0.38647257448E+04  0.00000000000E+00 0.  1.
          2   -1    0    0  502    0 -0.00000000000E+00 -0.00000000000E+00 -0.27849733468E+01  0.27849733468E+01  0.00000000000E+00 0.  1.
          2    1    1    2  501    0  0.34414561317E+02  0.90132422751E+02  0.12199949629E+04  0.12238038753E+04  0.00000000000E+00 0.  1.
          2    1    1    2  502    0 -0.34414561317E+02 -0.90132422751E+02  0.26419458086E+04  0.26437068429E+04  0.00000000000E+00 0.  1.
</event>
<event>
 4    1  0.8104768E+003  0.5150214E+02  0.7546771E-02  0.1291788E+00
          2   -1    0    0  501    0  0.00000000000E+00  0.00000000000E+00  0.50956031622E+01  0.50956031622E+01  0.00000000000E+00 0. -1.
          2   -1    0    0  502    0 -0.00000000000E+00 -0.00000000000E+00 -0.54817572440E+03  0.54817572440E+03  0.00000000000E+00 0. -1.
          2    1    1    2  501    0  0.20627406778E+02 -0.47190896621E+02 -0.33365204771E+03  0.33760355386E+03  0.00000000000E+00 0. -1.
          2    1    1    2  502    0 -0.20627406778E+02  0.47190896621E+02 -0.20942807352E+03  0.21566777370E+03  0.00000000000E+00 0. -1.
</event>
<event>
 4    1  0.9972097E+003  0.2152054E+02  0.7546771E-02  0.1511961E+00
          2   -1    0    0  502    0  0.00000000000E+00  0.00000000000E+00  0.50476912607E+03  0.50476912607E+03  0.00000000000E+00 0. -1.
          2   -1    0    0  501    0 -0.00000000000E+00 -0.00000000000E+00 -0.11673752889E+04  0.11673752889E+04  0.00000000000E+00 0.  1.
          2    1    1    2  501    0  0.70793931779E+01 -0.20322793548E+02  0.50444049978E+03  0.50489934795E+03  0.00000000000E+00 0. -1.
          2    1    1    2  502    0 -0.70793931779E+01  0.20322793548E+02 -0.11670466626E+04  0.11672450670E+04  0.00000000000E+00 0.  1.
</event>
<event>
 4    1  0.8104768E+003  0.2106415E+02  0.7546771E-02  0.1518351E+00
          2   -1    0    0  502    0  0.00000000000E+00  0.00000000000E+00  0.37374993965E+03  0.37374993965E+03  0.00000000000E+00 0. -1.
          2   -1    0    0  501    0 -0.00000000000E+00 -0.00000000000E+00 -0.63843180652E+01  0.63843180652E+01  0.00000000000E+00 0. -1.
          2    1    1    2  501    0 -0.47663850629E+01  0.20517799528E+02  0.35517051799E+03  0.35579459716E+03  0.00000000000E+00 0. -1.
          2    1    1    2  502    0  0.47663850629E+01 -0.20517799528E+02  0.12195103600E+02  0.24339660553E+02  0.00000000000E+00 0. -1.
</event>
<event>
 4    1  0.8104768E+003  0.5509166E+02  0.7546771E-02  0.1277488E+00
          2   -1    0    0  502    0  0.00000000000E+00  0.00000000000E+00  0.36670889457E+03  0.36670889457E+03  0.00000000000E+00 0. -1.
          2   -1    0    0  501    0 -0.00000000000E+00 -0.00000000000E+00 -0.10485890196E+02  0.10485890196E+02  0.00000000000E+00 0.  1.
          2    1    1    2  501    0 -0.26945996318E+02 -0.48052098022E+02  0.26468054758E+03  0.27035325615E+03  0.00000000000E+00 0. -1.
          2    1    1    2  502    0  0.26945996318E+02  0.48052098022E+02  0.91542456793E+02  0.10684152862E+03  0.00000000000E+00 0.  1.
</event>
<event>
 4    1  0.8104768E+003  0.6945498E+02  0.7546771E-02  0.1230702E+00
          2   -1    0    0  502    0  0.00000000000E+00  0.00000000000E+00  0.31814313866E+01  0.31814313866E+01  0.00000000000E+00 0. -1.
          2   -1    0    0  501    0 -0.00000000000E+00 -0.00000000000E+00 -0.15526427881E+04  0.15526427881E+04  0.00000000000E+00 0. -1.
          2    1    1    2  501    0  0.63264281557E+02 -0.28663994947E+02 -0.65570968588E+03  0.65937787807E+03  0.00000000000E+00 0. -1.
          2    1    1    2  502    0 -0.63264281557E+02  0.28663994947E+02 -0.89375167084E+03  0.89644634142E+03  0.00000000000E+00 0. -1.
</event>
<event>
 4    1  0.8104768E+003  0.3073669E+02  0.7546771E-02  0.1413301E+00
          2   -1    0    0  501    0  0.00000000000E+00  0.00000000000E+00  0.70340599418E+03  0.70340599418E+03  0.00000000000E+00 0. -1.
          2   -1    0    0  502    0 -0.00000000000E+00 -0.00000000000E+00 -0.34616296388E+02  0.34616296388E+02  0.00000000000E+00 0. -1.
          2    1    1    2  501    0 -0.26396527286E+02  0.15746978563E+02 -0.27386730462E+02  0.41167669257E+02  0.00000000000E+00 0. -1.
          2    1    1    2  502    0  0.26396527286E+02 -0.15746978563E+02  0.69617642825E+03  0.69685462131E+03  0.00000000000E+00 0. -1.
</event>
<event>
 4    1  0.8104768E+003  0.2217280E+02  0.7546771E-02  0.1503155E+00
          2   -1    0    0  502    0  0.00000000000E+00  0.00000000000E+00  0.30583612912E+03  0.30583612912E+03  0.00000000000E+00 0. -1.
          2   -1    0    0  501    0 -0.00000000000E+00 -0.00000000000E+00 -0.23432967846E+02  0.23432967846E+02  0.00000000000E+00 0. -1.
          2    1    1    2  501    0  0.14193734767E+02 -0.17034407571E+02  0.30008883434E+03  0.30090686539E+03  0.00000000000E+00 0. -1.
          2    1    1    2  502    0 -0.14193734767E+02  0.17034407571E+02 -0.17685673064E+02  0.28362231570E+02  0.00000000000E+00 0. -1.
</event>
<event>
 4    1  0.8104768E+003  0.2422001E+02  0.7546771E-02  0.1477721E+00
          2   -1    0    0  502    0  0.00000000000E+00  0.00000000000E+00  0.20127203834E+02  0.20127203834E+02  0.00000000000E+00 0. -1.
          2   -1    0    0  501    0 -0.00000000000E+00 -0.00000000000E+00 -0.25050005121E+03  0.25050005121E+03  0.00000000000E+00 0.  1.
          2    1    1    2  501    0 -0.24207107975E+02  0.79036439558E+00  0.12012160613E+02  0.27035176252E+02  0.00000000000E+00 0. -1.
          2    1    1    2  502    0  0.24207107975E+02 -0.79036439558E+00 -0.24238500799E+03  0.24359207879E+03  0.00000000000E+00 0.  1.
</event>
<event>
 4    1  0.8104768E+003  0.2378351E+02  0.7546771E-02  0.1482887E+00
          2   -1    0    0  502    0  0.00000000000E+00  0.00000000000E+00  0.24798913626E+02  0.24798913626E+02  0.00000000000E+00 0. -1.
          2   -1    0    0  501    0 -0.00000000000E+00 -0.00000000000E+00 -0.54222202229E+02  0.54222202229E+02  0.00000000000E+00 0. -1.
          2    1    1    2  501    0 -0.21319971170E+02  0.10541069377E+02  0.15361302237E+02  0.28312981487E+02  0.00000000000E+00 0. -1.
          2    1    1    2  502    0  0.21319971170E+02 -0.10541069377E+02 -0.44784590840E+02  0.50708134367E+02  0.00000000000E+00 0. -1.
</event>
<event>
 4    1  0.8104768E+003  0.3510560E+02  0.7546771E-02  0.1379822E+00
          2   -1    0    0  501    0  0.00000000000E+00  0.00000000000E+00  0.15640220869E+04  0.15640220869E+04  0.00000000000E+00 0.  1.
          2   -1    0    0  502    0 -0.00000000000E+00 -0.00000000000E+00 -0.64865072094E+02  0.64865072094E+02  0.00000000000E+00 0.  1.
          2    1    1    2  501    0  0.11748099540E+01  0.35085937705E+02 -0.59903091929E+02  0.69431863188E+02  0.00000000000E+00 0.  1.
          2    1    1    2  502    0 -0.11748099540E+01 -0.35085937705E+02  0.15590601067E+04  0.15594552958E+04  0.00000000000E+00 0.  1.
</event>
<event>
 4    1  0.8104768E+003  0.2316343E+02  0.7546771E-02  0.1490456E+00
          2   -1    0    0  501    0  0.00000000000E+00  0.00000000000E+00  0.12747728692E+03  0.12747728692E+03  0.00000000000E+00 0. -1.
          2   -1    0    0  502    0 -0.00000000000E+00 -0.00000000000E+00 -0.11848378793E+03  0.11848378793E+03  0.00000000000E+00 0. -1.
          2    1    1    2  501    0 -0.21853670789E+02 -0.76786457272E+01 -0.11627969584E+03  0.11856437995E+03  0.00000000000E+00 0. -1.
          2    1    1    2  502    0  0.21853670789E+02  0.76786457272E+01  0.12527319483E+03  0.12739669490E+03  0.00000000000E+00 0. -1.
</event>
<event>
 4    1  0.8104768E+003  0.4231735E+02  0.7546771E-02  0.1335416E+00
          2   -1    0    0  501    0  0.00000000000E+00  0.00000000000E+00  0.38417548071E+03  0.38417548071E+03  0.00000000000E+00 0.  1.
          2   -1    0    0  502    0 -0.00000000000E+00 -0.00000000000E+00 -0.17126609375E+04  0.17126609375E+04  0.00000000000E+00 0. -1.
          2    1    1    2  501    0 -0.39195415746E+02  0.15952344108E+02 -0.17112332399E+04  0.17117563960E+04  0.00000000000E+00 0. -1.
          2    1    1    2  502    0  0.39195415746E+02 -0.15952344108E+02  0.38274778320E+03  0.38508002213E+03  0.00000000000E+00 0.  1.
</event>
<event>
 4    1  0.8104768E+003  0.2039281E+02  0.7546771E-02  0.1528113E+00
          2   -1    0    0  502    0  0.00000000000E+00  0.00000000000E+00  0.65968096602E+03  0.65968096602E+03  0.00000000000E+00 0. -1.
          2   -1    0    0  501    0 -0.00000000000E+00 -0.00000000000E+00 -0.34470675177E+01  0.34470675177E+01  0.00000000000E+00 0. -1.
          2    1    1    2  501    0  0.20360698049E+02 -0.11438976055E+01  0.62783290513E+03  0.62816400987E+03  0.00000000000E+00 0. -1.
          2    1    1    2  502    0 -0.20360698049E+02  0.11438976055E+01  0.28400993371E+02  0.34964023670E+02  0.00000000000E+00 0. -1.
</event>
<event>
 4    1  0.8104768E+003  0.2009815E+02  0.7546771E-02  0.1532541E+00
          2   -1    0    0  501    0  0.00000000000E+00  0.00000000000E+00  0.60191997014E+02  0.60191997014E+02  0.00000000000E+00 0. -1.
          2   -1    0    0  502    0 -0.00000000000E+00 -0.00000000000E+00 -0.88316444239E+01  0.88316444239E+01  0.00000000000E+00 0. -1.
          2    1    1    2  501    0 -0.69401520095E+01 -0.18861865018E+02  0.42592482633E+02  0.47096233806E+02  0.00000000000E+00 0. -1.
          2    1    1    2  502    0  0.69401520095E+01  0.18861865018E+02  0.87678699563E+01  0.21927407631E+02  0.00000000000E+00 0. -1.
</event>
<event>
 4    1  0.8104768E+003  0.2303907E+02  0.7546771E-02  0.1492008E+00
          2   -1    0    0  502    0  0.00000000000E+00  0.00000000000E+00  0.16409280345E+03  0.16409280345E+03  0.00000000000E+00 0. -1.
          2   -1    0    0  501    0 -0.00000000000E+00 -0.00000000000E+00 -0.34359269704E+01  0.34359269704E+01  0.00000000000E+00 0.  1.
          2    1    1    2  501    0 -0.17500635202E+02 -0.14984212151E+02  0.10059727249E+03  0.10320179300E+03  0.00000000000E+00 0. -1.
          2    1    1    2  502    0  0.17500635202E+02  0.14984212151E+02  0.60059603983E+02  0.64326937413E+02  0.00000000000E+00 0.  1.
</event>
<event>
 4    1  0.8104768E+003  0.2682957E+02  0.7546771E-02  0.1449328E+00
          2   -1    0    0  501    0  0.00000000000E+00  0.00000000000E+00  0.16926632741E+03  0.16926632741E+03  0.00000000000E+00 0. -1.
          2   -1    0    0  502    0 -0.00000000000E+00 -0.00000000000E+00 -0.46159273217E+01  0.46159273217E+01  0.00000000000E+00 0. -1.
          2    1    1    2  501    0 -0.67784658425E+01 -0.25959161325E+02  0.57934074064E+02  0.63844988789E+02  0.00000000000E+00 0. -1.
          2    1    1    2  502    0  0.67784658425E+01  0.25959161325E+02  0.10671632602E+03  0.11003726594E+03  0.00000000000E+00 0. -1.
</event>
<event>
 4    1  0.8104768E+003  0.2120417E+02  0.7546771E-02  0.1516370E+00
          2   -1    0    0  501    0  0.00000000000E+00  0.00000000000E+00  0.47445679213E+01  0.47445679213E+01  0.00000000000E+00 0.  1.
          2   -1    0    0  502    0 -0.00000000000E+00 -0.00000000000E+00 -0.11838017427E+04  0.11838017427E+04  0.00000000000E+00 0.  1.
          2    1    1    2  501    0 -0.14337139977E+02 -0.15622527310E+02 -0.11595195594E+04  0.11597134239E+04  0.00000000000E+00 0.  1.
          2    1    1    2  502    0  0.14337139977E+02  0.15622527310E+02 -0.19537615392E+02  0.28832886735E+02  0.00000000000E+00 0.  1.
</event>
<event>
 4    1  0.8104768E+003  0.5205049E+02  0.7546771E-02  0.1289519E+00
          2   -1    0    0  501    0  0.00000000000E+00  0.00000000000E+00  0.24871763949E+03  0.24871763949E+03  0.00000000000E+00 0.  1.
          2   -1    0    0  502    0 -0.00000000000E+00 -0.00000000000E+00 -0.37097779081E+03  0.37097779081E+03  0.00000000000E+00 0. -1.
          2    1    1    2  501    0  0.50290080344E+02 -0.13422404433E+02 -0.36639492562E+03  0.37007363408E+03  0.00000000000E+00 0. -1.
          2    1    1    2  502    0 -0.50290080344E+02  0.13422404433E+02  0.24413477430E+03  0.24962179622E+03  0.00000000000E+00 0.  1.
</event>
<event>
 4    1  0.8104768E+003  0.2656793E+02  0.7546771E-02  0.1451997E+00
          2   -1    0    0  501    0  0.00000000000E+00  0.00000000000E+00  0.41865096541E+02  0.41865096541E+02  0.00000000000E+00 0. -1.
          2   -1    0    0  502    0 -0.00000000000E+00 -0.00000000000E+00 -0.16321391393E+03  0.16321391393E+03  0.00000000000E+00 0. -1.
          2    1    1    2  501    0 -0.87866994039E+01  0.25072868097E+02 -0.15777334443E+03  0.15999463433E+03  0.00000000000E+00 0. -1.
          2    1    1    2  502    0  0.87866994039E+01 -0.25072868097E+02  0.36424527047E+02  0.45084376137E+02  0.00000000000E+00 0. -1.
</event>
<event>
 4    1  0.8104768E+003  0.2432395E+02  0.7546771E-02  0.1476510E+00
          2   -1    0    0  502    0  0.00000000000E+00  0.00000000000E+00  0.46201214216E+03  0.46201214216E+03  0.00000000000E+00 0. -1.
          2   -1    0    0  501    0 -0.00000000000E+00 -0.00000000000E+00 -0.24525159998E+01  0.24525159998E+01  0.00000000000E+00 0.  1.
          2    1    1    2  501    0  0.23860961526E+02  0.47232361884E+01  0.39031281050E+03  0.39106999947E+03  0.00000000000E+00 0. -1.
          2    1    1    2  502    0 -0.23860961526E+02 -0.47232361884E+01  0.69246815653E+02  0.73394658683E+02  0.00000000000E+00 0.  1.
</event>
<event>
 4    1  0.8104768E+003  0.2275846E+02  0.7546771E-02  0.1495554E+00
          2   -1    0    0  502    0  0.00000000000E+00  0.00000000000E+00  0.66965338890E+01  0.66965338890E+01  0.00000000000E+00 0. -1.
          2   -1    0    0  501    0 -0.00000000000E+00 -0.00000000000E+00 -0.16866681496E+04  0.16866681496E+04  0.00000000000E+00 0. -1.
          2    1    1    2  501    0  0.17572676347E+02 -0.14461964850E+02 -0.12944446622E+02  0.26182171026E+02  0.00000000000E+00 0. -1.
          2    1    1    2  502    0 -0.17572676347E+02  0.14461964850E+02 -0.16670271691E+04  0.16671825125E+04  0.00000000000E+00 0. -1.
</event>
<event>
 4    1  0.8104768E+003  0.3251621E+02  0.7546771E-02  0.1398920E+00
          2   -1    0    0  502    0  0.00000000000E+00  0.00000000000E+00  0.60162494452E+01  0.60162494452E+01  0.00000000000E+00 0.  1.
          2   -1    0    0  501    0 -0.00000000000E+00 -0.00000000000E+00 -0.15057451635E+04  0.15057451635E+04  0.00000000000E+00 0.  1.
          2    1    1    2  501    0  0.25815407635E+02  0.19770395095E+02 -0.39462801049E+02  0.51133320450E+02  0.00000000000E+00 0.  1.
          2    1    1    2  502    0 -0.25815407635E+02 -0.19770395095E+02 -0.14602661130E+04  0.14606280925E+04  0.00000000000E+00 0.  1.
</event>
<event>
 4    1  0.8104768E+003  0.2462087E+02  0.7546771E-02  0.1473090E+00
          2   -1    0    0  502    0  0.00000000000E+00  0.00000000000E+00  0.14030821179E+04  0.14030821179E+04  0.00000000000E+00 0. -1.
          2   -1    0    0  501    0 -0.00000000000E+00 -0.00000000000E+00 -0.21740896421E+03  0.21740896421E+03  0.00000000000E+00 0.  1.
          2    1    1    2  501    0  0.14156654376E+02  0.20143890596E+02  0.14022766490E+04  0.14024927763E+04  0.00000000000E+00 0. -1.
          2    1    1    2  502    0 -0.14156654376E+02 -0.20143890596E+02 -0.21660349528E+03  0.21799830586E+03  0.00000000000E+00 0.  1.
</event>
<event>
 4    1  0.8104768E+003  0.2148204E+02  0.7546771E-02  0.1512493E+00
          2   -1    0    0  502    0  0.00000000000E+00  0.00000000000E+00  0.21832482359E+02  0.21832482359E+02  0.00000000000E+00 0. -1.
          2   -1    0    0  501    0 -0.00000000000E+00 -0.00000000000E+00 -0.12129859203E+03  0.12129859203E+03  0.00000000000E+00 0.  1.
          2    1    1    2  501    0 -0.21436095255E+02  0.14042196473E+01  0.15298806600E+02  0.26372931122E+02  0.00000000000E+00 0. -1.
          2    1    1    2  502    0  0.21436095255E+02 -0.14042196473E+01 -0.11476491627E+03  0.11675814326E+03  0.00000000000E+00 0.  1.
</event>
<event>
 4    1  0.8104768E+003  0.2368691E+02  0.7546771E-02  0.1484048E+00
          2   -1    0    0  501    0  0.00000000000E+00  0.00000000000E+00  0.91527959148E+01  0.91527959148E+01  0.00000000000E+00 0. -1.
          2   -1    0    0  502    0 -0.00000000000E+00 -0.00000000000E+00 -0.38483399203E+03  0.38483399203E+03  0.00000000000E+00 0. -1.
          2    1    1    2  501    0 -0.13059774786E+02  0.19761370337E+02 -0.36846427614E+03  0.36922485327E+03  0.00000000000E+00 0. -1.
          2    1    1    2  502    0  0.13059774786E+02 -0.19761370337E+02 -0.72169199686E+01  0.24761934676E+02  0.00000000000E+00 0. -1.
</event>
<event>
 4    1  0.8104768E+003  0.2000461E+02  0.7546771E-02  0.1533965E+00
          2   -1    0    0  502    0  0.00000000000E+00  0.00000000000E+00  0.38437852236E+03  0.38437852236E+03  0.00000000000E+00 0. -1.
          2   -1    0    0  501    0 -0.00000000000E+00 -0.00000000000E+00 -0.23327015292E+03  0.23327015292E+03  0.00000000000E+00 0.  1.
          2    1    1    2  501    0 -0.63422621296E+01  0.18972618969E+02  0.38368858612E+03  0.38420972876E+03  0.00000000000E+00 0. -1.
          2    1    1    2  502    0  0.63422621296E+01 -0.18972618969E+02 -0.23258021668E+03  0.23343894652E+03  0.00000000000E+00 0.  1.
</event>
<event>
 4    1  0.8104768E+003  0.3185059E+02  0.7546771E-02  0.1404168E+00
          2   -1    0    0  502    0  0.00000000000E+00  0.00000000000E+00  0.33913027639E+03  0.33913027639E+03  0.00000000000E+00 0. -1.
          2   -1    0    0  501    0 -0.00000000000E+00 -0.00000000000E+00 -0.77881525008E+03  0.77881525008E+03  0.00000000000E+00 0. -1.
          2    1    1    2  501    0 -0.26168502098E+02 -0.18156799441E+02  0.33805576225E+03  0.33955287991E+03  0.00000000000E+00 0. -1.
          2    1    1    2  502    0  0.26168502098E+02  0.18156799441E+02 -0.77774073594E+03  0.77839264655E+03  0.00000000000E+00 0. -1.
</event>
<event>
 4    1  0.8104768E+003  0.3390970E+02  0.7546771E-02  0.1388395E+00
          2   -1    0    0  501    0  0.00000000000E+00  0.00000000000E+00  0.12515285565E+03  0.12515285565E+03  0.00000000000E+00 0. -1.
          2   -1    0    0  502    0 -0.00000000000E+00 -0.00000000000E+00 -0.21925189838E+03  0.21925189838E+03  0.00000000000E+00 0.  1.
          2    1    1    2  501    0  0.33599230205E+02 -0.45781752096E+01 -0.21560523264E+03  0.21825554815E+03  0.00000000000E+00 0.  1.
          2    1    1    2  502    0 -0.33599230205E+02  0.45781752096E+01  0.12150618990E+03  0.12614920588E+03  0.00000000000E+00 0. -1.
</event>
<event>
 4    1  0.8104768E+003  0.2178856E+02  0.7546771E-02  0.1508298E+00
          2   -1    0    0  501    0  0.00000000000E+00  0.00000000000E+00  0.22000883365E+01  0.22000883365E+01  0.00000000000E+00 0.  1.
          2   -1    0    0  502    0 -0.00000000000E+00 -0.00000000000E+00 -0.22766413143E+03  0.22766413143E+03  0.00000000000E+00 0. -1.
          2    1    1    2  501    0 -0.38080101646E+01 -0.21453210201E+02 -0.86476112363E+02  0.89178804538E+02  0.00000000000E+00 0.  1.
          2    1    1    2  502    0  0.38080101646E+01  0.21453210201E+02 -0.13898793073E+03  0.14068541522E+03  0.00000000000E+00 0. -1.
</event>
<event>
 4    1  0.8104768E+003  0.2834203E+02  0.7546771E-02  0.1434574E+00
          2   -1    0    0  501    0  0.00000000000E+00  0.00000000000E+00  0.20885600308E+04  0.20885600308E+04  0.00000000000E+00 0.  1.
          2   -1    0    0  502    0 -0.00000000000E+00 -0.00000000000E+00 -0.20242014102E+01  0.20242014102E+01  0.00000000000E+00 0.  1.
          2    1    1    2  501    0  0.27031452617E+02  0.85188699580E+01  0.10250693403E+03  0.10635291299E+03  0.00000000000E+00 0.  1.
          2    1    1    2  502    0 -0.27031452617E+02 -0.85188699580E+01  0.19840288953E+04  0.19842313192E+04  0.00000000000E+00 0.  1.
</event>
<event>
 4    1  0.8104768E+003  0.2582092E+02  0.7546771E-02  0.1459826E+00
          2   -1    0    0  501    0  0.00000000000E+00  0.00000000000E+00  0.15368022822E+02  0.15368022822E+02  0.00000000000E+00 0.  1.
          2   -1    0    0  502    0 -0.00000000000E+00 -0.00000000000E+00 -0.10635011310E+03  0.10635011310E+03  0.00000000000E+00 0.  1.
          2    1    1    2  501    0  0.24726657380E+01 -0.25702256803E+02 -0.92319643352E+02  0.95862592440E+02  0.00000000000E+00 0.  1.
          2    1    1    2  502    0 -0.24726657380E+01  0.25702256803E+02  0.13375530724E+01  0.25855543484E+02  0.00000000000E+00 0.  1.
</event>
<event>
 4    1  0.8104768E+003  0.2040370E+02  0.7546771E-02  0.1527951E+00
          2   -1    0    0  501    0  0.00000000000E+00  0.00000000000E+00  0.89464680525E+00  0.89464680525E+00  0.00000000000E+00 0. -1.
          2   -1    0    0  502    0 -0.00000000000E+00 -0.00000000000E+00 -0.86961825837E+03  0.86961825837E+03  0.00000000000E+00 0.  1.
          2    1    1    2  501    0 -0.19278387878E+02 -0.66824315408E+01 -0.73113411512E+03  0.73141876201E+03  0.00000000000E+00 0.  1.
          2    1    1    2  502    0  0.19278387878E+02  0.66824315408E+01 -0.13758949645E+03  0.13909414317E+03  0.00000000000E+00 0. -1.
</event>
<event>
 4    1  0.8104768E+003  0.2380449E+02  0.7546771E-02  0.1482636E+00
          2   -1    0    0  501    0  0.00000000000E+00  0.00000000000E+00  0.16030998718E+03  0.16030998718E+03  0.00000000000E+00 0.  1.
          2   -1    0    0  502    0 -0.00000000000E+00 -0.00000000000E+00 -0.14963737769E+02  0.14963737769E+02  0.00000000000E+00 0. -1.
          2    1    1    2  501    0 -0.22243718742E+02 -0.84776540058E+01 -0.39166703877E+01  0.24124550728E+02  0.00000000000E+00 0. -1.
          2    1    1    2  502    0  0.22243718742E+02  0.84776540058E+01  0.14926291980E+03  0.15114917422E+03  0.00000000000E+00 0.  1.
</event>
<event>
 4    1  0.8104768E+003  0.3377300E+02  0.7546771E-02  0.1389401E+00
          2   -1    0    0  501    0  0.00000000000E+00  0.00000000000E+00  0.17895146849E+04  0.17895146849E+04  0.00000000000E+00 0. -1.
          2   -1    0    0  502    0 -0.00000000000E+00 -0.00000000000E+00 -0.49348396232E+02  0.49348396232E+02  0.00000000000E+00 0. -1.
          2    1    1    2  501    0 -0.12564725065E+02  0.31348740376E+02 -0.43391367719E+02  0.54985694791E+02  0.00000000000E+00 0. -1.
          2    1    1    2  502    0  0.12564725065E+02 -0.31348740376E+02  0.17835576564E+04  0.17838773864E+04  0.00000000000E+00 0. -1.
</event>
<event>
 4    1  0.8104768E+003  0.3825601E+02  0.7546771E-02  0.1359020E+00
          2   -1    0    0  502    0  0.00000000000E+00  0.00000000000E+00  0.12058158637E+03  0.12058158637E+03  0.00000000000E+00 0. -1.
          2   -1    0    0  501    0 -0.00000000000E+00 -0.00000000000E+00 -0.60692043917E+03  0.60692043917E+03  0.00000000000E+00 0. -1.
          2    1    1    2  501    0  0.25892384518E+02 -0.28162147911E+02  0.11692607212E+03  0.12302531647E+03  0.00000000000E+00 0. -1.
          2    1    1    2  502    0 -0.25892384518E+02  0.28162147911E+02 -0.60326492493E+03  0.60447670906E+03  0.00000000000E+00 0. -1.
</event>
<event>
 4    1  0.8104768E+003  0.2019010E+02  0.7546771E-02  0.1531149E+00
          2   -1    0    0  501    0  0.00000000000E+00  0.00000000000E+00  0.10090178718E+04  0.10090178718E+04  0.00000000000E+00 0. -1.
          2   -1    0    0  502    0 -0.00000000000E+00 -0.00000000000E+00 -0.54156120585E+02  0.54156120585E+02  0.00000000000E+00 0. -1.
          2    1    1    2  501    0  0.75620535068E+01 -0.18720458281E+02 -0.52169626916E+02  0.55940237612E+02  0.00000000000E+00 0. -1.
          2    1    1    2  502    0 -0.75620535068E+01  0.18720458281E+02  0.10070313782E+04  0.10072337548E+04  0.00000000000E+00 0. -1.
</event>
<event>
 4    1  0.8104768E+003  0.2501839E+02  0.7546771E-02  0.1468598E+00
          2   -1    0    0  501    0  0.00000000000E+00  0.00000000000E+00  0.11121910198E+04  0.11121910198E+04  0.00000000000E+00 0.  1.
          2   -1    0    0  502    0 -0.00000000000E+00 -0.00000000000E+00 -0.20147133540E+02  0.20147133540E+02  0.00000000000E+00 0.  1.
          2    1    1    2  501    0 -0.11906629596E+02  0.22003457492E+02 -0.12183570422E+02  0.27827313168E+02  0.00000000000E+00 0.  1.
          2    1    1    2  502    0  0.11906629596E+02 -0.22003457492E+02  0.11042274567E+04  0.11045108401E+04  0.00000000000E+00 0.  1.
</event>
<event>
 4    1  0.8104768E+003  0.2401214E+02  0.7546771E-02  0.1480165E+00
          2   -1    0    0  501    0  0.00000000000E+00  0.00000000000E+00  0.30861231601E+03  0.30861231601E+03  0.00000000000E+00 0. -1.
          2   -1    0    0  502    0 -0.00000000000E+00 -0.00000000000E+00 -0.20937801259E+03  0.20937801259E+03  0.00000000000E+00 0.  1.
          2    1    1    2  501    0  0.16548989034E+02  0.17398679099E+02 -0.20821989863E+03  0.20959987895E+03  0.00000000000E+00 0.  1.
          2    1    1    2  502    0 -0.16548989034E+02 -0.17398679099E+02  0.30745420205E+03  0.30839044965E+03  0.00000000000E+00 0. -1.
</event>
<event>
 4    1  0.8104768E+003  0.3014960E+02  0.7546771E-02  0.1418301E+00
          2   -1    0    0  501    0  0.00000000000E+00  0.00000000000E+00  0.23058691211E+03  0.23058691211E+03  0.00000000000E+00 0.  1.
          2   -1    0    0  502    0 -0.00000000000E+00 -0.00000000000E+00 -0.16397860972E+02  0.16397860972E+02  0.00000000000E+00 0.  1.
          2    1    1    2  501    0 -0.25469443219E+01  0.30041824809E+02 -0.53504393596E+00  0.30154343555E+02  0.00000000000E+00 0.  1.
          2    1    1    2  502    0  0.25469443219E+01 -0.30041824809E+02  0.21472409508E+03  0.21683042953E+03  0.00000000000E+00 0.  1.
</event>
<event>
 4    1  0.8104768E+003  0.3178879E+02  0.7546771E-02  0.1404663E+00
          2   -1    0    0  502    0  0.00000000000E+00  0.00000000000E+00  0.37718930281E+01  0.37718930281E+01  0.00000000000E+00 0. -1.
          2   -1    0    0  501    0 -0.00000000000E+00 -0.00000000000E+00 -0.28735962440E+03  0.28735962440E+03  0.00000000000E+00 0. -1.
          2    1    1    2  501    0 -0.11858368483E+02  0.29494173251E+02 -0.17966462762E+03  0.18245521526E+03  0.00000000000E+00 0. -1.
          2    1    1    2  502    0  0.11858368483E+02 -0.29494173251E+02 -0.10392310375E+03  0.10867630216E+03  0.00000000000E+00 0. -1.
</event>
<event>
 4    1  0.8104768E+003  0.2195080E+02  0.7546771E-02  0.1506111E+00
          2   -1    0    0  502    0  0.00000000000E+00  0.00000000000E+00  0.59353447561E+01  0.59353447561E+01  0.00000000000E+00 0. -1.
          2   -1    0    0  501    0 -0.00000000000E+00 -0.00000000000E+00 -0.11790851993E+03  0.11790851993E+03  0.00000000000E+00 0. -1.
          2    1    1    2  501    0 -0.18704851999E+02 -0.11487652753E+02 -0.21427101289E+02  0.30675043990E+02  0.00000000000E+00 0. -1.
          2    1    1    2  502    0  0.18704851999E+02  0.11487652753E+02 -0.90546073889E+02  0.93168820701E+02  0.00000000000E+00 0. -1.
</event>
<event>
 4    1  0.8104768E+003  0.4076373E+02  0.7546771E-02  0.1344068E+00
          2   -1    0    0  502    0  0.00000000000E+00  0.00000000000E+00  0.45380967971E+03  0.45380967971E+03  0.00000000000E+00 0.  1.
          2   -1    0    0  501    0 -0.00000000000E+00 -0.00000000000E+00 -0.27952275886E+02  0.27952275886E+02  0.00000000000E+00 0.  1.
          2    1    1    2  501    0  0.31951922574E+02 -0.25313159352E+02  0.43747892153E+03  0.43937397303E+03  0.00000000000E+00 0.  1.
          2    1    1    2  502    0 -0.31951922574E+02  0.25313159352E+02 -0.11621517703E+02  0.42387982569E+02  0.00000000000E+00 0.  1.
</event>
<event>
 4    1  0.8104768E+003  0.2565558E+02  0.7546771E-02  0.1461601E+00
          2   -1    0    0  501    0  0.00000000000E+00  0.00000000000E+00  0.45810964576E+01  0.45810964576E+01  0.00000000000E+00 0. -1.
          2   -1    0    0  502    0 -0.00000000000E+00 -0.00000000000E+00 -0.14981175875E+03  0.14981175875E+03  0.00000000000E+00 0.  1.
          2    1    1    2  501    0 -0.45912778932E+01  0.25241409499E+02 -0.88233952582E+02  0.91888187349E+02  0.00000000000E+00 0.  1.
          2    1    1    2  502    0  0.45912778932E+01 -0.25241409499E+02 -0.56996709712E+02  0.62504667860E+02  0.00000000000E+00 0. -1.
</event>
<event>
 4    1  0.8104768E+003  0.2787675E+02  0.7546771E-02  0.1438994E+00
          2   -1    0    0  501    0  0.00000000000E+00  0.00000000000E+00  0.36547474543E+03  0.36547474543E+03  0.00000000000E+00 0. -1.
          2   -1    0    0  502    0 -0.00000000000E+00 -0.00000000000E+00 -0.33871475723E+01  0.33871475723E+01  0.00000000000E+00 0.  1.
          2    1    1    2  501    0 -0.11417215634E+02  0.25431480096E+02  0.68519549538E+02  0.73973249635E+02  0.00000000000E+00 0.  1.
          2    1    1    2  502    0  0.11417215634E+02 -0.25431480096E+02  0.29356804831E+03  0.29488864336E+03  0.00000000000E+00 0. -1.
</event>
<event>
 4    1  0.8104768E+003  0.4736481E+02  0.7546771E-02  0.1310021E+00
          2   -1    0    0  501    0  0.00000000000E+00  0.00000000000E+00  0.29300606651E+03  0.29300606651E+03  0.00000000000E+00 0.  1.
          2   -1    0    0  502    0 -0.00000000000E+00 -0.00000000000E+00 -0.15535933748E+03  0.15535933748E+03  0.00000000000E+00 0.  1.
          2    1    1    2  501    0  0.34972336537E+02 -0.31943093383E+02 -0.14976533933E+03  0.15707667683E+03  0.00000000000E+00 0.  1.
          2    1    1    2  502    0 -0.34972336537E+02  0.31943093383E+02  0.28741206835E+03  0.29128872716E+03  0.00000000000E+00 0.  1.
</event>
<event>
 4    1  0.8104768E+003  0.6065639E+02  0.7546771E-02  0.1257619E+00
          2   -1    0    0  501    0  0.00000000000E+00  0.00000000000E+00  0.41961304974E+03  0.41961304974E+03  0.00000000000E+00 0.  1.
          2   -1    0    0  502    0 -0.00000000000E+00 -0.00000000000E+00 -0.23589006667E+02  0.23589006667E+02  0.00000000000E+00 0. -1.
          2    1    1    2  501    0 -0.27219169800E+02 -0.54206222102E+02  0.22359361515E+02  0.64646258720E+02  0.00000000000E+00 0. -1.
          2    1    1    2  502    0  0.27219169800E+02  0.54206222102E+02  0.37366468156E+03  0.37855579769E+03  0.00000000000E+00 0.  1.
</event>
<event>
 4    1  0.8104768E+003  0.2933021E+02  0.7546771E-02  0.1425508E+00
          2   -1    0    0  501    0  0.00000000000E+00  0.00000000000E+00  0.33994494157E+03  0.33994494157E+03  0.00000000000E+00 0.  1.
          2   -1    0    0  502    0 -0.00000000000E+00 -0.00000000000E+00 -0.19447383918E+02  0.19447383918E+02  0.00000000000E+00 0. -1.
          2    1    1    2  501    0  0.31310823267E+01 -0.29162604540E+02 -0.73486076923E+01  0.30236785794E+02  0.00000000000E+00 0. -1.
          2    1    1    2  502    0 -0.31310823267E+01  0.29162604540E+02  0.32784616534E+03  0.32915553969E+03  0.00000000000E+00 0.  1.
</event>
<event>
 4    1  0.8104768E+003  0.2443601E+02  0.7546771E-02  0.1475213E+00
          2   -1    0    0  502    0  0.00000000000E+00  0.00000000000E+00  0.22230471316E+02  0.22230471316E+02  0.00000000000E+00 0. -1.
          2   -1    0    0  501    0 -0.00000000000E+00 -0.00000000000E+00 -0.65038629165E+03  0.65038629165E+03  0.00000000000E+00 0. -1.
          2    1    1    2  501    0  0.23844958997E+02  0.53419796362E+01  0.15212631053E+02  0.28784422168E+02  0.00000000000E+00 0. -1.
          2    1    1    2  502    0 -0.23844958997E+02 -0.53419796362E+01 -0.64336845139E+03  0.64383234080E+03  0.00000000000E+00 0. -1.
</event>
<event>
 4    1  0.8104768E+003  0.2059332E+02  0.7546771E-02  0.1525151E+00
          2   -1    0    0  501    0  0.00000000000E+00  0.00000000000E+00  0.34338713431E+02  0.34338713431E+02  0.00000000000E+00 0.  1.
          2   -1    0    0  502    0 -0.00000000000E+00 -0.00000000000E+00 -0.13335513545E+02  0.13335513545E+02  0.00000000000E+00 0.  1.
          2    1    1    2  501    0  0.20375511151E+02  0.29871699679E+01  0.40216703883E+01  0.20982337138E+02  0.00000000000E+00 0.  1.
          2    1    1    2  502    0 -0.20375511151E+02 -0.29871699679E+01  0.16981529497E+02  0.26691889838E+02  0.00000000000E+00 0.  1.
</event>
<event>
 4    1  0.8104768E+003  0.2579164E+02  0.7546771E-02  0.1460139E+00
          2   -1    0    0  502    0  0.00000000000E+00  0.00000000000E+00  0.24707735320E+02  0.24707735320E+02  0.00000000000E+00 0.  1.
          2   -1    0    0  501    0 -0.00000000000E+00 -0.00000000000E+00 -0.55715218253E+02  0.55715218253E+02  0.00000000000E+00 0. -1.
          2    1    1    2  501    0  0.53607763338E+01  0.25228368897E+02  0.13403057884E+02  0.29066311784E+02  0.00000000000E+00 0.  1.
          2    1    1    2  502    0 -0.53607763338E+01 -0.25228368897E+02 -0.44410540818E+02  0.51356641789E+02  0.00000000000E+00 0. -1.
</event>
<event>
 4    1  0.8104768E+003  0.3471318E+02  0.7546771E-02  0.1382591E+00
          2   -1    0    0  501    0  0.00000000000E+00  0.00000000000E+00  0.20980067259E+01  0.20980067259E+01  0.00000000000E+00 0.  1.
          2   -1    0    0  502    0 -0.00000000000E+00 -0.00000000000E+00 -0.61783129079E+03  0.61783129079E+03  0.00000000000E+00 0.  1.
          2    1    1    2  501    0  0.11496121617E+02 -0.32754302009E+02 -0.39008955182E+03  0.39163102986E+03  0.00000000000E+00 0.  1.
          2    1    1    2  502    0 -0.11496121617E+02  0.32754302009E+02 -0.22564373224E+03  0.22829826765E+03  0.00000000000E+00 0.  1.
</event>
<event>
 4    1  0.8104768E+003  0.2587032E+02  0.7546771E-02  0.1459298E+00
          2   -1    0    0  502    0  0.00000000000E+00  0.00000000000E+00  0.21724878465E+03  0.21724878465E+03  0.00000000000E+00 0.  1.
          2   -1    0    0  501    0 -0.00000000000E+00 -0.00000000000E+00 -0.32937125270E+01  0.32937125270E+01  0.00000000000E+00 0.  1.
          2    1    1    2  501    0 -0.21411926650E+02  0.14519044010E+02  0.13502191952E+03  0.13747796912E+03  0.00000000000E+00 0.  1.
          2    1    1    2  502    0  0.21411926650E+02 -0.14519044010E+02  0.78933152600E+02  0.83064528056E+02  0.00000000000E+00 0.  1.
</event>
<event>
 4    1  0.8104768E+003  0.2142832E+02  0.7546771E-02  0.1513237E+00
          2   -1    0    0  501    0  0.00000000000E+00  0.00000000000E+00  0.51166754208E+02  0.51166754208E+02  0.00000000000E+00 0.  1.
          2   -1    0    0  502    0 -0.00000000000E+00 -0.00000000000E+00 -0.90258734022E+03  0.90258734022E+03  0.00000000000E+00 0.  1.
          2    1    1    2  501    0 -0.20136698768E+02 -0.73270797057E+01 -0.90021072453E+03  0.90046572467E+03  0.00000000000E+00 0.  1.
          2    1    1    2  502    0  0.20136698768E+02  0.73270797057E+01  0.48790138525E+02  0.53288369759E+02  0.00000000000E+00 0.  1.
</event>
<event>
 4    1  0.8104768E+003  0.2209252E+02  0.7546771E-02  0.1504219E+00
          2   -1    0    0  502    0  0.00000000000E+00  0.00000000000E+00  0.14298015338E+04  0.14298015338E+04  0.00000000000E+00 0.  1.
          2   -1    0    0  501    0 -0.00000000000E+00 -0.00000000000E+00 -0.64198805129E+02  0.64198805129E+02  0.00000000000E+00 0. -1.
          2    1    1    2  501    0  0.29342943780E+01  0.21896791762E+02  0.14278128895E+04  0.14279837979E+04  0.00000000000E+00 0.  1.
          2    1    1    2  502    0 -0.29342943780E+01 -0.21896791762E+02 -0.62210160865E+02  0.66016541017E+02  0.00000000000E+00 0. -1.
</event>
<event>
 4    1  0.8104768E+003  0.2038711E+02  0.7546771E-02  0.1528198E+00
          2   -1    0    0  502    0  0.00000000000E+00  0.00000000000E+00  0.27471650855E+03  0.27471650855E+03  0.00000000000E+00 0.  1.
          2   -1    0    0  501    0 -0.00000000000E+00 -0.00000000000E+00 -0.56422921691E+02  0.56422921691E+02  0.00000000000E+00 0. -1.
          2    1    1    2  501    0  0.12264970656E+02 -0.16285107658E+02  0.27248158349E+03  0.27324320225E+03  0.00000000000E+00 0.  1.
          2    1    1    2  502    0 -0.12264970656E+02  0.16285107658E+02 -0.54187996630E+02  0.57896227989E+02  0.00000000000E+00 0. -1.
</event>
<event>
 4    1  0.8104768E+003  0.3138901E+02  0.7546771E-02  0.1407898E+00
          2   -1    0    0  501    0  0.00000000000E+00  0.00000000000E+00  0.11985020354E+04  0.11985020354E+04  0.00000000000E+00 0. -1.
          2   -1    0    0  502    0 -0.00000000000E+00 -0.00000000000E+00 -0.39179407172E+02  0.39179407172E+02  0.00000000000E+00 0.  1.
          2    1    1    2  501    0  0.28126061538E+02  0.13935376256E+02 -0.32652554291E+02  0.45293038657E+02  0.00000000000E+00 0.  1.
          2    1    1    2  502    0 -0.28126061538E+02 -0.13935376256E+02  0.11919751825E+04  0.11923884039E+04  0.00000000000E+00 0. -1.
</event>
<event>
 4    1  0.8104768E+003  0.3940091E+02  0.7546771E-02  0.1352033E+00
          2   -1    0    0  502    0  0.00000000000E+00  0.00000000000E+00  0.11043741039E+04  0.11043741039E+04  0.00000000000E+00 0. -1.
          2   -1    0    0  501    0 -0.00000000000E+00 -0.00000000000E+00 -0.15186114907E+01  0.15186114907E+01  0.00000000000E+00 0. -1.
          2    1    1    2  501    0 -0.36097181647E+02 -0.15793205835E+02  0.70219455804E+03  0.70329910366E+03  0.00000000000E+00 0. -1.
          2    1    1    2  502    0  0.36097181647E+02  0.15793205835E+02  0.40066093434E+03  0.40259361169E+03  0.00000000000E+00 0. -1.
</event>
<event>
 4    1  0.8104768E+003  0.2139484E+02  0.7546771E-02  0.1513702E+00
          2   -1    0    0  502    0  0.00000000000E+00  0.00000000000E+00  0.27038801378E+01  0.27038801378E+01  0.00000000000E+00 0. -1.
          2   -1    0    0  501    0 -0.00000000000E+00 -0.00000000000E+00 -0.25188768337E+03  0.25188768337E+03  0.00000000000E+00 0.  1.
          2    1    1    2  501    0  0.20515256366E+02 -0.60715124258E+01 -0.51697308262E+02  0.55949536982E+02  0.00000000000E+00 0. -1.
          2    1    1    2  502    0 -0.20515256366E+02  0.60715124258E+01 -0.19748649497E+03  0.19864202652E+03  0.00000000000E+00 0.  1.
</event>
<event>
 4    1  0.8104768E+003  0.2528438E+02  0.7546771E-02  0.1465647E+00
          2   -1    0    0  501    0  0.00000000000E+00  0.00000000000E+00  0.38519420561E+02  0.38519420561E+02  0.00000000000E+00 0.  1.
          2   -1    0    0  502    0 -0.00000000000E+00 -0.00000000000E+00 -0.32396842350E+02  0.32396842350E+02  0.00000000000E+00 0. -1.
          2    1    1    2  501    0  0.25284232320E+02  0.87305923869E-01 -0.21701143489E+02  0.33320258928E+02  0.00000000000E+00 0. -1.
          2    1    1    2  502    0 -0.25284232320E+02 -0.87305923869E-01  0.27823721699E+02  0.37596003983E+02  0.00000000000E+00 0.  1.
</event>
<event>
 4    1  0.8104768E+003  0.2240440E+02  0.7546771E-02  0.1500116E+00
          2   -1    0    0  502    0  0.00000000000E+00  0.00000000000E+00  0.11637434552E+01  0.11637434552E+01  0.00000000000E+00 0. -1.
          2   -1    0    0  501    0 -0.00000000000E+00 -0.00000000000E+00 -0.76966945709E+03  0.76966945709E+03  0.00000000000E+00 0. -1.
          2    1    1    2  501    0  0.66439499863E+01  0.21396608768E+02 -0.12871520235E+03  0.13065052719E+03  0.00000000000E+00 0. -1.
          2    1    1    2  502    0 -0.66439499863E+01 -0.21396608768E+02 -0.63979051129E+03  0.64018267336E+03  0.00000000000E+00 0. -1.
</event>
<event>
 4    1  0.8104768E+003  0.2009765E+02  0.7546771E-02  0.1532548E+00
          2   -1    0    0  501    0  0.00000000000E+00  0.00000000000E+00  0.24882029348E+03  0.24882029348E+03  0.00000000000E+00 0. -1.
          2   -1    0    0  502    0 -0.00000000000E+00 -0.00000000000E+00 -0.93284726380E+03  0.93284726380E+03  0.00000000000E+00 0.  1.
          2    1    1    2  501    0 -0.17011827215E+02  0.10701092301E+02 -0.93233296120E+03  0.93254955160E+03  0.00000000000E+00 0.  1.
          2    1    1    2  502    0  0.17011827215E+02 -0.10701092301E+02  0.24830599089E+03  0.24911800568E+03  0.00000000000E+00 0. -1.
</event>
<event>
 4    1  0.8104768E+003  0.2932815E+02  0.7546771E-02  0.1425526E+00
          2   -1    0    0  502    0  0.00000000000E+00  0.00000000000E+00  0.17015245119E+01  0.17015245119E+01  0.00000000000E+00 0.  1.
          2   -1    0    0  501    0 -0.00000000000E+00 -0.00000000000E+00 -0.18683843789E+04  0.18683843789E+04  0.00000000000E+00 0.  1.
          2    1    1    2  501    0 -0.24460715174E+02 -0.16180660713E+02 -0.13474730988E+03  0.13790205904E+03  0.00000000000E+00 0.  1.
          2    1    1    2  502    0  0.24460715174E+02  0.16180660713E+02 -0.17319355445E+04  0.17321838444E+04  0.00000000000E+00 0.  1.
</event>
<event>
 4    1  0.8104768E+003  0.2981311E+02  0.7546771E-02  0.1421228E+00
          2   -1    0    0  502    0  0.00000000000E+00  0.00000000000E+00  0.29255237237E+01  0.29255237237E+01  0.00000000000E+00 0.  1.
          2   -1    0    0  501    0 -0.00000000000E+00 -0.00000000000E+00 -0.72325426977E+03  0.72325426977E+03  0.00000000000E+00 0. -1.
          2    1    1    2  501    0 -0.16529894881E+02  0.24810971749E+02 -0.83659657979E+02  0.88813062762E+02  0.00000000000E+00 0.  1.
          2    1    1    2  502    0  0.16529894881E+02 -0.24810971749E+02 -0.63666908807E+03  0.63736673073E+03  0.00000000000E+00 0. -1.
</event>
<event>
 4    1  0.8104768E+003  0.2145603E+02  0.7546771E-02  0.1512852E+00
          2   -1    0    0  501    0  0.00000000000E+00  0.00000000000E+00  0.14661909984E+01  0.14661909984E+01  0.00000000000E+00 0. -1.
          2   -1    0    0  502    0 -0.00000000000E+00 -0.00000000000E+00 -0.52549432736E+03  0.52549432736E+03  0.00000000000E+00 0. -1.
          2    1    1    2  501    0  0.65687645957E+01  0.20425782254E+02 -0.42917290491E+03  0.42970890561E+03  0.00000000000E+00 0. -1.
          2    1    1    2  502    0 -0.65687645957E+01 -0.20425782254E+02 -0.94855231451E+02  0.97251612751E+02  0.00000000000E+00 0. -1.
</event>
<event>
 4    1  0.8104768E+003  0.2038960E+02  0.7546771E-02  0.1528161E+00
          2   -1    0    0  502    0  0.00000000000E+00  0.00000000000E+00  0.32716594456E+00  0.32716594456E+00  0.00000000000E+00 0. -1.
          2   -1    0    0  501    0 -0.00000000000E+00 -0.00000000000E+00 -0.13146632293E+04  0.13146632293E+04  0.00000000000E+00 0. -1.
          2    1    1    2  501    0 -0.48027720076E+00  0.20383946331E+02 -0.77737702860E+03  0.77764437922E+03  0.00000000000E+00 0. -1.
          2    1    1    2  502    0  0.48027720076E+00 -0.20383946331E+02 -0.53695903471E+03  0.53734601598E+03  0.00000000000E+00 0. -1.
</event>
<event>
 4    1  0.8104768E+003  0.2328877E+02  0.7546771E-02  0.1488904E+00
          2   -1    0    0  502    0  0.00000000000E+00  0.00000000000E+00  0.52348316862E+03  0.52348316862E+03  0.00000000000E+00 0.  1.
          2   -1    0    0  501    0 -0.00000000000E+00 -0.00000000000E+00 -0.13229995080E+02  0.13229995080E+02  0.00000000000E+00 0. -1.
          2    1    1    2  501    0 -0.43908704264E+01  0.22871092432E+02  0.51276114863E+03  0.51328974484E+03  0.00000000000E+00 0.  1.
          2    1    1    2  502    0  0.43908704264E+01 -0.22871092432E+02 -0.25079750890E+01  0.23423418862E+02  0.00000000000E+00 0. -1.
</event>
<event>
 4    1  0.8104768E+003  0.8819691E+02  0.7546771E-02  0.1185999E+00
          2   -1    0    0  501    0  0.00000000000E+00  0.00000000000E+00  0.34750942140E+03  0.34750942140E+03  0.00000000000E+00 0. -1.
          2   -1    0    0  502    0 -0.00000000000E+00 -0.00000000000E+00 -0.95485135152E+02  0.95485135152E+02  0.00000000000E+00 0.  1.
          2    1    1    2  501    0  0.86469382414E+02 -0.17370665307E+02 -0.67791618189E+02  0.11124026971E+03  0.00000000000E+00 0.  1.
          2    1    1    2  502    0 -0.86469382414E+02  0.17370665307E+02  0.31981590444E+03  0.33175428684E+03  0.00000000000E+00 0. -1.
</event>
<event>
 4    1  0.8104768E+003  0.2297975E+02  0.7546771E-02  0.1492753E+00
          2   -1    0    0  502    0  0.00000000000E+00  0.00000000000E+00  0.90955809280E+03  0.90955809280E+03  0.00000000000E+00 0.  1.
          2   -1    0    0  501    0 -0.00000000000E+00 -0.00000000000E+00 -0.30997930555E+02  0.30997930555E+02  0.00000000000E+00 0. -1.
          2    1    1    2  501    0  0.22962673063E+02 -0.88584167403E+00  0.90513322567E+03  0.90542488661E+03  0.00000000000E+00 0.  1.
          2    1    1    2  502    0 -0.22962673063E+02  0.88584167403E+00 -0.26573063424E+02  0.35131136751E+02  0.00000000000E+00 0. -1.
</event>
<event>
 4    1  0.8104768E+003  0.2322483E+02  0.7546771E-02  0.1489694E+00
          2   -1    0    0  502    0  0.00000000000E+00  0.00000000000E+00  0.14855942740E+03  0.14855942740E+03  0.00000000000E+00 0.  1.
          2   -1    0    0  501    0 -0.00000000000E+00 -0.00000000000E+00 -0.45570906500E+03  0.45570906500E+03  0.00000000000E+00 0.  1.
          2    1    1    2  501    0 -0.14650092110E+02  0.18021303061E+02  0.14735340694E+03  0.14917244752E+03  0.00000000000E+00 0.  1.
          2    1    1    2  502    0  0.14650092110E+02 -0.18021303061E+02 -0.45450304454E+03  0.45509604487E+03  0.00000000000E+00 0.  1.
</event>
<event>
 4    1  0.8104768E+003  0.2249540E+02  0.7546771E-02  0.1498934E+00
          2   -1    0    0  502    0  0.00000000000E+00  0.00000000000E+00  0.36131912883E+02  0.36131912883E+02  0.00000000000E+00 0. -1.
          2   -1    0    0  501    0 -0.00000000000E+00 -0.00000000000E+00 -0.58250409907E+03  0.58250409907E+03  0.00000000000E+00 0. -1.
          2    1    1    2  501    0  0.18670373003E+02 -0.12548305698E+02  0.32390747877E+02  0.39436066639E+02  0.00000000000E+00 0. -1.
          2    1    1    2  502    0 -0.18670373003E+02  0.12548305698E+02 -0.57876293407E+03  0.57919994532E+03  0.00000000000E+00 0. -1.
</event>
<event>
 4    1  0.8104768E+003  0.2132151E+02  0.7546771E-02  0.1514724E+00
          2   -1    0    0  501    0  0.00000000000E+00  0.00000000000E+00  0.50662780023E+03  0.50662780023E+03  0.00000000000E+00 0.  1.
          2   -1    0    0  502    0 -0.00000000000E+00 -0.00000000000E+00 -0.64527107142E+01  0.64527107142E+01  0.00000000000E+00 0. -1.
          2    1    1    2  501    0  0.33825451999E+01  0.21051485642E+02  0.12052020555E+02  0.24491995820E+02  0.00000000000E+00 0. -1.
          2    1    1    2  502    0 -0.33825451999E+01 -0.21051485642E+02  0.48812306896E+03  0.48858851513E+03  0.00000000000E+00 0.  1.
</event>
<event>
 4    1  0.8104768E+003  0.2110830E+02  0.7546771E-02  0.1517724E+00
          2   -1    0    0  501    0  0.00000000000E+00  0.00000000000E+00  0.21820482364E+02  0.21820482364E+02  0.00000000000E+00 0.  1.
          2   -1    0    0  502    0 -0.00000000000E+00 -0.00000000000E+00 -0.23719393773E+02  0.23719393773E+02  0.00000000000E+00 0. -1.
          2    1    1    2  501    0 -0.18387836856E+02  0.10365697523E+02 -0.94426178639E+01  0.23124084015E+02  0.00000000000E+00 0. -1.
          2    1    1    2  502    0  0.18387836856E+02 -0.10365697523E+02  0.75437064554E+01  0.22415792122E+02  0.00000000000E+00 0.  1.
</event>
<event>
 4    1  0.8104768E+003  0.3539625E+02  0.7546771E-02  0.1377799E+00
          2   -1    0    0  501    0  0.00000000000E+00  0.00000000000E+00  0.15374159980E+04  0.15374159980E+04  0.00000000000E+00 0.  1.
          2   -1    0    0  502    0 -0.00000000000E+00 -0.00000000000E+00 -0.28231673773E+03  0.28231673773E+03  0.00000000000E+00 0. -1.
          2    1    1    2  501    0 -0.29792805192E+02 -0.19112377087E+02 -0.28100257925E+03  0.28322313420E+03  0.00000000000E+00 0. -1.
          2    1    1    2  502    0  0.29792805192E+02  0.19112377087E+02  0.15361018395E+04  0.15365096015E+04  0.00000000000E+00 0.  1.
</event>
<event>
 4    1  0.8104768E+003  0.7877784E+02  0.7546771E-02  0.1206714E+00
          2   -1    0    0  502    0  0.00000000000E+00  0.00000000000E+00  0.15262370839E+04  0.15262370839E+04  0.00000000000E+00 0. -1.
          2   -1    0    0  501    0 -0.00000000000E+00 -0.00000000000E+00 -0.13407634329E+03  0.13407634329E+03  0.00000000000E+00 0.  1.
          2    1    1    2  501    0  0.52799544375E+02  0.58464996434E+02  0.15135519552E+04  0.15156006957E+04  0.00000000000E+00 0. -1.
          2    1    1    2  502    0 -0.52799544375E+02 -0.58464996434E+02 -0.12139121456E+03  0.14471273153E+03  0.00000000000E+00 0.  1.
</event>
<event>
 4    1  0.8104768E+003  0.4382133E+02  0.7546771E-02  0.1327439E+00
          2   -1    0    0  502    0  0.00000000000E+00  0.00000000000E+00  0.14448154593E+03  0.14448154593E+03  0.00000000000E+00 0.  1.
          2   -1    0    0  501    0 -0.00000000000E+00 -0.00000000000E+00 -0.22867332543E+02  0.22867332543E+02  0.00000000000E+00 0.  1.
          2    1    1    2  501    0  0.60679807036E+01  0.43399177912E+02  0.11495529267E+03  0.12302450303E+03  0.00000000000E+00 0.  1.
          2    1    1    2  502    0 -0.60679807036E+01 -0.43399177912E+02  0.66589207185E+01  0.44324375443E+02  0.00000000000E+00 0.  1.
</event>
<event>
 4    1  0.8104768E+003  0.2448739E+02  0.7546771E-02  0.1474620E+00
          2   -1    0    0  501    0  0.00000000000E+00  0.00000000000E+00  0.63853512452E+00  0.63853512452E+00  0.00000000000E+00 0.  1.
          2   -1    0    0  502    0 -0.00000000000E+00 -0.00000000000E+00 -0.98693195061E+03  0.98693195061E+03  0.00000000000E+00 0. -1.
          2    1    1    2  501    0 -0.17546765513E+02  0.17080497597E+02 -0.60188110973E+03  0.60237903568E+03  0.00000000000E+00 0. -1.
          2    1    1    2  502    0  0.17546765513E+02 -0.17080497597E+02 -0.38441230576E+03  0.38519145006E+03  0.00000000000E+00 0.  1.
</event>
<event>
 4    1  0.1284653E+004  0.2949264E+02  0.7546771E-02  0.1424057E+00
          2   -1    0    0  502    0  0.00000000000E+00  0.00000000000E+00  0.52103855453E+03  0.52103855453E+03  0.00000000000E+00 0. -1.
          2   -1    0    0  501    0 -0.00000000000E+00 -0.00000000000E+00 -0.10373426726E+04  0.10373426726E+04  0.00000000000E+00 0. -1.
          2    1    1    2  501    0  0.28869251158E+02 -0.60317860541E+01  0.52041132877E+03  0.52124635943E+03  0.00000000000E+00 0. -1.
          2    1    1    2  502    0 -0.28869251158E+02  0.60317860541E+01 -0.10367154468E+04  0.10371348677E+04  0.00000000000E+00 0. -1.
</event>
<event>
 4    1  0.8104768E+003  0.6790991E+02  0.7546771E-02  0.1235093E+00
          2   -1    0    0  501    0  0.00000000000E+00  0.00000000000E+00  0.20354873568E+02  0.20354873568E+02  0.00000000000E+00 0. -1.
          2   -1    0    0  502    0 -0.00000000000E+00 -0.00000000000E+00 -0.35495744973E+03  0.35495744973E+03  0.00000000000E+00 0. -1.
          2    1    1    2  501    0  0.11578443640E+01 -0.67900042227E+02 -0.28016125096E+03  0.28827431880E+03  0.00000000000E+00 0. -1.
          2    1    1    2  502    0 -0.11578443640E+01  0.67900042227E+02 -0.54441325201E+02  0.87038004502E+02  0.00000000000E+00 0. -1.
</event>
<event>
 4    1  0.8104768E+003  0.5768651E+02  0.7546771E-02  0.1267902E+00
          2   -1    0    0  501    0  0.00000000000E+00  0.00000000000E+00  0.10779371242E+04  0.10779371242E+04  0.00000000000E+00 0.  1.
          2   -1    0    0  502    0 -0.00000000000E+00 -0.00000000000E+00 -0.10010340662E+04  0.10010340662E+04  0.00000000000E+00 0.  1.
          2    1    1    2  501    0  0.25840025289E+02 -0.51575445494E+02 -0.99942997173E+03  0.10010934032E+04  0.00000000000E+00 0.  1.
          2    1    1    2  502    0 -0.25840025289E+02  0.51575445494E+02  0.10763330297E+04  0.10778777873E+04  0.00000000000E+00 0.  1.
</event>
<event>
 4    1  0.8104768E+003  0.3327295E+02  0.7546771E-02  0.1393129E+00
          2   -1    0    0  502    0  0.00000000000E+00  0.00000000000E+00  0.26517274218E+03  0.26517274218E+03  0.00000000000E+00 0.  1.
          2   -1    0    0  501    0 -0.00000000000E+00 -0.00000000000E+00 -0.32782913003E+03  0.32782913003E+03  0.00000000000E+00 0. -1.
          2    1    1    2  501    0 -0.33223753692E+02  0.18086877420E+01  0.26327869144E+03  0.26537286698E+03  0.00000000000E+00 0.  1.
          2    1    1    2  502    0  0.33223753692E+02 -0.18086877420E+01 -0.32593507929E+03  0.32762900524E+03  0.00000000000E+00 0. -1.
</event>
<event>
 4    1  0.8104768E+003  0.4415409E+02  0.7546771E-02  0.1325724E+00
          2   -1    0    0  502    0  0.00000000000E+00  0.00000000000E+00  0.10077612026E+03  0.10077612026E+03  0.00000000000E+00 0. -1.
          2   -1    0    0  501    0 -0.00000000000E+00 -0.00000000000E+00 -0.15032446513E+03  0.15032446513E+03  0.00000000000E+00 0. -1.
          2    1    1    2  501    0  0.41834263640E+02 -0.14123673057E+02  0.92419281876E+02  0.10242513079E+03  0.00000000000E+00 0. -1.
          2    1    1    2  502    0 -0.41834263640E+02  0.14123673057E+02 -0.14196762675E+03  0.14867545459E+03  0.00000000000E+00 0. -1.
</event>
<event>
 4    1  0.8104768E+003  0.2805182E+02  0.7546771E-02  0.1437319E+00
          2   -1    0    0  502    0  0.00000000000E+00  0.00000000000E+00  0.14752566875E+01  0.14752566875E+01  0.00000000000E+00 0.  1.
          2   -1    0    0  501    0 -0.00000000000E+00 -0.00000000000E+00 -0.53444279625E+03  0.53444279625E+03  0.00000000000E+00 0.  1.
          2    1    1    2  501    0 -0.32250818109E+01  0.27865808218E+02 -0.25465706153E+03  0.25619743052E+03  0.00000000000E+00 0.  1.
          2    1    1    2  502    0  0.32250818109E+01 -0.27865808218E+02 -0.27831047803E+03  0.27972062242E+03  0.00000000000E+00 0.  1.
</event>
<event>
 4    1  0.8104768E+003  0.2496007E+02  0.7546771E-02  0.1469251E+00
          2   -1    0    0  502    0  0.00000000000E+00  0.00000000000E+00  0.35168494025E+01  0.35168494025E+01  0.00000000000E+00 0.  1.
          2   -1    0    0  501    0 -0.00000000000E+00 -0.00000000000E+00 -0.16855266437E+04  0.16855266437E+04  0.00000000000E+00 0. -1.
          2    1    1    2  501    0 -0.38958664017E+01 -0.24654157761E+02 -0.42094424741E+02  0.48938184112E+02  0.00000000000E+00 0.  1.
          2    1    1    2  502    0  0.38958664017E+01  0.24654157761E+02 -0.16399153695E+04  0.16401053090E+04  0.00000000000E+00 0. -1.
</event>
<event>
 4    1  0.8104768E+003  0.2140660E+02  0.7546771E-02  0.1513538E+00
          2   -1    0    0  502    0  0.00000000000E+00  0.00000000000E+00  0.32608918103E+01  0.32608918103E+01  0.00000000000E+00 0.  1.
          2   -1    0    0  501    0 -0.00000000000E+00 -0.00000000000E+00 -0.18807822092E+03  0.18807822092E+03  0.00000000000E+00 0.  1.
          2    1    1    2  501    0  0.13684659592E+02  0.16461243585E+02 -0.44304065915E+02  0.49204600447E+02  0.00000000000E+00 0.  1.
          2    1    1    2  502    0 -0.13684659592E+02 -0.16461243585E+02 -0.14051326319E+03  0.14213451228E+03  0.00000000000E+00 0.  1.
</event>
<event>
 4    1  0.8104768E+003  0.2428987E+02  0.7546771E-02  0.1476907E+00
          2   -1    0    0  501    0  0.00000000000E+00  0.00000000000E+00  0.30486281668E+03  0.30486281668E+03  0.00000000000E+00 0.  1.
          2   -1    0    0  502    0 -0.00000000000E+00 -0.00000000000E+00 -0.17379040263E+03  0.17379040263E+03  0.00000000000E+00 0. -1.
          2    1    1    2  501    0  0.20326676534E+02 -0.13297517894E+02 -0.17245412949E+03  0.17415632213E+03  0.00000000000E+00 0. -1.
          2    1    1    2  502    0 -0.20326676534E+02  0.13297517894E+02  0.30352654354E+03  0.30449689718E+03  0.00000000000E+00 0.  1.
</event>
<event>
 4    1  0.8104768E+003  0.2202866E+02  0.7546771E-02  0.1505069E+00
          2   -1    0    0  502    0  0.00000000000E+00  0.00000000000E+00  0.47437769190E+03  0.47437769190E+03  0.00000000000E+00 0. -1.
          2   -1    0    0  501    0 -0.00000000000E+00 -0.00000000000E+00 -0.47552292261E+02  0.47552292261E+02  0.00000000000E+00 0.  1.
          2    1    1    2  501    0 -0.57937963998E+01  0.21253085699E+02  0.47155549517E+03  0.47206974776E+03  0.00000000000E+00 0. -1.
          2    1    1    2  502    0  0.57937963998E+01 -0.21253085699E+02 -0.44730095526E+02  0.49860236403E+02  0.00000000000E+00 0.  1.
</event>
<event>
 4    1  0.8104768E+003  0.2681727E+02  0.7546771E-02  0.1449452E+00
          2   -1    0    0  501    0  0.00000000000E+00  0.00000000000E+00  0.28310223389E+02  0.28310223389E+02  0.00000000000E+00 0.  1.
          2   -1    0    0  502    0 -0.00000000000E+00 -0.00000000000E+00 -0.11406290820E+04  0.11406290820E+04  0.00000000000E+00 0.  1.
          2    1    1    2  501    0 -0.62665756221E+01  0.26074819585E+02 -0.11340840466E+04  0.11344010715E+04  0.00000000000E+00 0.  1.
          2    1    1    2  502    0  0.62665756221E+01 -0.26074819585E+02  0.21765188061E+02  0.34538233854E+02  0.00000000000E+00 0.  1.
</event>
<event>
 4    1  0.8104768E+003  0.2889845E+02  0.7546771E-02  0.1429416E+00
          2   -1    0    0  501    0  0.00000000000E+00  0.00000000000E+00  0.35657200383E+03  0.35657200383E+03  0.00000000000E+00 0. -1.
          2   -1    0    0  502    0 -0.00000000000E+00 -0.00000000000E+00 -0.40703390230E+02  0.40703390230E+02  0.00000000000E+00 0.  1.
          2    1    1    2  501    0  0.96046754427E+01  0.27255653250E+02 -0.34903903168E+02  0.45314488641E+02  0.00000000000E+00 0.  1.
          2    1    1    2  502    0 -0.96046754427E+01 -0.27255653250E+02  0.35077251676E+03  0.35196090542E+03  0.00000000000E+00 0. -1.
</event>
<event>
 4    1  0.8104768E+003  0.3102567E+02  0.7546771E-02  0.1410888E+00
          2   -1    0    0  501    0  0.00000000000E+00  0.00000000000E+00  0.11554274027E+01  0.11554274027E+01  0.00000000000E+00 0. -1.
          2   -1    0    0  502    0 -0.00000000000E+00 -0.00000000000E+00 -0.21289964457E+04  0.21289964457E+04  0.00000000000E+00 0. -1.
          2    1    1    2  501    0 -0.31024228252E+02 -0.29885920416E+00 -0.18948754189E+04  0.18951294006E+04  0.00000000000E+00 0. -1.
          2    1    1    2  502    0  0.31024228252E+02  0.29885920416E+00 -0.23296559942E+03  0.23502247248E+03  0.00000000000E+00 0. -1.
</event>
<event>
 4    1  0.8104768E+003  0.2086224E+02  0.7546771E-02  0.1521241E+00
          2   -1    0    0  502    0  0.00000000000E+00  0.00000000000E+00  0.92166228779E+00  0.92166228779E+00  0.00000000000E+00 0.  1.
          2   -1    0    0  501    0 -0.00000000000E+00 -0.00000000000E+00 -0.48369285882E+03  0.48369285882E+03  0.00000000000E+00 0.  1.
          2    1    1    2  501    0  0.18236046266E+02 -0.10133089595E+02 -0.27869377056E+03  0.27947352403E+03  0.00000000000E+00 0.  1.
          2    1    1    2  502    0 -0.18236046266E+02  0.10133089595E+02 -0.20407742598E+03  0.20514099708E+03  0.00000000000E+00 0.  1.
</event>
<event>
 4    1  0.8104768E+003  0.3086889E+02  0.7546771E-02  0.1412193E+00
          2   -1    0    0  502    0  0.00000000000E+00  0.00000000000E+00  0.39697432061E+03  0.39697432061E+03  0.00000000000E+00 0. -1.
          2   -1    0    0  501    0 -0.00000000000E+00 -0.00000000000E+00 -0.13145467273E+03  0.13145467273E+03  0.00000000000E+00 0. -1.
          2    1    1    2  501    0 -0.12983339647E+02  0.28005736482E+02  0.39455091271E+03  0.39575663115E+03  0.00000000000E+00 0. -1.
          2    1    1    2  502    0  0.12983339647E+02 -0.28005736482E+02 -0.12903126483E+03  0.13267236219E+03  0.00000000000E+00 0. -1.
</event>
<event>
 4    1  0.8104768E+003  0.2143042E+02  0.7546771E-02  0.1513207E+00
          2   -1    0    0  502    0  0.00000000000E+00  0.00000000000E+00  0.91816995582E+00  0.91816995582E+00  0.00000000000E+00 0. -1.
          2   -1    0    0  501    0 -0.00000000000E+00 -0.00000000000E+00 -0.88827847269E+03  0.88827847269E+03  0.00000000000E+00 0. -1.
          2    1    1    2  501    0 -0.14764113575E+02 -0.15533314005E+02 -0.14980930011E+03  0.15133436257E+03  0.00000000000E+00 0. -1.
          2    1    1    2  502    0  0.14764113575E+02  0.15533314005E+02 -0.73755100262E+03  0.73786228007E+03  0.00000000000E+00 0. -1.
</event>
<event>
 4    1  0.8104768E+003  0.2987739E+02  0.7546771E-02  0.1420665E+00
          2   -1    0    0  501    0  0.00000000000E+00  0.00000000000E+00  0.23099625042E+01  0.23099625042E+01  0.00000000000E+00 0.  1.
          2   -1    0    0  502    0 -0.00000000000E+00 -0.00000000000E+00 -0.80761658066E+03  0.80761658066E+03  0.00000000000E+00 0. -1.
          2    1    1    2  501    0  0.24047514352E+01  0.29780456938E+02 -0.69509945597E+03  0.69574126810E+03  0.00000000000E+00 0. -1.
          2    1    1    2  502    0 -0.24047514352E+01 -0.29780456938E+02 -0.11020716218E+03  0.11418527506E+03  0.00000000000E+00 0.  1.
</event>
<event>
 4    1  0.8104768E+003  0.2322914E+02  0.7546771E-02  0.1489641E+00
          2   -1    0    0  502    0  0.00000000000E+00  0.00000000000E+00  0.32787190544E+03  0.32787190544E+03  0.00000000000E+00 0. -1.
          2   -1    0    0  501    0 -0.00000000000E+00 -0.00000000000E+00 -0.62016911346E+02  0.62016911346E+02  0.00000000000E+00 0. -1.
          2    1    1    2  501    0 -0.22551765712E+02 -0.55687465055E+01  0.32526789249E+03  0.32609629707E+03  0.00000000000E+00 0. -1.
          2    1    1    2  502    0  0.22551765712E+02  0.55687465055E+01 -0.59412898405E+02  0.63792519712E+02  0.00000000000E+00 0. -1.
</event>
<event>
 4    1  0.8104768E+003  0.2289396E+02  0.7546771E-02  0.1493834E+00
          2   -1    0    0  502    0  0.00000000000E+00  0.00000000000E+00  0.92891593155E+01  0.92891593155E+01  0.00000000000E+00 0. -1.
          2   -1    0    0  501    0 -0.00000000000E+00 -0.00000000000E+00 -0.93489500960E+03  0.93489500960E+03  0.00000000000E+00 0.  1.
          2    1    1    2  501    0  0.21863405860E+02 -0.67915221094E+01 -0.51787406386E+01  0.23472380428E+02  0.00000000000E+00 0. -1.
          2    1    1    2  502    0 -0.21863405860E+02  0.67915221094E+01 -0.92042710964E+03  0.92071178849E+03  0.00000000000E+00 0.  1.
</event>
<event>
 4    1  0.8104768E+003  0.2566769E+02  0.7546771E-02  0.1461471E+00
          2   -1    0    0  502    0  0.00000000000E+00  0.00000000000E+00  0.52253032494E+03  0.52253032494E+03  0.00000000000E+00 0.  1.
          2   -1    0    0  501    0 -0.00000000000E+00 -0.00000000000E+00 -0.27217344394E+01  0.27217344394E+01  0.00000000000E+00 0.  1.
          2    1    1    2  501    0 -0.14895362469E+02 -0.20903546856E+02  0.45231244798E+03  0.45304015351E+03  0.00000000000E+00 0.  1.
          2    1    1    2  502    0  0.14895362469E+02  0.20903546856E+02  0.67496142526E+02  0.72211905875E+02  0.00000000000E+00 0.  1.
</event>
<event>
 4    1  0.8104768E+003  0.2083551E+02  0.7546771E-02  0.1521626E+00
          2   -1    0    0  502    0  0.00000000000E+00  0.00000000000E+00  0.91215135567E+00  0.91215135567E+00  0.00000000000E+00 0. -1.
          2   -1    0    0  501    0 -0.00000000000E+00 -0.00000000000E+00 -0.50587613362E+03  0.50587613362E+03  0.00000000000E+00 0. -1.
          2    1    1    2  501    0 -0.17347609817E+02 -0.11540324024E+02 -0.31413541148E+03  0.31482562696E+03  0.00000000000E+00 0. -1.
          2    1    1    2  502    0  0.17347609817E+02  0.11540324024E+02 -0.19082857078E+03  0.19196265801E+03  0.00000000000E+00 0. -1.
</event>
<event>
 4    1  0.8104768E+003  0.3786365E+02  0.7546771E-02  0.1361481E+00
          2   -1    0    0  501    0  0.00000000000E+00  0.00000000000E+00  0.34220579902E+01  0.34220579902E+01  0.00000000000E+00 0. -1.
          2   -1    0    0  502    0 -0.00000000000E+00 -0.00000000000E+00 -0.12651653122E+04  0.12651653122E+04  0.00000000000E+00 0. -1.
          2    1    1    2  501    0  0.22604981673E+02  0.30375493531E+02 -0.11496219065E+04  0.11502452711E+04  0.00000000000E+00 0. -1.
          2    1    1    2  502    0 -0.22604981673E+02 -0.30375493531E+02 -0.11212134779E+03  0.11834209916E+03  0.00000000000E+00 0. -1.
</event>
<event>
 4    1  0.8104768E+003  0.2210899E+02  0.7546771E-02  0.1504000E+00
          2   -1    0    0  502    0  0.00000000000E+00  0.00000000000E+00  0.13629061680E+02  0.13629061680E+02  0.00000000000E+00 0. -1.
          2   -1    0    0  501    0 -0.00000000000E+00 -0.00000000000E+00 -0.10705428006E+03  0.10705428006E+03  0.00000000000E+00 0.  1.
          2    1    1    2  501    0  0.22067322334E+02  0.13568017354E+01  0.24938728945E+01  0.22249202861E+02  0.00000000000E+00 0. -1.
          2    1    1    2  502    0 -0.22067322334E+02 -0.13568017354E+01 -0.95919091279E+02  0.98434138883E+02  0.00000000000E+00 0.  1.
</event>
<event>
 4    1  0.8104768E+003  0.2572748E+02  0.7546771E-02  0.1460827E+00
          2   -1    0    0  502    0  0.00000000000E+00  0.00000000000E+00  0.15500662999E+04  0.15500662999E+04  0.00000000000E+00 0.  1.
          2   -1    0    0  501    0 -0.00000000000E+00 -0.00000000000E+00 -0.26048651697E+03  0.26048651697E+03  0.00000000000E+00 0.  1.
          2    1    1    2  501    0 -0.52975778427E+01  0.25176160764E+02  0.15493239847E+04  0.15495375803E+04  0.00000000000E+00 0.  1.
          2    1    1    2  502    0  0.52975778427E+01 -0.25176160764E+02 -0.25974420170E+03  0.26101523656E+03  0.00000000000E+00 0.  1.
</event>
<event>
 4    1  0.8104768E+003  0.4053194E+02  0.7546771E-02  0.1345397E+00
          2   -1    0    0  502    0  0.00000000000E+00  0.00000000000E+00  0.26691077080E+03  0.26691077080E+03  0.00000000000E+00 0. -1.
          2   -1    0    0  501    0 -0.00000000000E+00 -0.00000000000E+00 -0.23892963501E+03  0.23892963501E+03  0.00000000000E+00 0.  1.
          2    1    1    2  501    0 -0.28360964323E+02 -0.28956752035E+02  0.26363180837E+03  0.26672939127E+03  0.00000000000E+00 0. -1.
          2    1    1    2  502    0  0.28360964323E+02  0.28956752035E+02 -0.23565067257E+03  0.23911101453E+03  0.00000000000E+00 0.  1.
</event>
<event>
 4    1  0.8104768E+003  0.2316532E+02  0.7546771E-02  0.1490433E+00
          2   -1    0    0  501    0  0.00000000000E+00  0.00000000000E+00  0.10875460633E+01  0.10875460633E+01  0.00000000000E+00 0.  1.
          2   -1    0    0  502    0 -0.00000000000E+00 -0.00000000000E+00 -0.11966843265E+04  0.11966843265E+04  0.00000000000E+00 0. -1.
          2    1    1    2  501    0  0.73531451911E+01  0.21967325824E+02 -0.10569005125E+04  0.10571543527E+04  0.00000000000E+00 0. -1.
          2    1    1    2  502    0 -0.73531451911E+01 -0.21967325824E+02 -0.13869626800E+03  0.14061751991E+03  0.00000000000E+00 0.  1.
</event>
<event>
 4    1  0.8104768E+003  0.2160646E+02  0.7546771E-02  0.1510780E+00
          2   -1    0    0  501    0  0.00000000000E+00  0.00000000000E+00  0.12323817199E+04  0.12323817199E+04  0.00000000000E+00 0.  1.
          2   -1    0    0  502    0 -0.00000000000E+00 -0.00000000000E+00 -0.48744970630E+00  0.48744970630E+00  0.00000000000E+00 0.  1.
          2    1    1    2  501    0 -0.10362172272E+02  0.18959547354E+02  0.32493203725E+03  0.32564960906E+03  0.00000000000E+00 0.  1.
          2    1    1    2  502    0  0.10362172272E+02 -0.18959547354E+02  0.90696223289E+03  0.90721956049E+03  0.00000000000E+00 0.  1.
</event>
<event>
 4    1  0.8104768E+003  0.3540311E+02  0.7546771E-02  0.1377751E+00
          2   -1    0    0  501    0  0.00000000000E+00  0.00000000000E+00  0.62467165532E+02  0.62467165532E+02  0.00000000000E+00 0.  1.
          2   -1    0    0  502    0 -0.00000000000E+00 -0.00000000000E+00 -0.40900175099E+02  0.40900175099E+02  0.00000000000E+00 0.  1.
          2    1    1    2  501    0  0.30968847346E+02  0.17155477866E+02 -0.26105200802E+02  0.43987059866E+02  0.00000000000E+00 0.  1.
          2    1    1    2  502    0 -0.30968847346E+02 -0.17155477866E+02  0.47672191234E+02  0.59380280766E+02  0.00000000000E+00 0.  1.
</event>
<event>
 4    1  0.8104768E+003  0.2351084E+02  0.7546771E-02  0.1486181E+00
          2   -1    0    0  502    0  0.00000000000E+00  0.00000000000E+00  0.94126434159E+03  0.94126434159E+03  0.00000000000E+00 0. -1.
          2   -1    0    0  501    0 -0.00000000000E+00 -0.00000000000E+00 -0.11214379948E+02  0.11214379948E+02  0.00000000000E+00 0. -1.
          2    1    1    2  501    0 -0.22284638543E+02 -0.74936194522E+01  0.92862730711E+03  0.92892488123E+03  0.00000000000E+00 0. -1.
          2    1    1    2  502    0  0.22284638543E+02  0.74936194522E+01  0.14226545281E+01  0.23553840310E+02  0.00000000000E+00 0. -1.
</event>
<event>
 4    1  0.8104768E+003  0.3010375E+02  0.7546771E-02  0.1418697E+00
          2   -1    0    0  502    0  0.00000000000E+00  0.00000000000E+00  0.16907223889E+01  0.16907223889E+01  0.00000000000E+00 0.  1.
          2   -1    0    0  501    0 -0.00000000000E+00 -0.00000000000E+00 -0.16469099280E+04  0.16469099280E+04  0.00000000000E+00 0.  1.
          2    1    1    2  501    0  0.23646160497E+02 -0.18630478392E+02 -0.14560909154E+03  0.14868840968E+03  0.00000000000E+00 0.  1.
          2    1    1    2  502    0 -0.23646160497E+02  0.18630478392E+02 -0.14996101140E+04  0.14999122407E+04  0.00000000000E+00 0.  1.
</event>
<event>
 4    1  0.8104768E+003  0.2775607E+02  0.7546771E-02  0.1440158E+00
          2   -1    0    0  501    0  0.00000000000E+00  0.00000000000E+00  0.75998680741E+03  0.75998680741E+03  0.00000000000E+00 0. -1.
          2   -1    0    0  502    0 -0.00000000000E+00 -0.00000000000E+00 -0.16936576635E+01  0.16936576635E+01  0.00000000000E+00 0.  1.
          2    1    1    2  501    0 -0.27265214196E+02 -0.51968911892E+01  0.13783923040E+03  0.14060602057E+03  0.00000000000E+00 0.  1.
          2    1    1    2  502    0  0.27265214196E+02  0.51968911892E+01  0.62045391934E+03  0.62107444450E+03  0.00000000000E+00 0. -1.
</event>
<event>
 4    1  0.8104768E+003  0.6645466E+02  0.7546771E-02  0.1239350E+00
          2   -1    0    0  501    0  0.00000000000E+00  0.00000000000E+00  0.26675955072E+02  0.26675955072E+02  0.00000000000E+00 0.  1.
          2   -1    0    0  502    0 -0.00000000000E+00 -0.00000000000E+00 -0.23433689936E+03  0.23433689936E+03  0.00000000000E+00 0.  1.
          2    1    1    2  501    0 -0.24396412571E+02  0.61814539264E+02 -0.17453745657E+03  0.18676066490E+03  0.00000000000E+00 0.  1.
          2    1    1    2  502    0  0.24396412571E+02 -0.61814539264E+02 -0.33123487720E+02  0.74252189527E+02  0.00000000000E+00 0.  1.
</event>
<event>
 4    1  0.8104768E+003  0.2361033E+02  0.7546771E-02  0.1484973E+00
          2   -1    0    0  501    0  0.00000000000E+00  0.00000000000E+00  0.12307702630E+03  0.12307702630E+03  0.00000000000E+00 0.  1.
          2   -1    0    0  502    0 -0.00000000000E+00 -0.00000000000E+00 -0.73218028250E+01  0.73218028250E+01  0.00000000000E+00 0. -1.
          2    1    1    2  501    0  0.10225823405E+02 -0.21280979679E+02  0.17611955005E+02  0.29455534616E+02  0.00000000000E+00 0. -1.
          2    1    1    2  502    0 -0.10225823405E+02  0.21280979679E+02  0.98143268470E+02  0.10094329451E+03  0.00000000000E+00 0.  1.
</event>
<event>
 4    1  0.8104768E+003  0.2143322E+02  0.7546771E-02  0.1513169E+00
          2   -1    0    0  502    0  0.00000000000E+00  0.00000000000E+00  0.62118811184E+00  0.62118811184E+00  0.00000000000E+00 0. -1.
          2   -1    0    0  501    0 -0.00000000000E+00 -0.00000000000E+00 -0.89511499569E+03  0.89511499569E+03  0.00000000000E+00 0. -1.
          2    1    1    2  501    0  0.12847137527E+02 -0.17156163620E+02 -0.26052109941E+03  0.26140127416E+03  0.00000000000E+00 0. -1.
          2    1    1    2  502    0 -0.12847137527E+02  0.17156163620E+02 -0.63397270817E+03  0.63433490964E+03  0.00000000000E+00 0. -1.
</event>
<event>
 4    1  0.8104768E+003  0.2144032E+02  0.7546771E-02  0.1513070E+00
          2   -1    0    0  501    0  0.00000000000E+00  0.00000000000E+00  0.99374681983E+03  0.99374681983E+03  0.00000000000E+00 0.  1.
          2   -1    0    0  502    0 -0.00000000000E+00 -0.00000000000E+00 -0.94357004665E+00  0.94357004665E+00  0.00000000000E+00 0. -1.
          2    1    1    2  501    0  0.14199462476E+02  0.16064321027E+02  0.14131115556E+03  0.14292840806E+03  0.00000000000E+00 0. -1.
          2    1    1    2  502    0 -0.14199462476E+02 -0.16064321027E+02  0.85149209422E+03  0.85176198181E+03  0.00000000000E+00 0.  1.
</event>
<event>
 4    1  0.8104768E+003  0.3307601E+02  0.7546771E-02  0.1394618E+00
          2   -1    0    0  501    0  0.00000000000E+00  0.00000000000E+00  0.10365044041E+04  0.10365044041E+04  0.00000000000E+00 0.  1.
          2   -1    0    0  502    0 -0.00000000000E+00 -0.00000000000E+00 -0.32705915293E+01  0.32705915293E+01  0.00000000000E+00 0.  1.
          2    1    1    2  501    0  0.30248350604E+02 -0.13381309312E+02  0.88765624034E+02  0.94727810928E+02  0.00000000000E+00 0.  1.
          2    1    1    2  502    0 -0.30248350604E+02  0.13381309312E+02  0.94446818856E+03  0.94504718472E+03  0.00000000000E+00 0.  1.
</event>
<event>
 4    1  0.8104768E+003  0.2323393E+02  0.7546771E-02  0.1489581E+00
          2   -1    0    0  502    0  0.00000000000E+00  0.00000000000E+00  0.44922043143E+01  0.44922043143E+01  0.00000000000E+00 0.  1.
          2   -1    0    0  501    0 -0.00000000000E+00 -0.00000000000E+00 -0.12407192214E+04  0.12407192214E+04  0.00000000000E+00 0.  1.
          2    1    1    2  501    0 -0.18350201152E+02  0.14250808644E+02 -0.26426047621E+02  0.35187375893E+02  0.00000000000E+00 0.  1.
          2    1    1    2  502    0  0.18350201152E+02 -0.14250808644E+02 -0.12098009694E+04  0.12100240498E+04  0.00000000000E+00 0.  1.
</event>
<event>
 4    1  0.8104768E+003  0.3487515E+02  0.7546771E-02  0.1381443E+00
          2   -1    0    0  502    0  0.00000000000E+00  0.00000000000E+00  0.23271103680E+01  0.23271103680E+01  0.00000000000E+00 0.  1.
          2   -1    0    0  501    0 -0.00000000000E+00 -0.00000000000E+00 -0.14560272388E+04  0.14560272388E+04  0.00000000000E+00 0. -1.
          2    1    1    2  501    0  0.34803037111E+02 -0.22416567334E+01 -0.14303445724E+03  0.14722476821E+03  0.00000000000E+00 0.  1.
          2    1    1    2  502    0 -0.34803037111E+02  0.22416567334E+01 -0.13106656712E+04  0.13111295809E+04  0.00000000000E+00 0. -1.
</event>
<event>
 4    1  0.8104768E+003  0.2350226E+02  0.7546771E-02  0.1486286E+00
          2   -1    0    0  501    0  0.00000000000E+00  0.00000000000E+00  0.13808228467E+03  0.13808228467E+03  0.00000000000E+00 0. -1.
          2   -1    0    0  502    0 -0.00000000000E+00 -0.00000000000E+00 -0.36361564720E+03  0.36361564720E+03  0.00000000000E+00 0.  1.
          2    1    1    2  501    0 -0.19413769932E+02  0.13246192963E+02 -0.36223201604E+03  0.36299364945E+03  0.00000000000E+00 0.  1.
          2    1    1    2  502    0  0.19413769932E+02 -0.13246192963E+02  0.13669865351E+03  0.13870428243E+03  0.00000000000E+00 0. -1.
</event>
<event>
 4    1  0.8104768E+003  0.2132205E+02  0.7546771E-02  0.1514716E+00
          2   -1    0    0  501    0  0.00000000000E+00  0.00000000000E+00  0.67201951386E+03  0.67201951386E+03  0.00000000000E+00 0. -1.
          2   -1    0    0  502    0 -0.00000000000E+00 -0.00000000000E+00 -0.28223299459E+01  0.28223299459E+01  0.00000000000E+00 0.  1.
          2    1    1    2  501    0 -0.26971965526E+01  0.21150764248E+02  0.40383811060E+02  0.45667076688E+02  0.00000000000E+00 0.  1.
          2    1    1    2  502    0  0.26971965526E+01 -0.21150764248E+02  0.62881337285E+03  0.62917476711E+03  0.00000000000E+00 0. -1.
</event>
<event>
 4    1  0.8104768E+003  0.3519984E+02  0.7546771E-02  0.1379164E+00
          2   -1    0    0  502    0  0.00000000000E+00  0.00000000000E+00  0.14748235740E+04  0.14748235740E+04  0.00000000000E+00 0. -1.
          2   -1    0    0  501    0 -0.00000000000E+00 -0.00000000000E+00 -0.30725330138E+01  0.30725330138E+01  0.00000000000E+00 0. -1.
          2    1    1    2  501    0  0.35168527834E+02  0.14843153879E+01  0.13657484141E+04  0.13662019467E+04  0.00000000000E+00 0. -1.
          2    1    1    2  502    0 -0.35168527834E+02 -0.14843153879E+01  0.10600262690E+03  0.11169416033E+03  0.00000000000E+00 0. -1.
</event>
<event>
 4    1  0.8104768E+003  0.2078490E+02  0.7546771E-02  0.1522358E+00
          2   -1    0    0  502    0  0.00000000000E+00  0.00000000000E+00  0.21532545609E+03  0.21532545609E+03  0.00000000000E+00 0.  1.
          2   -1    0    0  501    0 -0.00000000000E+00 -0.00000000000E+00 -0.37027877165E+01  0.37027877165E+01  0.00000000000E+00 0. -1.
          2    1    1    2  501    0 -0.15022021634E+02  0.14364925363E+02  0.17993864634E+03  0.18113511162E+03  0.00000000000E+00 0.  1.
          2    1    1    2  502    0  0.15022021634E+02 -0.14364925363E+02  0.31684022027E+02  0.37893132181E+02  0.00000000000E+00 0. -1.
</event>
<event>
 4    1  0.8104768E+003  0.2908694E+02  0.7546771E-02  0.1427700E+00
          2   -1    0    0  501    0  0.00000000000E+00  0.00000000000E+00  0.86321020137E+01  0.86321020137E+01  0.00000000000E+00 0.  1.
          2   -1    0    0  502    0 -0.00000000000E+00 -0.00000000000E+00 -0.62731510996E+03  0.62731510996E+03  0.00000000000E+00 0.  1.
          2    1    1    2  501    0  0.22107504069E+02  0.18902601600E+02 -0.60142054692E+03  0.60212351253E+03  0.00000000000E+00 0.  1.
          2    1    1    2  502    0 -0.22107504069E+02 -0.18902601600E+02 -0.17262461027E+02  0.33823699445E+02  0.00000000000E+00 0.  1.
</event>
<event>
 4    1  0.8104768E+003  0.2343183E+02  0.7546771E-02  0.1487146E+00
          2   -1    0    0  502    0  0.00000000000E+00  0.00000000000E+00  0.37018914701E+03  0.37018914701E+03  0.00000000000E+00 0. -1.
          2   -1    0    0  501    0 -0.00000000000E+00 -0.00000000000E+00 -0.55000045080E+03  0.55000045080E+03  0.00000000000E+00 0. -1.
          2    1    1    2  501    0 -0.23036943083E+02 -0.42836980447E+01  0.36956836914E+03  0.37031045122E+03  0.00000000000E+00 0. -1.
          2    1    1    2  502    0  0.23036943083E+02  0.42836980447E+01 -0.54937967294E+03  0.54987914659E+03  0.00000000000E+00 0. -1.
</event>
<event>
 4    1  0.8104768E+003  0.2258084E+02  0.7546771E-02  0.1497830E+00
          2   -1    0    0  502    0  0.00000000000E+00  0.00000000000E+00  0.20436193448E+04  0.20436193448E+04  0.00000000000E+00 0. -1.
          2   -1    0    0  501    0 -0.00000000000E+00 -0.00000000000E+00 -0.38103019271E+00  0.38103019271E+00  0.00000000000E+00 0. -1.
          2    1    1    2  501    0 -0.20729616383E+02 -0.89541675526E+01  0.16220666740E+04  0.16222238406E+04  0.00000000000E+00 0. -1.
          2    1    1    2  502    0  0.20729616383E+02  0.89541675526E+01  0.42117164064E+03  0.42177653442E+03  0.00000000000E+00 0. -1.
</event>
<event>
 4    1  0.8104768E+003  0.2018764E+02  0.7546771E-02  0.1531186E+00
          2   -1    0    0  502    0  0.00000000000E+00  0.00000000000E+00  0.14349196452E+04  0.14349196452E+04  0.00000000000E+00 0. -1.
          2   -1    0    0  501    0 -0.00000000000E+00 -0.00000000000E+00 -0.11925401200E+02  0.11925401200E+02  0.00000000000E+00 0.  1.
          2    1    1    2  501    0  0.18336947919E+02 -0.84437757460E+01  0.14262531806E+04  0.14263960446E+04  0.00000000000E+00 0. -1.
          2    1    1    2  502    0 -0.18336947919E+02  0.84437757460E+01 -0.32589365399E+01  0.20449001814E+02  0.00000000000E+00 0.  1.
</event>
<event>
 4    1  0.8104768E+003  0.2203119E+02  0.7546771E-02  0.1505035E+00
          2   -1    0    0  502    0  0.00000000000E+00  0.00000000000E+00  0.24418167673E+01  0.24418167673E+01  0.00000000000E+00 0.  1.
          2   -1    0    0  501    0 -0.00000000000E+00 -0.00000000000E+00 -0.58761285514E+03  0.58761285514E+03  0.00000000000E+00 0.  1.
          2    1    1    2  501    0 -0.14355394439E+02 -0.16712152934E+02 -0.52591404976E+02  0.57019551757E+02  0.00000000000E+00 0.  1.
          2    1    1    2  502    0  0.14355394439E+02  0.16712152934E+02 -0.53257963340E+03  0.53303512015E+03  0.00000000000E+00 0.  1.
</event>
<event>
 4    1  0.8104768E+003  0.3178456E+02  0.7546771E-02  0.1404697E+00
          2   -1    0    0  501    0  0.00000000000E+00  0.00000000000E+00  0.80637582084E+03  0.80637582084E+03  0.00000000000E+00 0. -1.
          2   -1    0    0  502    0 -0.00000000000E+00 -0.00000000000E+00 -0.46887135865E+01  0.46887135865E+01  0.00000000000E+00 0.  1.
          2    1    1    2  501    0  0.14963321740E+02 -0.28042061033E+02  0.53693461342E+02  0.62395881077E+02  0.00000000000E+00 0.  1.
          2    1    1    2  502    0 -0.14963321740E+02  0.28042061033E+02  0.74799364591E+03  0.74866865335E+03  0.00000000000E+00 0. -1.
</event>
<event>
 4    1  0.8104768E+003  0.3092900E+02  0.7546771E-02  0.1411691E+00
          2   -1    0    0  501    0  0.00000000000E+00  0.00000000000E+00  0.10180719303E+03  0.10180719303E+03  0.00000000000E+00 0.  1.
          2   -1    0    0  502    0 -0.00000000000E+00 -0.00000000000E+00 -0.12032608747E+03  0.12032608747E+03  0.00000000000E+00 0.  1.
          2    1    1    2  501    0  0.28724240597E+02  0.11468263641E+02 -0.11590137287E+03  0.11995720613E+03  0.00000000000E+00 0.  1.
          2    1    1    2  502    0 -0.28724240597E+02 -0.11468263641E+02  0.97382478432E+02  0.10217607437E+03  0.00000000000E+00 0.  1.
</event>
<event>
 4    1  0.8104768E+003  0.2174946E+02  0.7546771E-02  0.1508828E+00
          2   -1    0    0  501    0  0.00000000000E+00  0.00000000000E+00  0.12845294593E+04  0.12845294593E+04  0.00000000000E+00 0. -1.
          2   -1    0    0  502    0 -0.00000000000E+00 -0.00000000000E+00 -0.54193633462E+02  0.54193633462E+02  0.00000000000E+00 0.  1.
          2    1    1    2  501    0 -0.10715348578E+02  0.18926707616E+02 -0.51915521820E+02  0.56287301962E+02  0.00000000000E+00 0.  1.
          2    1    1    2  502    0  0.10715348578E+02 -0.18926707616E+02  0.12822513477E+04  0.12824357908E+04  0.00000000000E+00 0. -1.
</event>
<event>
 4    1  0.8104768E+003  0.2589206E+02  0.7546771E-02  0.1459067E+00
          2   -1    0    0  501    0  0.00000000000E+00  0.00000000000E+00  0.46461308943E+01  0.46461308943E+01  0.00000000000E+00 0. -1.
          2   -1    0    0  502    0 -0.00000000000E+00 -0.00000000000E+00 -0.22453865288E+03  0.22453865288E+03  0.00000000000E+00 0. -1.
          2    1    1    2  501    0  0.24776870034E+02 -0.75169961384E+01 -0.17845157694E+03  0.18032017034E+03  0.00000000000E+00 0. -1.
          2    1    1    2  502    0 -0.24776870034E+02  0.75169961384E+01 -0.41440945045E+02  0.48864613432E+02  0.00000000000E+00 0. -1.
</event>
<event>
 4    1  0.8104768E+003  0.3319351E+02  0.7546771E-02  0.1393728E+00
          2   -1    0    0  502    0  0.00000000000E+00  0.00000000000E+00  0.12597335788E+02  0.12597335788E+02  0.00000000000E+00 0.  1.
          2   -1    0    0  501    0 -0.00000000000E+00 -0.00000000000E+00 -0.11459304981E+04  0.11459304981E+04  0.00000000000E+00 0.  1.
          2    1    1    2  501    0  0.26934266343E+02 -0.19399854707E+02 -0.99476802385E+01  0.34652062106E+02  0.00000000000E+00 0.  1.
          2    1    1    2  502    0 -0.26934266343E+02  0.19399854707E+02 -0.11233854820E+04  0.11238757717E+04  0.00000000000E+00 0.  1.
</event>
<event>
 4    1  0.8104768E+003  0.4842078E+02  0.7546771E-02  0.1305168E+00
          2   -1    0    0  501    0  0.00000000000E+00  0.00000000000E+00  0.50781020719E+03  0.50781020719E+03  0.00000000000E+00 0.  1.
          2   -1    0    0  502    0 -0.00000000000E+00 -0.00000000000E+00 -0.35798248091E+02  0.35798248091E+02  0.00000000000E+00 0.  1.
          2    1    1    2  501    0  0.12883963582E+02  0.46675211348E+02 -0.17665651605E+02  0.51542672793E+02  0.00000000000E+00 0.  1.
          2    1    1    2  502    0 -0.12883963582E+02 -0.46675211348E+02  0.48967761070E+03  0.49206578249E+03  0.00000000000E+00 0.  1.
</event>
<event>
 4    1  0.8104768E+003  0.3346388E+02  0.7546771E-02  0.1391696E+00
          2   -1    0    0  502    0  0.00000000000E+00  0.00000000000E+00  0.49076644654E+01  0.49076644654E+01  0.00000000000E+00 0. -1.
          2   -1    0    0  501    0 -0.00000000000E+00 -0.00000000000E+00 -0.28221643535E+03  0.28221643535E+03  0.00000000000E+00 0.  1.
          2    1    1    2  501    0  0.33425850055E+02 -0.15949502782E+01 -0.75835317965E+02  0.82890450409E+02  0.00000000000E+00 0. -1.
          2    1    1    2  502    0 -0.33425850055E+02  0.15949502782E+01 -0.20147345293E+03  0.20423364941E+03  0.00000000000E+00 0.  1.
</event>
<event>
 4    1  0.8104768E+003  0.2578221E+02  0.7546771E-02  0.1460240E+00
          2   -1    0    0  502    0  0.00000000000E+00  0.00000000000E+00  0.13875950604E+02  0.13875950604E+02  0.00000000000E+00 0.  1.
          2   -1    0    0  501    0 -0.00000000000E+00 -0.00000000000E+00 -0.56193107354E+02  0.56193107354E+02  0.00000000000E+00 0.  1.
          2    1    1    2  501    0  0.25442973959E+02  0.41686494765E+01 -0.77033336020E+01  0.26908435683E+02  0.00000000000E+00 0.  1.
          2    1    1    2  502    0 -0.25442973959E+02 -0.41686494765E+01 -0.34613823147E+02  0.43160622275E+02  0.00000000000E+00 0.  1.
</event>
<event>
 4    1  0.8104768E+003  0.2055462E+02  0.7546771E-02  0.1525720E+00
          2   -1    0    0  502    0  0.00000000000E+00  0.00000000000E+00  0.49535561296E+03  0.49535561296E+03  0.00000000000E+00 0. -1.
          2   -1    0    0  501    0 -0.00000000000E+00 -0.00000000000E+00 -0.61239232236E+01  0.61239232236E+01  0.00000000000E+00 0.  1.
          2    1    1    2  501    0 -0.27031195857E+01  0.20376098941E+02  0.47724038533E+03  0.47768282118E+03  0.00000000000E+00 0. -1.
          2    1    1    2  502    0  0.27031195857E+01 -0.20376098941E+02  0.11991304410E+02  0.23796715004E+02  0.00000000000E+00 0.  1.
</event>
<event>
 4    1  0.8104768E+003  0.2122630E+02  0.7546771E-02  0.1516058E+00
          2   -1    0    0  501    0  0.00000000000E+00  0.00000000000E+00  0.16207292922E+03  0.16207292922E+03  0.00000000000E+00 0.  1.
          2   -1    0    0  502    0 -0.00000000000E+00 -0.00000000000E+00 -0.62298441051E+01  0.62298441051E+01  0.00000000000E+00 0. -1.
          2    1    1    2  501    0 -0.10289834537E+02 -0.18565430741E+02  0.15299810618E+02  0.26165628568E+02  0.00000000000E+00 0. -1.
          2    1    1    2  502    0  0.10289834537E+02  0.18565430741E+02  0.14054327450E+03  0.14213714476E+03  0.00000000000E+00 0.  1.
</event>
<event>
 4    1  0.8104768E+003  0.2233050E+02  0.7546771E-02  0.1501081E+00
          2   -1    0    0  502    0  0.00000000000E+00  0.00000000000E+00  0.85089600664E+03  0.85089600664E+03  0.00000000000E+00 0.  1.
          2   -1    0    0  501    0 -0.00000000000E+00 -0.00000000000E+00 -0.23520469506E+02  0.23520469506E+02  0.00000000000E+00 0. -1.
          2    1    1    2  501    0  0.54297751085E+01  0.21660307028E+02  0.84541495740E+03  0.84570982113E+03  0.00000000000E+00 0.  1.
          2    1    1    2  502    0 -0.54297751085E+01 -0.21660307028E+02 -0.18039420270E+02  0.28706655012E+02  0.00000000000E+00 0. -1.
</event>
<event>
 4    1  0.8104768E+003  0.3621248E+02  0.7546771E-02  0.1372234E+00
          2   -1    0    0  501    0  0.00000000000E+00  0.00000000000E+00  0.11182532750E+02  0.11182532750E+02  0.00000000000E+00 0. -1.
          2   -1    0    0  502    0 -0.00000000000E+00 -0.00000000000E+00 -0.97023865516E+03  0.97023865516E+03  0.00000000000E+00 0. -1.
          2    1    1    2  501    0 -0.77344059426E+01  0.35376863993E+02 -0.93962931170E+03  0.94032685113E+03  0.00000000000E+00 0. -1.
          2    1    1    2  502    0  0.77344059426E+01 -0.35376863993E+02 -0.19426810706E+02  0.41094336781E+02  0.00000000000E+00 0. -1.
</event>
<event>
 4    1  0.8104768E+003  0.3948107E+02  0.7546771E-02  0.1351554E+00
          2   -1    0    0  501    0  0.00000000000E+00  0.00000000000E+00  0.35042628874E+03  0.35042628874E+03  0.00000000000E+00 0.  1.
          2   -1    0    0  502    0 -0.00000000000E+00 -0.00000000000E+00 -0.33817297275E+02  0.33817297275E+02  0.00000000000E+00 0.  1.
          2    1    1    2  501    0  0.20661063322E+02  0.33643357074E+02 -0.20736596572E+02  0.44595531729E+02  0.00000000000E+00 0.  1.
          2    1    1    2  502    0 -0.20661063322E+02 -0.33643357074E+02  0.33734558804E+03  0.33964805429E+03  0.00000000000E+00 0.  1.
</event>
<event>
 4    1  0.8104768E+003  0.2150821E+02  0.7546771E-02  0.1512131E+00
          2   -1    0    0  502    0  0.00000000000E+00  0.00000000000E+00  0.14481745958E+02  0.14481745958E+02  0.00000000000E+00 0. -1.
          2   -1    0    0  501    0 -0.00000000000E+00 -0.00000000000E+00 -0.31958485413E+02  0.31958485413E+02  0.00000000000E+00 0.  1.
          2    1    1    2  501    0  0.98382037412E+01 -0.19126238999E+02 -0.92346294784E+01  0.23406871912E+02  0.00000000000E+00 0.  1.
          2    1    1    2  502    0 -0.98382037412E+01  0.19126238999E+02 -0.82421099769E+01  0.23033359459E+02  0.00000000000E+00 0. -1.
</event>
<event>
 4    1  0.8104768E+003  0.3065811E+02  0.7546771E-02  0.1413962E+00
          2   -1    0    0  502    0  0.00000000000E+00  0.00000000000E+00  0.95433782802E+02  0.95433782802E+02  0.00000000000E+00 0.  1.
          2   -1    0    0  501    0 -0.00000000000E+00 -0.00000000000E+00 -0.15898208116E+03  0.15898208116E+03  0.00000000000E+00 0.  1.
          2    1    1    2  501    0 -0.25014007784E+02 -0.17726230715E+02  0.91430533071E+02  0.96433719302E+02  0.00000000000E+00 0.  1.
          2    1    1    2  502    0  0.25014007784E+02  0.17726230715E+02 -0.15497883143E+03  0.15798214466E+03  0.00000000000E+00 0.  1.
</event>
<event>
 4    1  0.8104768E+003  0.5900463E+02  0.7546771E-02  0.1263253E+00
          2   -1    0    0  501    0  0.00000000000E+00  0.00000000000E+00  0.80279161978E+02  0.80279161978E+02  0.00000000000E+00 0. -1.
          2   -1    0    0  502    0 -0.00000000000E+00 -0.00000000000E+00 -0.52342513702E+03  0.52342513702E+03  0.00000000000E+00 0.  1.
          2    1    1    2  501    0  0.18659888515E+01 -0.58975120129E+02 -0.51064992855E+03  0.51404756223E+03  0.00000000000E+00 0.  1.
          2    1    1    2  502    0 -0.18659888515E+01  0.58975120129E+02  0.67503953507E+02  0.89656736767E+02  0.00000000000E+00 0. -1.
</event>
<event>
 4    1  0.8104768E+003  0.2440505E+02  0.7546771E-02  0.1475570E+00
          2   -1    0    0  502    0  0.00000000000E+00  0.00000000000E+00  0.16929806330E+02  0.16929806330E+02  0.00000000000E+00 0.  1.
          2   -1    0    0  501    0 -0.00000000000E+00 -0.00000000000E+00 -0.45869672357E+02  0.45869672357E+02  0.00000000000E+00 0.  1.
          2    1    1    2  501    0 -0.33089961081E+01 -0.24179686260E+02  0.68751567015E+00  0.24414736547E+02  0.00000000000E+00 0.  1.
          2    1    1    2  502    0  0.33089961081E+01  0.24179686260E+02 -0.29627381697E+02  0.38384742139E+02  0.00000000000E+00 0.  1.
</event>
<event>
 4    1  0.8104768E+003  0.2101739E+02  0.7546771E-02  0.1519017E+00
          2   -1    0    0  502    0  0.00000000000E+00  0.00000000000E+00  0.11946037778E+04  0.11946037778E+04  0.00000000000E+00 0.  1.
          2   -1    0    0  501    0 -0.00000000000E+00 -0.00000000000E+00 -0.26765226268E+02  0.26765226268E+02  0.00000000000E+00 0. -1.
          2    1    1    2  501    0 -0.18915078749E+02 -0.91624475720E+01  0.11903706883E+04  0.11905562171E+04  0.00000000000E+00 0.  1.
          2    1    1    2  502    0  0.18915078749E+02  0.91624475720E+01 -0.22532136770E+02  0.30812786908E+02  0.00000000000E+00 0. -1.
</event>
<event>
 4    1  0.8104768E+003  0.4110264E+02  0.7546771E-02  0.1342143E+00
          2   -1    0    0  501    0  0.00000000000E+00  0.00000000000E+00  0.14861115564E+03  0.14861115564E+03  0.00000000000E+00 0. -1.
          2   -1    0    0  502    0 -0.00000000000E+00 -0.00000000000E+00 -0.61114769379E+03  0.61114769379E+03  0.00000000000E+00 0.  1.
          2    1    1    2  501    0 -0.15230208213E+02 -0.38176795877E+02 -0.60759799540E+03  0.60898665913E+03  0.00000000000E+00 0.  1.
          2    1    1    2  502    0  0.15230208213E+02  0.38176795877E+02  0.14506145726E+03  0.15077219030E+03  0.00000000000E+00 0. -1.
</event>
<event>
 4    1  0.8104768E+003  0.2250662E+02  0.7546771E-02  0.1498788E+00
          2   -1    0    0  502    0  0.00000000000E+00  0.00000000000E+00  0.90880424509E+00  0.90880424509E+00  0.00000000000E+00 0.  1.
          2   -1    0    0  501    0 -0.00000000000E+00 -0.00000000000E+00 -0.16659708031E+04  0.16659708031E+04  0.00000000000E+00 0.  1.
          2    1    1    2  501    0 -0.20087023942E+02  0.10151818223E+02 -0.15266006478E+03  0.15431021782E+03  0.00000000000E+00 0.  1.
          2    1    1    2  502    0  0.20087023942E+02 -0.10151818223E+02 -0.15124019340E+04  0.15125693895E+04  0.00000000000E+00 0.  1.
</event>
<event>
 4    1  0.8104768E+003  0.2046348E+02  0.7546771E-02  0.1527065E+00
          2   -1    0    0  502    0  0.00000000000E+00  0.00000000000E+00  0.50869689176E+02  0.50869689176E+02  0.00000000000E+00 0. -1.
          2   -1    0    0  501    0 -0.00000000000E+00 -0.00000000000E+00 -0.14362395984E+02  0.14362395984E+02  0.00000000000E+00 0.  1.
          2    1    1    2  501    0 -0.19172151838E+02 -0.71541879650E+01  0.39562784985E+02  0.44541753079E+02  0.00000000000E+00 0. -1.
          2    1    1    2  502    0  0.19172151838E+02  0.71541879650E+01 -0.30554917932E+01  0.20690332082E+02  0.00000000000E+00 0.  1.
</event>
<event>
 4    1  0.8104768E+003  0.2481321E+02  0.7546771E-02  0.1470904E+00
          2   -1    0    0  502    0  0.00000000000E+00  0.00000000000E+00  0.26442192333E+03  0.26442192333E+03  0.00000000000E+00 0. -1.
          2   -1    0    0  501    0 -0.00000000000E+00 -0.00000000000E+00 -0.65802098837E+02  0.65802098837E+02  0.00000000000E+00 0.  1.
          2    1    1    2  501    0  0.17591484666E+01  0.24750776984E+02  0.26147430356E+03  0.26264901863E+03  0.00000000000E+00 0. -1.
          2    1    1    2  502    0 -0.17591484666E+01 -0.24750776984E+02 -0.62854479065E+02  0.67575003539E+02  0.00000000000E+00 0.  1.
</event>
<event>
 4    1  0.8104768E+003  0.2119891E+02  0.7546771E-02  0.1516444E+00
          2   -1    0    0  501    0  0.00000000000E+00  0.00000000000E+00  0.13568266297E+02  0.13568266297E+02  0.00000000000E+00 0.  1.
          2   -1    0    0  502    0 -0.00000000000E+00 -0.00000000000E+00 -0.54749509451E+03  0.54749509451E+03  0.00000000000E+00 0. -1.
          2    1    1    2  501    0 -0.17165520817E+02  0.12439404508E+02 -0.53887728445E+03  0.53929409563E+03  0.00000000000E+00 0. -1.
          2    1    1    2  502    0  0.17165520817E+02 -0.12439404508E+02  0.49504562336E+01  0.21769265177E+02  0.00000000000E+00 0.  1.
</event>
<event>
 4    1  0.8104768E+003  0.8607893E+02  0.7546771E-02  0.1190397E+00
          2   -1    0    0  502    0  0.00000000000E+00  0.00000000000E+00  0.16414974447E+04  0.16414974447E+04  0.00000000000E+00 0.  1.
          2   -1    0    0  501    0 -0.00000000000E+00 -0.00000000000E+00 -0.48875392330E+03  0.48875392330E+03  0.00000000000E+00 0.  1.
          2    1    1    2  501    0  0.17154074589E+02  0.84352351348E+02  0.16365675199E+04  0.16388297131E+04  0.00000000000E+00 0.  1.
          2    1    1    2  502    0 -0.17154074589E+02 -0.84352351348E+02 -0.48382399845E+03  0.49142165493E+03  0.00000000000E+00 0.  1.
</event>
<event>
 4    1  0.8104768E+003  0.3111568E+02  0.7546771E-02  0.1410143E+00
          2   -1    0    0  501    0  0.00000000000E+00  0.00000000000E+00  0.32454803028E+02  0.32454803028E+02  0.00000000000E+00 0. -1.
          2   -1    0    0  502    0 -0.00000000000E+00 -0.00000000000E+00 -0.47036557037E+02  0.47036557037E+02  0.00000000000E+00 0. -1.
          2    1    1    2  501    0  0.21463896902E+02 -0.22527471330E+02 -0.31328758618E+02  0.44155146373E+02  0.00000000000E+00 0. -1.
          2    1    1    2  502    0 -0.21463896902E+02  0.22527471330E+02  0.16747004608E+02  0.35336213692E+02  0.00000000000E+00 0. -1.
</event>
<event>
 4    1  0.8104768E+003  0.2418630E+02  0.7546771E-02  0.1478116E+00
          2   -1    0    0  501    0  0.00000000000E+00  0.00000000000E+00  0.25854113745E+02  0.25854113745E+02  0.00000000000E+00 0. -1.
          2   -1    0    0  502    0 -0.00000000000E+00 -0.00000000000E+00 -0.30126505797E+02  0.30126505797E+02  0.00000000000E+00 0. -1.
          2    1    1    2  501    0  0.12854786395E+02  0.20487346467E+02 -0.16102345047E+02  0.29056194081E+02  0.00000000000E+00 0. -1.
          2    1    1    2  502    0 -0.12854786395E+02 -0.20487346467E+02  0.11829952995E+02  0.26924425460E+02  0.00000000000E+00 0. -1.
</event>
<event>
 4    1  0.8104768E+003  0.3587762E+02  0.7546771E-02  0.1374496E+00
          2   -1    0    0  502    0  0.00000000000E+00  0.00000000000E+00  0.13601671473E+04  0.13601671473E+04  0.00000000000E+00 0. -1.
          2   -1    0    0  501    0 -0.00000000000E+00 -0.00000000000E+00 -0.10158110743E+01  0.10158110743E+01  0.00000000000E+00 0. -1.
          2    1    1    2  501    0 -0.11574352218E+01 -0.35858949672E+02  0.85753811895E+03  0.85828831367E+03  0.00000000000E+00 0. -1.
          2    1    1    2  502    0  0.11574352218E+01  0.35858949672E+02  0.50161321728E+03  0.50289464471E+03  0.00000000000E+00 0. -1.
</event>
<event>
 4    1  0.8104768E+003  0.4279014E+02  0.7546771E-02  0.1332868E+00
          2   -1    0    0  502    0  0.00000000000E+00  0.00000000000E+00  0.25203385030E+03  0.25203385030E+03  0.00000000000E+00 0.  1.
          2   -1    0    0  501    0 -0.00000000000E+00 -0.00000000000E+00 -0.72214836069E+02  0.72214836069E+02  0.00000000000E+00 0. -1.
          2    1    1    2  501    0 -0.25351256659E+02  0.34471869596E+02  0.24366280551E+03  0.24739150914E+03  0.00000000000E+00 0.  1.
          2    1    1    2  502    0  0.25351256659E+02 -0.34471869596E+02 -0.63843791274E+02  0.76857177231E+02  0.00000000000E+00 0. -1.
</event>
<event>
 4    1  0.8104768E+003  0.2300643E+02  0.7546771E-02  0.1492417E+00
          2   -1    0    0  501    0  0.00000000000E+00  0.00000000000E+00  0.14553065550E+03  0.14553065550E+03  0.00000000000E+00 0. -1.
          2   -1    0    0  502    0 -0.00000000000E+00 -0.00000000000E+00 -0.45134012536E+01  0.45134012536E+01  0.00000000000E+00 0. -1.
          2    1    1    2  501    0 -0.47013632994E+01 -0.22520946412E+02  0.37449842956E+02  0.43952094166E+02  0.00000000000E+00 0. -1.
          2    1    1    2  502    0  0.47013632994E+01  0.22520946412E+02  0.10356741129E+03  0.10609196259E+03  0.00000000000E+00 0. -1.
</event>
<event>
 4    1  0.8104768E+003  0.2121328E+02  0.7546771E-02  0.1516241E+00
          2   -1    0    0  501    0  0.00000000000E+00  0.00000000000E+00  0.86408343134E+00  0.86408343134E+00  0.00000000000E+00 0. -1.
          2   -1    0    0  502    0 -0.00000000000E+00 -0.00000000000E+00 -0.80376241243E+03  0.80376241243E+03  0.00000000000E+00 0.  1.
          2    1    1    2  501    0 -0.30168035200E+01  0.20997665366E+02 -0.64016166456E+03  0.64051304423E+03  0.00000000000E+00 0.  1.
          2    1    1    2  502    0  0.30168035200E+01 -0.20997665366E+02 -0.16273666443E+03  0.16411345163E+03  0.00000000000E+00 0. -1.
</event>
<event>
 4    1  0.8104768E+003  0.1368967E+03  0.7546771E-02  0.1111861E+00
          2   -1    0    0  501    0  0.00000000000E+00  0.00000000000E+00  0.55662144909E+03  0.55662144909E+03  0.00000000000E+00 0.  1.
          2   -1    0    0  502    0 -0.00000000000E+00 -0.00000000000E+00 -0.33286126492E+03  0.33286126492E+03  0.00000000000E+00 0.  1.
          2    1    1    2  501    0 -0.45648488619E+02 -0.12906166658E+03 -0.30976914102E+03  0.33867036927E+03  0.00000000000E+00 0.  1.
          2    1    1    2  502    0  0.45648488619E+02  0.12906166658E+03  0.53352932519E+03  0.55081234475E+03  0.00000000000E+00 0.  1.
</event>
<event>
 4    1  0.8104768E+003  0.4321605E+02  0.7546771E-02  0.1330605E+00
          2   -1    0    0  502    0  0.00000000000E+00  0.00000000000E+00  0.36408008125E+01  0.36408008125E+01  0.00000000000E+00 0. -1.
          2   -1    0    0  501    0 -0.00000000000E+00 -0.00000000000E+00 -0.60151615574E+03  0.60151615574E+03  0.00000000000E+00 0. -1.
          2    1    1    2  501    0 -0.24211663021E+02  0.35796954227E+02 -0.18284738719E+03  0.18788505411E+03  0.00000000000E+00 0. -1.
          2    1    1    2  502    0  0.24211663021E+02 -0.35796954227E+02 -0.41502796774E+03  0.41727190243E+03  0.00000000000E+00 0. -1.
</event>
<event>
 4    1  0.8104768E+003  0.2142701E+02  0.7546771E-02  0.1513255E+00
          2   -1    0    0  501    0  0.00000000000E+00  0.00000000000E+00  0.44322908146E+02  0.44322908146E+02  0.00000000000E+00 0. -1.
          2   -1    0    0  502    0 -0.00000000000E+00 -0.00000000000E+00 -0.25445642910E+02  0.25445642910E+02  0.00000000000E+00 0.  1.
          2    1    1    2  501    0  0.18393022002E+02  0.10991521607E+02 -0.17422675462E+02  0.27616415876E+02  0.00000000000E+00 0.  1.
          2    1    1    2  502    0 -0.18393022002E+02 -0.10991521607E+02  0.36299940698E+02  0.42152135180E+02  0.00000000000E+00 0. -1.
</event>
<event>
 4    1  0.8104768E+003  0.3077874E+02  0.7546771E-02  0.1412947E+00
          2   -1    0    0  502    0  0.00000000000E+00  0.00000000000E+00  0.91668033880E+02  0.91668033880E+02  0.00000000000E+00 0. -1.
          2   -1    0    0  501    0 -0.00000000000E+00 -0.00000000000E+00 -0.11093472491E+03  0.11093472491E+03  0.00000000000E+00 0. -1.
          2    1    1    2  501    0 -0.38281477078E+01  0.30539748892E+02  0.86834231312E+02  0.92127708670E+02  0.00000000000E+00 0. -1.
          2    1    1    2  502    0  0.38281477078E+01 -0.30539748892E+02 -0.10610092234E+03  0.11047505012E+03  0.00000000000E+00 0. -1.
</event>
<event>
 4    1  0.8104768E+003  0.2555238E+02  0.7546771E-02  0.1462718E+00
          2   -1    0    0  501    0  0.00000000000E+00  0.00000000000E+00  0.22167612479E+02  0.22167612479E+02  0.00000000000E+00 0. -1.
          2   -1    0    0  502    0 -0.00000000000E+00 -0.00000000000E+00 -0.10605807930E+03  0.10605807930E+03  0.00000000000E+00 0.  1.
          2    1    1    2  501    0  0.95735084117E+01  0.23691181907E+02 -0.96433025931E+02  0.99760977610E+02  0.00000000000E+00 0.  1.
          2    1    1    2  502    0 -0.95735084117E+01 -0.23691181907E+02  0.12542559113E+02  0.28464714166E+02  0.00000000000E+00 0. -1.
</event>
<event>
 4    1  0.8104768E+003  0.4097750E+02  0.7546771E-02  0.1342851E+00
          2   -1    0    0  502    0  0.00000000000E+00  0.00000000000E+00  0.28409294479E+02  0.28409294479E+02  0.00000000000E+00 0.  1.
          2   -1    0    0  501    0 -0.00000000000E+00 -0.00000000000E+00 -0.45688261606E+03  0.45688261606E+03  0.00000000000E+00 0.  1.
          2    1    1    2  501    0 -0.17743856301E+02 -0.36936585028E+02  0.12170647165E+02  0.42746700485E+02  0.00000000000E+00 0.  1.
          2    1    1    2  502    0  0.17743856301E+02  0.36936585028E+02 -0.44064396874E+03  0.44254521005E+03  0.00000000000E+00 0.  1.
</event>
<event>
 4    1  0.8104768E+003  0.2005743E+02  0.7546771E-02  0.1533160E+00
          2   -1    0    0  501    0  0.00000000000E+00  0.00000000000E+00  0.42699862873E+03  0.42699862873E+03  0.00000000000E+00 0. -1.
          2   -1    0    0  502    0 -0.00000000000E+00 -0.00000000000E+00 -0.24041082022E+03  0.24041082022E+03  0.00000000000E+00 0.  1.
          2    1    1    2  501    0  0.31210820240E+01  0.19813108965E+02 -0.23975629181E+03  0.24059380687E+03  0.00000000000E+00 0.  1.
          2    1    1    2  502    0 -0.31210820240E+01 -0.19813108965E+02  0.42634410033E+03  0.42681564208E+03  0.00000000000E+00 0. -1.
</event>
<event>
 4    1  0.8104768E+003  0.2400457E+02  0.7546771E-02  0.1480255E+00
          2   -1    0    0  501    0  0.00000000000E+00  0.00000000000E+00  0.11703575602E+03  0.11703575602E+03  0.00000000000E+00 0.  1.
          2   -1    0    0  502    0 -0.00000000000E+00 -0.00000000000E+00 -0.11920048840E+03  0.11920048840E+03  0.00000000000E+00 0. -1.
          2    1    1    2  501    0 -0.23651369389E+02  0.41027176799E+01 -0.11673539399E+03  0.11917789970E+03  0.00000000000E+00 0. -1.
          2    1    1    2  502    0  0.23651369389E+02 -0.41027176799E+01  0.11457066161E+03  0.11705834472E+03  0.00000000000E+00 0.  1.
</event>
<event>
 4    1  0.8104768E+003  0.2045466E+02  0.7546771E-02  0.1527195E+00
          2   -1    0    0  501    0  0.00000000000E+00  0.00000000000E+00  0.91921631803E+03  0.91921631803E+03  0.00000000000E+00 0.  1.
          2   -1    0    0  502    0 -0.00000000000E+00 -0.00000000000E+00 -0.19422795933E+02  0.19422795933E+02  0.00000000000E+00 0. -1.
          2    1    1    2  501    0  0.21137980093E+01 -0.20345147676E+02 -0.13891068195E+02  0.24725593048E+02  0.00000000000E+00 0. -1.
          2    1    1    2  502    0 -0.21137980093E+01  0.20345147676E+02  0.91368459029E+03  0.91391352091E+03  0.00000000000E+00 0.  1.
</event>
<event>
 4    1  0.8104768E+003  0.4575775E+02  0.7546771E-02  0.1317693E+00
          2   -1    0    0  501    0  0.00000000000E+00  0.00000000000E+00  0.32531763284E+02  0.32531763284E+02  0.00000000000E+00 0. -1.
          2   -1    0    0  502    0 -0.00000000000E+00 -0.00000000000E+00 -0.23900209035E+03  0.23900209035E+03  0.00000000000E+00 0.  1.
          2    1    1    2  501    0 -0.80760485891E+01  0.45039416709E+02 -0.21929088444E+03  0.22401398085E+03  0.00000000000E+00 0.  1.
          2    1    1    2  502    0  0.80760485891E+01 -0.45039416709E+02  0.12820557372E+02  0.47519872786E+02  0.00000000000E+00 0. -1.
</event>
<event>
 4    1  0.8104768E+003  0.2611805E+02  0.7546771E-02  0.1456674E+00
          2   -1    0    0  502    0  0.00000000000E+00  0.00000000000E+00  0.56535958226E+00  0.56535958226E+00  0.00000000000E+00 0. -1.
          2   -1    0    0  501    0 -0.00000000000E+00 -0.00000000000E+00 -0.13264382487E+04  0.13264382487E+04  0.00000000000E+00 0. -1.
          2    1    1    2  501    0  0.26037079754E+02  0.20549445627E+01 -0.46348823777E+03  0.46422354407E+03  0.00000000000E+00 0. -1.
          2    1    1    2  502    0 -0.26037079754E+02 -0.20549445627E+01 -0.86238465137E+03  0.86278006424E+03  0.00000000000E+00 0. -1.
</event>
<event>
 4    1  0.8104768E+003  0.7015863E+02  0.7546771E-02  0.1228745E+00
          2   -1    0    0  501    0  0.00000000000E+00  0.00000000000E+00  0.88494172850E+02  0.88494172850E+02  0.00000000000E+00 0. -1.
          2   -1    0    0  502    0 -0.00000000000E+00 -0.00000000000E+00 -0.47298336614E+03  0.47298336614E+03  0.00000000000E+00 0. -1.
          2    1    1    2  501    0  0.70153503666E+02  0.84779444928E+00 -0.45596001521E+03  0.46132609757E+03  0.00000000000E+00 0. -1.
          2    1    1    2  502    0 -0.70153503666E+02 -0.84779444928E+00  0.71470821919E+02  0.10015144142E+03  0.00000000000E+00 0. -1.
</event>
<event>
 4    1  0.8104768E+003  0.2417523E+02  0.7546771E-02  0.1478245E+00
          2   -1    0    0  502    0  0.00000000000E+00  0.00000000000E+00  0.22869959185E+03  0.22869959185E+03  0.00000000000E+00 0. -1.
          2   -1    0    0  501    0 -0.00000000000E+00 -0.00000000000E+00 -0.95458699536E+01  0.95458699536E+01  0.00000000000E+00 0.  1.
          2    1    1    2  501    0 -0.23928040610E+02  0.34482800581E+01  0.21151506330E+03  0.21289214115E+03  0.00000000000E+00 0. -1.
          2    1    1    2  502    0  0.23928040610E+02 -0.34482800581E+01  0.76386585983E+01  0.25353320650E+02  0.00000000000E+00 0.  1.
</event>
<event>
 4    1  0.8104768E+003  0.2204150E+02  0.7546771E-02  0.1504898E+00
          2   -1    0    0  502    0  0.00000000000E+00  0.00000000000E+00  0.11025832634E+04  0.11025832634E+04  0.00000000000E+00 0.  1.
          2   -1    0    0  501    0 -0.00000000000E+00 -0.00000000000E+00 -0.12823967418E+03  0.12823967418E+03  0.00000000000E+00 0. -1.
          2    1    1    2  501    0  0.21637700420E+02  0.41997434232E+01  0.11015250877E+04  0.11017455908E+04  0.00000000000E+00 0.  1.
          2    1    1    2  502    0 -0.21637700420E+02 -0.41997434232E+01 -0.12718149845E+03  0.12907734685E+03  0.00000000000E+00 0. -1.
</event>
<event>
 4    1  0.8104768E+003  0.2047436E+02  0.7546771E-02  0.1526904E+00
          2   -1    0    0  501    0  0.00000000000E+00  0.00000000000E+00  0.60440449986E+03  0.60440449986E+03  0.00000000000E+00 0.  1.
          2   -1    0    0  502    0 -0.00000000000E+00 -0.00000000000E+00 -0.92860758803E+00  0.92860758803E+00  0.00000000000E+00 0.  1.
          2    1    1    2  501    0  0.19461306440E+02  0.63605779520E+01  0.14946840180E+03  0.15086418573E+03  0.00000000000E+00 0.  1.
          2    1    1    2  502    0 -0.19461306440E+02 -0.63605779520E+01  0.45400749047E+03  0.45446892172E+03  0.00000000000E+00 0.  1.
</event>
<event>
 4    1  0.8104768E+003  0.2357260E+02  0.7546771E-02  0.1485430E+00
          2   -1    0    0  501    0  0.00000000000E+00  0.00000000000E+00  0.38749132195E+01  0.38749132195E+01  0.00000000000E+00 0.  1.
          2   -1    0    0  502    0 -0.00000000000E+00 -0.00000000000E+00 -0.11053754139E+04  0.11053754139E+04  0.00000000000E+00 0.  1.
          2    1    1    2  501    0 -0.17208499401E+02 -0.16110089902E+02 -0.10681501865E+04  0.10684102622E+04  0.00000000000E+00 0.  1.
          2    1    1    2  502    0  0.17208499401E+02  0.16110089902E+02 -0.33350314271E+02  0.40840065013E+02  0.00000000000E+00 0.  1.
</event>
<event>
 4    1  0.8104768E+003  0.2353276E+02  0.7546771E-02  0.1485914E+00
          2   -1    0    0  501    0  0.00000000000E+00  0.00000000000E+00  0.47795772986E+01  0.47795772986E+01  0.00000000000E+00 0.  1.
          2   -1    0    0  502    0 -0.00000000000E+00 -0.00000000000E+00 -0.12390095812E+03  0.12390095812E+03  0.00000000000E+00 0.  1.
          2    1    1    2  501    0 -0.69381777858E+01 -0.22486714601E+02 -0.75945316740E+02  0.79507746662E+02  0.00000000000E+00 0.  1.
          2    1    1    2  502    0  0.69381777858E+01  0.22486714601E+02 -0.43176064082E+02  0.49172788757E+02  0.00000000000E+00 0.  1.
</event>
<event>
 4    1  0.8104768E+003  0.2357297E+02  0.7546771E-02  0.1485426E+00
          2   -1    0    0  501    0  0.00000000000E+00  0.00000000000E+00  0.69908261374E+02  0.69908261374E+02  0.00000000000E+00 0.  1.
          2   -1    0    0  502    0 -0.00000000000E+00 -0.00000000000E+00 -0.81438089548E+01  0.81438089548E+01  0.00000000000E+00 0.  1.
          2    1    1    2  501    0  0.43337685444E+01 -0.23171178147E+02  0.36921652120E+02  0.43805175970E+02  0.00000000000E+00 0.  1.
          2    1    1    2  502    0 -0.43337685444E+01  0.23171178147E+02  0.24842800298E+02  0.34246894358E+02  0.00000000000E+00 0.  1.
</event>
<event>
 4    1  0.8104768E+003  0.9732888E+02  0.7546771E-02  0.1168519E+00
          2   -1    0    0  502    0  0.00000000000E+00  0.00000000000E+00  0.29415523336E+04  0.29415523336E+04  0.00000000000E+00 0. -1.
          2   -1    0    0  501    0 -0.00000000000E+00 -0.00000000000E+00 -0.45354555859E+01  0.45354555859E+01  0.00000000000E+00 0. -1.
          2    1    1    2  501    0 -0.95912879795E+02 -0.16541753209E+02  0.22617052044E+04  0.22637984322E+04  0.00000000000E+00 0. -1.
          2    1    1    2  502    0  0.95912879795E+02  0.16541753209E+02  0.67531167359E+03  0.68228935695E+03  0.00000000000E+00 0. -1.
</event>
<event>
 4    1  0.8104768E+003  0.2340077E+02  0.7546771E-02  0.1487526E+00
          2   -1    0    0  502    0  0.00000000000E+00  0.00000000000E+00  0.62385422294E+03  0.62385422294E+03  0.00000000000E+00 0. -1.
          2   -1    0    0  501    0 -0.00000000000E+00 -0.00000000000E+00 -0.27837522527E+02  0.27837522527E+02  0.00000000000E+00 0. -1.
          2    1    1    2  501    0  0.62147990047E+01 -0.22560411963E+02  0.61867584867E+03  0.61911824528E+03  0.00000000000E+00 0. -1.
          2    1    1    2  502    0 -0.62147990047E+01  0.22560411963E+02 -0.22659148256E+02  0.32573500185E+02  0.00000000000E+00 0. -1.
</event>
<event>
 4    1  0.8104768E+003  0.2129471E+02  0.7546771E-02  0.1515099E+00
          2   -1    0    0  501    0  0.00000000000E+00  0.00000000000E+00  0.49846546519E+02  0.49846546519E+02  0.00000000000E+00 0.  1.
          2   -1    0    0  502    0 -0.00000000000E+00 -0.00000000000E+00 -0.14715443812E+03  0.14715443812E+03  0.00000000000E+00 0.  1.
          2    1    1    2  501    0 -0.14986557178E+02  0.15128372248E+02 -0.14406117695E+03  0.14562653346E+03  0.00000000000E+00 0.  1.
          2    1    1    2  502    0  0.14986557178E+02 -0.15128372248E+02  0.46753285350E+02  0.51374451179E+02  0.00000000000E+00 0.  1.
</event>
<event>
 4    1  0.8104768E+003  0.2714359E+02  0.7546771E-02  0.1446171E+00
          2   -1    0    0  502    0  0.00000000000E+00  0.00000000000E+00  0.12084330365E+04  0.12084330365E+04  0.00000000000E+00 0.  1.
          2   -1    0    0  501    0 -0.00000000000E+00 -0.00000000000E+00 -0.28512105091E+02  0.28512105091E+02  0.00000000000E+00 0.  1.
          2    1    1    2  501    0  0.17064387823E+02  0.21108789029E+02  0.12017846908E+04  0.12020911851E+04  0.00000000000E+00 0.  1.
          2    1    1    2  502    0 -0.17064387823E+02 -0.21108789029E+02 -0.21863759399E+02  0.34853956462E+02  0.00000000000E+00 0.  1.
</event>
<event>
 4    1  0.8104768E+003  0.3062538E+02  0.7546771E-02  0.1414238E+00
          2   -1    0    0  501    0  0.00000000000E+00  0.00000000000E+00  0.11855582062E+03  0.11855582062E+03  0.00000000000E+00 0. -1.
          2   -1    0    0  502    0 -0.00000000000E+00 -0.00000000000E+00 -0.97424774818E+02  0.97424774818E+02  0.00000000000E+00 0. -1.
          2    1    1    2  501    0 -0.21212570315E+02  0.22089387809E+02 -0.92947401516E+02  0.97862830747E+02  0.00000000000E+00 0. -1.
          2    1    1    2  502    0  0.21212570315E+02 -0.22089387809E+02  0.11407844732E+03  0.11811776469E+03  0.00000000000E+00 0. -1.
</event>
<event>
 4    1  0.8104768E+003  0.9139571E+02  0.7546771E-02  0.1179615E+00
          2   -1    0    0  501    0  0.00000000000E+00  0.00000000000E+00  0.20535949180E+03  0.20535949180E+03  0.00000000000E+00 0. -1.
          2   -1    0    0  502    0 -0.00000000000E+00 -0.00000000000E+00 -0.43820379125E+03  0.43820379125E+03  0.00000000000E+00 0. -1.
          2    1    1    2  501    0 -0.47947710278E+02 -0.77808698987E+02 -0.42290559063E+03  0.43266882849E+03  0.00000000000E+00 0. -1.
          2    1    1    2  502    0  0.47947710278E+02  0.77808698987E+02  0.19006129118E+03  0.21089445456E+03  0.00000000000E+00 0. -1.
</event>
<event>
 4    1  0.8104768E+003  0.2717280E+02  0.7546771E-02  0.1445880E+00
          2   -1    0    0  501    0  0.00000000000E+00  0.00000000000E+00  0.40545366148E+03  0.40545366148E+03  0.00000000000E+00 0. -1.
          2   -1    0    0  502    0 -0.00000000000E+00 -0.00000000000E+00 -0.28640603849E+03  0.28640603849E+03  0.00000000000E+00 0. -1.
          2    1    1    2  501    0 -0.22731647969E+02  0.14887360172E+02 -0.28530451039E+03  0.28659557735E+03  0.00000000000E+00 0. -1.
          2    1    1    2  502    0  0.22731647969E+02 -0.14887360172E+02  0.40435213337E+03  0.40526412261E+03  0.00000000000E+00 0. -1.
</event>
<event>
 4    1  0.8104768E+003  0.3650415E+02  0.7546771E-02  0.1370286E+00
          2   -1    0    0  502    0  0.00000000000E+00  0.00000000000E+00  0.54195635944E+03  0.54195635944E+03  0.00000000000E+00 0. -1.
          2   -1    0    0  501    0 -0.00000000000E+00 -0.00000000000E+00 -0.36462819676E+01  0.36462819676E+01  0.00000000000E+00 0. -1.
          2    1    1    2  501    0  0.30614311088E+02  0.19882587451E+02  0.42483685217E+03  0.42640227989E+03  0.00000000000E+00 0. -1.
          2    1    1    2  502    0 -0.30614311088E+02 -0.19882587451E+02  0.11347322530E+03  0.11920036152E+03  0.00000000000E+00 0. -1.
</event>
<event>
 4    1  0.8104768E+003  0.2146593E+02  0.7546771E-02  0.1512715E+00
          2   -1    0    0  501    0  0.00000000000E+00  0.00000000000E+00  0.21629474181E+02  0.21629474181E+02  0.00000000000E+00 0.  1.
          2   -1    0    0  502    0 -0.00000000000E+00 -0.00000000000E+00 -0.45224958728E+03  0.45224958728E+03  0.00000000000E+00 0.  1.
          2    1    1    2  501    0 -0.21167441497E+02 -0.35672913295E+01 -0.44660164767E+03  0.44711723055E+03  0.00000000000E+00 0.  1.
          2    1    1    2  502    0  0.21167441497E+02  0.35672913295E+01  0.15981534569E+02  0.26761830919E+02  0.00000000000E+00 0.  1.
</event>
<event>
 4    1  0.8104768E+003  0.3713654E+02  0.7546771E-02  0.1366135E+00
          2   -1    0    0  502    0  0.00000000000E+00  0.00000000000E+00  0.31197088583E+01  0.31197088583E+01  0.00000000000E+00 0.  1.
          2   -1    0    0  501    0 -0.00000000000E+00 -0.00000000000E+00 -0.45118392872E+03  0.45118392872E+03  0.00000000000E+00 0.  1.
          2    1    1    2  501    0 -0.33080342155E+02  0.16876423953E+02 -0.19174378872E+03  0.19530694620E+03  0.00000000000E+00 0.  1.
          2    1    1    2  502    0  0.33080342155E+02 -0.16876423953E+02 -0.25632043115E+03  0.25899669138E+03  0.00000000000E+00 0.  1.
</event>
<event>
 4    1  0.8104768E+003  0.3120540E+02  0.7546771E-02  0.1409403E+00
          2   -1    0    0  502    0  0.00000000000E+00  0.00000000000E+00  0.93893983477E+03  0.93893983477E+03  0.00000000000E+00 0. -1.
          2   -1    0    0  501    0 -0.00000000000E+00 -0.00000000000E+00 -0.16465379165E+01  0.16465379165E+01  0.00000000000E+00 0. -1.
          2    1    1    2  501    0  0.31181575832E+02  0.12191582076E+01  0.18252771373E+03  0.18517597927E+03  0.00000000000E+00 0. -1.
          2    1    1    2  502    0 -0.31181575832E+02 -0.12191582076E+01  0.75476558312E+03  0.75541039342E+03  0.00000000000E+00 0. -1.
</event>
<event>
 4    1  0.8104768E+003  0.2228622E+02  0.7546771E-02  0.1501661E+00
          2   -1    0    0  501    0  0.00000000000E+00  0.00000000000E+00  0.11219150637E+01  0.11219150637E+01  0.00000000000E+00 0.  1.
          2   -1    0    0  502    0 -0.00000000000E+00 -0.00000000000E+00 -0.96285271223E+03  0.96285271223E+03  0.00000000000E+00 0. -1.
          2    1    1    2  501    0  0.13983799019E+02  0.17353068156E+02 -0.83512342107E+03  0.83542073474E+03  0.00000000000E+00 0. -1.
          2    1    1    2  502    0 -0.13983799019E+02 -0.17353068156E+02 -0.12660737610E+03  0.12855389256E+03  0.00000000000E+00 0.  1.
</event>
<event>
 4    1  0.8104768E+003  0.2424486E+02  0.7546771E-02  0.1477431E+00
          2   -1    0    0  501    0  0.00000000000E+00  0.00000000000E+00  0.71051656532E+01  0.71051656532E+01  0.00000000000E+00 0.  1.
          2   -1    0    0  502    0 -0.00000000000E+00 -0.00000000000E+00 -0.22516665670E+03  0.22516665670E+03  0.00000000000E+00 0. -1.
          2    1    1    2  501    0  0.11963187971E+02 -0.21087800556E+02 -0.20139943190E+03  0.20285350470E+03  0.00000000000E+00 0. -1.
          2    1    1    2  502    0 -0.11963187971E+02  0.21087800556E+02 -0.16662059149E+02  0.29418317657E+02  0.00000000000E+00 0.  1.
</event>
<event>
 4    1  0.8104768E+003  0.2844633E+02  0.7546771E-02  0.1433597E+00
          2   -1    0    0  501    0  0.00000000000E+00  0.00000000000E+00  0.15059199884E+03  0.15059199884E+03  0.00000000000E+00 0. -1.
          2   -1    0    0  502    0 -0.00000000000E+00 -0.00000000000E+00 -0.30193923973E+02  0.30193923973E+02  0.00000000000E+00 0.  1.
          2    1    1    2  501    0 -0.58662933285E+01 -0.27834871402E+02 -0.21756852113E+02  0.35812764167E+02  0.00000000000E+00 0.  1.
          2    1    1    2  502    0  0.58662933285E+01  0.27834871402E+02  0.14215492698E+03  0.14497315865E+03  0.00000000000E+00 0. -1.
</event>
<event>
 4    1  0.8104768E+003  0.7578643E+02  0.7546771E-02  0.1213982E+00
          2   -1    0    0  501    0  0.00000000000E+00  0.00000000000E+00  0.18984712054E+04  0.18984712054E+04  0.00000000000E+00 0.  1.
          2   -1    0    0  502    0 -0.00000000000E+00 -0.00000000000E+00 -0.40928512214E+01  0.40928512214E+01  0.00000000000E+00 0.  1.
          2    1    1    2  501    0  0.61194727154E+01 -0.75538968250E+02  0.46136870766E+03  0.46755178117E+03  0.00000000000E+00 0.  1.
          2    1    1    2  502    0 -0.61194727154E+01  0.75538968250E+02  0.14330096465E+04  0.14350122754E+04  0.00000000000E+00 0.  1.
</event>
<event>
 4    1  0.8104768E+003  0.3772409E+02  0.7546771E-02  0.1362365E+00
          2   -1    0    0  502    0  0.00000000000E+00  0.00000000000E+00  0.27134645567E+02  0.27134645567E+02  0.00000000000E+00 0. -1.
          2   -1    0    0  501    0 -0.00000000000E+00 -0.00000000000E+00 -0.96463359065E+03  0.96463359065E+03  0.00000000000E+00 0.  1.
          2    1    1    2  501    0  0.33714541028E+02 -0.16924435522E+02  0.13465910722E+02  0.40055430918E+02  0.00000000000E+00 0. -1.
          2    1    1    2  502    0 -0.33714541028E+02  0.16924435522E+02 -0.95096485581E+03  0.95171280530E+03  0.00000000000E+00 0.  1.
</event>
<event>
 4    1  0.8104768E+003  0.3339949E+02  0.7546771E-02  0.1392178E+00
          2   -1    0    0  502    0  0.00000000000E+00  0.00000000000E+00  0.15873510596E+04  0.15873510596E+04  0.00000000000E+00 0. -1.
          2   -1    0    0  501    0 -0.00000000000E+00 -0.00000000000E+00 -0.83710503215E+00  0.83710503215E+00  0.00000000000E+00 0. -1.
          2    1    1    2  501    0 -0.90459408140E+01  0.32151151868E+02  0.47513473837E+03  0.47630719627E+03  0.00000000000E+00 0. -1.
          2    1    1    2  502    0  0.90459408140E+01 -0.32151151868E+02  0.11113792162E+04  0.11118809684E+04  0.00000000000E+00 0. -1.
</event>
<event>
 4    1  0.8104768E+003  0.2133781E+02  0.7546771E-02  0.1514496E+00
          2   -1    0    0  501    0  0.00000000000E+00  0.00000000000E+00  0.46977271031E+01  0.46977271031E+01  0.00000000000E+00 0. -1.
          2   -1    0    0  502    0 -0.00000000000E+00 -0.00000000000E+00 -0.30316848715E+03  0.30316848715E+03  0.00000000000E+00 0. -1.
          2    1    1    2  501    0  0.20555674535E+02  0.57242082101E+01 -0.27620087379E+03  0.27702387081E+03  0.00000000000E+00 0. -1.
          2    1    1    2  502    0 -0.20555674535E+02 -0.57242082101E+01 -0.22269886254E+02  0.30842343442E+02  0.00000000000E+00 0. -1.
</event>
<event>
 4    1  0.8104768E+003  0.3025483E+02  0.7546771E-02  0.1417395E+00
          2   -1    0    0  502    0  0.00000000000E+00  0.00000000000E+00  0.44772560245E+03  0.44772560245E+03  0.00000000000E+00 0. -1.
          2   -1    0    0  501    0 -0.00000000000E+00 -0.00000000000E+00 -0.12598136830E+02  0.12598136830E+02  0.00000000000E+00 0. -1.
          2    1    1    2  501    0  0.40393388802E+01 -0.29983970562E+02  0.42822380042E+03  0.42929125078E+03  0.00000000000E+00 0. -1.
          2    1    1    2  502    0 -0.40393388802E+01  0.29983970562E+02  0.69036651968E+01  0.31032488498E+02  0.00000000000E+00 0. -1.
</event>
<event>
 4    1  0.8104768E+003  0.4385954E+02  0.7546771E-02  0.1327241E+00
          2   -1    0    0  501    0  0.00000000000E+00  0.00000000000E+00  0.22924341316E+01  0.22924341316E+01  0.00000000000E+00 0. -1.
          2   -1    0    0  502    0 -0.00000000000E+00 -0.00000000000E+00 -0.10078204400E+04  0.10078204400E+04  0.00000000000E+00 0. -1.
          2    1    1    2  501    0  0.27125981021E+02 -0.34465065839E+02 -0.70939159320E+03  0.71074615167E+03  0.00000000000E+00 0. -1.
          2    1    1    2  502    0 -0.27125981021E+02  0.34465065839E+02 -0.29613641264E+03  0.29936672243E+03  0.00000000000E+00 0. -1.
</event>
<event>
 4    1  0.9582136E+003  0.2663232E+02  0.7546771E-02  0.1451337E+00
          2   -1    0    0  501    0  0.00000000000E+00  0.00000000000E+00  0.10510258768E+04  0.10510258768E+04  0.00000000000E+00 0.  1.
          2   -1    0    0  502    0 -0.00000000000E+00 -0.00000000000E+00 -0.38570757521E+03  0.38570757521E+03  0.00000000000E+00 0.  1.
          2    1    1    2  501    0  0.19893127041E+02  0.17707175440E+02 -0.38507886172E+03  0.38599871801E+03  0.00000000000E+00 0.  1.
          2    1    1    2  502    0 -0.19893127041E+02 -0.17707175440E+02  0.10503971633E+04  0.10507347340E+04  0.00000000000E+00 0.  1.
</event>
<event>
 4    1  0.8104768E+003  0.2464153E+02  0.7546771E-02  0.1472854E+00
          2   -1    0    0  502    0  0.00000000000E+00  0.00000000000E+00  0.12372217642E+01  0.12372217642E+01  0.00000000000E+00 0.  1.
          2   -1    0    0  501    0 -0.00000000000E+00 -0.00000000000E+00 -0.98523927279E+03  0.98523927279E+03  0.00000000000E+00 0.  1.
          2    1    1    2  501    0 -0.24512120831E+02  0.25220566390E+01 -0.14257862208E+03  0.14469232292E+03  0.00000000000E+00 0.  1.
          2    1    1    2  502    0  0.24512120831E+02 -0.25220566390E+01 -0.84142342895E+03  0.84178417164E+03  0.00000000000E+00 0.  1.
</event>
<event>
 4    1  0.8104768E+003  0.2064974E+02  0.7546771E-02  0.1524325E+00
          2   -1    0    0  501    0  0.00000000000E+00  0.00000000000E+00  0.59986652811E+02  0.59986652811E+02  0.00000000000E+00 0.  1.
          2   -1    0    0  502    0 -0.00000000000E+00 -0.00000000000E+00 -0.68987206257E+02  0.68987206257E+02  0.00000000000E+00 0.  1.
          2    1    1    2  501    0  0.27203660270E+01 -0.20469771461E+02 -0.65574537484E+02  0.68749050185E+02  0.00000000000E+00 0.  1.
          2    1    1    2  502    0 -0.27203660270E+01  0.20469771461E+02  0.56573984039E+02  0.60224808883E+02  0.00000000000E+00 0.  1.
</event>
<event>
 4    1  0.8104768E+003  0.2812771E+02  0.7546771E-02  0.1436597E+00
          2   -1    0    0  501    0  0.00000000000E+00  0.00000000000E+00  0.50116674177E+03  0.50116674177E+03  0.00000000000E+00 0.  1.
          2   -1    0    0  502    0 -0.00000000000E+00 -0.00000000000E+00 -0.42042994698E+01  0.42042994698E+01  0.00000000000E+00 0.  1.
          2    1    1    2  501    0  0.17549382218E+02  0.21981515999E+02  0.48793322974E+02  0.56320122769E+02  0.00000000000E+00 0.  1.
          2    1    1    2  502    0 -0.17549382218E+02 -0.21981515999E+02  0.44816911932E+03  0.44905091847E+03  0.00000000000E+00 0.  1.
</event>
<event>
 4    1  0.8104768E+003  0.2739295E+02  0.7546771E-02  0.1443700E+00
          2   -1    0    0  502    0  0.00000000000E+00  0.00000000000E+00  0.66091337629E+01  0.66091337629E+01  0.00000000000E+00 0.  1.
          2   -1    0    0  501    0 -0.00000000000E+00 -0.00000000000E+00 -0.17229453722E+04  0.17229453722E+04  0.00000000000E+00 0. -1.
          2    1    1    2  501    0  0.13644556387E+02  0.23752884553E+02 -0.22369228583E+02  0.35366026508E+02  0.00000000000E+00 0.  1.
          2    1    1    2  502    0 -0.13644556387E+02 -0.23752884553E+02 -0.16939670099E+04  0.16941884795E+04  0.00000000000E+00 0. -1.
</event>
<event>
 4    1  0.8104768E+003  0.2204000E+02  0.7546771E-02  0.1504918E+00
          2   -1    0    0  502    0  0.00000000000E+00  0.00000000000E+00  0.16983932139E+02  0.16983932139E+02  0.00000000000E+00 0. -1.
          2   -1    0    0  501    0 -0.00000000000E+00 -0.00000000000E+00 -0.28728490802E+02  0.28728490802E+02  0.00000000000E+00 0. -1.
          2    1    1    2  501    0  0.20901793218E+02  0.69911828831E+01 -0.73934229142E+01  0.23247027772E+02  0.00000000000E+00 0. -1.
          2    1    1    2  502    0 -0.20901793218E+02 -0.69911828831E+01 -0.43511357487E+01  0.22465395170E+02  0.00000000000E+00 0. -1.
</event>
<event>
 4    1  0.8104768E+003  0.2440455E+02  0.7546771E-02  0.1475576E+00
          2   -1    0    0  502    0  0.00000000000E+00  0.00000000000E+00  0.45065782995E+03  0.45065782995E+03  0.00000000000E+00 0. -1.
          2   -1    0    0  501    0 -0.00000000000E+00 -0.00000000000E+00 -0.20346220786E+02  0.20346220786E+02  0.00000000000E+00 0.  1.
          2    1    1    2  501    0 -0.23914561924E+02  0.48657548822E+01  0.44288093820E+03  0.44355282353E+03  0.00000000000E+00 0. -1.
          2    1    1    2  502    0  0.23914561924E+02 -0.48657548822E+01 -0.12569329036E+02  0.27451227204E+02  0.00000000000E+00 0.  1.
</event>
<event>
 4    1  0.8104768E+003  0.2506653E+02  0.7546771E-02  0.1468060E+00
          2   -1    0    0  502    0  0.00000000000E+00  0.00000000000E+00  0.89332111227E+00  0.89332111227E+00  0.00000000000E+00 0.  1.
          2   -1    0    0  501    0 -0.00000000000E+00 -0.00000000000E+00 -0.10887083127E+04  0.10887083127E+04  0.00000000000E+00 0.  1.
          2    1    1    2  501    0  0.13781362066E+00  0.25066148723E+02 -0.21978744837E+03  0.22121223580E+03  0.00000000000E+00 0.  1.
          2    1    1    2  502    0 -0.13781362066E+00 -0.25066148723E+02 -0.86802754322E+03  0.86838939802E+03  0.00000000000E+00 0.  1.
</event>
<event>
 4    1  0.8104768E+003  0.2201665E+02  0.7546771E-02  0.1505229E+00
          2   -1    0    0  501    0  0.00000000000E+00  0.00000000000E+00  0.10574763505E+04  0.10574763505E+04  0.00000000000E+00 0. -1.
          2   -1    0    0  502    0 -0.00000000000E+00 -0.00000000000E+00 -0.11357239840E+01  0.11357239840E+01  0.00000000000E+00 0.  1.
          2    1    1    2  501    0  0.47035482205E+01  0.21508363517E+02  0.11940602339E+03  0.12141882675E+03  0.00000000000E+00 0.  1.
          2    1    1    2  502    0 -0.47035482205E+01 -0.21508363517E+02  0.93693460312E+03  0.93719324773E+03  0.00000000000E+00 0. -1.
</event>
<event>
 4    1  0.8104768E+003  0.2806759E+02  0.7546771E-02  0.1437169E+00
          2   -1    0    0  501    0  0.00000000000E+00  0.00000000000E+00  0.18261677235E+03  0.18261677235E+03  0.00000000000E+00 0.  1.
          2   -1    0    0  502    0 -0.00000000000E+00 -0.00000000000E+00 -0.21718497757E+02  0.21718497757E+02  0.00000000000E+00 0. -1.
          2    1    1    2  501    0 -0.22376446959E+02  0.16943568390E+02 -0.11010712988E+02  0.30150052882E+02  0.00000000000E+00 0. -1.
          2    1    1    2  502    0  0.22376446959E+02 -0.16943568390E+02  0.17190898758E+03  0.17418521722E+03  0.00000000000E+00 0.  1.
</event>
<event>
 4    1  0.8104768E+003  0.2231078E+02  0.7546771E-02  0.1501339E+00
          2   -1    0    0  502    0  0.00000000000E+00  0.00000000000E+00  0.48045615708E+01  0.48045615708E+01  0.00000000000E+00 0.  1.
          2   -1    0    0  501    0 -0.00000000000E+00 -0.00000000000E+00 -0.16323421125E+03  0.16323421125E+03  0.00000000000E+00 0.  1.
          2    1    1    2  501    0  0.36034980531E+01  0.22017852069E+02 -0.28433072273E+02  0.36141535756E+02  0.00000000000E+00 0.  1.
          2    1    1    2  502    0 -0.36034980531E+01 -0.22017852069E+02 -0.12999657741E+03  0.13189723707E+03  0.00000000000E+00 0.  1.
</event>
<event>
 4    1  0.8104768E+003  0.2402910E+02  0.7546771E-02  0.1479965E+00
          2   -1    0    0  501    0  0.00000000000E+00  0.00000000000E+00  0.24922207388E+03  0.24922207388E+03  0.00000000000E+00 0. -1.
          2   -1    0    0  502    0 -0.00000000000E+00 -0.00000000000E+00 -0.96857658536E+01  0.96857658536E+01  0.00000000000E+00 0.  1.
          2    1    1    2  501    0 -0.64376713983E+01  0.23150681099E+02  0.68531899593E+01  0.24987273981E+02  0.00000000000E+00 0.  1.
          2    1    1    2  502    0  0.64376713983E+01 -0.23150681099E+02  0.23268311807E+03  0.23392056575E+03  0.00000000000E+00 0. -1.
</event>
<event>
 4    1  0.8104768E+003  0.2417785E+02  0.7546771E-02  0.1478215E+00
          2   -1    0    0  502    0  0.00000000000E+00  0.00000000000E+00  0.71775831545E+01  0.71775831545E+01  0.00000000000E+00 0. -1.
          2   -1    0    0  501    0 -0.00000000000E+00 -0.00000000000E+00 -0.31031922135E+03  0.31031922135E+03  0.00000000000E+00 0.  1.
          2    1    1    2  501    0  0.19998321975E+02  0.13588073537E+02 -0.15236642942E+02  0.28578381907E+02  0.00000000000E+00 0. -1.
          2    1    1    2  502    0 -0.19998321975E+02 -0.13588073537E+02 -0.28790499526E+03  0.28891842260E+03  0.00000000000E+00 0.  1.
</event>
<event>
 4    1  0.8104768E+003  0.2017067E+02  0.7546771E-02  0.1531443E+00
          2   -1    0    0  501    0  0.00000000000E+00  0.00000000000E+00  0.60498550715E+02  0.60498550715E+02  0.00000000000E+00 0.  1.
          2   -1    0    0  502    0 -0.00000000000E+00 -0.00000000000E+00 -0.22758742428E+02  0.22758742428E+02  0.00000000000E+00 0. -1.
          2    1    1    2  501    0 -0.19787480752E+02 -0.39130028926E+01 -0.16071060334E+02  0.25790210670E+02  0.00000000000E+00 0. -1.
          2    1    1    2  502    0  0.19787480752E+02  0.39130028926E+01  0.53810868622E+02  0.57467082473E+02  0.00000000000E+00 0.  1.
</event>
<event>
 4    1  0.8104768E+003  0.2470403E+02  0.7546771E-02  0.1472142E+00
          2   -1    0    0  502    0  0.00000000000E+00  0.00000000000E+00  0.10702486695E+02  0.10702486695E+02  0.00000000000E+00 0.  1.
          2   -1    0    0  501    0 -0.00000000000E+00 -0.00000000000E+00 -0.74290120030E+03  0.74290120030E+03  0.00000000000E+00 0. -1.
          2    1    1    2  501    0 -0.15230502589E+02 -0.19450468843E+02 -0.40473511447E+01  0.25033377691E+02  0.00000000000E+00 0.  1.
          2    1    1    2  502    0  0.15230502589E+02  0.19450468843E+02 -0.72815136246E+03  0.72857030931E+03  0.00000000000E+00 0. -1.
</event>
<event>
 4    1  0.8104768E+003  0.2542814E+02  0.7546771E-02  0.1464070E+00
          2   -1    0    0  502    0  0.00000000000E+00  0.00000000000E+00  0.28824908136E+02  0.28824908136E+02  0.00000000000E+00 0.  1.
          2   -1    0    0  501    0 -0.00000000000E+00 -0.00000000000E+00 -0.43377705643E+03  0.43377705643E+03  0.00000000000E+00 0. -1.
          2    1    1    2  501    0  0.21506378564E+02 -0.13567085183E+02  0.22764962138E+02  0.34129658955E+02  0.00000000000E+00 0.  1.
          2    1    1    2  502    0 -0.21506378564E+02  0.13567085183E+02 -0.42771711043E+03  0.42847230561E+03  0.00000000000E+00 0. -1.
</event>
<event>
 4    1  0.8104768E+003  0.3346958E+02  0.7546771E-02  0.1391654E+00
          2   -1    0    0  501    0  0.00000000000E+00  0.00000000000E+00  0.48793882817E+02  0.48793882817E+02  0.00000000000E+00 0.  1.
          2   -1    0    0  502    0 -0.00000000000E+00 -0.00000000000E+00 -0.86979221482E+03  0.86979221482E+03  0.00000000000E+00 0. -1.
          2    1    1    2  501    0  0.28747821420E+02  0.17139888118E+02 -0.86369018723E+03  0.86433844790E+03  0.00000000000E+00 0. -1.
          2    1    1    2  502    0 -0.28747821420E+02 -0.17139888118E+02  0.42691855218E+02  0.54247649746E+02  0.00000000000E+00 0.  1.
</event>
<event>
 4    1  0.8104768E+003  0.3198190E+02  0.7546771E-02  0.1403121E+00
          2   -1    0    0  502    0  0.00000000000E+00  0.00000000000E+00  0.28994255697E+03  0.28994255697E+03  0.00000000000E+00 0. -1.
          2   -1    0    0  501    0 -0.00000000000E+00 -0.00000000000E+00 -0.11050626346E+03  0.11050626346E+03  0.00000000000E+00 0. -1.
          2    1    1    2  501    0  0.24884534523E+02  0.20089844954E+02  0.28672070948E+03  0.28849888591E+03  0.00000000000E+00 0. -1.
          2    1    1    2  502    0 -0.24884534523E+02 -0.20089844954E+02 -0.10728441597E+03  0.11194993452E+03  0.00000000000E+00 0. -1.
</event>
<event>
 4    1  0.8104768E+003  0.2449600E+02  0.7546771E-02  0.1474521E+00
          2   -1    0    0  501    0  0.00000000000E+00  0.00000000000E+00  0.34558452982E+03  0.34558452982E+03  0.00000000000E+00 0. -1.
          2   -1    0    0  502    0 -0.00000000000E+00 -0.00000000000E+00 -0.81526561531E+01  0.81526561531E+01  0.00000000000E+00 0. -1.
          2    1    1    2  501    0  0.33779995035E+01 -0.24261970905E+02  0.11808382836E+02  0.27193602521E+02  0.00000000000E+00 0. -1.
          2    1    1    2  502    0 -0.33779995035E+01  0.24261970905E+02  0.32562349083E+03  0.32654358345E+03  0.00000000000E+00 0. -1.
</event>
<event>
 4    1  0.8104768E+003  0.2584159E+02  0.7546771E-02  0.1459605E+00
          2   -1    0    0  502    0  0.00000000000E+00  0.00000000000E+00  0.28227294220E+02  0.28227294220E+02  0.00000000000E+00 0. -1.
          2   -1    0    0  501    0 -0.00000000000E+00 -0.00000000000E+00 -0.46381394000E+02  0.46381394000E+02  0.00000000000E+00 0.  1.
          2    1    1    2  501    0  0.54809207765E+01 -0.25253662951E+02  0.17034258012E+02  0.30950830862E+02  0.00000000000E+00 0. -1.
          2    1    1    2  502    0 -0.54809207765E+01  0.25253662951E+02 -0.35188357792E+02  0.43657857358E+02  0.00000000000E+00 0.  1.
</event>
<event>
 4    1  0.8104768E+003  0.3023619E+02  0.7546771E-02  0.1417555E+00
          2   -1    0    0  502    0  0.00000000000E+00  0.00000000000E+00  0.14670597627E+04  0.14670597627E+04  0.00000000000E+00 0. -1.
          2   -1    0    0  501    0 -0.00000000000E+00 -0.00000000000E+00 -0.12673372464E+01  0.12673372464E+01  0.00000000000E+00 0.  1.
          2    1    1    2  501    0  0.12758408154E+02 -0.27412592774E+02  0.12563111750E+04  0.12566749761E+04  0.00000000000E+00 0. -1.
          2    1    1    2  502    0 -0.12758408154E+02  0.27412592774E+02  0.20948125048E+03  0.21165212383E+03  0.00000000000E+00 0.  1.
</event>
<event>
 4    1  0.8104768E+003  0.2940060E+02  0.7546771E-02  0.1424878E+00
          2   -1    0    0  502    0  0.00000000000E+00  0.00000000000E+00  0.23168858682E+03  0.23168858682E+03  0.00000000000E+00 0.  1.
          2   -1    0    0  501    0 -0.00000000000E+00 -0.00000000000E+00 -0.50373711442E+03  0.50373711442E+03  0.00000000000E+00 0. -1.
          2    1    1    2  501    0 -0.16868966063E+02 -0.24079730152E+02  0.23032435224E+03  0.23219324421E+03  0.00000000000E+00 0.  1.
          2    1    1    2  502    0  0.16868966063E+02  0.24079730152E+02 -0.50237287984E+03  0.50323245704E+03  0.00000000000E+00 0. -1.
</event>
<event>
 4    1  0.8104768E+003  0.7636740E+02  0.7546771E-02  0.1212541E+00
          2   -1    0    0  501    0  0.00000000000E+00  0.00000000000E+00  0.26504603184E+04  0.26504603184E+04  0.00000000000E+00 0.  1.
          2   -1    0    0  502    0 -0.00000000000E+00 -0.00000000000E+00 -0.14181814533E+02  0.14181814533E+02  0.00000000000E+00 0.  1.
          2    1    1    2  501    0  0.62800146207E+02  0.43452512197E+02  0.93529588794E+02  0.12074669006E+03  0.00000000000E+00 0.  1.
          2    1    1    2  502    0 -0.62800146207E+02 -0.43452512197E+02  0.25427489150E+04  0.25438954428E+04  0.00000000000E+00 0.  1.
</event>
<event>
 4    1  0.8104768E+003  0.5132228E+02  0.7546771E-02  0.1292539E+00
          2   -1    0    0  501    0  0.00000000000E+00  0.00000000000E+00  0.36433333177E+04  0.36433333177E+04  0.00000000000E+00 0. -1.
          2   -1    0    0  502    0 -0.00000000000E+00 -0.00000000000E+00 -0.68790876881E+02  0.68790876881E+02  0.00000000000E+00 0.  1.
          2    1    1    2  501    0 -0.19842406019E+02  0.47331340304E+02 -0.59011970515E+02  0.78207349499E+02  0.00000000000E+00 0.  1.
          2    1    1    2  502    0  0.19842406019E+02 -0.47331340304E+02  0.36335544113E+04  0.36339168451E+04  0.00000000000E+00 0. -1.
</event>
<event>
 4    1  0.8104768E+003  0.2873128E+02  0.7546771E-02  0.1430952E+00
          2   -1    0    0  501    0  0.00000000000E+00  0.00000000000E+00  0.10689317183E+03  0.10689317183E+03  0.00000000000E+00 0.  1.
          2   -1    0    0  502    0 -0.00000000000E+00 -0.00000000000E+00 -0.10215147457E+02  0.10215147457E+02  0.00000000000E+00 0. -1.
          2    1    1    2  501    0  0.23384852080E+02 -0.16692359364E+02  0.19414710107E+02  0.34675886961E+02  0.00000000000E+00 0. -1.
          2    1    1    2  502    0 -0.23384852080E+02  0.16692359364E+02  0.77263314264E+02  0.82432432325E+02  0.00000000000E+00 0.  1.
</event>
<event>
 4    1  0.8225228E+003  0.2070760E+02  0.7546771E-02  0.1523481E+00
          2   -1    0    0  502    0  0.00000000000E+00  0.00000000000E+00  0.49010038148E+03  0.49010038148E+03  0.00000000000E+00 0. -1.
          2   -1    0    0  501    0 -0.00000000000E+00 -0.00000000000E+00 -0.10156667928E+04  0.10156667928E+04  0.00000000000E+00 0.  1.
          2    1    1    2  501    0  0.20295219050E+02  0.41120186926E+01  0.48977603099E+03  0.49021359136E+03  0.00000000000E+00 0. -1.
          2    1    1    2  502    0 -0.20295219050E+02 -0.41120186926E+01 -0.10153424423E+04  0.10155535829E+04  0.00000000000E+00 0.  1.
</event>
<event>
 4    1  0.8104768E+003  0.2105458E+02  0.7546771E-02  0.1518487E+00
          2   -1    0    0  502    0  0.00000000000E+00  0.00000000000E+00  0.47359905768E+03  0.47359905768E+03  0.00000000000E+00 0.  1.
          2   -1    0    0  501    0 -0.00000000000E+00 -0.00000000000E+00 -0.29661205793E+01  0.29661205793E+01  0.00000000000E+00 0.  1.
          2    1    1    2  501    0 -0.48998236503E+01 -0.20476504592E+02  0.43244854284E+03  0.43296078081E+03  0.00000000000E+00 0.  1.
          2    1    1    2  502    0  0.48998236503E+01  0.20476504592E+02  0.38184394255E+02  0.43604397448E+02  0.00000000000E+00 0.  1.
</event>
<event>
 4    1  0.8104768E+003  0.2125597E+02  0.7546771E-02  0.1515642E+00
          2   -1    0    0  501    0  0.00000000000E+00  0.00000000000E+00  0.14273453314E+04  0.14273453314E+04  0.00000000000E+00 0. -1.
          2   -1    0    0  502    0 -0.00000000000E+00 -0.00000000000E+00 -0.22467428743E+01  0.22467428743E+01  0.00000000000E+00 0.  1.
          2    1    1    2  501    0 -0.12307367537E+02 -0.17330458328E+02  0.50017692443E+02  0.54346900913E+02  0.00000000000E+00 0.  1.
          2    1    1    2  502    0  0.12307367537E+02  0.17330458328E+02  0.13750808961E+04  0.13752451733E+04  0.00000000000E+00 0. -1.
</event>
<event>
 4    1  0.8104768E+003  0.2351951E+02  0.7546771E-02  0.1486076E+00
          2   -1    0    0  501    0  0.00000000000E+00  0.00000000000E+00  0.47778970675E+01  0.47778970675E+01  0.00000000000E+00 0. -1.
          2   -1    0    0  502    0 -0.00000000000E+00 -0.00000000000E+00 -0.10080810851E+04  0.10080810851E+04  0.00000000000E+00 0. -1.
          2    1    1    2  501    0  0.22997399413E+02  0.49281882667E+01 -0.97811314180E+03  0.97839587365E+03  0.00000000000E+00 0. -1.
          2    1    1    2  502    0 -0.22997399413E+02 -0.49281882667E+01 -0.25190046236E+02  0.34463108518E+02  0.00000000000E+00 0. -1.
</event>
<event>
 4    1  0.8104768E+003  0.2785945E+02  0.7546771E-02  0.1439161E+00
          2   -1    0    0  502    0  0.00000000000E+00  0.00000000000E+00  0.37709158643E+03  0.37709158643E+03  0.00000000000E+00 0. -1.
          2   -1    0    0  501    0 -0.00000000000E+00 -0.00000000000E+00 -0.21590725782E+01  0.21590725782E+01  0.00000000000E+00 0. -1.
          2    1    1    2  501    0 -0.22614310503E+02 -0.16270897558E+02  0.14648932818E+03  0.14911496377E+03  0.00000000000E+00 0. -1.
          2    1    1    2  502    0  0.22614310503E+02  0.16270897558E+02  0.22844318567E+03  0.23013569525E+03  0.00000000000E+00 0. -1.
</event>
<event>
 4    1  0.8104768E+003  0.2146408E+02  0.7546771E-02  0.1512741E+00
          2   -1    0    0  501    0  0.00000000000E+00  0.00000000000E+00  0.11508183064E+01  0.11508183064E+01  0.00000000000E+00 0. -1.
          2   -1    0    0  502    0 -0.00000000000E+00 -0.00000000000E+00 -0.62697592952E+03  0.62697592952E+03  0.00000000000E+00 0. -1.
          2    1    1    2  501    0 -0.12899587726E+02  0.17155392101E+02 -0.50174039711E+03  0.50219929603E+03  0.00000000000E+00 0. -1.
          2    1    1    2  502    0  0.12899587726E+02 -0.17155392101E+02 -0.12408471411E+03  0.12592745180E+03  0.00000000000E+00 0. -1.
</event>
<event>
 4    1  0.8104768E+003  0.2062928E+02  0.7546771E-02  0.1524624E+00
          2   -1    0    0  501    0  0.00000000000E+00  0.00000000000E+00  0.85591048210E+03  0.85591048210E+03  0.00000000000E+00 0.  1.
          2   -1    0    0  502    0 -0.00000000000E+00 -0.00000000000E+00 -0.32566032040E+01  0.32566032040E+01  0.00000000000E+00 0.  1.
          2    1    1    2  501    0  0.19753164453E+02  0.59480773980E+01  0.30894750801E+02  0.37149061330E+02  0.00000000000E+00 0.  1.
          2    1    1    2  502    0 -0.19753164453E+02 -0.59480773980E+01  0.82175912809E+03  0.82201802397E+03  0.00000000000E+00 0.  1.
</event>
<event>
 4    1  0.8104768E+003  0.2001703E+02  0.7546771E-02  0.1533775E+00
          2   -1    0    0  502    0  0.00000000000E+00  0.00000000000E+00  0.85699907406E+03  0.85699907406E+03  0.00000000000E+00 0. -1.
          2   -1    0    0  501    0 -0.00000000000E+00 -0.00000000000E+00 -0.27484090408E+02  0.27484090408E+02  0.00000000000E+00 0.  1.
          2    1    1    2  501    0 -0.76935916254E+01  0.18479455178E+02  0.85322138552E+03  0.85345615841E+03  0.00000000000E+00 0. -1.
          2    1    1    2  502    0  0.76935916254E+01 -0.18479455178E+02 -0.23706401866E+02  0.31027006062E+02  0.00000000000E+00 0.  1.
</event>
<event>
 4    1  0.8104768E+003  0.2164296E+02  0.7546771E-02  0.1510280E+00
          2   -1    0    0  501    0  0.00000000000E+00  0.00000000000E+00  0.11611387096E+04  0.11611387096E+04  0.00000000000E+00 0. -1.
          2   -1    0    0  502    0 -0.00000000000E+00 -0.00000000000E+00 -0.36021025782E+02  0.36021025782E+02  0.00000000000E+00 0. -1.
          2    1    1    2  501    0  0.10717946582E+02 -0.18802753605E+02 -0.32659731570E+02  0.39180045792E+02  0.00000000000E+00 0. -1.
          2    1    1    2  502    0 -0.10717946582E+02  0.18802753605E+02  0.11577774154E+04  0.11579796896E+04  0.00000000000E+00 0. -1.
</event>
<event>
 4    1  0.8104768E+003  0.2786972E+02  0.7546771E-02  0.1439062E+00
          2   -1    0    0  501    0  0.00000000000E+00  0.00000000000E+00  0.27231402763E+03  0.27231402763E+03  0.00000000000E+00 0. -1.
          2   -1    0    0  502    0 -0.00000000000E+00 -0.00000000000E+00 -0.76846000183E+02  0.76846000183E+02  0.00000000000E+00 0.  1.
          2    1    1    2  501    0  0.19108649640E+02 -0.20287452513E+02 -0.73575413742E+02  0.78676951694E+02  0.00000000000E+00 0.  1.
          2    1    1    2  502    0 -0.19108649640E+02  0.20287452513E+02  0.26904344119E+03  0.27048307612E+03  0.00000000000E+00 0. -1.
</event>
<event>
 4    1  0.8104768E+003  0.2138518E+02  0.7546771E-02  0.1513836E+00
          2   -1    0    0  501    0  0.00000000000E+00  0.00000000000E+00  0.26568828535E+03  0.26568828535E+03  0.00000000000E+00 0. -1.
          2   -1    0    0  502    0 -0.00000000000E+00 -0.00000000000E+00 -0.63836707273E+02  0.63836707273E+02  0.00000000000E+00 0.  1.
          2    1    1    2  501    0  0.21132888892E+02  0.32751808774E+01 -0.61600207741E+02  0.65206682146E+02  0.00000000000E+00 0.  1.
          2    1    1    2  502    0 -0.21132888892E+02 -0.32751808774E+01  0.26345178582E+03  0.26431831048E+03  0.00000000000E+00 0. -1.
</event>
<event>
 4    1  0.8104768E+003  0.3225591E+02  0.7546771E-02  0.1400954E+00
          2   -1    0    0  502    0  0.00000000000E+00  0.00000000000E+00  0.81875509416E+02  0.81875509416E+02  0.00000000000E+00 0. -1.
          2   -1    0    0  501    0 -0.00000000000E+00 -0.00000000000E+00 -0.75405736689E+02  0.75405736689E+02  0.00000000000E+00 0. -1.
          2    1    1    2  501    0  0.12093784630E+02  0.29902910377E+02  0.74943605549E+02  0.81590365168E+02  0.00000000000E+00 0. -1.
          2    1    1    2  502    0 -0.12093784630E+02 -0.29902910377E+02 -0.68473832821E+02  0.75690880936E+02  0.00000000000E+00 0. -1.
</event>
<event>
 4    1  0.8104768E+003  0.2297303E+02  0.7546771E-02  0.1492837E+00
          2   -1    0    0  502    0  0.00000000000E+00  0.00000000000E+00  0.10430869025E+04  0.10430869025E+04  0.00000000000E+00 0. -1.
          2   -1    0    0  501    0 -0.00000000000E+00 -0.00000000000E+00 -0.35825066568E+02  0.35825066568E+02  0.00000000000E+00 0. -1.
          2    1    1    2  501    0 -0.43712118672E+01  0.22553327791E+02  0.10392639699E+04  0.10395178494E+04  0.00000000000E+00 0. -1.
          2    1    1    2  502    0  0.43712118672E+01 -0.22553327791E+02 -0.32002133957E+02  0.39394119681E+02  0.00000000000E+00 0. -1.
</event>
<event>
 4    1  0.8104768E+003  0.3663890E+02  0.7546771E-02  0.1369393E+00
          2   -1    0    0  501    0  0.00000000000E+00  0.00000000000E+00  0.34402324124E+02  0.34402324124E+02  0.00000000000E+00 0. -1.
          2   -1    0    0  502    0 -0.00000000000E+00 -0.00000000000E+00 -0.11510255374E+03  0.11510255374E+03  0.00000000000E+00 0.  1.
          2    1    1    2  501    0  0.11624482946E+02 -0.34745940645E+02 -0.10112482737E+03  0.10755761110E+03  0.00000000000E+00 0.  1.
          2    1    1    2  502    0 -0.11624482946E+02  0.34745940645E+02  0.20424597758E+02  0.41947266760E+02  0.00000000000E+00 0. -1.
</event>
<event>
 4    1  0.8104768E+003  0.3121503E+02  0.7546771E-02  0.1409324E+00
          2   -1    0    0  501    0  0.00000000000E+00  0.00000000000E+00  0.12012275933E+02  0.12012275933E+02  0.00000000000E+00 0.  1.
          2   -1    0    0  502    0 -0.00000000000E+00 -0.00000000000E+00 -0.73219515322E+03  0.73219515322E+03  0.00000000000E+00 0.  1.
          2    1    1    2  501    0 -0.28835923617E+01 -0.31081551019E+02 -0.71097881907E+03  0.71166372613E+03  0.00000000000E+00 0.  1.
          2    1    1    2  502    0  0.28835923617E+01  0.31081551019E+02 -0.92040582112E+01  0.32543703020E+02  0.00000000000E+00 0.  1.
</event>
<event>
 4    1  0.8104768E+003  0.2291041E+02  0.7546771E-02  0.1493626E+00
          2   -1    0    0  501    0  0.00000000000E+00  0.00000000000E+00  0.91374057395E+02  0.91374057395E+02  0.00000000000E+00 0.  1.
          2   -1    0    0  502    0 -0.00000000000E+00 -0.00000000000E+00 -0.12870745848E+03  0.12870745848E+03  0.00000000000E+00 0. -1.
          2    1    1    2  501    0  0.44103764166E+01 -0.22481893241E+02 -0.12622380116E+03  0.12828614470E+03  0.00000000000E+00 0. -1.
          2    1    1    2  502    0 -0.44103764166E+01  0.22481893241E+02  0.88890400072E+02  0.91795371173E+02  0.00000000000E+00 0.  1.
</event>
<event>
 4    1  0.8104768E+003  0.2267723E+02  0.7546771E-02  0.1496591E+00
          2   -1    0    0  501    0  0.00000000000E+00  0.00000000000E+00  0.16529915607E+02  0.16529915607E+02  0.00000000000E+00 0. -1.
          2   -1    0    0  502    0 -0.00000000000E+00 -0.00000000000E+00 -0.11654686693E+03  0.11654686693E+03  0.00000000000E+00 0.  1.
          2    1    1    2  501    0  0.64050443672E+01  0.21753904481E+02 -0.10697804254E+03  0.10935519439E+03  0.00000000000E+00 0.  1.
          2    1    1    2  502    0 -0.64050443672E+01 -0.21753904481E+02  0.69610912157E+01  0.23721588152E+02  0.00000000000E+00 0. -1.
</event>
<event>
 4    1  0.8104768E+003  0.3061986E+02  0.7546771E-02  0.1414285E+00
          2   -1    0    0  502    0  0.00000000000E+00  0.00000000000E+00  0.14593910839E+02  0.14593910839E+02  0.00000000000E+00 0. -1.
          2   -1    0    0  501    0 -0.00000000000E+00 -0.00000000000E+00 -0.14768751063E+03  0.14768751063E+03  0.00000000000E+00 0.  1.
          2    1    1    2  501    0  0.21525580433E+02  0.21776717972E+02 -0.55562791929E+01  0.31119901945E+02  0.00000000000E+00 0. -1.
          2    1    1    2  502    0 -0.21525580433E+02 -0.21776717972E+02 -0.12753732060E+03  0.13116151953E+03  0.00000000000E+00 0.  1.
</event>
<event>
 4    1  0.8104768E+003  0.3167257E+02  0.7546771E-02  0.1405598E+00
          2   -1    0    0  501    0  0.00000000000E+00  0.00000000000E+00  0.51145309777E+02  0.51145309777E+02  0.00000000000E+00 0.  1.
          2   -1    0    0  502    0 -0.00000000000E+00 -0.00000000000E+00 -0.26926939384E+03  0.26926939384E+03  0.00000000000E+00 0. -1.
          2    1    1    2  501    0 -0.29000265242E+02 -0.12733283912E+02 -0.26332428071E+03  0.26522222515E+03  0.00000000000E+00 0. -1.
          2    1    1    2  502    0  0.29000265242E+02  0.12733283912E+02  0.45200196641E+02  0.55192478471E+02  0.00000000000E+00 0.  1.
</event>
<event>
 4    1  0.8104768E+003  0.2307118E+02  0.7546771E-02  0.1491606E+00
          2   -1    0    0  501    0  0.00000000000E+00  0.00000000000E+00  0.17496853199E+03  0.17496853199E+03  0.00000000000E+00 0.  1.
          2   -1    0    0  502    0 -0.00000000000E+00 -0.00000000000E+00 -0.11900575679E+04  0.11900575679E+04  0.00000000000E+00 0. -1.
          2    1    1    2  501    0  0.64234733349E+01  0.22158931923E+02 -0.11891846560E+04  0.11894084351E+04  0.00000000000E+00 0. -1.
          2    1    1    2  502    0 -0.64234733349E+01 -0.22158931923E+02  0.17409562009E+03  0.17561766485E+03  0.00000000000E+00 0.  1.
</event>
<event>
 4    1  0.8104768E+003  0.3636264E+02  0.7546771E-02  0.1371228E+00
          2   -1    0    0  502    0  0.00000000000E+00  0.00000000000E+00  0.14929151523E+03  0.14929151523E+03  0.00000000000E+00 0. -1.
          2   -1    0    0  501    0 -0.00000000000E+00 -0.00000000000E+00 -0.70801391459E+02  0.70801391459E+02  0.00000000000E+00 0.  1.
          2    1    1    2  501    0 -0.26945721531E+02 -0.24416586218E+02  0.14217860749E+03  0.14675489096E+03  0.00000000000E+00 0. -1.
          2    1    1    2  502    0  0.26945721531E+02  0.24416586218E+02 -0.63688483726E+02  0.73338015727E+02  0.00000000000E+00 0.  1.
</event>
<event>
 4    1  0.8104768E+003  0.4401187E+02  0.7546771E-02  0.1326455E+00
          2   -1    0    0  501    0  0.00000000000E+00  0.00000000000E+00  0.86203198539E+02  0.86203198539E+02  0.00000000000E+00 0. -1.
          2   -1    0    0  502    0 -0.00000000000E+00 -0.00000000000E+00 -0.35485185810E+02  0.35485185810E+02  0.00000000000E+00 0.  1.
          2    1    1    2  501    0 -0.43910245986E+02 -0.29891559968E+01 -0.11488608107E+02  0.45486623004E+02  0.00000000000E+00 0.  1.
          2    1    1    2  502    0  0.43910245986E+02  0.29891559968E+01  0.62206620837E+02  0.76201761345E+02  0.00000000000E+00 0. -1.
</event>
<event>
 4    1  0.8104768E+003  0.2227836E+02  0.7546771E-02  0.1501764E+00
          2   -1    0    0  501    0  0.00000000000E+00  0.00000000000E+00  0.28646001056E+03  0.28646001056E+03  0.00000000000E+00 0.  1.
          2   -1    0    0  502    0 -0.00000000000E+00 -0.00000000000E+00 -0.43545962347E+02  0.43545962347E+02  0.00000000000E+00 0.  1.
          2    1    1    2  501    0  0.11387159730E+02  0.19148310066E+02 -0.40230057227E+02  0.45986766461E+02  0.00000000000E+00 0.  1.
          2    1    1    2  502    0 -0.11387159730E+02 -0.19148310066E+02  0.28314410544E+03  0.28401920645E+03  0.00000000000E+00 0.  1.
</event>
<event>
 4    1  0.8104768E+003  0.3048762E+02  0.7546771E-02  0.1415405E+00
          2   -1    0    0  502    0  0.00000000000E+00  0.00000000000E+00  0.87967300568E+02  0.87967300568E+02  0.00000000000E+00 0. -1.
          2   -1    0    0  501    0 -0.00000000000E+00 -0.00000000000E+00 -0.14458022779E+02  0.14458022779E+02  0.00000000000E+00 0. -1.
          2    1    1    2  501    0  0.29184443583E+02 -0.88183607623E+01  0.63324532706E+02  0.70281517316E+02  0.00000000000E+00 0. -1.
          2    1    1    2  502    0 -0.29184443583E+02  0.88183607623E+01  0.10184745083E+02  0.32143806031E+02  0.00000000000E+00 0. -1.
</event>
<event>
 4    1  0.8104768E+003  0.2431221E+02  0.7546771E-02  0.1476647E+00
          2   -1    0    0  502    0  0.00000000000E+00  0.00000000000E+00  0.16848211704E+03  0.16848211704E+03  0.00000000000E+00 0. -1.
          2   -1    0    0  501    0 -0.00000000000E+00 -0.00000000000E+00 -0.20478063595E+02  0.20478063595E+02  0.00000000000E+00 0. -1.
          2    1    1    2  501    0  0.21451689577E+02 -0.11441527741E+02  0.16000905150E+03  0.16184554397E+03  0.00000000000E+00 0. -1.
          2    1    1    2  502    0 -0.21451689577E+02  0.11441527741E+02 -0.12004998057E+02  0.27114636658E+02  0.00000000000E+00 0. -1.
</event>
<event>
 4    1  0.8104768E+003  0.2193799E+02  0.7546771E-02  0.1506282E+00
          2   -1    0    0  501    0  0.00000000000E+00  0.00000000000E+00  0.52541271584E+01  0.52541271584E+01  0.00000000000E+00 0.  1.
          2   -1    0    0  502    0 -0.00000000000E+00 -0.00000000000E+00 -0.99598927889E+02  0.99598927889E+02  0.00000000000E+00 0.  1.
          2    1    1    2  501    0 -0.21934231571E+02  0.40606659977E+00 -0.62030159300E+02  0.65795258701E+02  0.00000000000E+00 0.  1.
          2    1    1    2  502    0  0.21934231571E+02 -0.40606659977E+00 -0.32314641430E+02  0.39057796346E+02  0.00000000000E+00 0.  1.
</event>
<event>
 4    1  0.8104768E+003  0.3218722E+02  0.7546771E-02  0.1401495E+00
          2   -1    0    0  501    0  0.00000000000E+00  0.00000000000E+00  0.31645123718E+01  0.31645123718E+01  0.00000000000E+00 0. -1.
          2   -1    0    0  502    0 -0.00000000000E+00 -0.00000000000E+00 -0.59366358740E+03  0.59366358740E+03  0.00000000000E+00 0. -1.
          2    1    1    2  501    0 -0.11923946481E+02  0.29897102155E+02 -0.49510513835E+03  0.49615029501E+03  0.00000000000E+00 0. -1.
          2    1    1    2  502    0  0.11923946481E+02 -0.29897102155E+02 -0.95393936684E+02  0.10067780477E+03  0.00000000000E+00 0. -1.
</event>
<event>
 4    1  0.8104768E+003  0.1250670E+03  0.7546771E-02  0.1126316E+00
          2   -1    0    0  502    0  0.00000000000E+00  0.00000000000E+00  0.24538887305E+04  0.24538887305E+04  0.00000000000E+00 0.  1.
          2   -1    0    0  501    0 -0.00000000000E+00 -0.00000000000E+00 -0.22651625947E+04  0.22651625947E+04  0.00000000000E+00 0. -1.
          2    1    1    2  501    0  0.45524372205E+02  0.11648730555E+03  0.24505664832E+04  0.24537558659E+04  0.00000000000E+00 0.  1.
          2    1    1    2  502    0 -0.45524372205E+02 -0.11648730555E+03 -0.22618403474E+04  0.22652954593E+04  0.00000000000E+00 0. -1.
</event>
<event>
 4    1  0.8104768E+003  0.2007551E+02  0.7546771E-02  0.1532884E+00
          2   -1    0    0  501    0  0.00000000000E+00  0.00000000000E+00  0.97295426003E+03  0.97295426003E+03  0.00000000000E+00 0. -1.
          2   -1    0    0  502    0 -0.00000000000E+00 -0.00000000000E+00 -0.16183351485E+01  0.16183351485E+01  0.00000000000E+00 0.  1.
          2    1    1    2  501    0 -0.14585748131E+02  0.13794281293E+02  0.65345806074E+02  0.68360080577E+02  0.00000000000E+00 0.  1.
          2    1    1    2  502    0  0.14585748131E+02 -0.13794281293E+02  0.90599011880E+03  0.90621251460E+03  0.00000000000E+00 0. -1.
</event>
<event>
 4    1  0.8104768E+003  0.2008173E+02  0.7546771E-02  0.1532790E+00
          2   -1    0    0  502    0  0.00000000000E+00  0.00000000000E+00  0.49849134081E+00  0.49849134081E+00  0.00000000000E+00 0.  1.
          2   -1    0    0  501    0 -0.00000000000E+00 -0.00000000000E+00 -0.14491767885E+04  0.14491767885E+04  0.00000000000E+00 0. -1.
          2    1    1    2  501    0 -0.20022985029E+02  0.15349016982E+01 -0.24257720205E+03  0.24340701470E+03  0.00000000000E+00 0.  1.
          2    1    1    2  502    0  0.20022985029E+02 -0.15349016982E+01 -0.12061010951E+04  0.12062682651E+04  0.00000000000E+00 0. -1.
</event>
<event>
 4    1  0.8104768E+003  0.3074194E+02  0.7546771E-02  0.1413256E+00
          2   -1    0    0  501    0  0.00000000000E+00  0.00000000000E+00  0.21002828901E+04  0.21002828901E+04  0.00000000000E+00 0.  1.
          2   -1    0    0  502    0 -0.00000000000E+00 -0.00000000000E+00 -0.24200242541E+02  0.24200242541E+02  0.00000000000E+00 0.  1.
          2    1    1    2  501    0 -0.18926222140E+02  0.24225290489E+02 -0.14278425946E+02  0.33896017926E+02  0.00000000000E+00 0.  1.
          2    1    1    2  502    0  0.18926222140E+02 -0.24225290489E+02  0.20903610735E+04  0.20905871147E+04  0.00000000000E+00 0.  1.
</event>
<event>
 4    1  0.8104768E+003  0.4599013E+02  0.7546771E-02  0.1316561E+00
          2   -1    0    0  502    0  0.00000000000E+00  0.00000000000E+00  0.69825333242E+03  0.69825333242E+03  0.00000000000E+00 0.  1.
          2   -1    0    0  501    0 -0.00000000000E+00 -0.00000000000E+00 -0.77342192631E+03  0.77342192631E+03  0.00000000000E+00 0.  1.
          2    1    1    2  501    0  0.95101884191E+01 -0.44996095625E+02  0.69681095909E+03  0.69832700436E+03  0.00000000000E+00 0.  1.
          2    1    1    2  502    0 -0.95101884191E+01  0.44996095625E+02 -0.77197955299E+03  0.77334825437E+03  0.00000000000E+00 0.  1.
</event>
<event>
 4    1  0.8104768E+003  0.2251606E+02  0.7546771E-02  0.1498666E+00
          2   -1    0    0  502    0  0.00000000000E+00  0.00000000000E+00  0.21377081508E+03  0.21377081508E+03  0.00000000000E+00 0. -1.
          2   -1    0    0  501    0 -0.00000000000E+00 -0.00000000000E+00 -0.23904129628E+02  0.23904129628E+02  0.00000000000E+00 0.  1.
          2    1    1    2  501    0  0.22437190239E+02  0.18829849907E+01  0.20772182045E+03  0.20893857430E+03  0.00000000000E+00 0. -1.
          2    1    1    2  502    0 -0.22437190239E+02 -0.18829849907E+01 -0.17855135002E+02  0.28736370408E+02  0.00000000000E+00 0.  1.
</event>
<event>
 4    1  0.8104768E+003  0.2155874E+02  0.7546771E-02  0.1511435E+00
          2   -1    0    0  501    0  0.00000000000E+00  0.00000000000E+00  0.16007169522E+03  0.16007169522E+03  0.00000000000E+00 0. -1.
          2   -1    0    0  502    0 -0.00000000000E+00 -0.00000000000E+00 -0.14316249299E+02  0.14316249299E+02  0.00000000000E+00 0. -1.
          2    1    1    2  501    0  0.18979240681E+02 -0.10225824946E+02 -0.49735430184E+01  0.22124990459E+02  0.00000000000E+00 0. -1.
          2    1    1    2  502    0 -0.18979240681E+02  0.10225824946E+02  0.15072898894E+03  0.15226295406E+03  0.00000000000E+00 0. -1.
</event>
<event>
 4    1  0.8104768E+003  0.2220713E+02  0.7546771E-02  0.1502702E+00
          2   -1    0    0  502    0  0.00000000000E+00  0.00000000000E+00  0.59606950981E+02  0.59606950981E+02  0.00000000000E+00 0.  1.
          2   -1    0    0  501    0 -0.00000000000E+00 -0.00000000000E+00 -0.14709996360E+03  0.14709996360E+03  0.00000000000E+00 0.  1.
          2    1    1    2  501    0 -0.20106540657E+02  0.94278060737E+01  0.56658391558E+02  0.60854990251E+02  0.00000000000E+00 0.  1.
          2    1    1    2  502    0  0.20106540657E+02 -0.94278060737E+01 -0.14415140418E+03  0.14585192433E+03  0.00000000000E+00 0.  1.
</event>
<event>
 4    1  0.8104768E+003  0.3087561E+02  0.7546771E-02  0.1412137E+00
          2   -1    0    0  501    0  0.00000000000E+00  0.00000000000E+00  0.64591306848E+03  0.64591306848E+03  0.00000000000E+00 0. -1.
          2   -1    0    0  502    0 -0.00000000000E+00 -0.00000000000E+00 -0.37562774740E+01  0.37562774740E+01  0.00000000000E+00 0.  1.
          2    1    1    2  501    0 -0.20415882093E+02  0.23162359993E+02  0.67981447298E+02  0.74664451641E+02  0.00000000000E+00 0.  1.
          2    1    1    2  502    0  0.20415882093E+02 -0.23162359993E+02  0.57417534370E+03  0.57500489431E+03  0.00000000000E+00 0. -1.
</event>
<event>
 4    1  0.8104768E+003  0.2149611E+02  0.7546771E-02  0.1512298E+00
          2   -1    0    0  502    0  0.00000000000E+00  0.00000000000E+00  0.22460874797E+02  0.22460874797E+02  0.00000000000E+00 0. -1.
          2   -1    0    0  501    0 -0.00000000000E+00 -0.00000000000E+00 -0.27283682995E+03  0.27283682995E+03  0.00000000000E+00 0.  1.
          2    1    1    2  501    0  0.20145566107E+02 -0.74992616698E+01  0.16785184565E+02  0.27273158604E+02  0.00000000000E+00 0. -1.
          2    1    1    2  502    0 -0.20145566107E+02  0.74992616698E+01 -0.26716113972E+03  0.26802454615E+03  0.00000000000E+00 0.  1.
</event>
<event>
 4    1  0.8104768E+003  0.2450648E+02  0.7546771E-02  0.1474401E+00
          2   -1    0    0  501    0  0.00000000000E+00  0.00000000000E+00  0.93989781653E+02  0.93989781653E+02  0.00000000000E+00 0.  1.
          2   -1    0    0  502    0 -0.00000000000E+00 -0.00000000000E+00 -0.28534968934E+03  0.28534968934E+03  0.00000000000E+00 0.  1.
          2    1    1    2  501    0 -0.23436335000E+02  0.71628053475E+01 -0.28321407024E+03  0.28427236440E+03  0.00000000000E+00 0.  1.
          2    1    1    2  502    0  0.23436335000E+02 -0.71628053475E+01  0.91854162551E+02  0.95067106596E+02  0.00000000000E+00 0.  1.
</event>
<event>
 4    1  0.8104768E+003  0.2601553E+02  0.7546771E-02  0.1457756E+00
          2   -1    0    0  502    0  0.00000000000E+00  0.00000000000E+00  0.13359647614E+04  0.13359647614E+04  0.00000000000E+00 0.  1.
          2   -1    0    0  501    0 -0.00000000000E+00 -0.00000000000E+00 -0.55165669392E+00  0.55165669392E+00  0.00000000000E+00 0. -1.
          2    1    1    2  501    0 -0.24911222425E+02  0.74992584711E+01  0.85867436718E+03  0.85906837722E+03  0.00000000000E+00 0. -1.
          2    1    1    2  502    0  0.24911222425E+02 -0.74992584711E+01  0.47673873750E+03  0.47744804086E+03  0.00000000000E+00 0.  1.
</event>
<event>
 4    1  0.8104768E+003  0.2180437E+02  0.7546771E-02  0.1508083E+00
          2   -1    0    0  501    0  0.00000000000E+00  0.00000000000E+00  0.40179674826E+03  0.40179674826E+03  0.00000000000E+00 0.  1.
          2   -1    0    0  502    0 -0.00000000000E+00 -0.00000000000E+00 -0.35937285330E+01  0.35937285330E+01  0.00000000000E+00 0.  1.
          2    1    1    2  501    0 -0.13155106913E+02 -0.17388897050E+02  0.33096375396E+02  0.39633327426E+02  0.00000000000E+00 0.  1.
          2    1    1    2  502    0  0.13155106913E+02  0.17388897050E+02  0.36510664433E+03  0.36575714936E+03  0.00000000000E+00 0.  1.
</event>
<event>
 4    1  0.8104768E+003  0.2155251E+02  0.7546771E-02  0.1511521E+00
          2   -1    0    0  501    0  0.00000000000E+00  0.00000000000E+00  0.26161890616E+01  0.26161890616E+01  0.00000000000E+00 0.  1.
          2   -1    0    0  502    0 -0.00000000000E+00 -0.00000000000E+00 -0.60905677253E+03  0.60905677253E+03  0.00000000000E+00 0. -1.
          2    1    1    2  501    0 -0.11884275106E+02  0.17979843473E+02 -0.56064662859E+03  0.56106073906E+03  0.00000000000E+00 0. -1.
          2    1    1    2  502    0  0.11884275106E+02 -0.17979843473E+02 -0.45793954879E+02  0.50612222531E+02  0.00000000000E+00 0.  1.
</event>
<event>
 4    1  0.8104768E+003  0.2311403E+02  0.7546771E-02  0.1491071E+00
          2   -1    0    0  501    0  0.00000000000E+00  0.00000000000E+00  0.78825120648E+01  0.78825120648E+01  0.00000000000E+00 0.  1.
          2   -1    0    0  502    0 -0.00000000000E+00 -0.00000000000E+00 -0.18621812779E+03  0.18621812779E+03  0.00000000000E+00 0.  1.
          2    1    1    2  501    0 -0.20654373889E+02  0.10375706901E+02 -0.16656692315E+03  0.16816301121E+03  0.00000000000E+00 0.  1.
          2    1    1    2  502    0  0.20654373889E+02 -0.10375706901E+02 -0.11768692578E+02  0.25937628639E+02  0.00000000000E+00 0.  1.
</event>
<event>
 4    1  0.8104768E+003  0.4155343E+02  0.7546771E-02  0.1339616E+00
          2   -1    0    0  502    0  0.00000000000E+00  0.00000000000E+00  0.92198534105E+02  0.92198534105E+02  0.00000000000E+00 0. -1.
          2   -1    0    0  501    0 -0.00000000000E+00 -0.00000000000E+00 -0.73105710982E+03  0.73105710982E+03  0.00000000000E+00 0.  1.
          2    1    1    2  501    0  0.28789546951E+02  0.29964137967E+02  0.86891869122E+02  0.96316584747E+02  0.00000000000E+00 0. -1.
          2    1    1    2  502    0 -0.28789546951E+02 -0.29964137967E+02 -0.72575044484E+03  0.72693905918E+03  0.00000000000E+00 0.  1.
</event>
<event>
 4    1  0.8104768E+003  0.2066767E+02  0.7546771E-02  0.1524063E+00
          2   -1    0    0  501    0  0.00000000000E+00  0.00000000000E+00  0.68957856981E+03  0.68957856981E+03  0.00000000000E+00 0. -1.
          2   -1    0    0  502    0 -0.00000000000E+00 -0.00000000000E+00 -0.90259997681E+02  0.90259997681E+02  0.00000000000E+00 0.  1.
          2    1    1    2  501    0 -0.12337538187E+02 -0.16581249234E+02 -0.88919716799E+02  0.91290025251E+02  0.00000000000E+00 0.  1.
          2    1    1    2  502    0  0.12337538187E+02  0.16581249234E+02  0.68823828893E+03  0.68854854224E+03  0.00000000000E+00 0. -1.
</event>
<event>
 4    1  0.8104768E+003  0.2574153E+02  0.7546771E-02  0.1460676E+00
          2   -1    0    0  501    0  0.00000000000E+00  0.00000000000E+00  0.33257640987E+02  0.33257640987E+02  0.00000000000E+00 0.  1.
          2   -1    0    0  502    0 -0.00000000000E+00 -0.00000000000E+00 -0.93392539820E+02  0.93392539820E+02  0.00000000000E+00 0.  1.
          2    1    1    2  501    0 -0.23565282949E+02  0.10358762991E+02 -0.86233038038E+02  0.89993129629E+02  0.00000000000E+00 0.  1.
          2    1    1    2  502    0  0.23565282949E+02 -0.10358762991E+02  0.26098139205E+02  0.36657051179E+02  0.00000000000E+00 0.  1.
</event>
<event>
 4    1  0.8104768E+003  0.3326146E+02  0.7546771E-02  0.1393216E+00
          2   -1    0    0  502    0  0.00000000000E+00  0.00000000000E+00  0.19785132239E+03  0.19785132239E+03  0.00000000000E+00 0. -1.
          2   -1    0    0  501    0 -0.00000000000E+00 -0.00000000000E+00 -0.47900816288E+03  0.47900816288E+03  0.00000000000E+00 0.  1.
          2    1    1    2  501    0  0.34858072639E+01 -0.33078295455E+02  0.19587019594E+03  0.19867425132E+03  0.00000000000E+00 0. -1.
          2    1    1    2  502    0 -0.34858072639E+01  0.33078295455E+02 -0.47702703643E+03  0.47818523395E+03  0.00000000000E+00 0.  1.
</event>
<event>
 4    1  0.8104768E+003  0.6092279E+02  0.7546771E-02  0.1256729E+00
          2   -1    0    0  502    0  0.00000000000E+00  0.00000000000E+00  0.31238981663E+03  0.31238981663E+03  0.00000000000E+00 0.  1.
          2   -1    0    0  501    0 -0.00000000000E+00 -0.00000000000E+00 -0.70121101704E+03  0.70121101704E+03  0.00000000000E+00 0.  1.
          2    1    1    2  501    0  0.52787175720E+02 -0.30415464691E+02  0.30807787962E+03  0.31404389235E+03  0.00000000000E+00 0.  1.
          2    1    1    2  502    0 -0.52787175720E+02  0.30415464691E+02 -0.69689908003E+03  0.69955694133E+03  0.00000000000E+00 0.  1.
</event>
<event>
 4    1  0.8104768E+003  0.2380827E+02  0.7546771E-02  0.1482591E+00
          2   -1    0    0  501    0  0.00000000000E+00  0.00000000000E+00  0.35741042130E+02  0.35741042130E+02  0.00000000000E+00 0.  1.
          2   -1    0    0  502    0 -0.00000000000E+00 -0.00000000000E+00 -0.46655930058E+02  0.46655930058E+02  0.00000000000E+00 0.  1.
          2    1    1    2  501    0 -0.17072057347E+02 -0.16594530694E+02 -0.38929185479E+02  0.45632390613E+02  0.00000000000E+00 0.  1.
          2    1    1    2  502    0  0.17072057347E+02  0.16594530694E+02  0.28014297552E+02  0.36764581574E+02  0.00000000000E+00 0.  1.
</event>
<event>
 4    1  0.8104768E+003  0.2722284E+02  0.7546771E-02  0.1445382E+00
          2   -1    0    0  502    0  0.00000000000E+00  0.00000000000E+00  0.20162702671E+02  0.20162702671E+02  0.00000000000E+00 0.  1.
          2   -1    0    0  501    0 -0.00000000000E+00 -0.00000000000E+00 -0.12206844342E+04  0.12206844342E+04  0.00000000000E+00 0.  1.
          2    1    1    2  501    0 -0.18780800656E+02 -0.19706966532E+02  0.10750750387E+02  0.29268782637E+02  0.00000000000E+00 0.  1.
          2    1    1    2  502    0  0.18780800656E+02  0.19706966532E+02 -0.12112724819E+04  0.12115783542E+04  0.00000000000E+00 0.  1.
</event>
<event>
 4    1  0.8104768E+003  0.2074469E+02  0.7546771E-02  0.1522941E+00
          2   -1    0    0  501    0  0.00000000000E+00  0.00000000000E+00  0.51899012174E+03  0.51899012174E+03  0.00000000000E+00 0.  1.
          2   -1    0    0  502    0 -0.00000000000E+00 -0.00000000000E+00 -0.53544937898E+03  0.53544937898E+03  0.00000000000E+00 0. -1.
          2    1    1    2  501    0  0.20741578889E+02 -0.35907830154E+00 -0.53504099738E+03  0.53544300435E+03  0.00000000000E+00 0. -1.
          2    1    1    2  502    0 -0.20741578889E+02  0.35907830154E+00  0.51858174015E+03  0.51899649637E+03  0.00000000000E+00 0.  1.
</event>
<event>
 4    1  0.8104768E+003  0.3593519E+02  0.7546771E-02  0.1374105E+00
          2   -1    0    0  501    0  0.00000000000E+00  0.00000000000E+00  0.54498575839E+02  0.54498575839E+02  0.00000000000E+00 0. -1.
          2   -1    0    0  502    0 -0.00000000000E+00 -0.00000000000E+00 -0.33040578447E+03  0.33040578447E+03  0.00000000000E+00 0. -1.
          2    1    1    2  501    0 -0.29892367477E+02 -0.19944535112E+02 -0.32337660756E+03  0.32536712869E+03  0.00000000000E+00 0. -1.
          2    1    1    2  502    0  0.29892367477E+02  0.19944535112E+02  0.47469398930E+02  0.59537231620E+02  0.00000000000E+00 0. -1.
</event>
<event>
 4    1  0.8104768E+003  0.2585138E+02  0.7546771E-02  0.1459500E+00
          2   -1    0    0  501    0  0.00000000000E+00  0.00000000000E+00  0.30005613577E+02  0.30005613577E+02  0.00000000000E+00 0. -1.
          2   -1    0    0  502    0 -0.00000000000E+00 -0.00000000000E+00 -0.26357383294E+03  0.26357383294E+03  0.00000000000E+00 0.  1.
          2    1    1    2  501    0  0.25564605644E+02  0.38399079834E+01 -0.25723501671E+03  0.25853074823E+03  0.00000000000E+00 0.  1.
          2    1    1    2  502    0 -0.25564605644E+02 -0.38399079834E+01  0.23666797350E+02  0.35048698291E+02  0.00000000000E+00 0. -1.
</event>
<event>
 4    1  0.8104768E+003  0.2210343E+02  0.7546771E-02  0.1504074E+00
          2   -1    0    0  501    0  0.00000000000E+00  0.00000000000E+00  0.82411768833E+03  0.82411768833E+03  0.00000000000E+00 0. -1.
          2   -1    0    0  502    0 -0.00000000000E+00 -0.00000000000E+00 -0.14588293551E+01  0.14588293551E+01  0.00000000000E+00 0.  1.
          2    1    1    2  501    0 -0.69762397023E-01 -0.22103322081E+02  0.93287876202E+02  0.95870691872E+02  0.00000000000E+00 0.  1.
          2    1    1    2  502    0  0.69762397023E-01  0.22103322081E+02  0.72937098277E+03  0.72970582581E+03  0.00000000000E+00 0. -1.
</event>
<event>
 4    1  0.8104768E+003  0.2938926E+02  0.7546771E-02  0.1424979E+00
          2   -1    0    0  502    0  0.00000000000E+00  0.00000000000E+00  0.47609759532E+03  0.47609759532E+03  0.00000000000E+00 0. -1.
          2   -1    0    0  501    0 -0.00000000000E+00 -0.00000000000E+00 -0.21048537348E+01  0.21048537348E+01  0.00000000000E+00 0. -1.
          2    1    1    2  501    0  0.14222795292E+02 -0.25718487413E+02  0.32584913937E+03  0.32717180522E+03  0.00000000000E+00 0. -1.
          2    1    1    2  502    0 -0.14222795292E+02  0.25718487413E+02  0.14814360221E+03  0.15103064384E+03  0.00000000000E+00 0. -1.
</event>
<event>
 4    1  0.8104768E+003  0.7351596E+02  0.7546771E-02  0.1219757E+00
          2   -1    0    0  502    0  0.00000000000E+00  0.00000000000E+00  0.62774763793E+03  0.62774763793E+03  0.00000000000E+00 0. -1.
          2   -1    0    0  501    0 -0.00000000000E+00 -0.00000000000E+00 -0.15359748682E+03  0.15359748682E+03  0.00000000000E+00 0.  1.
          2    1    1    2  501    0  0.69234581272E+02  0.24721841813E+02  0.61664068635E+03  0.62100751426E+03  0.00000000000E+00 0. -1.
          2    1    1    2  502    0 -0.69234581272E+02 -0.24721841813E+02 -0.14249053524E+03  0.16033761049E+03  0.00000000000E+00 0.  1.
</event>
<event>
 4    1  0.8104768E+003  0.2382105E+02  0.7546771E-02  0.1482438E+00
          2   -1    0    0  501    0  0.00000000000E+00  0.00000000000E+00  0.40041998060E+03  0.40041998060E+03  0.00000000000E+00 0. -1.
          2   -1    0    0  502    0 -0.00000000000E+00 -0.00000000000E+00 -0.32175634638E+01  0.32175634638E+01  0.00000000000E+00 0.  1.
          2    1    1    2  501    0  0.23545900896E+02 -0.36100966373E+01  0.47632125014E+02  0.53256563728E+02  0.00000000000E+00 0.  1.
          2    1    1    2  502    0 -0.23545900896E+02  0.36100966373E+01  0.34957029212E+03  0.35038098034E+03  0.00000000000E+00 0. -1.
</event>
<event>
 4    1  0.8104768E+003  0.4449108E+02  0.7546771E-02  0.1324004E+00
          2   -1    0    0  501    0  0.00000000000E+00  0.00000000000E+00  0.14574053314E+02  0.14574053314E+02  0.00000000000E+00 0.  1.
          2   -1    0    0  502    0 -0.00000000000E+00 -0.00000000000E+00 -0.31580920821E+03  0.31580920821E+03  0.00000000000E+00 0. -1.
          2    1    1    2  501    0  0.38907605866E+02  0.21579018443E+02 -0.27532670029E+03  0.27889827487E+03  0.00000000000E+00 0. -1.
          2    1    1    2  502    0 -0.38907605866E+02 -0.21579018443E+02 -0.25908454612E+02  0.51484986662E+02  0.00000000000E+00 0.  1.
</event>
<event>
 4    1  0.8104768E+003  0.2353815E+02  0.7546771E-02  0.1485849E+00
          2   -1    0    0  501    0  0.00000000000E+00  0.00000000000E+00  0.60586500251E+03  0.60586500251E+03  0.00000000000E+00 0. -1.
          2   -1    0    0  502    0 -0.00000000000E+00 -0.00000000000E+00 -0.10242493934E+01  0.10242493934E+01  0.00000000000E+00 0. -1.
          2    1    1    2  501    0 -0.16508112802E+02 -0.16778755096E+02  0.20307672168E+03  0.20443629644E+03  0.00000000000E+00 0. -1.
          2    1    1    2  502    0  0.16508112802E+02  0.16778755096E+02  0.40176403143E+03  0.40245295547E+03  0.00000000000E+00 0. -1.
</event>
<event>
 4    1  0.8104768E+003  0.3355412E+02  0.7546771E-02  0.1391023E+00
          2   -1    0    0  501    0  0.00000000000E+00  0.00000000000E+00  0.12960396866E+04  0.12960396866E+04  0.00000000000E+00 0. -1.
          2   -1    0    0  502    0 -0.00000000000E+00 -0.00000000000E+00 -0.30183335615E+02  0.30183335615E+02  0.00000000000E+00 0. -1.
          2    1    1    2  501    0 -0.26861224241E+02  0.20108545444E+02 -0.20571155952E+02  0.39357990609E+02  0.00000000000E+00 0. -1.
          2    1    1    2  502    0  0.26861224241E+02 -0.20108545444E+02  0.12864275070E+04  0.12868650316E+04  0.00000000000E+00 0. -1.
</event>
<event>
 4    1  0.8104768E+003  0.2553955E+02  0.7546771E-02  0.1462857E+00
          2   -1    0    0  502    0  0.00000000000E+00  0.00000000000E+00  0.37491940472E+02  0.37491940472E+02  0.00000000000E+00 0. -1.
          2   -1    0    0  501    0 -0.00000000000E+00 -0.00000000000E+00 -0.20530598744E+02  0.20530598744E+02  0.00000000000E+00 0. -1.
          2    1    1    2  501    0 -0.13438498620E+02  0.21718092148E+02  0.19813749663E+02  0.32324192912E+02  0.00000000000E+00 0. -1.
          2    1    1    2  502    0  0.13438498620E+02 -0.21718092148E+02 -0.28524079354E+01  0.25698346304E+02  0.00000000000E+00 0. -1.
</event>
<event>
 4    1  0.8104768E+003  0.2137232E+02  0.7546771E-02  0.1514015E+00
          2   -1    0    0  501    0  0.00000000000E+00  0.00000000000E+00  0.40908684381E+03  0.40908684381E+03  0.00000000000E+00 0. -1.
          2   -1    0    0  502    0 -0.00000000000E+00 -0.00000000000E+00 -0.42603722466E+01  0.42603722466E+01  0.00000000000E+00 0. -1.
          2    1    1    2  501    0 -0.14465402222E+02  0.15733023954E+02  0.24876368322E+02  0.32796487694E+02  0.00000000000E+00 0. -1.
          2    1    1    2  502    0  0.14465402222E+02 -0.15733023954E+02  0.37995010324E+03  0.38055072836E+03  0.00000000000E+00 0. -1.
</event>
<event>
 4    1  0.8104768E+003  0.2802856E+02  0.7546771E-02  0.1437541E+00
          2   -1    0    0  502    0  0.00000000000E+00  0.00000000000E+00  0.72354446892E+01  0.72354446892E+01  0.00000000000E+00 0. -1.
          2   -1    0    0  501    0 -0.00000000000E+00 -0.00000000000E+00 -0.23791470406E+03  0.23791470406E+03  0.00000000000E+00 0. -1.
          2    1    1    2  501    0  0.90326586387E+01 -0.26533209434E+02 -0.24963292529E+02  0.37533532992E+02  0.00000000000E+00 0. -1.
          2    1    1    2  502    0 -0.90326586387E+01  0.26533209434E+02 -0.20571596684E+03  0.20761661576E+03  0.00000000000E+00 0. -1.
</event>
<event>
 4    1  0.8104768E+003  0.2644814E+02  0.7546771E-02  0.1453232E+00
          2   -1    0    0  501    0  0.00000000000E+00  0.00000000000E+00  0.14425380976E+02  0.14425380976E+02  0.00000000000E+00 0.  1.
          2   -1    0    0  502    0 -0.00000000000E+00 -0.00000000000E+00 -0.18055609895E+03  0.18055609895E+03  0.00000000000E+00 0.  1.
          2    1    1    2  501    0 -0.21801342105E+02 -0.14973504600E+02 -0.16644325851E+03  0.16853148864E+03  0.00000000000E+00 0.  1.
          2    1    1    2  502    0  0.21801342105E+02  0.14973504600E+02  0.31254053872E+00  0.26449991289E+02  0.00000000000E+00 0.  1.
</event>
<event>
 4    1  0.8104768E+003  0.3202717E+02  0.7546771E-02  0.1402761E+00
          2   -1    0    0  501    0  0.00000000000E+00  0.00000000000E+00  0.29555402926E+01  0.29555402926E+01  0.00000000000E+00 0. -1.
          2   -1    0    0  502    0 -0.00000000000E+00 -0.00000000000E+00 -0.57850940862E+03  0.57850940862E+03  0.00000000000E+00 0. -1.
          2    1    1    2  501    0 -0.32023231020E+02 -0.50204669623E+00 -0.47167183312E+03  0.47275792699E+03  0.00000000000E+00 0. -1.
          2    1    1    2  502    0  0.32023231020E+02  0.50204669623E+00 -0.10388203521E+03  0.10870702192E+03  0.00000000000E+00 0. -1.
</event>
<event>
 4    1  0.8104768E+003  0.2229006E+02  0.7546771E-02  0.1501611E+00
          2   -1    0    0  502    0  0.00000000000E+00  0.00000000000E+00  0.13079385815E+01  0.13079385815E+01  0.00000000000E+00 0.  1.
          2   -1    0    0  501    0 -0.00000000000E+00 -0.00000000000E+00 -0.89977376734E+03  0.89977376734E+03  0.00000000000E+00 0.  1.
          2    1    1    2  501    0  0.11935851426E+02  0.18825036941E+02 -0.10675780275E+03  0.10905996064E+03  0.00000000000E+00 0.  1.
          2    1    1    2  502    0 -0.11935851426E+02 -0.18825036941E+02 -0.79170802600E+03  0.79202174529E+03  0.00000000000E+00 0.  1.
</event>
<event>
 4    1  0.8104768E+003  0.4452361E+02  0.7546771E-02  0.1323839E+00
          2   -1    0    0  501    0  0.00000000000E+00  0.00000000000E+00  0.10196543557E+02  0.10196543557E+02  0.00000000000E+00 0.  1.
          2   -1    0    0  502    0 -0.00000000000E+00 -0.00000000000E+00 -0.13356478141E+04  0.13356478141E+04  0.00000000000E+00 0.  1.
          2    1    1    2  501    0 -0.43352840248E+02  0.10143113858E+02 -0.12847482379E+04  0.12855195006E+04  0.00000000000E+00 0.  1.
          2    1    1    2  502    0  0.43352840248E+02 -0.10143113858E+02 -0.40703032593E+02  0.60324857054E+02  0.00000000000E+00 0.  1.
</event>
<event>
 4    1  0.8104768E+003  0.2241715E+02  0.7546771E-02  0.1499950E+00
          2   -1    0    0  502    0  0.00000000000E+00  0.00000000000E+00  0.96254943568E+03  0.96254943568E+03  0.00000000000E+00 0. -1.
          2   -1    0    0  501    0 -0.00000000000E+00 -0.00000000000E+00 -0.15975203214E+01  0.15975203214E+01  0.00000000000E+00 0. -1.
          2    1    1    2  501    0  0.27328110594E+01 -0.22249955663E+02  0.87600920653E+03  0.87629598807E+03  0.00000000000E+00 0. -1.
          2    1    1    2  502    0 -0.27328110594E+01  0.22249955663E+02  0.84942708835E+02  0.87850967937E+02  0.00000000000E+00 0. -1.
</event>
<event>
 4    1  0.8104768E+003  0.2277652E+02  0.7546771E-02  0.1495324E+00
          2   -1    0    0  501    0  0.00000000000E+00  0.00000000000E+00  0.44391329970E+02  0.44391329970E+02  0.00000000000E+00 0.  1.
          2   -1    0    0  502    0 -0.00000000000E+00 -0.00000000000E+00 -0.32089540249E+02  0.32089540249E+02  0.00000000000E+00 0. -1.
          2    1    1    2  501    0  0.20485989128E+02  0.99545932423E+01 -0.24341449976E+02  0.33335804537E+02  0.00000000000E+00 0. -1.
          2    1    1    2  502    0 -0.20485989128E+02 -0.99545932423E+01  0.36643239697E+02  0.43145065682E+02  0.00000000000E+00 0.  1.
</event>
<event>
 4    1  0.8104768E+003  0.4070746E+02  0.7546771E-02  0.1344389E+00
          2   -1    0    0  501    0  0.00000000000E+00  0.00000000000E+00  0.11022068257E+03  0.11022068257E+03  0.00000000000E+00 0.  1.
          2   -1    0    0  502    0 -0.00000000000E+00 -0.00000000000E+00 -0.40741271326E+03  0.40741271326E+03  0.00000000000E+00 0.  1.
          2    1    1    2  501    0 -0.39921029791E+02 -0.79629655023E+01 -0.40259239330E+03  0.40464519345E+03  0.00000000000E+00 0.  1.
          2    1    1    2  502    0  0.39921029791E+02  0.79629655023E+01  0.10540036261E+03  0.11298820238E+03  0.00000000000E+00 0.  1.
</event>
<event>
 4    1  0.8104768E+003  0.2063002E+02  0.7546771E-02  0.1524613E+00
          2   -1    0    0  501    0  0.00000000000E+00  0.00000000000E+00  0.12140997867E+01  0.12140997867E+01  0.00000000000E+00 0.  1.
          2   -1    0    0  502    0 -0.00000000000E+00 -0.00000000000E+00 -0.15460559932E+04  0.15460559932E+04  0.00000000000E+00 0.  1.
          2    1    1    2  501    0  0.19434109591E+01 -0.20538277819E+02 -0.14527204436E+04  0.14528669193E+04  0.00000000000E+00 0.  1.
          2    1    1    2  502    0 -0.19434109591E+01  0.20538277819E+02 -0.92121449783E+02  0.94403173739E+02  0.00000000000E+00 0.  1.
</event>
<event>
 4    1  0.8104768E+003  0.2399841E+02  0.7546771E-02  0.1480328E+00
          2   -1    0    0  502    0  0.00000000000E+00  0.00000000000E+00  0.26296382611E+02  0.26296382611E+02  0.00000000000E+00 0.  1.
          2   -1    0    0  501    0 -0.00000000000E+00 -0.00000000000E+00 -0.41651111126E+02  0.41651111126E+02  0.00000000000E+00 0.  1.
          2    1    1    2  501    0  0.20960205010E+02 -0.11687331121E+02  0.15717044191E+02  0.28687094327E+02  0.00000000000E+00 0.  1.
          2    1    1    2  502    0 -0.20960205010E+02  0.11687331121E+02 -0.31071772706E+02  0.39260399411E+02  0.00000000000E+00 0.  1.
</event>
<event>
 4    1  0.8104768E+003  0.2617790E+02  0.7546771E-02  0.1456046E+00
          2   -1    0    0  502    0  0.00000000000E+00  0.00000000000E+00  0.51214299432E+02  0.51214299432E+02  0.00000000000E+00 0.  1.
          2   -1    0    0  501    0 -0.00000000000E+00 -0.00000000000E+00 -0.46442599134E+02  0.46442599134E+02  0.00000000000E+00 0.  1.
          2    1    1    2  501    0  0.15783401120E+02 -0.20884609433E+02  0.43584087738E+02  0.50841472894E+02  0.00000000000E+00 0.  1.
          2    1    1    2  502    0 -0.15783401120E+02  0.20884609433E+02 -0.38812387440E+02  0.46815425672E+02  0.00000000000E+00 0.  1.
</event>
<event>
 4    1  0.8104768E+003  0.2070449E+02  0.7546771E-02  0.1523526E+00
          2   -1    0    0  501    0  0.00000000000E+00  0.00000000000E+00  0.45159344987E+03  0.45159344987E+03  0.00000000000E+00 0.  1.
          2   -1    0    0  502    0 -0.00000000000E+00 -0.00000000000E+00 -0.10496182233E+01  0.10496182233E+01  0.00000000000E+00 0.  1.
          2    1    1    2  501    0 -0.14166676880E+02  0.15099051291E+02  0.15528714936E+03  0.15666133805E+03  0.00000000000E+00 0.  1.
          2    1    1    2  502    0  0.14166676880E+02 -0.15099051291E+02  0.29525668229E+03  0.29598173004E+03  0.00000000000E+00 0.  1.
</event>
<event>
 4    1  0.8104768E+003  0.2653390E+02  0.7546771E-02  0.1452347E+00
          2   -1    0    0  502    0  0.00000000000E+00  0.00000000000E+00  0.97257191404E+02  0.97257191404E+02  0.00000000000E+00 0.  1.
          2   -1    0    0  501    0 -0.00000000000E+00 -0.00000000000E+00 -0.77675046633E+01  0.77675046633E+01  0.00000000000E+00 0.  1.
          2    1    1    2  501    0  0.11118711975E+02  0.24091949983E+02  0.58442062644E+02  0.64183506417E+02  0.00000000000E+00 0.  1.
          2    1    1    2  502    0 -0.11118711975E+02 -0.24091949983E+02  0.31047624097E+02  0.40841189650E+02  0.00000000000E+00 0.  1.
</event>
<event>
 4    1  0.8104768E+003  0.2260408E+02  0.7546771E-02  0.1497530E+00
          2   -1    0    0  501    0  0.00000000000E+00  0.00000000000E+00  0.20021732452E+03  0.20021732452E+03  0.00000000000E+00 0. -1.
          2   -1    0    0  502    0 -0.00000000000E+00 -0.00000000000E+00 -0.72614477170E+02  0.72614477170E+02  0.00000000000E+00 0.  1.
          2    1    1    2  501    0  0.15677231161E+02 -0.16284012900E+02 -0.70195949983E+02  0.73745617137E+02  0.00000000000E+00 0.  1.
          2    1    1    2  502    0 -0.15677231161E+02  0.16284012900E+02  0.19779879733E+03  0.19908618455E+03  0.00000000000E+00 0. -1.
</event>
<event>
 4    1  0.8104768E+003  0.4222154E+02  0.7546771E-02  0.1335937E+00
          2   -1    0    0  502    0  0.00000000000E+00  0.00000000000E+00  0.48815612753E+03  0.48815612753E+03  0.00000000000E+00 0.  1.
          2   -1    0    0  501    0 -0.00000000000E+00 -0.00000000000E+00 -0.31782676347E+03  0.31782676347E+03  0.00000000000E+00 0.  1.
          2    1    1    2  501    0 -0.38190212649E+02 -0.18004623025E+02  0.48583425826E+03  0.48766544402E+03  0.00000000000E+00 0.  1.
          2    1    1    2  502    0  0.38190212649E+02  0.18004623025E+02 -0.31550489420E+03  0.31831744699E+03  0.00000000000E+00 0.  1.
</event>
<event>
 4    1  0.8104768E+003  0.2173099E+02  0.7546771E-02  0.1509079E+00
          2   -1    0    0  502    0  0.00000000000E+00  0.00000000000E+00  0.46908981412E+01  0.46908981412E+01  0.00000000000E+00 0.  1.
          2   -1    0    0  501    0 -0.00000000000E+00 -0.00000000000E+00 -0.13021623589E+04  0.13021623589E+04  0.00000000000E+00 0. -1.
          2    1    1    2  501    0  0.13227542225E+02 -0.17241458131E+02 -0.21075445007E+02  0.30272266748E+02  0.00000000000E+00 0.  1.
          2    1    1    2  502    0 -0.13227542225E+02  0.17241458131E+02 -0.12763960158E+04  0.12765809903E+04  0.00000000000E+00 0. -1.
</event>
<event>
 4    1  0.8104768E+003  0.2087676E+02  0.7546771E-02  0.1521032E+00
          2   -1    0    0  501    0  0.00000000000E+00  0.00000000000E+00  0.56446887460E+00  0.56446887460E+00  0.00000000000E+00 0. -1.
          2   -1    0    0  502    0 -0.00000000000E+00 -0.00000000000E+00 -0.14394184784E+04  0.14394184784E+04  0.00000000000E+00 0.  1.
          2    1    1    2  501    0 -0.20246473995E+02  0.50911053430E+01 -0.12096493491E+04  0.12098294867E+04  0.00000000000E+00 0.  1.
          2    1    1    2  502    0  0.20246473995E+02 -0.50911053430E+01 -0.22920466043E+03  0.23015346060E+03  0.00000000000E+00 0. -1.
</event>
<event>
 4    1  0.8104768E+003  0.2166903E+02  0.7546771E-02  0.1509923E+00
          2   -1    0    0  502    0  0.00000000000E+00  0.00000000000E+00  0.10393774778E+03  0.10393774778E+03  0.00000000000E+00 0. -1.
          2   -1    0    0  501    0 -0.00000000000E+00 -0.00000000000E+00 -0.47445499516E+02  0.47445499516E+02  0.00000000000E+00 0.  1.
          2    1    1    2  501    0  0.69366424540E+01 -0.20528760549E+02  0.10024409118E+03  0.10255937224E+03  0.00000000000E+00 0. -1.
          2    1    1    2  502    0 -0.69366424540E+01  0.20528760549E+02 -0.43751842908E+02  0.48823875062E+02  0.00000000000E+00 0.  1.
</event>
<event>
 4    1  0.8104768E+003  0.2180849E+02  0.7546771E-02  0.1508028E+00
          2   -1    0    0  501    0  0.00000000000E+00  0.00000000000E+00  0.79423172684E+01  0.79423172684E+01  0.00000000000E+00 0. -1.
          2   -1    0    0  502    0 -0.00000000000E+00 -0.00000000000E+00 -0.10246415428E+03  0.10246415428E+03  0.00000000000E+00 0.  1.
          2    1    1    2  501    0 -0.53126041987E+01 -0.21151512131E+02 -0.82847558517E+02  0.85669879077E+02  0.00000000000E+00 0.  1.
          2    1    1    2  502    0  0.53126041987E+01  0.21151512131E+02 -0.11674278497E+02  0.24736592474E+02  0.00000000000E+00 0. -1.
</event>
<event>
 4    1  0.8104768E+003  0.2460620E+02  0.7546771E-02  0.1473257E+00
          2   -1    0    0  502    0  0.00000000000E+00  0.00000000000E+00  0.26761987491E+04  0.26761987491E+04  0.00000000000E+00 0. -1.
          2   -1    0    0  501    0 -0.00000000000E+00 -0.00000000000E+00 -0.22665154535E+00  0.22665154535E+00  0.00000000000E+00 0. -1.
          2    1    1    2  501    0  0.19471608473E+02  0.15043987575E+02  0.13949606077E+04  0.13951776095E+04  0.00000000000E+00 0. -1.
          2    1    1    2  502    0 -0.19471608473E+02 -0.15043987575E+02  0.12810114899E+04  0.12812477911E+04  0.00000000000E+00 0. -1.
</event>
<event>
 4    1  0.8104768E+003  0.2594316E+02  0.7546771E-02  0.1458523E+00
          2   -1    0    0  502    0  0.00000000000E+00  0.00000000000E+00  0.22650314884E+01  0.22650314884E+01  0.00000000000E+00 0.  1.
          2   -1    0    0  501    0 -0.00000000000E+00 -0.00000000000E+00 -0.38718778321E+03  0.38718778321E+03  0.00000000000E+00 0. -1.
          2    1    1    2  501    0 -0.25206300206E+02 -0.61392043944E+01 -0.98557489697E+02  0.10191479861E+03  0.00000000000E+00 0.  1.
          2    1    1    2  502    0  0.25206300206E+02  0.61392043944E+01 -0.28636526203E+03  0.28753801609E+03  0.00000000000E+00 0. -1.
</event>
<event>
 4    1  0.8104768E+003  0.2130570E+02  0.7546771E-02  0.1514945E+00
          2   -1    0    0  502    0  0.00000000000E+00  0.00000000000E+00  0.53467739208E+03  0.53467739208E+03  0.00000000000E+00 0.  1.
          2   -1    0    0  501    0 -0.00000000000E+00 -0.00000000000E+00 -0.22923604859E+03  0.22923604859E+03  0.00000000000E+00 0.  1.
          2    1    1    2  501    0  0.34002940994E+01 -0.21032609193E+02  0.53396944057E+03  0.53439432642E+03  0.00000000000E+00 0.  1.
          2    1    1    2  502    0 -0.34002940994E+01  0.21032609193E+02 -0.22852809709E+03  0.22951911425E+03  0.00000000000E+00 0.  1.
</event>
<event>
 4    1  0.8104768E+003  0.2406688E+02  0.7546771E-02  0.1479519E+00
          2   -1    0    0  501    0  0.00000000000E+00  0.00000000000E+00  0.73506929254E+01  0.73506929254E+01  0.00000000000E+00 0.  1.
          2   -1    0    0  502    0 -0.00000000000E+00 -0.00000000000E+00 -0.44140670765E+03  0.44140670765E+03  0.00000000000E+00 0.  1.
          2    1    1    2  501    0 -0.23630322522E+02 -0.45631652862E+01 -0.42039558168E+03  0.42108391054E+03  0.00000000000E+00 0.  1.
          2    1    1    2  502    0  0.23630322522E+02  0.45631652862E+01 -0.13660433050E+02  0.27673490041E+02  0.00000000000E+00 0.  1.
</event>
<event>
 4    1  0.8104768E+003  0.5038786E+02  0.7546771E-02  0.1296500E+00
          2   -1    0    0  502    0  0.00000000000E+00  0.00000000000E+00  0.10146263667E+04  0.10146263667E+04  0.00000000000E+00 0. -1.
          2   -1    0    0  501    0 -0.00000000000E+00 -0.00000000000E+00 -0.67179003230E+01  0.67179003230E+01  0.00000000000E+00 0.  1.
          2    1    1    2  501    0  0.42667455337E+02 -0.26803437142E+02  0.90848657358E+03  0.90988284431E+03  0.00000000000E+00 0. -1.
          2    1    1    2  502    0 -0.42667455337E+02  0.26803437142E+02  0.99421892831E+02  0.11146142275E+03  0.00000000000E+00 0.  1.
</event>
<event>
 4    1  0.8104768E+003  0.2189295E+02  0.7546771E-02  0.1506888E+00
          2   -1    0    0  501    0  0.00000000000E+00  0.00000000000E+00  0.10404582227E+04  0.10404582227E+04  0.00000000000E+00 0. -1.
          2   -1    0    0  502    0 -0.00000000000E+00 -0.00000000000E+00 -0.27885762505E+01  0.27885762505E+01  0.00000000000E+00 0. -1.
          2    1    1    2  501    0 -0.65908591373E+01  0.20877302933E+02  0.42240191997E+02  0.47576622641E+02  0.00000000000E+00 0. -1.
          2    1    1    2  502    0  0.65908591373E+01 -0.20877302933E+02  0.99542945441E+03  0.99567017626E+03  0.00000000000E+00 0. -1.
</event>
<event>
 4    1  0.8104768E+003  0.2941924E+02  0.7546771E-02  0.1424711E+00
          2   -1    0    0  502    0  0.00000000000E+00  0.00000000000E+00  0.61313855815E+03  0.61313855815E+03  0.00000000000E+00 0.  1.
          2   -1    0    0  501    0 -0.00000000000E+00 -0.00000000000E+00 -0.51363183456E+02  0.51363183456E+02  0.00000000000E+00 0. -1.
          2    1    1    2  501    0  0.21249374578E+02 -0.20345896642E+02  0.60854125207E+03  0.60925195683E+03  0.00000000000E+00 0.  1.
          2    1    1    2  502    0 -0.21249374578E+02  0.20345896642E+02 -0.46765877381E+02  0.55249784771E+02  0.00000000000E+00 0. -1.
</event>
<event>
 4    1  0.8104768E+003  0.3052566E+02  0.7546771E-02  0.1415082E+00
          2   -1    0    0  501    0  0.00000000000E+00  0.00000000000E+00  0.25227033340E+01  0.25227033340E+01  0.00000000000E+00 0.  1.
          2   -1    0    0  502    0 -0.00000000000E+00 -0.00000000000E+00 -0.20724649380E+04  0.20724649380E+04  0.00000000000E+00 0. -1.
          2    1    1    2  501    0  0.29918030971E+02 -0.60602854304E+01 -0.19754761287E+04  0.19757119605E+04  0.00000000000E+00 0. -1.
          2    1    1    2  502    0 -0.29918030971E+02  0.60602854304E+01 -0.94466105949E+02  0.99275680858E+02  0.00000000000E+00 0.  1.
</event>
<event>
 4    1  0.8104768E+003  0.2332230E+02  0.7546771E-02  0.1488490E+00
          2   -1    0    0  501    0  0.00000000000E+00  0.00000000000E+00  0.68664250255E+03  0.68664250255E+03  0.00000000000E+00 0. -1.
          2   -1    0    0  502    0 -0.00000000000E+00 -0.00000000000E+00 -0.58057348655E+02  0.58057348655E+02  0.00000000000E+00 0. -1.
          2    1    1    2  501    0 -0.67795486165E+01 -0.22315186153E+02 -0.55508375162E+02  0.60208882448E+02  0.00000000000E+00 0. -1.
          2    1    1    2  502    0  0.67795486165E+01  0.22315186153E+02  0.68409352905E+03  0.68449096875E+03  0.00000000000E+00 0. -1.
</event>
<event>
 4    1  0.8104768E+003  0.2126613E+02  0.7546771E-02  0.1515499E+00
          2   -1    0    0  501    0  0.00000000000E+00  0.00000000000E+00  0.23137014341E+01  0.23137014341E+01  0.00000000000E+00 0.  1.
          2   -1    0    0  502    0 -0.00000000000E+00 -0.00000000000E+00 -0.36012157377E+03  0.36012157377E+03  0.00000000000E+00 0.  1.
          2    1    1    2  501    0  0.15949603520E+02 -0.14066212106E+02 -0.30144034065E+03  0.30218955499E+03  0.00000000000E+00 0.  1.
          2    1    1    2  502    0 -0.15949603520E+02  0.14066212106E+02 -0.56367531686E+02  0.60245720212E+02  0.00000000000E+00 0.  1.
</event>
<event>
 4    1  0.8104768E+003  0.2656485E+02  0.7546771E-02  0.1452029E+00
          2   -1    0    0  501    0  0.00000000000E+00  0.00000000000E+00  0.63237733191E+03  0.63237733191E+03  0.00000000000E+00 0. -1.
          2   -1    0    0  502    0 -0.00000000000E+00 -0.00000000000E+00 -0.97055968598E+01  0.97055968598E+01  0.00000000000E+00 0.  1.
          2    1    1    2  501    0  0.11683156838E+02 -0.23857805506E+02  0.93142174857E+01  0.28150411802E+02  0.00000000000E+00 0.  1.
          2    1    1    2  502    0 -0.11683156838E+02  0.23857805506E+02  0.61335751756E+03  0.61393251697E+03  0.00000000000E+00 0. -1.
</event>
<event>
 4    1  0.8104768E+003  0.2281025E+02  0.7546771E-02  0.1494895E+00
          2   -1    0    0  501    0  0.00000000000E+00  0.00000000000E+00  0.26326396132E+02  0.26326396132E+02  0.00000000000E+00 0. -1.
          2   -1    0    0  502    0 -0.00000000000E+00 -0.00000000000E+00 -0.88329614121E+03  0.88329614121E+03  0.00000000000E+00 0.  1.
          2    1    1    2  501    0 -0.11764606618E+02 -0.19542295780E+02 -0.87817916545E+03  0.87847535760E+03  0.00000000000E+00 0.  1.
          2    1    1    2  502    0  0.11764606618E+02  0.19542295780E+02  0.21209420368E+02  0.31147179737E+02  0.00000000000E+00 0. -1.
</event>
<event>
 4    1  0.8104768E+003  0.1324830E+03  0.7546771E-02  0.1117060E+00
          2   -1    0    0  501    0  0.00000000000E+00  0.00000000000E+00  0.80533096871E+03  0.80533096871E+03  0.00000000000E+00 0. -1.
          2   -1    0    0  502    0 -0.00000000000E+00 -0.00000000000E+00 -0.90798783319E+02  0.90798783319E+02  0.00000000000E+00 0.  1.
          2    1    1    2  501    0  0.47558030404E+02 -0.12365269262E+03 -0.33340017582E+02  0.13661373072E+03  0.00000000000E+00 0.  1.
          2    1    1    2  502    0 -0.47558030404E+02  0.12365269262E+03  0.74787220297E+03  0.75951602131E+03  0.00000000000E+00 0. -1.
</event>
<event>
 4    1  0.8104768E+003  0.2854815E+02  0.7546771E-02  0.1432647E+00
          2   -1    0    0  501    0  0.00000000000E+00  0.00000000000E+00  0.92393857123E+03  0.92393857123E+03  0.00000000000E+00 0. -1.
          2   -1    0    0  502    0 -0.00000000000E+00 -0.00000000000E+00 -0.25797961597E+02  0.25797961597E+02  0.00000000000E+00 0. -1.
          2    1    1    2  501    0 -0.52245775464E+01 -0.28066010029E+02 -0.17608947040E+02  0.33542095125E+02  0.00000000000E+00 0. -1.
          2    1    1    2  502    0  0.52245775464E+01  0.28066010029E+02  0.91574955668E+03  0.91619443771E+03  0.00000000000E+00 0. -1.
</event>
<event>
 4    1  0.8104768E+003  0.2632186E+02  0.7546771E-02  0.1454542E+00
          2   -1    0    0  501    0  0.00000000000E+00  0.00000000000E+00  0.16197498922E+03  0.16197498922E+03  0.00000000000E+00 0. -1.
          2   -1    0    0  502    0 -0.00000000000E+00 -0.00000000000E+00 -0.27598249796E+03  0.27598249796E+03  0.00000000000E+00 0.  1.
          2    1    1    2  501    0 -0.24729858717E+01  0.26205427980E+02 -0.27427889598E+03  0.27553902245E+03  0.00000000000E+00 0.  1.
          2    1    1    2  502    0  0.24729858717E+01 -0.26205427980E+02  0.16027138724E+03  0.16241846472E+03  0.00000000000E+00 0. -1.
</event>
<event>
 4    1  0.8104768E+003  0.3030285E+02  0.7546771E-02  0.1416982E+00
          2   -1    0    0  502    0  0.00000000000E+00  0.00000000000E+00  0.80289432769E+01  0.80289432769E+01  0.00000000000E+00 0. -1.
          2   -1    0    0  501    0 -0.00000000000E+00 -0.00000000000E+00 -0.11031979839E+04  0.11031979839E+04  0.00000000000E+00 0.  1.
          2    1    1    2  501    0  0.52039038166E+01 -0.29852677331E+02 -0.21559254246E+02  0.37189573840E+02  0.00000000000E+00 0. -1.
          2    1    1    2  502    0 -0.52039038166E+01  0.29852677331E+02 -0.10736097864E+04  0.10740373533E+04  0.00000000000E+00 0.  1.
</event>
<event>
 4    1  0.8104768E+003  0.2448170E+02  0.7546771E-02  0.1474686E+00
          2   -1    0    0  502    0  0.00000000000E+00  0.00000000000E+00  0.93500487320E+01  0.93500487320E+01  0.00000000000E+00 0. -1.
          2   -1    0    0  501    0 -0.00000000000E+00 -0.00000000000E+00 -0.29139981519E+03  0.29139981519E+03  0.00000000000E+00 0.  1.
          2    1    1    2  501    0 -0.13260616711E+02  0.20579354709E+02 -0.82155036565E+01  0.25823405974E+02  0.00000000000E+00 0. -1.
          2    1    1    2  502    0  0.13260616711E+02 -0.20579354709E+02 -0.27383426280E+03  0.27492645795E+03  0.00000000000E+00 0.  1.
</event>
<event>
 4    1  0.8104768E+003  0.3406619E+02  0.7546771E-02  0.1387250E+00
          2   -1    0    0  502    0  0.00000000000E+00  0.00000000000E+00  0.23522835905E+03  0.23522835905E+03  0.00000000000E+00 0.  1.
          2   -1    0    0  501    0 -0.00000000000E+00 -0.00000000000E+00 -0.49325536200E+02  0.49325536200E+02  0.00000000000E+00 0.  1.
          2    1    1    2  501    0  0.19644901253E+02  0.27831329713E+02  0.22792569815E+03  0.23045743411E+03  0.00000000000E+00 0.  1.
          2    1    1    2  502    0 -0.19644901253E+02 -0.27831329713E+02 -0.42022875304E+02  0.54096461138E+02  0.00000000000E+00 0.  1.
</event>
<event>
 4    1  0.8104768E+003  0.3464102E+02  0.7546771E-02  0.1383105E+00
          2   -1    0    0  502    0  0.00000000000E+00  0.00000000000E+00  0.25624211767E+03  0.25624211767E+03  0.00000000000E+00 0. -1.
          2   -1    0    0  501    0 -0.00000000000E+00 -0.00000000000E+00 -0.12107223975E+02  0.12107223975E+02  0.00000000000E+00 0.  1.
          2    1    1    2  501    0  0.33429763963E+02 -0.90802692929E+01  0.22713573656E+03  0.22976214490E+03  0.00000000000E+00 0. -1.
          2    1    1    2  502    0 -0.33429763963E+02  0.90802692929E+01  0.16999157137E+02  0.38587196742E+02  0.00000000000E+00 0.  1.
</event>
<event>
 4    1  0.8104768E+003  0.2333615E+02  0.7546771E-02  0.1488320E+00
          2   -1    0    0  501    0  0.00000000000E+00  0.00000000000E+00  0.23451937692E+02  0.23451937692E+02  0.00000000000E+00 0.  1.
          2   -1    0    0  502    0 -0.00000000000E+00 -0.00000000000E+00 -0.17307525720E+03  0.17307525720E+03  0.00000000000E+00 0. -1.
          2    1    1    2  501    0  0.20544066838E+02 -0.11068750660E+02 -0.16624609853E+03  0.16787596969E+03  0.00000000000E+00 0. -1.
          2    1    1    2  502    0 -0.20544066838E+02  0.11068750660E+02  0.16622779018E+02  0.28651225204E+02  0.00000000000E+00 0.  1.
</event>
<event>
 4    1  0.8104768E+003  0.2593784E+02  0.7546771E-02  0.1458580E+00
          2   -1    0    0  502    0  0.00000000000E+00  0.00000000000E+00  0.26387362789E+01  0.26387362789E+01  0.00000000000E+00 0. -1.
          2   -1    0    0  501    0 -0.00000000000E+00 -0.00000000000E+00 -0.36888525848E+03  0.36888525848E+03  0.00000000000E+00 0.  1.
          2    1    1    2  501    0 -0.46144630263E+01 -0.25524071387E+02 -0.79889500531E+02  0.83994665213E+02  0.00000000000E+00 0. -1.
          2    1    1    2  502    0  0.46144630263E+01  0.25524071387E+02 -0.28635702167E+03  0.28752932955E+03  0.00000000000E+00 0.  1.
</event>
<event>
 4    1  0.8104768E+003  0.2399427E+02  0.7546771E-02  0.1480377E+00
          2   -1    0    0  501    0  0.00000000000E+00  0.00000000000E+00  0.22814387428E+04  0.22814387428E+04  0.00000000000E+00 0.  1.
          2   -1    0    0  502    0 -0.00000000000E+00 -0.00000000000E+00 -0.25370568488E+00  0.25370568488E+00  0.00000000000E+00 0.  1.
          2    1    1    2  501    0  0.17845867127E+01  0.23927812608E+02  0.12239351977E+04  0.12241703693E+04  0.00000000000E+00 0.  1.
          2    1    1    2  502    0 -0.17845867127E+01 -0.23927812608E+02  0.10572498394E+04  0.10575220791E+04  0.00000000000E+00 0.  1.
</event>
<event>
 4    1  0.8104768E+003  0.4068416E+02  0.7546771E-02  0.1344523E+00
          2   -1    0    0  502    0  0.00000000000E+00  0.00000000000E+00  0.52466732728E+01  0.52466732728E+01  0.00000000000E+00 0. -1.
          2   -1    0    0  501    0 -0.00000000000E+00 -0.00000000000E+00 -0.19118472267E+04  0.19118472267E+04  0.00000000000E+00 0. -1.
          2    1    1    2  501    0  0.16782200414E+02 -0.37061555767E+02 -0.77401944615E+02  0.87442908213E+02  0.00000000000E+00 0. -1.
          2    1    1    2  502    0 -0.16782200414E+02  0.37061555767E+02 -0.18291986088E+04  0.18296509917E+04  0.00000000000E+00 0. -1.
</event>
<event>
 4    1  0.8104768E+003  0.2149559E+02  0.7546771E-02  0.1512305E+00
          2   -1    0    0  502    0  0.00000000000E+00  0.00000000000E+00  0.16056134427E+01  0.16056134427E+01  0.00000000000E+00 0.  1.
          2   -1    0    0  501    0 -0.00000000000E+00 -0.00000000000E+00 -0.32048962615E+03  0.32048962615E+03  0.00000000000E+00 0.  1.
          2    1    1    2  501    0  0.17521909092E+02 -0.12451630008E+02 -0.10799054476E+03  0.11010911927E+03  0.00000000000E+00 0.  1.
          2    1    1    2  502    0 -0.17521909092E+02  0.12451630008E+02 -0.21089346795E+03  0.21198612033E+03  0.00000000000E+00 0.  1.
</event>
<event>
 4    1  0.8104768E+003  0.2167083E+02  0.7546771E-02  0.1509899E+00
          2   -1    0    0  501    0  0.00000000000E+00  0.00000000000E+00  0.77988333890E+03  0.77988333890E+03  0.00000000000E+00 0. -1.
          2   -1    0    0  502    0 -0.00000000000E+00 -0.00000000000E+00 -0.10309179745E+03  0.10309179745E+03  0.00000000000E+00 0. -1.
          2    1    1    2  501    0 -0.13543707279E+02 -0.16917238839E+02 -0.10180051424E+03  0.10408155301E+03  0.00000000000E+00 0. -1.
          2    1    1    2  502    0  0.13543707279E+02  0.16917238839E+02  0.77859205570E+03  0.77889358334E+03  0.00000000000E+00 0. -1.
</event>
<event>
 4    1  0.8104768E+003  0.2966054E+02  0.7546771E-02  0.1422570E+00
          2   -1    0    0  501    0  0.00000000000E+00  0.00000000000E+00  0.79270935747E+01  0.79270935747E+01  0.00000000000E+00 0.  1.
          2   -1    0    0  502    0 -0.00000000000E+00 -0.00000000000E+00 -0.52744336039E+03  0.52744336039E+03  0.00000000000E+00 0. -1.
          2    1    1    2  501    0 -0.12166317039E+02 -0.27050478613E+02 -0.49762007874E+03  0.49850325017E+03  0.00000000000E+00 0. -1.
          2    1    1    2  502    0  0.12166317039E+02  0.27050478613E+02 -0.21896188075E+02  0.36867203796E+02  0.00000000000E+00 0.  1.
</event>
<event>
 4    1  0.8104768E+003  0.3338252E+02  0.7546771E-02  0.1392306E+00
          2   -1    0    0  501    0  0.00000000000E+00  0.00000000000E+00  0.20099384938E+03  0.20099384938E+03  0.00000000000E+00 0.  1.
          2   -1    0    0  502    0 -0.00000000000E+00 -0.00000000000E+00 -0.60998443076E+03  0.60998443076E+03  0.00000000000E+00 0.  1.
          2    1    1    2  501    0 -0.13384049743E+02 -0.30582016567E+02 -0.60813739137E+03  0.60905293638E+03  0.00000000000E+00 0.  1.
          2    1    1    2  502    0  0.13384049743E+02  0.30582016567E+02  0.19914680999E+03  0.20192534376E+03  0.00000000000E+00 0.  1.
</event>
<event>
 4    1  0.8104768E+003  0.2282990E+02  0.7546771E-02  0.1494645E+00
          2   -1    0    0  501    0  0.00000000000E+00  0.00000000000E+00  0.15255574743E+02  0.15255574743E+02  0.00000000000E+00 0. -1.
          2   -1    0    0  502    0 -0.00000000000E+00 -0.00000000000E+00 -0.44142995734E+02  0.44142995734E+02  0.00000000000E+00 0. -1.
          2    1    1    2  501    0  0.10774761447E+02  0.20127315043E+02 -0.28563889403E+02  0.36566378997E+02  0.00000000000E+00 0. -1.
          2    1    1    2  502    0 -0.10774761447E+02 -0.20127315043E+02 -0.32353158873E+00  0.22832191480E+02  0.00000000000E+00 0. -1.
</event>
<event>
 4    1  0.8104768E+003  0.2282209E+02  0.7546771E-02  0.1494744E+00
          2   -1    0    0  501    0  0.00000000000E+00  0.00000000000E+00  0.10928305241E+04  0.10928305241E+04  0.00000000000E+00 0. -1.
          2   -1    0    0  502    0 -0.00000000000E+00 -0.00000000000E+00 -0.14754922366E+01  0.14754922366E+01  0.00000000000E+00 0. -1.
          2    1    1    2  501    0 -0.69929644956E+01 -0.21724320462E+02  0.95484528381E+02  0.98174043474E+02  0.00000000000E+00 0. -1.
          2    1    1    2  502    0  0.69929644956E+01  0.21724320462E+02  0.99587050345E+03  0.99613197283E+03  0.00000000000E+00 0. -1.
</event>
<event>
 4    1  0.8104768E+003  0.2606378E+02  0.7546771E-02  0.1457246E+00
          2   -1    0    0  502    0  0.00000000000E+00  0.00000000000E+00  0.10369775573E+04  0.10369775573E+04  0.00000000000E+00 0. -1.
          2   -1    0    0  501    0 -0.00000000000E+00 -0.00000000000E+00 -0.24197065959E+02  0.24197065959E+02  0.00000000000E+00 0.  1.
          2    1    1    2  501    0 -0.25716477991E+02 -0.42406754822E+01  0.10297458753E+04  0.10300756711E+04  0.00000000000E+00 0. -1.
          2    1    1    2  502    0  0.25716477991E+02  0.42406754822E+01 -0.16965383974E+02  0.31098952108E+02  0.00000000000E+00 0.  1.
</event>
<event>
 4    1  0.8104768E+003  0.2463113E+02  0.7546771E-02  0.1472972E+00
          2   -1    0    0  501    0  0.00000000000E+00  0.00000000000E+00  0.69077669094E+03  0.69077669094E+03  0.00000000000E+00 0. -1.
          2   -1    0    0  502    0 -0.00000000000E+00 -0.00000000000E+00 -0.56065710253E+01  0.56065710253E+01  0.00000000000E+00 0. -1.
          2    1    1    2  501    0 -0.21519770764E+02  0.11982984998E+02  0.22826664483E+02  0.33581975443E+02  0.00000000000E+00 0. -1.
          2    1    1    2  502    0  0.21519770764E+02 -0.11982984998E+02  0.66234345543E+03  0.66280128652E+03  0.00000000000E+00 0. -1.
</event>
<event>
 4    1  0.8104768E+003  0.1104233E+03  0.7546771E-02  0.1146876E+00
          2   -1    0    0  502    0  0.00000000000E+00  0.00000000000E+00  0.12845438575E+03  0.12845438575E+03  0.00000000000E+00 0. -1.
          2   -1    0    0  501    0 -0.00000000000E+00 -0.00000000000E+00 -0.97437212871E+02  0.97437212871E+02  0.00000000000E+00 0. -1.
          2    1    1    2  501    0  0.49623857223E+02 -0.98644680072E+02 -0.26337091005E+01  0.11045468091E+03  0.00000000000E+00 0. -1.
          2    1    1    2  502    0 -0.49623857223E+02  0.98644680072E+02  0.33650881984E+02  0.11543691771E+03  0.00000000000E+00 0. -1.
</event>
<event>
 4    1  0.8104768E+003  0.2165600E+02  0.7546771E-02  0.1510101E+00
          2   -1    0    0  501    0  0.00000000000E+00  0.00000000000E+00  0.18964211826E+03  0.18964211826E+03  0.00000000000E+00 0. -1.
          2   -1    0    0  502    0 -0.00000000000E+00 -0.00000000000E+00 -0.42435006558E+03  0.42435006558E+03  0.00000000000E+00 0. -1.
          2    1    1    2  501    0 -0.12406169926E+02  0.17750196457E+02 -0.42345421710E+03  0.42400761373E+03  0.00000000000E+00 0. -1.
          2    1    1    2  502    0  0.12406169926E+02 -0.17750196457E+02  0.18874626977E+03  0.18998457011E+03  0.00000000000E+00 0. -1.
</event>
<event>
 4    1  0.8104768E+003  0.3096155E+02  0.7546771E-02  0.1411420E+00
          2   -1    0    0  501    0  0.00000000000E+00  0.00000000000E+00  0.31736809432E+03  0.31736809432E+03  0.00000000000E+00 0.  1.
          2   -1    0    0  502    0 -0.00000000000E+00 -0.00000000000E+00 -0.71412444051E+02  0.71412444051E+02  0.00000000000E+00 0.  1.
          2    1    1    2  501    0  0.14818295065E+01 -0.30926072815E+02 -0.67256977612E+02  0.74041331943E+02  0.00000000000E+00 0.  1.
          2    1    1    2  502    0 -0.14818295065E+01  0.30926072815E+02  0.31321262788E+03  0.31473920643E+03  0.00000000000E+00 0.  1.
</event>
<event>
 4    1  0.8104768E+003  0.7904520E+02  0.7546771E-02  0.1206082E+00
          2   -1    0    0  501    0  0.00000000000E+00  0.00000000000E+00  0.91560761741E+01  0.91560761741E+01  0.00000000000E+00 0.  1.
          2   -1    0    0  502    0 -0.00000000000E+00 -0.00000000000E+00 -0.18347094753E+04  0.18347094753E+04  0.00000000000E+00 0. -1.
          2    1    1    2  501    0  0.21885615492E+02 -0.75955010489E+02 -0.16434098946E+04  0.16453097658E+04  0.00000000000E+00 0. -1.
          2    1    1    2  502    0 -0.21885615492E+02  0.75955010489E+02 -0.18214350459E+03  0.19855578573E+03  0.00000000000E+00 0.  1.
</event>
<event>
 4    1  0.8104768E+003  0.2541582E+02  0.7546771E-02  0.1464205E+00
          2   -1    0    0  501    0  0.00000000000E+00  0.00000000000E+00  0.13126837712E+02  0.13126837712E+02  0.00000000000E+00 0. -1.
          2   -1    0    0  502    0 -0.00000000000E+00 -0.00000000000E+00 -0.11010764571E+03  0.11010764571E+03  0.00000000000E+00 0. -1.
          2    1    1    2  501    0 -0.24233260096E+01 -0.25300031223E+02 -0.94314702956E+02  0.97679205988E+02  0.00000000000E+00 0. -1.
          2    1    1    2  502    0  0.24233260096E+01  0.25300031223E+02 -0.26661050476E+01  0.25555277438E+02  0.00000000000E+00 0. -1.
</event>
<event>
 4    1  0.8104768E+003  0.2454662E+02  0.7546771E-02  0.1473940E+00
          2   -1    0    0  501    0  0.00000000000E+00  0.00000000000E+00  0.22267672875E+01  0.22267672875E+01  0.00000000000E+00 0.  1.
          2   -1    0    0  502    0 -0.00000000000E+00 -0.00000000000E+00 -0.82672954989E+03  0.82672954989E+03  0.00000000000E+00 0.  1.
          2    1    1    2  501    0 -0.16832131576E+02  0.17866609703E+02 -0.72303297506E+02  0.76356422296E+02  0.00000000000E+00 0.  1.
          2    1    1    2  502    0  0.16832131576E+02 -0.17866609703E+02 -0.75219948509E+03  0.75259989488E+03  0.00000000000E+00 0.  1.
</event>
<event>
 4    1  0.8104768E+003  0.2314238E+02  0.7546771E-02  0.1490718E+00
          2   -1    0    0  502    0  0.00000000000E+00  0.00000000000E+00  0.14101272907E+01  0.14101272907E+01  0.00000000000E+00 0.  1.
          2   -1    0    0  501    0 -0.00000000000E+00 -0.00000000000E+00 -0.16416770081E+04  0.16416770081E+04  0.00000000000E+00 0.  1.
          2    1    1    2  501    0 -0.16026005922E+02 -0.16695419436E+02 -0.99864276664E+02  0.10251070017E+03  0.00000000000E+00 0.  1.
          2    1    1    2  502    0  0.16026005922E+02  0.16695419436E+02 -0.15404026041E+04  0.15405764352E+04  0.00000000000E+00 0.  1.
</event>
<event>
 4    1  0.8104768E+003  0.3189226E+02  0.7546771E-02  0.1403835E+00
          2   -1    0    0  501    0  0.00000000000E+00  0.00000000000E+00  0.14887052335E+04  0.14887052335E+04  0.00000000000E+00 0. -1.
          2   -1    0    0  502    0 -0.00000000000E+00 -0.00000000000E+00 -0.15094262540E+01  0.15094262540E+01  0.00000000000E+00 0. -1.
          2    1    1    2  501    0  0.73790005556E+01  0.31026867248E+02  0.19233774717E+03  0.19496390724E+03  0.00000000000E+00 0. -1.
          2    1    1    2  502    0 -0.73790005556E+01 -0.31026867248E+02  0.12948580601E+04  0.12952507525E+04  0.00000000000E+00 0. -1.
</event>
<event>
 4    1  0.8104768E+003  0.2730420E+02  0.7546771E-02  0.1444576E+00
          2   -1    0    0  501    0  0.00000000000E+00  0.00000000000E+00  0.41155851095E+03  0.41155851095E+03  0.00000000000E+00 0.  1.
          2   -1    0    0  502    0 -0.00000000000E+00 -0.00000000000E+00 -0.21422061304E+01  0.21422061304E+01  0.00000000000E+00 0. -1.
          2    1    1    2  501    0 -0.18101082005E+01 -0.27244135512E+02  0.12342944026E+03  0.12641339381E+03  0.00000000000E+00 0. -1.
          2    1    1    2  502    0  0.18101082005E+01  0.27244135512E+02  0.28598686456E+03  0.28728732327E+03  0.00000000000E+00 0.  1.
</event>
<event>
 4    1  0.8104768E+003  0.2183994E+02  0.7546771E-02  0.1507602E+00
          2   -1    0    0  501    0  0.00000000000E+00  0.00000000000E+00  0.12627801472E+03  0.12627801472E+03  0.00000000000E+00 0.  1.
          2   -1    0    0  502    0 -0.00000000000E+00 -0.00000000000E+00 -0.49963459582E+03  0.49963459582E+03  0.00000000000E+00 0.  1.
          2    1    1    2  501    0 -0.16523107304E+00  0.21839318142E+02 -0.49844937403E+03  0.49892761157E+03  0.00000000000E+00 0.  1.
          2    1    1    2  502    0  0.16523107304E+00 -0.21839318142E+02  0.12509279294E+03  0.12698499897E+03  0.00000000000E+00 0.  1.
</event>
<event>
 4    1  0.8104768E+003  0.4075731E+02  0.7546771E-02  0.1344104E+00
          2   -1    0    0  501    0  0.00000000000E+00  0.00000000000E+00  0.27178374079E+03  0.27178374079E+03  0.00000000000E+00 0.  1.
          2   -1    0    0  502    0 -0.00000000000E+00 -0.00000000000E+00 -0.11342942695E+04  0.11342942695E+04  0.00000000000E+00 0. -1.
          2    1    1    2  501    0  0.23491510923E+02 -0.33306269155E+02 -0.11323975743E+04  0.11331308066E+04  0.00000000000E+00 0. -1.
          2    1    1    2  502    0 -0.23491510923E+02  0.33306269155E+02  0.26988704555E+03  0.27294720370E+03  0.00000000000E+00 0.  1.
</event>
<event>
 4    1  0.8104768E+003  0.2190863E+02  0.7546771E-02  0.1506677E+00
          2   -1    0    0  501    0  0.00000000000E+00  0.00000000000E+00  0.16924512850E+03  0.16924512850E+03  0.00000000000E+00 0. -1.
          2   -1    0    0  502    0 -0.00000000000E+00 -0.00000000000E+00 -0.80722904794E+01  0.80722904794E+01  0.00000000000E+00 0. -1.
          2    1    1    2  501    0  0.37892888021E+01  0.21578447504E+02  0.91807497587E+01  0.23754457949E+02  0.00000000000E+00 0. -1.
          2    1    1    2  502    0 -0.37892888021E+01 -0.21578447504E+02  0.15199208826E+03  0.15356296103E+03  0.00000000000E+00 0. -1.
</event>
<event>
 4    1  0.8104768E+003  0.2111223E+02  0.7546771E-02  0.1517668E+00
          2   -1    0    0  502    0  0.00000000000E+00  0.00000000000E+00  0.97733398299E+02  0.97733398299E+02  0.00000000000E+00 0.  1.
          2   -1    0    0  501    0 -0.00000000000E+00 -0.00000000000E+00 -0.37729209617E+03  0.37729209617E+03  0.00000000000E+00 0.  1.
          2    1    1    2  501    0 -0.20536957143E+02 -0.48948517456E+01  0.96293529994E+02  0.98580779572E+02  0.00000000000E+00 0.  1.
          2    1    1    2  502    0  0.20536957143E+02  0.48948517456E+01 -0.37585222786E+03  0.37644471489E+03  0.00000000000E+00 0.  1.
</event>
<event>
 4    1  0.8104768E+003  0.5079906E+02  0.7546771E-02  0.1294745E+00
          2   -1    0    0  501    0  0.00000000000E+00  0.00000000000E+00  0.24322258864E+02  0.24322258864E+02  0.00000000000E+00 0.  1.
          2   -1    0    0  502    0 -0.00000000000E+00 -0.00000000000E+00 -0.55244053635E+03  0.55244053635E+03  0.00000000000E+00 0. -1.
          2    1    1    2  501    0 -0.49162557254E+02 -0.12790123495E+02 -0.52327321772E+03  0.52573320675E+03  0.00000000000E+00 0. -1.
          2    1    1    2  502    0  0.49162557254E+02  0.12790123495E+02 -0.48450597647E+01  0.51029588465E+02  0.00000000000E+00 0.  1.
</event>
<event>
 4    1  0.8104768E+003  0.2078656E+02  0.7546771E-02  0.1522334E+00
          2   -1    0    0  501    0  0.00000000000E+00  0.00000000000E+00  0.21579704726E+03  0.21579704726E+03  0.00000000000E+00 0. -1.
          2   -1    0    0  502    0 -0.00000000000E+00 -0.00000000000E+00 -0.20807462129E+02  0.20807462129E+02  0.00000000000E+00 0. -1.
          2    1    1    2  501    0 -0.15860702247E+02 -0.13435742928E+02 -0.14971533291E+02  0.25616945034E+02  0.00000000000E+00 0. -1.
          2    1    1    2  502    0  0.15860702247E+02  0.13435742928E+02  0.20996111842E+03  0.21098756435E+03  0.00000000000E+00 0. -1.
</event>
<event>
 4    1  0.8104768E+003  0.3292915E+02  0.7546771E-02  0.1395737E+00
          2   -1    0    0  501    0  0.00000000000E+00  0.00000000000E+00  0.20906036597E+03  0.20906036597E+03  0.00000000000E+00 0. -1.
          2   -1    0    0  502    0 -0.00000000000E+00 -0.00000000000E+00 -0.18376906021E+02  0.18376906021E+02  0.00000000000E+00 0. -1.
          2    1    1    2  501    0  0.30479683520E+02 -0.12462654531E+02 -0.10015862999E+01  0.32944377981E+02  0.00000000000E+00 0. -1.
          2    1    1    2  502    0 -0.30479683520E+02  0.12462654531E+02  0.19168504624E+03  0.19449289401E+03  0.00000000000E+00 0. -1.
</event>
<event>
 4    1  0.8104768E+003  0.2154653E+02  0.7546771E-02  0.1511603E+00
          2   -1    0    0  501    0  0.00000000000E+00  0.00000000000E+00  0.15548553903E+03  0.15548553903E+03  0.00000000000E+00 0. -1.
          2   -1    0    0  502    0 -0.00000000000E+00 -0.00000000000E+00 -0.33440546142E+02  0.33440546142E+02  0.00000000000E+00 0. -1.
          2    1    1    2  501    0  0.21532941398E+02  0.76521358656E+00 -0.29124765283E+02  0.36228511836E+02  0.00000000000E+00 0. -1.
          2    1    1    2  502    0 -0.21532941398E+02 -0.76521358656E+00  0.15116975817E+03  0.15269757333E+03  0.00000000000E+00 0. -1.
</event>
<event>
 4    1  0.8104768E+003  0.3072804E+02  0.7546771E-02  0.1413373E+00
          2   -1    0    0  502    0  0.00000000000E+00  0.00000000000E+00  0.45080391975E+02  0.45080391975E+02  0.00000000000E+00 0.  1.
          2   -1    0    0  501    0 -0.00000000000E+00 -0.00000000000E+00 -0.30926298174E+03  0.30926298174E+03  0.00000000000E+00 0.  1.
          2    1    1    2  501    0 -0.16545943488E+02 -0.25892940044E+02  0.38975670826E+02  0.49631799347E+02  0.00000000000E+00 0.  1.
          2    1    1    2  502    0  0.16545943488E+02  0.25892940044E+02 -0.30315826059E+03  0.30471157437E+03  0.00000000000E+00 0.  1.
</event>
<event>
 4    1  0.8104768E+003  0.4154562E+02  0.7546771E-02  0.1339659E+00
          2   -1    0    0  502    0  0.00000000000E+00  0.00000000000E+00  0.15568680748E+02  0.15568680748E+02  0.00000000000E+00 0.  1.
          2   -1    0    0  501    0 -0.00000000000E+00 -0.00000000000E+00 -0.17544066006E+04  0.17544066006E+04  0.00000000000E+00 0.  1.
          2    1    1    2  501    0 -0.27531414837E+02  0.31113656892E+02 -0.12850086759E+02  0.43487505997E+02  0.00000000000E+00 0.  1.
          2    1    1    2  502    0  0.27531414837E+02 -0.31113656892E+02 -0.17259878331E+04  0.17264877754E+04  0.00000000000E+00 0.  1.
</event>
<event>
 4    1  0.8104768E+003  0.2196070E+02  0.7546771E-02  0.1505978E+00
          2   -1    0    0  501    0  0.00000000000E+00  0.00000000000E+00  0.16728959449E+01  0.16728959449E+01  0.00000000000E+00 0. -1.
          2   -1    0    0  502    0 -0.00000000000E+00 -0.00000000000E+00 -0.13500155921E+04  0.13500155921E+04  0.00000000000E+00 0. -1.
          2    1    1    2  501    0  0.20404193921E+02  0.81204191242E+01 -0.12735264490E+04  0.12737157801E+04  0.00000000000E+00 0. -1.
          2    1    1    2  502    0 -0.20404193921E+02 -0.81204191242E+01 -0.74816247216E+02  0.77972707942E+02  0.00000000000E+00 0. -1.
</event>
<event>
 4    1  0.8104768E+003  0.2174165E+02  0.7546771E-02  0.1508934E+00
          2   -1    0    0  501    0  0.00000000000E+00  0.00000000000E+00  0.49858649855E+01  0.49858649855E+01  0.00000000000E+00 0.  1.
          2   -1    0    0  502    0 -0.00000000000E+00 -0.00000000000E+00 -0.42192372091E+03  0.42192372091E+03  0.00000000000E+00 0. -1.
          2    1    1    2  501    0  0.21043198077E+02 -0.54665608724E+01 -0.39641779111E+03  0.39701355718E+03  0.00000000000E+00 0. -1.
          2    1    1    2  502    0 -0.21043198077E+02  0.54665608724E+01 -0.20520064807E+02  0.29896028712E+02  0.00000000000E+00 0.  1.
</event>
<event>
 4    1  0.8104768E+003  0.2029681E+02  0.7546771E-02  0.1529546E+00
          2   -1    0    0  502    0  0.00000000000E+00  0.00000000000E+00  0.68246123124E+03  0.68246123124E+03  0.00000000000E+00 0. -1.
          2   -1    0    0  501    0 -0.00000000000E+00 -0.00000000000E+00 -0.16007777688E+01  0.16007777688E+01  0.00000000000E+00 0.  1.
          2    1    1    2  501    0  0.12860411168E+02 -0.15702563164E+02  0.61037667084E+03  0.61071404190E+03  0.00000000000E+00 0. -1.
          2    1    1    2  502    0 -0.12860411168E+02  0.15702563164E+02  0.70483782629E+02  0.73347967109E+02  0.00000000000E+00 0.  1.
</event>
<event>
 4    1  0.8104768E+003  0.3673238E+02  0.7546771E-02  0.1368777E+00
          2   -1    0    0  501    0  0.00000000000E+00  0.00000000000E+00  0.80770061032E+02  0.80770061032E+02  0.00000000000E+00 0.  1.
          2   -1    0    0  502    0 -0.00000000000E+00 -0.00000000000E+00 -0.45161720102E+02  0.45161720102E+02  0.00000000000E+00 0. -1.
          2    1    1    2  501    0 -0.34728051126E+02  0.11967878990E+02 -0.32177662133E+02  0.48833078981E+02  0.00000000000E+00 0. -1.
          2    1    1    2  502    0  0.34728051126E+02 -0.11967878990E+02  0.67786003063E+02  0.77098702153E+02  0.00000000000E+00 0.  1.
</event>
<event>
 4    1  0.8104768E+003  0.3503545E+02  0.7546771E-02  0.1380314E+00
          2   -1    0    0  502    0  0.00000000000E+00  0.00000000000E+00  0.46785403669E+03  0.46785403669E+03  0.00000000000E+00 0. -1.
          2   -1    0    0  501    0 -0.00000000000E+00 -0.00000000000E+00 -0.26329129210E+01  0.26329129210E+01  0.00000000000E+00 0. -1.
          2    1    1    2  501    0 -0.15595684271E+02  0.31372874717E+02  0.21865318095E+03  0.22144230891E+03  0.00000000000E+00 0. -1.
          2    1    1    2  502    0  0.15595684271E+02 -0.31372874717E+02  0.24656794283E+03  0.24904464071E+03  0.00000000000E+00 0. -1.
</event>
<event>
 4    1  0.8104768E+003  0.2200858E+02  0.7546771E-02  0.1505337E+00
          2   -1    0    0  502    0  0.00000000000E+00  0.00000000000E+00  0.10760562332E+02  0.10760562332E+02  0.00000000000E+00 0. -1.
          2   -1    0    0  501    0 -0.00000000000E+00 -0.00000000000E+00 -0.20771071930E+03  0.20771071930E+03  0.00000000000E+00 0. -1.
          2    1    1    2  501    0 -0.51576487393E+01 -0.21395710391E+02 -0.17978750500E+01  0.22081895714E+02  0.00000000000E+00 0. -1.
          2    1    1    2  502    0  0.51576487393E+01  0.21395710391E+02 -0.19515228192E+03  0.19638938592E+03  0.00000000000E+00 0. -1.
</event>
<event>
 4    1  0.8104768E+003  0.2179129E+02  0.7546771E-02  0.1508260E+00
          2   -1    0    0  501    0  0.00000000000E+00  0.00000000000E+00  0.67840337734E+00  0.67840337734E+00  0.00000000000E+00 0. -1.
          2   -1    0    0  502    0 -0.00000000000E+00 -0.00000000000E+00 -0.11303538584E+04  0.11303538584E+04  0.00000000000E+00 0. -1.
          2    1    1    2  501    0 -0.73278340454E+01  0.20522262757E+02 -0.21588471027E+03  0.21698172400E+03  0.00000000000E+00 0. -1.
          2    1    1    2  502    0  0.73278340454E+01 -0.20522262757E+02 -0.91379074472E+03  0.91405053775E+03  0.00000000000E+00 0. -1.
</event>
<event>
 4    1  0.8104768E+003  0.2066909E+02  0.7546771E-02  0.1524042E+00
          2   -1    0    0  501    0  0.00000000000E+00  0.00000000000E+00  0.13029794936E+01  0.13029794936E+01  0.00000000000E+00 0. -1.
          2   -1    0    0  502    0 -0.00000000000E+00 -0.00000000000E+00 -0.36638999339E+03  0.36638999339E+03  0.00000000000E+00 0.  1.
          2    1    1    2  501    0  0.13320262631E+02 -0.15804485098E+02 -0.24215260260E+03  0.24303311316E+03  0.00000000000E+00 0.  1.
          2    1    1    2  502    0 -0.13320262631E+02  0.15804485098E+02 -0.12293441129E+03  0.12465985972E+03  0.00000000000E+00 0. -1.
</event>
<event>
 4    1  0.8104768E+003  0.2702340E+02  0.7546771E-02  0.1447373E+00
          2   -1    0    0  501    0  0.00000000000E+00  0.00000000000E+00  0.77093239263E+02  0.77093239263E+02  0.00000000000E+00 0. -1.
          2   -1    0    0  502    0 -0.00000000000E+00 -0.00000000000E+00 -0.18792831479E+02  0.18792831479E+02  0.00000000000E+00 0.  1.
          2    1    1    2  501    0 -0.26932229621E+02 -0.22178927112E+01 -0.46131515176E+01  0.27414324857E+02  0.00000000000E+00 0.  1.
          2    1    1    2  502    0  0.26932229621E+02  0.22178927112E+01  0.62913559302E+02  0.68471745885E+02  0.00000000000E+00 0. -1.
</event>
<event>
 4    1  0.8104768E+003  0.3309720E+02  0.7546771E-02  0.1394458E+00
          2   -1    0    0  501    0  0.00000000000E+00  0.00000000000E+00  0.19902105998E+03  0.19902105998E+03  0.00000000000E+00 0.  1.
          2   -1    0    0  502    0 -0.00000000000E+00 -0.00000000000E+00 -0.97377786409E+01  0.97377786409E+01  0.00000000000E+00 0.  1.
          2    1    1    2  501    0 -0.31463000092E+02 -0.10271541100E+02  0.25816731550E+02  0.41975332747E+02  0.00000000000E+00 0.  1.
          2    1    1    2  502    0  0.31463000092E+02  0.10271541100E+02  0.16346654978E+03  0.16678350587E+03  0.00000000000E+00 0.  1.
</event>
<event>
 4    1  0.8104768E+003  0.2254960E+02  0.7546771E-02  0.1498233E+00
          2   -1    0    0  502    0  0.00000000000E+00  0.00000000000E+00  0.16360989885E+03  0.16360989885E+03  0.00000000000E+00 0.  1.
          2   -1    0    0  501    0 -0.00000000000E+00 -0.00000000000E+00 -0.26532417418E+03  0.26532417418E+03  0.00000000000E+00 0. -1.
          2    1    1    2  501    0 -0.17082508446E+02 -0.14719800889E+02  0.16235010523E+03  0.16390863706E+03  0.00000000000E+00 0.  1.
          2    1    1    2  502    0  0.17082508446E+02  0.14719800889E+02 -0.26406438056E+03  0.26502543597E+03  0.00000000000E+00 0. -1.
</event>
<event>
 4    1  0.8104768E+003  0.8811219E+02  0.7546771E-02  0.1186172E+00
          2   -1    0    0  501    0  0.00000000000E+00  0.00000000000E+00  0.11535910528E+03  0.11535910528E+03  0.00000000000E+00 0. -1.
          2   -1    0    0  502    0 -0.00000000000E+00 -0.00000000000E+00 -0.34510676862E+03  0.34510676862E+03  0.00000000000E+00 0.  1.
          2    1    1    2  501    0 -0.45846658469E+02 -0.75245212984E+02 -0.32144110361E+03  0.33329887677E+03  0.00000000000E+00 0.  1.
          2    1    1    2  502    0  0.45846658469E+02  0.75245212984E+02  0.91693440268E+02  0.12716699713E+03  0.00000000000E+00 0. -1.
</event>
<event>
 4    1  0.8104768E+003  0.4379367E+02  0.7546771E-02  0.1327583E+00
          2   -1    0    0  502    0  0.00000000000E+00  0.00000000000E+00  0.43037841056E+01  0.43037841056E+01  0.00000000000E+00 0.  1.
          2   -1    0    0  501    0 -0.00000000000E+00 -0.00000000000E+00 -0.30589006163E+04  0.30589006163E+04  0.00000000000E+00 0.  1.
          2    1    1    2  501    0  0.32708898971E+02 -0.29120676309E+02 -0.11164913364E+03  0.11993087552E+03  0.00000000000E+00 0.  1.
          2    1    1    2  502    0 -0.32708898971E+02  0.29120676309E+02 -0.29429476985E+04  0.29432735248E+04  0.00000000000E+00 0.  1.
</event>
<event>
 4    1  0.8104768E+003  0.2872941E+02  0.7546771E-02  0.1430969E+00
          2   -1    0    0  502    0  0.00000000000E+00  0.00000000000E+00  0.10797443518E+04  0.10797443518E+04  0.00000000000E+00 0. -1.
          2   -1    0    0  501    0 -0.00000000000E+00 -0.00000000000E+00 -0.76776495319E+00  0.76776495319E+00  0.00000000000E+00 0. -1.
          2    1    1    2  501    0  0.28707939809E+02  0.11105299616E+01  0.57514374644E+03  0.57586084096E+03  0.00000000000E+00 0. -1.
          2    1    1    2  502    0 -0.28707939809E+02 -0.11105299616E+01  0.50383284040E+03  0.50465127578E+03  0.00000000000E+00 0. -1.
</event>
<event>
 4    1  0.8104768E+003  0.3134053E+02  0.7546771E-02  0.1408294E+00
          2   -1    0    0  502    0  0.00000000000E+00  0.00000000000E+00  0.33096641390E+02  0.33096641390E+02  0.00000000000E+00 0.  1.
          2   -1    0    0  501    0 -0.00000000000E+00 -0.00000000000E+00 -0.98787376980E+03  0.98787376980E+03  0.00000000000E+00 0.  1.
          2    1    1    2  501    0 -0.55255641127E+01 -0.30849588477E+02  0.25370197525E+02  0.40322151361E+02  0.00000000000E+00 0.  1.
          2    1    1    2  502    0  0.55255641127E+01  0.30849588477E+02 -0.98014732593E+03  0.98064825983E+03  0.00000000000E+00 0.  1.
</event>
<event>
 4    1  0.1237102E+004  0.2832441E+02  0.7546771E-02  0.1434739E+00
          2   -1    0    0  502    0  0.00000000000E+00  0.00000000000E+00  0.59610131528E+03  0.59610131528E+03  0.00000000000E+00 0.  1.
          2   -1    0    0  501    0 -0.00000000000E+00 -0.00000000000E+00 -0.13464398865E+04  0.13464398865E+04  0.00000000000E+00 0. -1.
          2    1    1    2  501    0 -0.22908930460E+02  0.16656918203E+02  0.59561576589E+03  0.59628886674E+03  0.00000000000E+00 0.  1.
          2    1    1    2  502    0  0.22908930460E+02 -0.16656918203E+02 -0.13459543371E+04  0.13462523350E+04  0.00000000000E+00 0. -1.
</event>
<event>
 4    1  0.8104768E+003  0.2859475E+02  0.7546771E-02  0.1432214E+00
          2   -1    0    0  501    0  0.00000000000E+00  0.00000000000E+00  0.94978694725E+02  0.94978694725E+02  0.00000000000E+00 0. -1.
          2   -1    0    0  502    0 -0.00000000000E+00 -0.00000000000E+00 -0.23127124070E+02  0.23127124070E+02  0.00000000000E+00 0.  1.
          2    1    1    2  501    0 -0.93566115294E+01  0.27020608983E+02 -0.10862555006E+02  0.30588471527E+02  0.00000000000E+00 0.  1.
          2    1    1    2  502    0  0.93566115294E+01 -0.27020608983E+02  0.82714125661E+02  0.87517347268E+02  0.00000000000E+00 0. -1.
</event>
<event>
 4    1  0.8104768E+003  0.3996122E+02  0.7546771E-02  0.1348713E+00
          2   -1    0    0  502    0  0.00000000000E+00  0.00000000000E+00  0.10304027357E+04  0.10304027357E+04  0.00000000000E+00 0.  1.
          2   -1    0    0  501    0 -0.00000000000E+00 -0.00000000000E+00 -0.59542936926E+02  0.59542936926E+02  0.00000000000E+00 0. -1.
          2    1    1    2  501    0  0.35583590389E+02 -0.18185350333E+02  0.10232637098E+04  0.10240437093E+04  0.00000000000E+00 0.  1.
          2    1    1    2  502    0 -0.35583590389E+02  0.18185350333E+02 -0.52403911029E+02  0.65901963270E+02  0.00000000000E+00 0. -1.
</event>
<event>
 4    1  0.8104768E+003  0.2976113E+02  0.7546771E-02  0.1421684E+00
          2   -1    0    0  501    0  0.00000000000E+00  0.00000000000E+00  0.18424712945E+04  0.18424712945E+04  0.00000000000E+00 0. -1.
          2   -1    0    0  502    0 -0.00000000000E+00 -0.00000000000E+00 -0.79316327332E+00  0.79316327332E+00  0.00000000000E+00 0. -1.
          2    1    1    2  501    0 -0.61030415865E+01  0.29128639967E+02  0.34240025451E+03  0.34369122635E+03  0.00000000000E+00 0. -1.
          2    1    1    2  502    0  0.61030415865E+01 -0.29128639967E+02  0.14992778767E+04  0.14995732314E+04  0.00000000000E+00 0. -1.
</event>
<event>
 4    1  0.8104768E+003  0.2309781E+02  0.7546771E-02  0.1491274E+00
          2   -1    0    0  502    0  0.00000000000E+00  0.00000000000E+00  0.15893015014E+04  0.15893015014E+04  0.00000000000E+00 0. -1.
          2   -1    0    0  501    0 -0.00000000000E+00 -0.00000000000E+00 -0.52451142829E+00  0.52451142829E+00  0.00000000000E+00 0.  1.
          2    1    1    2  501    0  0.78491483491E+01 -0.21723254749E+02  0.12713358424E+04  0.12715456472E+04  0.00000000000E+00 0. -1.
          2    1    1    2  502    0 -0.78491483491E+01  0.21723254749E+02  0.31744114756E+03  0.31828036555E+03  0.00000000000E+00 0.  1.
</event>
<event>
 4    1  0.8104768E+003  0.2218917E+02  0.7546771E-02  0.1502939E+00
          2   -1    0    0  502    0  0.00000000000E+00  0.00000000000E+00  0.34972927290E+01  0.34972927290E+01  0.00000000000E+00 0.  1.
          2   -1    0    0  501    0 -0.00000000000E+00 -0.00000000000E+00 -0.73336681354E+03  0.73336681354E+03  0.00000000000E+00 0.  1.
          2    1    1    2  501    0  0.14765840802E+02 -0.16562892309E+02 -0.33748995160E+02  0.40390025137E+02  0.00000000000E+00 0.  1.
          2    1    1    2  502    0 -0.14765840802E+02  0.16562892309E+02 -0.69612052565E+03  0.69647408114E+03  0.00000000000E+00 0.  1.
</event>
<event>
 4    1  0.1063825E+004  0.2862327E+02  0.7546771E-02  0.1431950E+00
          2   -1    0    0  502    0  0.00000000000E+00  0.00000000000E+00  0.67946292498E+03  0.67946292498E+03  0.00000000000E+00 0.  1.
          2   -1    0    0  501    0 -0.00000000000E+00 -0.00000000000E+00 -0.85183664405E+03  0.85183664405E+03  0.00000000000E+00 0. -1.
          2    1    1    2  501    0  0.39582738766E+01 -0.28348256319E+02  0.67892083629E+03  0.67952394625E+03  0.00000000000E+00 0.  1.
          2    1    1    2  502    0 -0.39582738766E+01  0.28348256319E+02 -0.85129455536E+03  0.85177562278E+03  0.00000000000E+00 0. -1.
</event>
<event>
 4    1  0.8104768E+003  0.3326059E+02  0.7546771E-02  0.1393222E+00
          2   -1    0    0  502    0  0.00000000000E+00  0.00000000000E+00  0.18225389424E+02  0.18225389424E+02  0.00000000000E+00 0.  1.
          2   -1    0    0  501    0 -0.00000000000E+00 -0.00000000000E+00 -0.57732987580E+03  0.57732987580E+03  0.00000000000E+00 0.  1.
          2    1    1    2  501    0  0.27799791138E+02  0.18260289312E+02  0.21369278406E+01  0.33329161610E+02  0.00000000000E+00 0.  1.
          2    1    1    2  502    0 -0.27799791138E+02 -0.18260289312E+02 -0.56124141421E+03  0.56222610361E+03  0.00000000000E+00 0.  1.
</event>
<event>
 4    1  0.8104768E+003  0.2740978E+02  0.7546771E-02  0.1443535E+00
          2   -1    0    0  502    0  0.00000000000E+00  0.00000000000E+00  0.15460499551E+04  0.15460499551E+04  0.00000000000E+00 0.  1.
          2   -1    0    0  501    0 -0.00000000000E+00 -0.00000000000E+00 -0.62038658726E+00  0.62038658726E+00  0.00000000000E+00 0. -1.
          2    1    1    2  501    0  0.13807353138E+02  0.23678118853E+02  0.11327145866E+04  0.11330461734E+04  0.00000000000E+00 0.  1.
          2    1    1    2  502    0 -0.13807353138E+02 -0.23678118853E+02  0.41271498186E+03  0.41362416825E+03  0.00000000000E+00 0. -1.
</event>
<event>
 4    1  0.8104768E+003  0.4096449E+02  0.7546771E-02  0.1342925E+00
          2   -1    0    0  501    0  0.00000000000E+00  0.00000000000E+00  0.41146186592E+02  0.41146186592E+02  0.00000000000E+00 0. -1.
          2   -1    0    0  502    0 -0.00000000000E+00 -0.00000000000E+00 -0.96077154026E+03  0.96077154026E+03  0.00000000000E+00 0.  1.
          2    1    1    2  501    0 -0.29271807739E+02 -0.28657475300E+02 -0.95002369356E+03  0.95090646645E+03  0.00000000000E+00 0.  1.
          2    1    1    2  502    0  0.29271807739E+02  0.28657475300E+02  0.30398339893E+02  0.51011260396E+02  0.00000000000E+00 0. -1.
</event>
<event>
 4    1  0.8104768E+003  0.2063804E+02  0.7546771E-02  0.1524496E+00
          2   -1    0    0  501    0  0.00000000000E+00  0.00000000000E+00  0.12772496349E+04  0.12772496349E+04  0.00000000000E+00 0. -1.
          2   -1    0    0  502    0 -0.00000000000E+00 -0.00000000000E+00 -0.33637459190E+00  0.33637459190E+00  0.00000000000E+00 0. -1.
          2    1    1    2  501    0  0.15857530949E+02  0.13208618201E+02  0.57913259504E+03  0.57950020839E+03  0.00000000000E+00 0. -1.
          2    1    1    2  502    0 -0.15857530949E+02 -0.13208618201E+02  0.69778066527E+03  0.69808580111E+03  0.00000000000E+00 0. -1.
</event>
<event>
 4    1  0.8104768E+003  0.2214170E+02  0.7546771E-02  0.1503567E+00
          2   -1    0    0  501    0  0.00000000000E+00  0.00000000000E+00  0.13137469116E+03  0.13137469116E+03  0.00000000000E+00 0. -1.
          2   -1    0    0  502    0 -0.00000000000E+00 -0.00000000000E+00 -0.14737972051E+02  0.14737972051E+02  0.00000000000E+00 0.  1.
          2    1    1    2  501    0  0.12893083876E+02 -0.18000641920E+02 -0.48149490557E+01  0.22659180386E+02  0.00000000000E+00 0.  1.
          2    1    1    2  502    0 -0.12893083876E+02  0.18000641920E+02  0.12145166816E+03  0.12345348282E+03  0.00000000000E+00 0. -1.
</event>
<event>
 4    1  0.8104768E+003  0.3635688E+02  0.7546771E-02  0.1371267E+00
          2   -1    0    0  501    0  0.00000000000E+00  0.00000000000E+00  0.11947425876E+04  0.11947425876E+04  0.00000000000E+00 0. -1.
          2   -1    0    0  502    0 -0.00000000000E+00 -0.00000000000E+00 -0.73575018070E+01  0.73575018070E+01  0.00000000000E+00 0. -1.
          2    1    1    2  501    0  0.26738920527E+02 -0.24634386194E+02  0.39673230293E+02  0.53812526943E+02  0.00000000000E+00 0. -1.
          2    1    1    2  502    0 -0.26738920527E+02  0.24634386194E+02  0.11477118555E+04  0.11482875624E+04  0.00000000000E+00 0. -1.
</event>
<event>
 4    1  0.8104768E+003  0.5456511E+02  0.7546771E-02  0.1279507E+00
          2   -1    0    0  501    0  0.00000000000E+00  0.00000000000E+00  0.32092275354E+03  0.32092275354E+03  0.00000000000E+00 0.  1.
          2   -1    0    0  502    0 -0.00000000000E+00 -0.00000000000E+00 -0.26074313319E+03  0.26074313319E+03  0.00000000000E+00 0.  1.
          2    1    1    2  501    0  0.54224591568E+02  0.60864199209E+01 -0.25552222616E+03  0.26128329243E+03  0.00000000000E+00 0.  1.
          2    1    1    2  502    0 -0.54224591568E+02 -0.60864199209E+01  0.31570184651E+03  0.32038259430E+03  0.00000000000E+00 0.  1.
</event>
<event>
 4    1  0.8104768E+003  0.2225102E+02  0.7546771E-02  0.1502123E+00
          2   -1    0    0  501    0  0.00000000000E+00  0.00000000000E+00  0.27366316019E+03  0.27366316019E+03  0.00000000000E+00 0. -1.
          2   -1    0    0  502    0 -0.00000000000E+00 -0.00000000000E+00 -0.63537902134E+03  0.63537902134E+03  0.00000000000E+00 0. -1.
          2    1    1    2  501    0 -0.20743980431E+02 -0.80495537855E+01 -0.63473145495E+03  0.63512134899E+03  0.00000000000E+00 0. -1.
          2    1    1    2  502    0  0.20743980431E+02  0.80495537855E+01  0.27301559380E+03  0.27392083254E+03  0.00000000000E+00 0. -1.
</event>
<event>
 4    1  0.8104768E+003  0.2369329E+02  0.7546771E-02  0.1483971E+00
          2   -1    0    0  501    0  0.00000000000E+00  0.00000000000E+00  0.93747355115E+03  0.93747355115E+03  0.00000000000E+00 0.  1.
          2   -1    0    0  502    0 -0.00000000000E+00 -0.00000000000E+00 -0.21802402220E+03  0.21802402220E+03  0.00000000000E+00 0. -1.
          2    1    1    2  501    0 -0.13241402590E+02  0.19647829145E+02 -0.21723006904E+03  0.21851836268E+03  0.00000000000E+00 0. -1.
          2    1    1    2  502    0  0.13241402590E+02 -0.19647829145E+02  0.93667959799E+03  0.93697921067E+03  0.00000000000E+00 0.  1.
</event>
<event>
 4    1  0.9867620E+003  0.2195806E+02  0.7546771E-02  0.1506013E+00
          2   -1    0    0  502    0  0.00000000000E+00  0.00000000000E+00  0.85917616800E+03  0.85917616800E+03  0.00000000000E+00 0.  1.
          2   -1    0    0  501    0 -0.00000000000E+00 -0.00000000000E+00 -0.53873926166E+03  0.53873926166E+03  0.00000000000E+00 0.  1.
          2    1    1    2  501    0  0.78051358150E+01 -0.20524035706E+02  0.85881203424E+03  0.85909269951E+03  0.00000000000E+00 0.  1.
          2    1    1    2  502    0 -0.78051358150E+01  0.20524035706E+02 -0.53837512790E+03  0.53882273015E+03  0.00000000000E+00 0.  1.
</event>
<event>
 4    1  0.8104768E+003  0.2578721E+02  0.7546771E-02  0.1460186E+00
          2   -1    0    0  501    0  0.00000000000E+00  0.00000000000E+00  0.26295610838E+02  0.26295610838E+02  0.00000000000E+00 0.  1.
          2   -1    0    0  502    0 -0.00000000000E+00 -0.00000000000E+00 -0.29434018273E+02  0.29434018273E+02  0.00000000000E+00 0.  1.
          2    1    1    2  501    0  0.21768653168E+02  0.13824104874E+02 -0.12026361517E+02  0.28453708153E+02  0.00000000000E+00 0.  1.
          2    1    1    2  502    0 -0.21768653168E+02 -0.13824104874E+02  0.88879540826E+01  0.27275920958E+02  0.00000000000E+00 0.  1.
</event>
<event>
 4    1  0.8104768E+003  0.2647034E+02  0.7546771E-02  0.1453002E+00
          2   -1    0    0  501    0  0.00000000000E+00  0.00000000000E+00  0.44902206562E+01  0.44902206562E+01  0.00000000000E+00 0.  1.
          2   -1    0    0  502    0 -0.00000000000E+00 -0.00000000000E+00 -0.10898868774E+04  0.10898868774E+04  0.00000000000E+00 0. -1.
          2    1    1    2  501    0 -0.13371546756E+02  0.22844706047E+02 -0.10492022805E+04  0.10495361376E+04  0.00000000000E+00 0. -1.
          2    1    1    2  502    0  0.13371546756E+02 -0.22844706047E+02 -0.36194376233E+02  0.44840960381E+02  0.00000000000E+00 0.  1.
</event>
<event>
 4    1  0.8104768E+003  0.2063450E+02  0.7546771E-02  0.1524548E+00
          2   -1    0    0  501    0  0.00000000000E+00  0.00000000000E+00  0.16974938454E+03  0.16974938454E+03  0.00000000000E+00 0. -1.
          2   -1    0    0  502    0 -0.00000000000E+00 -0.00000000000E+00 -0.16667142781E+02  0.16667142781E+02  0.00000000000E+00 0.  1.
          2    1    1    2  501    0 -0.50807170717E+01  0.19999218140E+02 -0.93676917806E+01  0.22661334062E+02  0.00000000000E+00 0.  1.
          2    1    1    2  502    0  0.50807170717E+01 -0.19999218140E+02  0.16244993354E+03  0.16375519326E+03  0.00000000000E+00 0. -1.
</event>
<event>
 4    1  0.8104768E+003  0.2091472E+02  0.7546771E-02  0.1520486E+00
          2   -1    0    0  501    0  0.00000000000E+00  0.00000000000E+00  0.30285439926E+02  0.30285439926E+02  0.00000000000E+00 0. -1.
          2   -1    0    0  502    0 -0.00000000000E+00 -0.00000000000E+00 -0.42493713557E+03  0.42493713557E+03  0.00000000000E+00 0.  1.
          2    1    1    2  501    0 -0.39702443405E+01  0.20534427548E+02 -0.42103549108E+03  0.42155463501E+03  0.00000000000E+00 0.  1.
          2    1    1    2  502    0  0.39702443405E+01 -0.20534427548E+02  0.26383795433E+02  0.33667940482E+02  0.00000000000E+00 0. -1.
</event>
<event>
 4    1  0.8104768E+003  0.2661646E+02  0.7546771E-02  0.1451499E+00
          2   -1    0    0  501    0  0.00000000000E+00  0.00000000000E+00  0.88585698852E+02  0.88585698852E+02  0.00000000000E+00 0. -1.
          2   -1    0    0  502    0 -0.00000000000E+00 -0.00000000000E+00 -0.41208224860E+02  0.41208224860E+02  0.00000000000E+00 0. -1.
          2    1    1    2  501    0  0.64729493187E+01  0.25817375663E+02 -0.34571690744E+02  0.43630697449E+02  0.00000000000E+00 0. -1.
          2    1    1    2  502    0 -0.64729493187E+01 -0.25817375663E+02  0.81949164737E+02  0.86163226263E+02  0.00000000000E+00 0. -1.
</event>
<event>
 4    1  0.8104768E+003  0.2560890E+02  0.7546771E-02  0.1462106E+00
          2   -1    0    0  501    0  0.00000000000E+00  0.00000000000E+00  0.89248841316E+02  0.89248841316E+02  0.00000000000E+00 0. -1.
          2   -1    0    0  502    0 -0.00000000000E+00 -0.00000000000E+00 -0.65717893085E+02  0.65717893085E+02  0.00000000000E+00 0.  1.
          2    1    1    2  501    0  0.25084839450E+02  0.51542727988E+01 -0.61257662685E+02  0.66395157474E+02  0.00000000000E+00 0.  1.
          2    1    1    2  502    0 -0.25084839450E+02 -0.51542727988E+01  0.84788610916E+02  0.88571576927E+02  0.00000000000E+00 0. -1.
</event>
<event>
 4    1  0.8104768E+003  0.2667041E+02  0.7546771E-02  0.1450947E+00
          2   -1    0    0  502    0  0.00000000000E+00  0.00000000000E+00  0.38818512661E+03  0.38818512661E+03  0.00000000000E+00 0. -1.
          2   -1    0    0  501    0 -0.00000000000E+00 -0.00000000000E+00 -0.89446855016E+02  0.89446855016E+02  0.00000000000E+00 0. -1.
          2    1    1    2  501    0  0.73886407626E+01  0.25626523821E+02  0.38572628633E+03  0.38664722772E+03  0.00000000000E+00 0. -1.
          2    1    1    2  502    0 -0.73886407626E+01 -0.25626523821E+02 -0.86988014738E+02  0.90984753907E+02  0.00000000000E+00 0. -1.
</event>
<event>
 4    1  0.8104768E+003  0.2475162E+02  0.7546771E-02  0.1471601E+00
          2   -1    0    0  502    0  0.00000000000E+00  0.00000000000E+00  0.85557655210E+01  0.85557655210E+01  0.00000000000E+00 0.  1.
          2   -1    0    0  501    0 -0.00000000000E+00 -0.00000000000E+00 -0.11588269925E+03  0.11588269925E+03  0.00000000000E+00 0.  1.
          2    1    1    2  501    0  0.12060517969E+02  0.21614503947E+02 -0.15203961445E+02  0.29048292861E+02  0.00000000000E+00 0.  1.
          2    1    1    2  502    0 -0.12060517969E+02 -0.21614503947E+02 -0.92122972280E+02  0.95390171906E+02  0.00000000000E+00 0.  1.
</event>
<event>
 4    1  0.8104768E+003  0.8791614E+02  0.7546771E-02  0.1186574E+00
          2   -1    0    0  502    0  0.00000000000E+00  0.00000000000E+00  0.13824049570E+02  0.13824049570E+02  0.00000000000E+00 0. -1.
          2   -1    0    0  501    0 -0.00000000000E+00 -0.00000000000E+00 -0.15587967062E+04  0.15587967062E+04  0.00000000000E+00 0. -1.
          2    1    1    2  501    0 -0.55678864750E+02  0.68037579805E+02 -0.14279181647E+03  0.16768646665E+03  0.00000000000E+00 0. -1.
          2    1    1    2  502    0  0.55678864750E+02 -0.68037579805E+02 -0.14021808401E+04  0.14049342891E+04  0.00000000000E+00 0. -1.
</event>
<event>
 4    1  0.8104768E+003  0.2022566E+02  0.7546771E-02  0.1530614E+00
          2   -1    0    0  502    0  0.00000000000E+00  0.00000000000E+00  0.44086261675E+02  0.44086261675E+02  0.00000000000E+00 0. -1.
          2   -1    0    0  501    0 -0.00000000000E+00 -0.00000000000E+00 -0.15000487887E+02  0.15000487887E+02  0.00000000000E+00 0.  1.
          2    1    1    2  501    0  0.38948620204E+00 -0.20221911394E+02  0.32788609218E+02  0.38524930816E+02  0.00000000000E+00 0. -1.
          2    1    1    2  502    0 -0.38948620204E+00  0.20221911394E+02 -0.37028354288E+01  0.20561818746E+02  0.00000000000E+00 0.  1.
</event>
<event>
 4    1  0.8104768E+003  0.3397719E+02  0.7546771E-02  0.1387900E+00
          2   -1    0    0  501    0  0.00000000000E+00  0.00000000000E+00  0.14932121955E+02  0.14932121955E+02  0.00000000000E+00 0. -1.
          2   -1    0    0  502    0 -0.00000000000E+00 -0.00000000000E+00 -0.76881221415E+03  0.76881221415E+03  0.00000000000E+00 0. -1.
          2    1    1    2  501    0  0.16938488743E+02 -0.29453978584E+02 -0.74858657722E+03  0.74935726650E+03  0.00000000000E+00 0. -1.
          2    1    1    2  502    0 -0.16938488743E+02  0.29453978584E+02 -0.52935149717E+01  0.34387069606E+02  0.00000000000E+00 0. -1.
</event>
<event>
 4    1  0.8104768E+003  0.2045390E+02  0.7546771E-02  0.1527206E+00
          2   -1    0    0  501    0  0.00000000000E+00  0.00000000000E+00  0.16156222553E+03  0.16156222553E+03  0.00000000000E+00 0. -1.
          2   -1    0    0  502    0 -0.00000000000E+00 -0.00000000000E+00 -0.25356175300E+02  0.25356175300E+02  0.00000000000E+00 0. -1.
          2    1    1    2  501    0 -0.19084291597E+02  0.73587857024E+01 -0.20455464310E+02  0.28927286995E+02  0.00000000000E+00 0. -1.
          2    1    1    2  502    0  0.19084291597E+02 -0.73587857024E+01  0.15666151454E+03  0.15799111383E+03  0.00000000000E+00 0. -1.
</event>
<event>
 4    1  0.8104768E+003  0.2136829E+02  0.7546771E-02  0.1514071E+00
          2   -1    0    0  501    0  0.00000000000E+00  0.00000000000E+00  0.13931503314E+03  0.13931503314E+03  0.00000000000E+00 0.  1.
          2   -1    0    0  502    0 -0.00000000000E+00 -0.00000000000E+00 -0.31093669271E+02  0.31093669271E+02  0.00000000000E+00 0.  1.
          2    1    1    2  501    0 -0.14804286985E+02 -0.15408990892E+02 -0.26478084614E+02  0.34024886161E+02  0.00000000000E+00 0.  1.
          2    1    1    2  502    0  0.14804286985E+02  0.15408990892E+02  0.13469944849E+03  0.13638381625E+03  0.00000000000E+00 0.  1.
</event>
<event>
 4    1  0.8104768E+003  0.6548147E+02  0.7546771E-02  0.1242266E+00
          2   -1    0    0  502    0  0.00000000000E+00  0.00000000000E+00  0.25923500638E+02  0.25923500638E+02  0.00000000000E+00 0. -1.
          2   -1    0    0  501    0 -0.00000000000E+00 -0.00000000000E+00 -0.12627115550E+04  0.12627115550E+04  0.00000000000E+00 0.  1.
          2    1    1    2  501    0 -0.92654922760E+01 -0.64822627396E+02 -0.17756767543E+02  0.67846334928E+02  0.00000000000E+00 0. -1.
          2    1    1    2  502    0  0.92654922760E+01  0.64822627396E+02 -0.12190312868E+04  0.12207887207E+04  0.00000000000E+00 0.  1.
</event>
<event>
 4    1  0.2095169E+004  0.2480973E+02  0.7546771E-02  0.1470943E+00
          2   -1    0    0  501    0  0.00000000000E+00  0.00000000000E+00  0.11337846453E+04  0.11337846453E+04  0.00000000000E+00 0. -1.
          2   -1    0    0  502    0 -0.00000000000E+00 -0.00000000000E+00 -0.10633828726E+04  0.10633828726E+04  0.00000000000E+00 0.  1.
          2    1    1    2  501    0  0.15706334552E+02 -0.19205049117E+02 -0.10631024051E+04  0.10633918594E+04  0.00000000000E+00 0.  1.
          2    1    1    2  502    0 -0.15706334552E+02  0.19205049117E+02  0.11335041778E+04  0.11337756586E+04  0.00000000000E+00 0. -1.
</event>
<event>
 4    1  0.8104768E+003  0.3252443E+02  0.7546771E-02  0.1398856E+00
          2   -1    0    0  501    0  0.00000000000E+00  0.00000000000E+00  0.40793935723E+01  0.40793935723E+01  0.00000000000E+00 0. -1.
          2   -1    0    0  502    0 -0.00000000000E+00 -0.00000000000E+00 -0.31241534962E+03  0.31241534962E+03  0.00000000000E+00 0. -1.
          2    1    1    2  501    0  0.12627025422E+02  0.29973262630E+02 -0.21941019916E+03  0.22180774048E+03  0.00000000000E+00 0. -1.
          2    1    1    2  502    0 -0.12627025422E+02 -0.29973262630E+02 -0.88925756894E+02  0.94687002713E+02  0.00000000000E+00 0. -1.
</event>
<event>
 4    1  0.8104768E+003  0.2036184E+02  0.7546771E-02  0.1528574E+00
          2   -1    0    0  501    0  0.00000000000E+00  0.00000000000E+00  0.24587803004E+02  0.24587803004E+02  0.00000000000E+00 0. -1.
          2   -1    0    0  502    0 -0.00000000000E+00 -0.00000000000E+00 -0.10403494361E+04  0.10403494361E+04  0.00000000000E+00 0.  1.
          2    1    1    2  501    0 -0.15866807891E+02 -0.12761221380E+02 -0.10360166274E+04  0.10362167035E+04  0.00000000000E+00 0.  1.
          2    1    1    2  502    0  0.15866807891E+02  0.12761221380E+02  0.20254994379E+02  0.28720535529E+02  0.00000000000E+00 0. -1.
</event>
<event>
 4    1  0.8104768E+003  0.3981299E+02  0.7546771E-02  0.1349585E+00
          2   -1    0    0  502    0  0.00000000000E+00  0.00000000000E+00  0.18318917126E+01  0.18318917126E+01  0.00000000000E+00 0. -1.
          2   -1    0    0  501    0 -0.00000000000E+00 -0.00000000000E+00 -0.20041324037E+04  0.20041324037E+04  0.00000000000E+00 0. -1.
          2    1    1    2  501    0 -0.18782020286E+02  0.35104274704E+02 -0.24507276630E+03  0.24828559195E+03  0.00000000000E+00 0. -1.
          2    1    1    2  502    0  0.18782020286E+02 -0.35104274704E+02 -0.17572277457E+04  0.17576787035E+04  0.00000000000E+00 0. -1.
</event>
<event>
 4    1  0.8104768E+003  0.2394003E+02  0.7546771E-02  0.1481020E+00
          2   -1    0    0  501    0  0.00000000000E+00  0.00000000000E+00  0.34842241098E+01  0.34842241098E+01  0.00000000000E+00 0.  1.
          2   -1    0    0  502    0 -0.00000000000E+00 -0.00000000000E+00 -0.70293523064E+03  0.70293523064E+03  0.00000000000E+00 0. -1.
          2    1    1    2  501    0  0.13415804091E+02  0.19827787342E+02 -0.65885838140E+03  0.65929317582E+03  0.00000000000E+00 0. -1.
          2    1    1    2  502    0 -0.13415804091E+02 -0.19827787342E+02 -0.40592625135E+02  0.47126278928E+02  0.00000000000E+00 0.  1.
</event>
<event>
 4    1  0.8104768E+003  0.4222521E+02  0.7546771E-02  0.1335917E+00
          2   -1    0    0  502    0  0.00000000000E+00  0.00000000000E+00  0.15026580792E+01  0.15026580792E+01  0.00000000000E+00 0. -1.
          2   -1    0    0  501    0 -0.00000000000E+00 -0.00000000000E+00 -0.21580993308E+04  0.21580993308E+04  0.00000000000E+00 0. -1.
          2    1    1    2  501    0 -0.42214043043E+02  0.97114873691E+00 -0.35379234532E+03  0.35630323064E+03  0.00000000000E+00 0. -1.
          2    1    1    2  502    0  0.42214043043E+02 -0.97114873691E+00 -0.18028043274E+04  0.18032987582E+04  0.00000000000E+00 0. -1.
</event>
<event>
 4    1  0.8104768E+003  0.2002083E+02  0.7546771E-02  0.1533718E+00
          2   -1    0    0  502    0  0.00000000000E+00  0.00000000000E+00  0.59226720953E+03  0.59226720953E+03  0.00000000000E+00 0. -1.
          2   -1    0    0  501    0 -0.00000000000E+00 -0.00000000000E+00 -0.26755365926E+02  0.26755365926E+02  0.00000000000E+00 0. -1.
          2    1    1    2  501    0  0.16161606946E+02  0.11816763309E+02  0.58832758666E+03  0.58866814307E+03  0.00000000000E+00 0. -1.
          2    1    1    2  502    0 -0.16161606946E+02 -0.11816763309E+02 -0.22815743060E+02  0.30354432388E+02  0.00000000000E+00 0. -1.
</event>
<event>
 4    1  0.8104768E+003  0.3277437E+02  0.7546771E-02  0.1396924E+00
          2   -1    0    0  501    0  0.00000000000E+00  0.00000000000E+00  0.14945384301E+04  0.14945384301E+04  0.00000000000E+00 0. -1.
          2   -1    0    0  502    0 -0.00000000000E+00 -0.00000000000E+00 -0.65671497347E+01  0.65671497347E+01  0.00000000000E+00 0.  1.
          2    1    1    2  501    0  0.14458576649E+02 -0.29412735931E+02  0.35693694888E+02  0.48458222506E+02  0.00000000000E+00 0.  1.
          2    1    1    2  502    0 -0.14458576649E+02  0.29412735931E+02  0.14522775855E+04  0.14526473573E+04  0.00000000000E+00 0. -1.
</event>
<event>
 4    1  0.8104768E+003  0.2903237E+02  0.7546771E-02  0.1428196E+00
          2   -1    0    0  502    0  0.00000000000E+00  0.00000000000E+00  0.20492623003E+04  0.20492623003E+04  0.00000000000E+00 0.  1.
          2   -1    0    0  501    0 -0.00000000000E+00 -0.00000000000E+00 -0.32140847286E+01  0.32140847286E+01  0.00000000000E+00 0. -1.
          2    1    1    2  501    0  0.23339452669E+02  0.17266979766E+02  0.19813511407E+04  0.19815638322E+04  0.00000000000E+00 0.  1.
          2    1    1    2  502    0 -0.23339452669E+02 -0.17266979766E+02  0.64697074912E+02  0.70912552790E+02  0.00000000000E+00 0. -1.
</event>
<event>
 4    1  0.8104768E+003  0.2991742E+02  0.7546771E-02  0.1420316E+00
          2   -1    0    0  501    0  0.00000000000E+00  0.00000000000E+00  0.79153171931E+02  0.79153171931E+02  0.00000000000E+00 0. -1.
          2   -1    0    0  502    0 -0.00000000000E+00 -0.00000000000E+00 -0.97597585547E+02  0.97597585547E+02  0.00000000000E+00 0.  1.
          2    1    1    2  501    0  0.48928913978E+01  0.29514602613E+02 -0.92320350330E+02  0.97046891957E+02  0.00000000000E+00 0.  1.
          2    1    1    2  502    0 -0.48928913978E+01 -0.29514602613E+02  0.73875936714E+02  0.79703865521E+02  0.00000000000E+00 0. -1.
</event>
<event>
 4    1  0.8104768E+003  0.3876424E+02  0.7546771E-02  0.1355883E+00
          2   -1    0    0  502    0  0.00000000000E+00  0.00000000000E+00  0.31805375671E+03  0.31805375671E+03  0.00000000000E+00 0.  1.
          2   -1    0    0  501    0 -0.00000000000E+00 -0.00000000000E+00 -0.74503253064E+01  0.74503253064E+01  0.00000000000E+00 0.  1.
          2    1    1    2  501    0 -0.18160328197E+02  0.34247171986E+02  0.56859248141E+02  0.68815989482E+02  0.00000000000E+00 0.  1.
          2    1    1    2  502    0  0.18160328197E+02 -0.34247171986E+02  0.25374418326E+03  0.25668809253E+03  0.00000000000E+00 0.  1.
</event>
<event>
 4    1  0.8104768E+003  0.2094658E+02  0.7546771E-02  0.1520029E+00
          2   -1    0    0  501    0  0.00000000000E+00  0.00000000000E+00  0.35648308039E+03  0.35648308039E+03  0.00000000000E+00 0.  1.
          2   -1    0    0  502    0 -0.00000000000E+00 -0.00000000000E+00 -0.44003234269E+01  0.44003234269E+01  0.00000000000E+00 0. -1.
          2    1    1    2  501    0  0.20620816197E+02  0.36798390441E+01  0.22900329528E+02  0.31035211752E+02  0.00000000000E+00 0. -1.
          2    1    1    2  502    0 -0.20620816197E+02 -0.36798390441E+01  0.32918242743E+03  0.32984819206E+03  0.00000000000E+00 0.  1.
</event>
<event>
 4    1  0.8104768E+003  0.2142069E+02  0.7546771E-02  0.1513342E+00
          2   -1    0    0  501    0  0.00000000000E+00  0.00000000000E+00  0.27474267915E+00  0.27474267915E+00  0.00000000000E+00 0.  1.
          2   -1    0    0  502    0 -0.00000000000E+00 -0.00000000000E+00 -0.17876842397E+04  0.17876842397E+04  0.00000000000E+00 0.  1.
          2    1    1    2  501    0  0.38162872027E+01 -0.21077997761E+02 -0.11229858223E+04  0.11231901011E+04  0.00000000000E+00 0.  1.
          2    1    1    2  502    0 -0.38162872027E+01  0.21077997761E+02 -0.66442367471E+03  0.66476888131E+03  0.00000000000E+00 0.  1.
</event>
<event>
 4    1  0.8104768E+003  0.3002135E+02  0.7546771E-02  0.1419411E+00
          2   -1    0    0  501    0  0.00000000000E+00  0.00000000000E+00  0.48686876997E+03  0.48686876997E+03  0.00000000000E+00 0. -1.
          2   -1    0    0  502    0 -0.00000000000E+00 -0.00000000000E+00 -0.11244588428E+02  0.11244588428E+02  0.00000000000E+00 0.  1.
          2    1    1    2  501    0  0.21532840112E+02 -0.20919334252E+02  0.10177627820E+02  0.31699619191E+02  0.00000000000E+00 0.  1.
          2    1    1    2  502    0 -0.21532840112E+02  0.20919334252E+02  0.46544655372E+03  0.46641373920E+03  0.00000000000E+00 0. -1.
</event>
<event>
 4    1  0.8104768E+003  0.3477212E+02  0.7546771E-02  0.1382172E+00
          2   -1    0    0  502    0  0.00000000000E+00  0.00000000000E+00  0.14980208310E+04  0.14980208310E+04  0.00000000000E+00 0.  1.
          2   -1    0    0  501    0 -0.00000000000E+00 -0.00000000000E+00 -0.34450450253E+02  0.34450450253E+02  0.00000000000E+00 0.  1.
          2    1    1    2  501    0  0.74434235132E+01 -0.33966096108E+02  0.14889916513E+04  0.14893976091E+04  0.00000000000E+00 0.  1.
          2    1    1    2  502    0 -0.74434235132E+01  0.33966096108E+02 -0.25421270561E+02  0.43073672183E+02  0.00000000000E+00 0.  1.
</event>
<event>
 4    1  0.8104768E+003  0.2366351E+02  0.7546771E-02  0.1484330E+00
          2   -1    0    0  501    0  0.00000000000E+00  0.00000000000E+00  0.28943414311E+02  0.28943414311E+02  0.00000000000E+00 0. -1.
          2   -1    0    0  502    0 -0.00000000000E+00 -0.00000000000E+00 -0.14738778436E+04  0.14738778436E+04  0.00000000000E+00 0.  1.
          2    1    1    2  501    0  0.70998413035E-01 -0.23663403322E+02 -0.14689298781E+04  0.14691204677E+04  0.00000000000E+00 0.  1.
          2    1    1    2  502    0 -0.70998413035E-01  0.23663403322E+02  0.23995448836E+02  0.33700790234E+02  0.00000000000E+00 0. -1.
</event>
<event>
 4    1  0.8104768E+003  0.2125862E+02  0.7546771E-02  0.1515604E+00
          2   -1    0    0  502    0  0.00000000000E+00  0.00000000000E+00  0.57485060385E+03  0.57485060385E+03  0.00000000000E+00 0.  1.
          2   -1    0    0  501    0 -0.00000000000E+00 -0.00000000000E+00 -0.18827986730E+02  0.18827986730E+02  0.00000000000E+00 0.  1.
          2    1    1    2  501    0 -0.44596985392E+01  0.20785576500E+02  0.56858721995E+03  0.56898449521E+03  0.00000000000E+00 0.  1.
          2    1    1    2  502    0  0.44596985392E+01 -0.20785576500E+02 -0.12564602833E+02  0.24694095364E+02  0.00000000000E+00 0.  1.
</event>
<event>
 4    1  0.8104768E+003  0.2243656E+02  0.7546771E-02  0.1499697E+00
          2   -1    0    0  501    0  0.00000000000E+00  0.00000000000E+00  0.76366895888E+01  0.76366895888E+01  0.00000000000E+00 0.  1.
          2   -1    0    0  502    0 -0.00000000000E+00 -0.00000000000E+00 -0.42983874895E+03  0.42983874895E+03  0.00000000000E+00 0.  1.
          2    1    1    2  501    0  0.64371460505E+01 -0.21493308610E+02 -0.41236869319E+03  0.41297861722E+03  0.00000000000E+00 0.  1.
          2    1    1    2  502    0 -0.64371460505E+01  0.21493308610E+02 -0.98333661780E+01  0.24496821318E+02  0.00000000000E+00 0.  1.
</event>
<event>
 4    1  0.8104768E+003  0.6093308E+02  0.7546771E-02  0.1256695E+00
          2   -1    0    0  502    0  0.00000000000E+00  0.00000000000E+00  0.19429156893E+01  0.19429156893E+01  0.00000000000E+00 0. -1.
          2   -1    0    0  501    0 -0.00000000000E+00 -0.00000000000E+00 -0.20771018137E+04  0.20771018137E+04  0.00000000000E+00 0. -1.
          2    1    1    2  501    0 -0.15534228983E+02  0.58919669253E+02 -0.74358393824E+03  0.74607634523E+03  0.00000000000E+00 0. -1.
          2    1    1    2  502    0  0.15534228983E+02 -0.58919669253E+02 -0.13315749598E+04  0.13329683842E+04  0.00000000000E+00 0. -1.
</event>
<event>
 4    1  0.8104768E+003  0.3394764E+02  0.7546771E-02  0.1388116E+00
          2   -1    0    0  501    0  0.00000000000E+00  0.00000000000E+00  0.23757492176E+04  0.23757492176E+04  0.00000000000E+00 0.  1.
          2   -1    0    0  502    0 -0.00000000000E+00 -0.00000000000E+00 -0.17243995172E+02  0.17243995172E+02  0.00000000000E+00 0. -1.
          2    1    1    2  501    0 -0.17029200669E+02  0.29367476833E+02 -0.29479569559E+00  0.33948921565E+02  0.00000000000E+00 0. -1.
          2    1    1    2  502    0  0.17029200669E+02 -0.29367476833E+02  0.23588000182E+04  0.23590442912E+04  0.00000000000E+00 0.  1.
</event>
<event>
 4    1  0.8104768E+003  0.2555684E+02  0.7546771E-02  0.1462669E+00
          2   -1    0    0  502    0  0.00000000000E+00  0.00000000000E+00  0.69088998140E+01  0.69088998140E+01  0.00000000000E+00 0. -1.
          2   -1    0    0  501    0 -0.00000000000E+00 -0.00000000000E+00 -0.20483683354E+03  0.20483683354E+03  0.00000000000E+00 0. -1.
          2    1    1    2  501    0  0.17536530886E+02  0.18590922357E+02 -0.21273726563E+02  0.33252424746E+02  0.00000000000E+00 0. -1.
          2    1    1    2  502    0 -0.17536530886E+02 -0.18590922357E+02 -0.17665420716E+03  0.17849330861E+03  0.00000000000E+00 0. -1.
</event>
<event>
 4    1  0.8104768E+003  0.4290488E+02  0.7546771E-02  0.1332255E+00
          2   -1    0    0  502    0  0.00000000000E+00  0.00000000000E+00  0.42053035472E+03  0.42053035472E+03  0.00000000000E+00 0.  1.
          2   -1    0    0  501    0 -0.00000000000E+00 -0.00000000000E+00 -0.40780610119E+03  0.40780610119E+03  0.00000000000E+00 0.  1.
          2    1    1    2  501    0  0.42477786978E+02  0.60387582557E+01  0.41830151258E+03  0.42049611700E+03  0.00000000000E+00 0.  1.
          2    1    1    2  502    0 -0.42477786978E+02 -0.60387582557E+01 -0.40557725905E+03  0.40784033891E+03  0.00000000000E+00 0.  1.
</event>
<event>
 4    1  0.8104768E+003  0.2653506E+02  0.7546771E-02  0.1452335E+00
          2   -1    0    0  502    0  0.00000000000E+00  0.00000000000E+00  0.13864083167E+02  0.13864083167E+02  0.00000000000E+00 0. -1.
          2   -1    0    0  501    0 -0.00000000000E+00 -0.00000000000E+00 -0.34635024003E+03  0.34635024003E+03  0.00000000000E+00 0. -1.
          2    1    1    2  501    0 -0.16840163596E+02  0.20506546337E+02  0.13601122919E+00  0.26535411278E+02  0.00000000000E+00 0. -1.
          2    1    1    2  502    0  0.16840163596E+02 -0.20506546337E+02 -0.33262216809E+03  0.33367891192E+03  0.00000000000E+00 0. -1.
</event>
<event>
 4    1  0.8104768E+003  0.2742052E+02  0.7546771E-02  0.1443429E+00
          2   -1    0    0  502    0  0.00000000000E+00  0.00000000000E+00  0.13107830710E+01  0.13107830710E+01  0.00000000000E+00 0.  1.
          2   -1    0    0  501    0 -0.00000000000E+00 -0.00000000000E+00 -0.73398976991E+03  0.73398976991E+03  0.00000000000E+00 0.  1.
          2    1    1    2  501    0 -0.25575651350E+02  0.98879317617E+01 -0.19448630214E+03  0.19640979318E+03  0.00000000000E+00 0.  1.
          2    1    1    2  502    0  0.25575651350E+02 -0.98879317617E+01 -0.53819268470E+03  0.53889075980E+03  0.00000000000E+00 0.  1.
</event>
<event>
 4    1  0.8104768E+003  0.2138753E+02  0.7546771E-02  0.1513803E+00
          2   -1    0    0  501    0  0.00000000000E+00  0.00000000000E+00  0.16578614151E+01  0.16578614151E+01  0.00000000000E+00 0.  1.
          2   -1    0    0  502    0 -0.00000000000E+00 -0.00000000000E+00 -0.14578348030E+04  0.14578348030E+04  0.00000000000E+00 0.  1.
          2    1    1    2  501    0  0.42741720909E+01 -0.20956089449E+02 -0.13851591027E+04  0.13853242098E+04  0.00000000000E+00 0.  1.
          2    1    1    2  502    0 -0.42741720909E+01  0.20956089449E+02 -0.71017838800E+02  0.74168454614E+02  0.00000000000E+00 0.  1.
</event>
<event>
 4    1  0.8104768E+003  0.2608929E+02  0.7546771E-02  0.1456977E+00
          2   -1    0    0  501    0  0.00000000000E+00  0.00000000000E+00  0.83977124064E+02  0.83977124064E+02  0.00000000000E+00 0. -1.
          2   -1    0    0  502    0 -0.00000000000E+00 -0.00000000000E+00 -0.64930892508E+02  0.64930892508E+02  0.00000000000E+00 0. -1.
          2    1    1    2  501    0  0.22049007334E+02  0.13946046618E+02 -0.60129075783E+02  0.65545073768E+02  0.00000000000E+00 0. -1.
          2    1    1    2  502    0 -0.22049007334E+02 -0.13946046618E+02  0.79175307339E+02  0.83362942804E+02  0.00000000000E+00 0. -1.
</event>
<event>
 4    1  0.8104768E+003  0.2265454E+02  0.7546771E-02  0.1496882E+00
          2   -1    0    0  502    0  0.00000000000E+00  0.00000000000E+00  0.11301268365E+04  0.11301268365E+04  0.00000000000E+00 0.  1.
          2   -1    0    0  501    0 -0.00000000000E+00 -0.00000000000E+00 -0.82652878566E+00  0.82652878566E+00  0.00000000000E+00 0. -1.
          2    1    1    2  501    0  0.19968733734E+02 -0.10699429708E+02  0.94421673558E+03  0.94448847101E+03  0.00000000000E+00 0.  1.
          2    1    1    2  502    0 -0.19968733734E+02  0.10699429708E+02  0.18508357216E+03  0.18646489431E+03  0.00000000000E+00 0. -1.
</event>
<event>
 4    1  0.8104768E+003  0.2255709E+02  0.7546771E-02  0.1498136E+00
          2   -1    0    0  502    0  0.00000000000E+00  0.00000000000E+00  0.10026010834E+01  0.10026010834E+01  0.00000000000E+00 0. -1.
          2   -1    0    0  501    0 -0.00000000000E+00 -0.00000000000E+00 -0.79795937224E+03  0.79795937224E+03  0.00000000000E+00 0.  1.
          2    1    1    2  501    0  0.22469270875E+02 -0.19885372431E+01 -0.63949482050E+03  0.63989252837E+03  0.00000000000E+00 0.  1.
          2    1    1    2  502    0 -0.22469270875E+02  0.19885372431E+01 -0.15746195065E+03  0.15906944495E+03  0.00000000000E+00 0. -1.
</event>
<event>
 4    1  0.8104768E+003  0.2555199E+02  0.7546771E-02  0.1462722E+00
          2   -1    0    0  502    0  0.00000000000E+00  0.00000000000E+00  0.62178085722E+01  0.62178085722E+01  0.00000000000E+00 0.  1.
          2   -1    0    0  501    0 -0.00000000000E+00 -0.00000000000E+00 -0.49925792197E+03  0.49925792197E+03  0.00000000000E+00 0.  1.
          2    1    1    2  501    0 -0.24541662516E+01  0.25433857993E+02 -0.21927676108E+02  0.33670863427E+02  0.00000000000E+00 0.  1.
          2    1    1    2  502    0  0.24541662516E+01 -0.25433857993E+02 -0.47111243729E+03  0.47180486711E+03  0.00000000000E+00 0.  1.
</event>
<event>
 4    1  0.8104768E+003  0.1276270E+03  0.7546771E-02  0.1123043E+00
          2   -1    0    0  501    0  0.00000000000E+00  0.00000000000E+00  0.35468686297E+03  0.35468686297E+03  0.00000000000E+00 0. -1.
          2   -1    0    0  502    0 -0.00000000000E+00 -0.00000000000E+00 -0.11618369961E+04  0.11618369961E+04  0.00000000000E+00 0. -1.
          2    1    1    2  501    0  0.90131853733E+02 -0.90359901866E+02 -0.11466999533E+04  0.11537805016E+04  0.00000000000E+00 0. -1.
          2    1    1    2  502    0 -0.90131853733E+02  0.90359901866E+02  0.33954982024E+03  0.36274335742E+03  0.00000000000E+00 0. -1.
</event>
<event>
 4    1  0.8104768E+003  0.2194054E+02  0.7546771E-02  0.1506248E+00
          2   -1    0    0  501    0  0.00000000000E+00  0.00000000000E+00  0.61218402653E+00  0.61218402653E+00  0.00000000000E+00 0.  1.
          2   -1    0    0  502    0 -0.00000000000E+00 -0.00000000000E+00 -0.15150027456E+04  0.15150027456E+04  0.00000000000E+00 0.  1.
          2    1    1    2  501    0 -0.13191112070E+02  0.17532312253E+02 -0.12827454437E+04  0.12829330695E+04  0.00000000000E+00 0.  1.
          2    1    1    2  502    0  0.13191112070E+02 -0.17532312253E+02 -0.23164511788E+03  0.23268186016E+03  0.00000000000E+00 0.  1.
</event>
<event>
 4    1  0.8104768E+003  0.2414013E+02  0.7546771E-02  0.1478657E+00
          2   -1    0    0  501    0  0.00000000000E+00  0.00000000000E+00  0.15832224180E+03  0.15832224180E+03  0.00000000000E+00 0.  1.
          2   -1    0    0  502    0 -0.00000000000E+00 -0.00000000000E+00 -0.48040543695E+03  0.48040543695E+03  0.00000000000E+00 0.  1.
          2    1    1    2  501    0 -0.50371591594E+01  0.23608745781E+02 -0.47917963769E+03  0.47978731853E+03  0.00000000000E+00 0.  1.
          2    1    1    2  502    0  0.50371591594E+01 -0.23608745781E+02  0.15709644253E+03  0.15894036022E+03  0.00000000000E+00 0.  1.
</event>
<event>
 4    1  0.8104768E+003  0.2497506E+02  0.7546771E-02  0.1469083E+00
          2   -1    0    0  501    0  0.00000000000E+00  0.00000000000E+00  0.60997185537E+02  0.60997185537E+02  0.00000000000E+00 0. -1.
          2   -1    0    0  502    0 -0.00000000000E+00 -0.00000000000E+00 -0.11600319401E+02  0.11600319401E+02  0.00000000000E+00 0. -1.
          2    1    1    2  501    0 -0.19759843934E+02  0.15274228986E+02  0.12204183128E+02  0.27797402563E+02  0.00000000000E+00 0. -1.
          2    1    1    2  502    0  0.19759843934E+02 -0.15274228986E+02  0.37192683008E+02  0.44800102375E+02  0.00000000000E+00 0. -1.
</event>
<event>
 4    1  0.8104768E+003  0.4122090E+02  0.7546771E-02  0.1341476E+00
          2   -1    0    0  501    0  0.00000000000E+00  0.00000000000E+00  0.23913756247E+03  0.23913756247E+03  0.00000000000E+00 0.  1.
          2   -1    0    0  502    0 -0.00000000000E+00 -0.00000000000E+00 -0.14711042395E+04  0.14711042395E+04  0.00000000000E+00 0. -1.
          2    1    1    2  501    0  0.20573003326E+02 -0.35719945438E+02 -0.14690366388E+04  0.14696148506E+04  0.00000000000E+00 0. -1.
          2    1    1    2  502    0 -0.20573003326E+02  0.35719945438E+02  0.23706996175E+03  0.24062695139E+03  0.00000000000E+00 0.  1.
</event>
<event>
 4    1  0.8104768E+003  0.3837146E+02  0.7546771E-02  0.1358303E+00
          2   -1    0    0  501    0  0.00000000000E+00  0.00000000000E+00  0.64223774401E+01  0.64223774401E+01  0.00000000000E+00 0. -1.
          2   -1    0    0  502    0 -0.00000000000E+00 -0.00000000000E+00 -0.84477797301E+03  0.84477797301E+03  0.00000000000E+00 0.  1.
          2    1    1    2  501    0  0.17660471526E+02 -0.34065774716E+02 -0.78246679897E+03  0.78340708495E+03  0.00000000000E+00 0.  1.
          2    1    1    2  502    0 -0.17660471526E+02  0.34065774716E+02 -0.55888796597E+02  0.67793265496E+02  0.00000000000E+00 0. -1.
</event>
<event>
 4    1  0.8104768E+003  0.2385611E+02  0.7546771E-02  0.1482019E+00
          2   -1    0    0  501    0  0.00000000000E+00  0.00000000000E+00  0.73526772305E+01  0.73526772305E+01  0.00000000000E+00 0.  1.
          2   -1    0    0  502    0 -0.00000000000E+00 -0.00000000000E+00 -0.97006828734E+03  0.97006828734E+03  0.00000000000E+00 0. -1.
          2    1    1    2  501    0  0.15890492112E+02 -0.17793432145E+02 -0.95016578952E+03  0.95046522374E+03  0.00000000000E+00 0. -1.
          2    1    1    2  502    0 -0.15890492112E+02  0.17793432145E+02 -0.12549820597E+02  0.26955740836E+02  0.00000000000E+00 0.  1.
</event>
<event>
 4    1  0.8104768E+003  0.3291206E+02  0.7546771E-02  0.1395868E+00
          2   -1    0    0  501    0  0.00000000000E+00  0.00000000000E+00  0.55614778236E+03  0.55614778236E+03  0.00000000000E+00 0.  1.
          2   -1    0    0  502    0 -0.00000000000E+00 -0.00000000000E+00 -0.59368920687E+01  0.59368920687E+01  0.00000000000E+00 0.  1.
          2    1    1    2  501    0  0.32195010931E+02  0.68326610449E+01  0.44730555918E+02  0.55534013168E+02  0.00000000000E+00 0.  1.
          2    1    1    2  502    0 -0.32195010931E+02 -0.68326610449E+01  0.50548033437E+03  0.50655066126E+03  0.00000000000E+00 0.  1.
</event>
<event>
 4    1  0.8104768E+003  0.3154950E+02  0.7546771E-02  0.1406593E+00
          2   -1    0    0  502    0  0.00000000000E+00  0.00000000000E+00  0.23656617329E+03  0.23656617329E+03  0.00000000000E+00 0. -1.
          2   -1    0    0  501    0 -0.00000000000E+00 -0.00000000000E+00 -0.13122879821E+03  0.13122879821E+03  0.00000000000E+00 0.  1.
          2    1    1    2  501    0  0.11829094122E+02  0.29247966235E+02  0.23359400917E+03  0.23571493825E+03  0.00000000000E+00 0. -1.
          2    1    1    2  502    0 -0.11829094122E+02 -0.29247966235E+02 -0.12825663408E+03  0.13208003325E+03  0.00000000000E+00 0.  1.
</event>
<event>
 4    1  0.8104768E+003  0.2417591E+02  0.7546771E-02  0.1478237E+00
          2   -1    0    0  501    0  0.00000000000E+00  0.00000000000E+00  0.78939507316E+01  0.78939507316E+01  0.00000000000E+00 0. -1.
          2   -1    0    0  502    0 -0.00000000000E+00 -0.00000000000E+00 -0.11800775446E+03  0.11800775446E+03  0.00000000000E+00 0. -1.
          2    1    1    2  501    0 -0.24175597676E+02  0.12315545759E+00 -0.93481503230E+02  0.96557061557E+02  0.00000000000E+00 0. -1.
          2    1    1    2  502    0  0.24175597676E+02 -0.12315545759E+00 -0.16632300499E+02  0.29344643636E+02  0.00000000000E+00 0. -1.
</event>
<event>
 4    1  0.8104768E+003  0.3048299E+02  0.7546771E-02  0.1415445E+00
          2   -1    0    0  501    0  0.00000000000E+00  0.00000000000E+00  0.55740453337E+03  0.55740453337E+03  0.00000000000E+00 0. -1.
          2   -1    0    0  502    0 -0.00000000000E+00 -0.00000000000E+00 -0.17863349791E+01  0.17863349791E+01  0.00000000000E+00 0. -1.
          2    1    1    2  501    0  0.19991174124E+01 -0.30417371726E+02  0.35006419123E+03  0.35138888849E+03  0.00000000000E+00 0. -1.
          2    1    1    2  502    0 -0.19991174124E+01  0.30417371726E+02  0.20555400716E+03  0.20780197986E+03  0.00000000000E+00 0. -1.
</event>
<event>
 4    1  0.8104768E+003  0.2215311E+02  0.7546771E-02  0.1503415E+00
          2   -1    0    0  501    0  0.00000000000E+00  0.00000000000E+00  0.13163597130E+04  0.13163597130E+04  0.00000000000E+00 0. -1.
          2   -1    0    0  502    0 -0.00000000000E+00 -0.00000000000E+00 -0.75511286100E+01  0.75511286100E+01  0.00000000000E+00 0.  1.
          2    1    1    2  501    0  0.11195713935E+02 -0.19115867896E+02  0.89968294415E+01  0.23910319026E+02  0.00000000000E+00 0.  1.
          2    1    1    2  502    0 -0.11195713935E+02  0.19115867896E+02  0.12998117550E+04  0.13000005226E+04  0.00000000000E+00 0. -1.
</event>
<event>
 4    1  0.8447469E+003  0.2013242E+02  0.7546771E-02  0.1532021E+00
          2   -1    0    0  501    0  0.00000000000E+00  0.00000000000E+00  0.59796583005E+03  0.59796583005E+03  0.00000000000E+00 0. -1.
          2   -1    0    0  502    0 -0.00000000000E+00 -0.00000000000E+00 -0.85822294296E+03  0.85822294296E+03  0.00000000000E+00 0. -1.
          2    1    1    2  501    0  0.15615460284E+02  0.12707151028E+02 -0.85793536282E+03  0.85817154524E+03  0.00000000000E+00 0. -1.
          2    1    1    2  502    0 -0.15615460284E+02 -0.12707151028E+02  0.59767824991E+03  0.59801722776E+03  0.00000000000E+00 0. -1.
</event>
<event>
 4    1  0.8104768E+003  0.3751808E+02  0.7546771E-02  0.1363677E+00
          2   -1    0    0  501    0  0.00000000000E+00  0.00000000000E+00  0.66452930931E+01  0.66452930931E+01  0.00000000000E+00 0.  1.
          2   -1    0    0  502    0 -0.00000000000E+00 -0.00000000000E+00 -0.25198454427E+03  0.25198454427E+03  0.00000000000E+00 0.  1.
          2    1    1    2  501    0  0.35358624469E+02 -0.12544892862E+02 -0.17429729841E+03  0.17828952548E+03  0.00000000000E+00 0.  1.
          2    1    1    2  502    0 -0.35358624469E+02  0.12544892862E+02 -0.71041952766E+02  0.80340311887E+02  0.00000000000E+00 0.  1.
</event>
<event>
 4    1  0.8536478E+003  0.2175284E+02  0.7546771E-02  0.1508782E+00
          2   -1    0    0  501    0  0.00000000000E+00  0.00000000000E+00  0.58474548522E+03  0.58474548522E+03  0.00000000000E+00 0.  1.
          2   -1    0    0  502    0 -0.00000000000E+00 -0.00000000000E+00 -0.57949193819E+03  0.57949193819E+03  0.00000000000E+00 0. -1.
          2    1    1    2  501    0  0.20150853660E+02  0.81932404930E+01 -0.57908535356E+03  0.57949377287E+03  0.00000000000E+00 0. -1.
          2    1    1    2  502    0 -0.20150853660E+02 -0.81932404930E+01  0.58433890059E+03  0.58474365053E+03  0.00000000000E+00 0.  1.
</event>
<event>
 4    1  0.8104768E+003  0.2023432E+02  0.7546771E-02  0.1530483E+00
          2   -1    0    0  501    0  0.00000000000E+00  0.00000000000E+00  0.80575311073E+03  0.80575311073E+03  0.00000000000E+00 0. -1.
          2   -1    0    0  502    0 -0.00000000000E+00 -0.00000000000E+00 -0.43859713162E+02  0.43859713162E+02  0.00000000000E+00 0.  1.
          2    1    1    2  501    0  0.12076589154E+02  0.16235261837E+02 -0.41391777064E+02  0.46072843857E+02  0.00000000000E+00 0.  1.
          2    1    1    2  502    0 -0.12076589154E+02 -0.16235261837E+02  0.80328517463E+03  0.80353998004E+03  0.00000000000E+00 0. -1.
</event>
<event>
 4    1  0.8104768E+003  0.2062583E+02  0.7546771E-02  0.1524675E+00
          2   -1    0    0  501    0  0.00000000000E+00  0.00000000000E+00  0.10762828967E+03  0.10762828967E+03  0.00000000000E+00 0. -1.
          2   -1    0    0  502    0 -0.00000000000E+00 -0.00000000000E+00 -0.54349037301E+01  0.54349037301E+01  0.00000000000E+00 0. -1.
          2    1    1    2  501    0 -0.19422626793E+02 -0.69416558888E+01  0.21574702850E+02  0.29847827745E+02  0.00000000000E+00 0. -1.
          2    1    1    2  502    0  0.19422626793E+02  0.69416558888E+01  0.80618683091E+02  0.83215365656E+02  0.00000000000E+00 0. -1.
</event>
<event>
 4    1  0.8104768E+003  0.3563268E+02  0.7546771E-02  0.1376169E+00
          2   -1    0    0  501    0  0.00000000000E+00  0.00000000000E+00  0.27864120164E+03  0.27864120164E+03  0.00000000000E+00 0. -1.
          2   -1    0    0  502    0 -0.00000000000E+00 -0.00000000000E+00 -0.11038470306E+02  0.11038470306E+02  0.00000000000E+00 0.  1.
          2    1    1    2  501    0 -0.31904372853E+01  0.35489556856E+02  0.22812346236E+02  0.42309463205E+02  0.00000000000E+00 0.  1.
          2    1    1    2  502    0  0.31904372853E+01 -0.35489556856E+02  0.24479038509E+03  0.24737020874E+03  0.00000000000E+00 0. -1.
</event>
<event>
 4    1  0.8104768E+003  0.2192499E+02  0.7546771E-02  0.1506457E+00
          2   -1    0    0  501    0  0.00000000000E+00  0.00000000000E+00  0.58408973672E+03  0.58408973672E+03  0.00000000000E+00 0. -1.
          2   -1    0    0  502    0 -0.00000000000E+00 -0.00000000000E+00 -0.38611449007E+03  0.38611449007E+03  0.00000000000E+00 0. -1.
          2    1    1    2  501    0  0.19298595361E+02  0.10405249117E+02 -0.38559721954E+03  0.38622004183E+03  0.00000000000E+00 0. -1.
          2    1    1    2  502    0 -0.19298595361E+02 -0.10405249117E+02  0.58357246619E+03  0.58398418497E+03  0.00000000000E+00 0. -1.
</event>
<event>
 4    1  0.8104768E+003  0.2457267E+02  0.7546771E-02  0.1473641E+00
          2   -1    0    0  501    0  0.00000000000E+00  0.00000000000E+00  0.13976516082E+03  0.13976516082E+03  0.00000000000E+00 0.  1.
          2   -1    0    0  502    0 -0.00000000000E+00 -0.00000000000E+00 -0.13397304458E+02  0.13397304458E+02  0.00000000000E+00 0. -1.
          2    1    1    2  501    0 -0.23707168562E+02  0.64642436706E+01  0.14819341160E+00  0.24573120452E+02  0.00000000000E+00 0. -1.
          2    1    1    2  502    0  0.23707168562E+02 -0.64642436706E+01  0.12621966295E+03  0.12858934483E+03  0.00000000000E+00 0.  1.
</event>
<event>
 4    1  0.8104768E+003  0.2222057E+02  0.7546771E-02  0.1502524E+00
          2   -1    0    0  501    0  0.00000000000E+00  0.00000000000E+00  0.22573667780E+02  0.22573667780E+02  0.00000000000E+00 0. -1.
          2   -1    0    0  502    0 -0.00000000000E+00 -0.00000000000E+00 -0.39780012628E+03  0.39780012628E+03  0.00000000000E+00 0.  1.
          2    1    1    2  501    0 -0.10917225248E+02 -0.19353756765E+02 -0.39193987993E+03  0.39256925910E+03  0.00000000000E+00 0.  1.
          2    1    1    2  502    0  0.10917225248E+02  0.19353756765E+02  0.16713421436E+02  0.27804534956E+02  0.00000000000E+00 0. -1.
</event>
<event>
 4    1  0.8104768E+003  0.3067079E+02  0.7546771E-02  0.1413855E+00
          2   -1    0    0  502    0  0.00000000000E+00  0.00000000000E+00  0.94262442740E+01  0.94262442740E+01  0.00000000000E+00 0.  1.
          2   -1    0    0  501    0 -0.00000000000E+00 -0.00000000000E+00 -0.28881743456E+03  0.28881743456E+03  0.00000000000E+00 0. -1.
          2    1    1    2  501    0  0.30521407776E+02  0.30234412113E+01 -0.19057198320E+02  0.36109200174E+02  0.00000000000E+00 0.  1.
          2    1    1    2  502    0 -0.30521407776E+02 -0.30234412113E+01 -0.26033399197E+03  0.26213447866E+03  0.00000000000E+00 0. -1.
</event>
<event>
 4    1  0.8104768E+003  0.3110103E+02  0.7546771E-02  0.1410264E+00
          2   -1    0    0  501    0  0.00000000000E+00  0.00000000000E+00  0.54855312501E+03  0.54855312501E+03  0.00000000000E+00 0. -1.
          2   -1    0    0  502    0 -0.00000000000E+00 -0.00000000000E+00 -0.48062436383E+02  0.48062436383E+02  0.00000000000E+00 0.  1.
          2    1    1    2  501    0 -0.18759018911E+01  0.31044409060E+02 -0.42539130635E+02  0.52695844019E+02  0.00000000000E+00 0.  1.
          2    1    1    2  502    0  0.18759018911E+01 -0.31044409060E+02  0.54302981926E+03  0.54391971737E+03  0.00000000000E+00 0. -1.
</event>
<event>
 4    1  0.8104768E+003  0.2046207E+02  0.7546771E-02  0.1527085E+00
          2   -1    0    0  502    0  0.00000000000E+00  0.00000000000E+00  0.55771818442E+03  0.55771818442E+03  0.00000000000E+00 0.  1.
          2   -1    0    0  501    0 -0.00000000000E+00 -0.00000000000E+00 -0.44195326147E+03  0.44195326147E+03  0.00000000000E+00 0.  1.
          2    1    1    2  501    0  0.17078140351E+02 -0.11270910710E+02  0.55729347702E+03  0.55766900204E+03  0.00000000000E+00 0.  1.
          2    1    1    2  502    0 -0.17078140351E+02  0.11270910710E+02 -0.44152855407E+03  0.44200244385E+03  0.00000000000E+00 0.  1.
</event>
<event>
 4    1  0.8104768E+003  0.3526712E+02  0.7546771E-02  0.1378695E+00
          2   -1    0    0  502    0  0.00000000000E+00  0.00000000000E+00  0.11321843411E+03  0.11321843411E+03  0.00000000000E+00 0.  1.
          2   -1    0    0  501    0 -0.00000000000E+00 -0.00000000000E+00 -0.36333900552E+02  0.36333900552E+02  0.00000000000E+00 0. -1.
          2    1    1    2  501    0  0.29321385122E+02 -0.19596592047E+02  0.10089936376E+03  0.10688522654E+03  0.00000000000E+00 0.  1.
          2    1    1    2  502    0 -0.29321385122E+02  0.19596592047E+02 -0.24014830207E+02  0.42667108118E+02  0.00000000000E+00 0. -1.
</event>
<event>
 4    1  0.8104768E+003  0.2960501E+02  0.7546771E-02  0.1423060E+00
          2   -1    0    0  502    0  0.00000000000E+00  0.00000000000E+00  0.32753648285E+01  0.32753648285E+01  0.00000000000E+00 0. -1.
          2   -1    0    0  501    0 -0.00000000000E+00 -0.00000000000E+00 -0.10765830069E+04  0.10765830069E+04  0.00000000000E+00 0. -1.
          2    1    1    2  501    0 -0.26888524012E+02  0.12388062950E+02 -0.68611345889E+02  0.74725990203E+02  0.00000000000E+00 0. -1.
          2    1    1    2  502    0  0.26888524012E+02 -0.12388062950E+02 -0.10046962962E+04  0.10051323815E+04  0.00000000000E+00 0. -1.
</event>
<event>
 4    1  0.8104768E+003  0.2540670E+02  0.7546771E-02  0.1464305E+00
          2   -1    0    0  502    0  0.00000000000E+00  0.00000000000E+00  0.10688850100E+02  0.10688850100E+02  0.00000000000E+00 0.  1.
          2   -1    0    0  501    0 -0.00000000000E+00 -0.00000000000E+00 -0.10575734967E+03  0.10575734967E+03  0.00000000000E+00 0.  1.
          2    1    1    2  501    0 -0.14797588574E+02 -0.20652646015E+02 -0.94003333917E+01  0.27089973845E+02  0.00000000000E+00 0.  1.
          2    1    1    2  502    0  0.14797588574E+02  0.20652646015E+02 -0.85668166175E+02  0.89356225921E+02  0.00000000000E+00 0.  1.
</event>
<event>
 4    1  0.8104768E+003  0.2412659E+02  0.7546771E-02  0.1478816E+00
          2   -1    0    0  502    0  0.00000000000E+00  0.00000000000E+00  0.46290560304E+03  0.46290560304E+03  0.00000000000E+00 0.  1.
          2   -1    0    0  501    0 -0.00000000000E+00 -0.00000000000E+00 -0.45966131354E+03  0.45966131354E+03  0.00000000000E+00 0. -1.
          2    1    1    2  501    0  0.57652817923E+01 -0.23427633397E+02  0.46227421434E+03  0.46290338271E+03  0.00000000000E+00 0.  1.
          2    1    1    2  502    0 -0.57652817923E+01  0.23427633397E+02 -0.45902992483E+03  0.45966353387E+03  0.00000000000E+00 0. -1.
</event>
<event>
 4    1  0.8104768E+003  0.2361854E+02  0.7546771E-02  0.1484874E+00
          2   -1    0    0  502    0  0.00000000000E+00  0.00000000000E+00  0.32731992717E+01  0.32731992717E+01  0.00000000000E+00 0. -1.
          2   -1    0    0  501    0 -0.00000000000E+00 -0.00000000000E+00 -0.92908356017E+03  0.92908356017E+03  0.00000000000E+00 0.  1.
          2    1    1    2  501    0  0.13063937849E+02 -0.19676605729E+02 -0.41647438579E+02  0.47878433822E+02  0.00000000000E+00 0. -1.
          2    1    1    2  502    0 -0.13063937849E+02  0.19676605729E+02 -0.88416292232E+03  0.88447832562E+03  0.00000000000E+00 0.  1.
</event>
<event>
 4    1  0.8104768E+003  0.2480930E+02  0.7546771E-02  0.1470948E+00
          2   -1    0    0  502    0  0.00000000000E+00  0.00000000000E+00  0.69481541699E+03  0.69481541699E+03  0.00000000000E+00 0. -1.
          2   -1    0    0  501    0 -0.00000000000E+00 -0.00000000000E+00 -0.48327840879E+01  0.48327840879E+01  0.00000000000E+00 0. -1.
          2    1    1    2  501    0  0.21150982528E+02 -0.12966778761E+02  0.66113246878E+03  0.66159779526E+03  0.00000000000E+00 0. -1.
          2    1    1    2  502    0 -0.21150982528E+02  0.12966778761E+02  0.28850164124E+02  0.38050405823E+02  0.00000000000E+00 0. -1.
</event>
<event>
 4    1  0.8104768E+003  0.2512756E+02  0.7546771E-02  0.1467381E+00
          2   -1    0    0  502    0  0.00000000000E+00  0.00000000000E+00  0.14093888022E+04  0.14093888022E+04  0.00000000000E+00 0.  1.
          2   -1    0    0  501    0 -0.00000000000E+00 -0.00000000000E+00 -0.46903879471E+01  0.46903879471E+01  0.00000000000E+00 0. -1.
          2    1    1    2  501    0  0.24389224560E+02 -0.60464811237E+01  0.13747759510E+04  0.13750055671E+04  0.00000000000E+00 0.  1.
          2    1    1    2  502    0 -0.24389224560E+02  0.60464811237E+01  0.29922463283E+02  0.39073623041E+02  0.00000000000E+00 0. -1.
</event>
<event>
 4    1  0.8104768E+003  0.4831357E+02  0.7546771E-02  0.1305655E+00
          2   -1    0    0  501    0  0.00000000000E+00  0.00000000000E+00  0.26220102753E+04  0.26220102753E+04  0.00000000000E+00 0.  1.
          2   -1    0    0  502    0 -0.00000000000E+00 -0.00000000000E+00 -0.11114303424E+01  0.11114303424E+01  0.00000000000E+00 0. -1.
          2    1    1    2  501    0  0.46522376282E+02  0.13033386566E+02  0.72534005167E+03  0.72694730980E+03  0.00000000000E+00 0. -1.
          2    1    1    2  502    0 -0.46522376282E+02 -0.13033386566E+02  0.18955587932E+04  0.18961743958E+04  0.00000000000E+00 0.  1.
</event>
<event>
 4    1  0.8104768E+003  0.2041024E+02  0.7546771E-02  0.1527854E+00
          2   -1    0    0  502    0  0.00000000000E+00  0.00000000000E+00  0.43816872302E+00  0.43816872302E+00  0.00000000000E+00 0. -1.
          2   -1    0    0  501    0 -0.00000000000E+00 -0.00000000000E+00 -0.14432084564E+04  0.14432084564E+04  0.00000000000E+00 0. -1.
          2    1    1    2  501    0  0.15482385977E+02 -0.13299378647E+02 -0.29972514090E+03  0.30041927008E+03  0.00000000000E+00 0. -1.
          2    1    1    2  502    0 -0.15482385977E+02  0.13299378647E+02 -0.11430451468E+04  0.11432273551E+04  0.00000000000E+00 0. -1.
</event>
<event>
 4    1  0.8104768E+003  0.2421132E+02  0.7546771E-02  0.1477823E+00
          2   -1    0    0  501    0  0.00000000000E+00  0.00000000000E+00  0.11922771349E+01  0.11922771349E+01  0.00000000000E+00 0. -1.
          2   -1    0    0  502    0 -0.00000000000E+00 -0.00000000000E+00 -0.96792087130E+03  0.96792087130E+03  0.00000000000E+00 0. -1.
          2    1    1    2  501    0  0.21802153397E+02 -0.10528721155E+02 -0.82326317786E+03  0.82361911578E+03  0.00000000000E+00 0. -1.
          2    1    1    2  502    0 -0.21802153397E+02  0.10528721155E+02 -0.14346541631E+03  0.14549403266E+03  0.00000000000E+00 0. -1.
</event>
<event>
 4    1  0.8104768E+003  0.5883421E+02  0.7546771E-02  0.1263846E+00
          2   -1    0    0  501    0  0.00000000000E+00  0.00000000000E+00  0.10460378705E+04  0.10460378705E+04  0.00000000000E+00 0.  1.
          2   -1    0    0  502    0 -0.00000000000E+00 -0.00000000000E+00 -0.73548501538E+01  0.73548501538E+01  0.00000000000E+00 0. -1.
          2    1    1    2  501    0 -0.49665596345E+02  0.31540340553E+02  0.12870586108E+03  0.14151559356E+03  0.00000000000E+00 0. -1.
          2    1    1    2  502    0  0.49665596345E+02 -0.31540340553E+02  0.90997715922E+03  0.91187712706E+03  0.00000000000E+00 0.  1.
</event>
<event>
 4    1  0.8104768E+003  0.3266487E+02  0.7546771E-02  0.1397768E+00
          2   -1    0    0  501    0  0.00000000000E+00  0.00000000000E+00  0.43744412024E+01  0.43744412024E+01  0.00000000000E+00 0.  1.
          2   -1    0    0  502    0 -0.00000000000E+00 -0.00000000000E+00 -0.70378294094E+03  0.70378294094E+03  0.00000000000E+00 0. -1.
          2    1    1    2  501    0  0.21137578152E+02  0.24903741535E+02 -0.63592215851E+03  0.63676053995E+03  0.00000000000E+00 0. -1.
          2    1    1    2  502    0 -0.21137578152E+02 -0.24903741535E+02 -0.63486341224E+02  0.71396842189E+02  0.00000000000E+00 0.  1.
</event>
<event>
 4    1  0.8104768E+003  0.4983423E+02  0.7546771E-02  0.1298893E+00
          2   -1    0    0  501    0  0.00000000000E+00  0.00000000000E+00  0.22722385817E+01  0.22722385817E+01  0.00000000000E+00 0. -1.
          2   -1    0    0  502    0 -0.00000000000E+00 -0.00000000000E+00 -0.16179807741E+04  0.16179807741E+04  0.00000000000E+00 0.  1.
          2    1    1    2  501    0  0.10534937557E+02  0.48707960735E+02 -0.12693388909E+04  0.12703167599E+04  0.00000000000E+00 0.  1.
          2    1    1    2  502    0 -0.10534937557E+02 -0.48707960735E+02 -0.34636964461E+03  0.34993625285E+03  0.00000000000E+00 0. -1.
</event>
<event>
 4    1  0.8104768E+003  0.2737844E+02  0.7546771E-02  0.1443843E+00
          2   -1    0    0  501    0  0.00000000000E+00  0.00000000000E+00  0.52161253197E+01  0.52161253197E+01  0.00000000000E+00 0.  1.
          2   -1    0    0  502    0 -0.00000000000E+00 -0.00000000000E+00 -0.43554553748E+03  0.43554553748E+03  0.00000000000E+00 0.  1.
          2    1    1    2  501    0 -0.23771757992E+02 -0.13582429565E+02 -0.39556218811E+03  0.39650854156E+03  0.00000000000E+00 0.  1.
          2    1    1    2  502    0  0.23771757992E+02  0.13582429565E+02 -0.34767224049E+02  0.44253121234E+02  0.00000000000E+00 0.  1.
</event>
<event>
 4    1  0.8104768E+003  0.3842756E+02  0.7546771E-02  0.1357955E+00
          2   -1    0    0  502    0  0.00000000000E+00  0.00000000000E+00  0.88605468860E+03  0.88605468860E+03  0.00000000000E+00 0. -1.
          2   -1    0    0  501    0 -0.00000000000E+00 -0.00000000000E+00 -0.20022639530E+03  0.20022639530E+03  0.00000000000E+00 0. -1.
          2    1    1    2  501    0 -0.26622658845E+02 -0.27711219482E+02  0.88378956131E+03  0.88462459062E+03  0.00000000000E+00 0. -1.
          2    1    1    2  502    0  0.26622658845E+02  0.27711219482E+02 -0.19796126801E+03  0.20165649328E+03  0.00000000000E+00 0. -1.
</event>
<event>
 4    1  0.8104768E+003  0.2939449E+02  0.7546771E-02  0.1424932E+00
          2   -1    0    0  502    0  0.00000000000E+00  0.00000000000E+00  0.81159519251E+01  0.81159519251E+01  0.00000000000E+00 0. -1.
          2   -1    0    0  501    0 -0.00000000000E+00 -0.00000000000E+00 -0.14173799359E+03  0.14173799359E+03  0.00000000000E+00 0. -1.
          2    1    1    2  501    0 -0.25304862606E+02 -0.14956594263E+02 -0.29431112590E+02  0.41595987448E+02  0.00000000000E+00 0. -1.
          2    1    1    2  502    0  0.25304862606E+02  0.14956594263E+02 -0.10419092908E+03  0.10825795807E+03  0.00000000000E+00 0. -1.
</event>
<event>
 4    1  0.8104768E+003  0.2659415E+02  0.7546771E-02  0.1451728E+00
          2   -1    0    0  502    0  0.00000000000E+00  0.00000000000E+00  0.27926915459E+03  0.27926915459E+03  0.00000000000E+00 0. -1.
          2   -1    0    0  501    0 -0.00000000000E+00 -0.00000000000E+00 -0.11537920483E+02  0.11537920483E+02  0.00000000000E+00 0.  1.
          2    1    1    2  501    0 -0.56374844131E+01  0.25989755759E+02  0.26232423429E+03  0.26366883117E+03  0.00000000000E+00 0. -1.
          2    1    1    2  502    0  0.56374844131E+01 -0.25989755759E+02  0.54069998138E+01  0.27138243899E+02  0.00000000000E+00 0.  1.
</event>
<event>
 4    1  0.8104768E+003  0.2085511E+02  0.7546771E-02  0.1521344E+00
          2   -1    0    0  501    0  0.00000000000E+00  0.00000000000E+00  0.97137060365E+01  0.97137060365E+01  0.00000000000E+00 0.  1.
          2   -1    0    0  502    0 -0.00000000000E+00 -0.00000000000E+00 -0.67459150864E+02  0.67459150864E+02  0.00000000000E+00 0. -1.
          2    1    1    2  501    0 -0.38651459036E+01 -0.20493811017E+02 -0.64973114733E+01  0.21843779417E+02  0.00000000000E+00 0.  1.
          2    1    1    2  502    0  0.38651459036E+01  0.20493811017E+02 -0.51248133354E+02  0.55329077483E+02  0.00000000000E+00 0. -1.
</event>
<event>
 4    1  0.8104768E+003  0.3033597E+02  0.7546771E-02  0.1416699E+00
          2   -1    0    0  502    0  0.00000000000E+00  0.00000000000E+00  0.29705603323E+01  0.29705603323E+01  0.00000000000E+00 0.  1.
          2   -1    0    0  501    0 -0.00000000000E+00 -0.00000000000E+00 -0.18445271914E+04  0.18445271914E+04  0.00000000000E+00 0.  1.
          2    1    1    2  501    0 -0.10466338683E+02  0.28473263658E+02 -0.78166789371E+02  0.83846991296E+02  0.00000000000E+00 0.  1.
          2    1    1    2  502    0  0.10466338683E+02 -0.28473263658E+02 -0.17633898417E+04  0.17636507605E+04  0.00000000000E+00 0.  1.
</event>
<event>
 4    1  0.8104768E+003  0.2016076E+02  0.7546771E-02  0.1531592E+00
          2   -1    0    0  502    0  0.00000000000E+00  0.00000000000E+00  0.12047202884E+03  0.12047202884E+03  0.00000000000E+00 0. -1.
          2   -1    0    0  501    0 -0.00000000000E+00 -0.00000000000E+00 -0.60047928174E+02  0.60047928174E+02  0.00000000000E+00 0. -1.
          2    1    1    2  501    0 -0.19663521255E+02  0.44499608705E+01  0.11789969229E+03  0.11961100978E+03  0.00000000000E+00 0. -1.
          2    1    1    2  502    0  0.19663521255E+02 -0.44499608705E+01 -0.57475591624E+02  0.60908947228E+02  0.00000000000E+00 0. -1.
</event>
<event>
 4    1  0.8104768E+003  0.5030591E+02  0.7546771E-02  0.1296852E+00
          2   -1    0    0  501    0  0.00000000000E+00  0.00000000000E+00  0.16800462289E+04  0.16800462289E+04  0.00000000000E+00 0.  1.
          2   -1    0    0  502    0 -0.00000000000E+00 -0.00000000000E+00 -0.10892625599E+02  0.10892625599E+02  0.00000000000E+00 0. -1.
          2    1    1    2  501    0 -0.37475834666E+02 -0.33559589433E+02  0.49740638388E+02  0.70744719478E+02  0.00000000000E+00 0. -1.
          2    1    1    2  502    0  0.37475834666E+02  0.33559589433E+02  0.16194129649E+04  0.16201941350E+04  0.00000000000E+00 0.  1.
</event>
<event>
 4    1  0.8104768E+003  0.3280890E+02  0.7546771E-02  0.1396658E+00
          2   -1    0    0  501    0  0.00000000000E+00  0.00000000000E+00  0.27123810853E+03  0.27123810853E+03  0.00000000000E+00 0. -1.
          2   -1    0    0  502    0 -0.00000000000E+00 -0.00000000000E+00 -0.40208607163E+01  0.40208607163E+01  0.00000000000E+00 0.  1.
          2    1    1    2  501    0 -0.31473991945E+02 -0.92634567348E+01  0.11791151428E+03  0.12239096780E+03  0.00000000000E+00 0.  1.
          2    1    1    2  502    0  0.31473991945E+02  0.92634567348E+01  0.14930573354E+03  0.15286800145E+03  0.00000000000E+00 0. -1.
</event>
<event>
 4    1  0.1640038E+004  0.2086748E+02  0.7546771E-02  0.1521165E+00
          2   -1    0    0  502    0  0.00000000000E+00  0.00000000000E+00  0.11956228262E+04  0.11956228262E+04  0.00000000000E+00 0.  1.
          2   -1    0    0  501    0 -0.00000000000E+00 -0.00000000000E+00 -0.13447416309E+04  0.13447416309E+04  0.00000000000E+00 0.  1.
          2    1    1    2  501    0 -0.48501866007E+01  0.20295994311E+02  0.11954508088E+04  0.11956329236E+04  0.00000000000E+00 0.  1.
          2    1    1    2  502    0  0.48501866007E+01 -0.20295994311E+02 -0.13445696135E+04  0.13447315335E+04  0.00000000000E+00 0.  1.
</event>
<event>
 4    1  0.8104768E+003  0.2466438E+02  0.7546771E-02  0.1472593E+00
          2   -1    0    0  502    0  0.00000000000E+00  0.00000000000E+00  0.17446206824E+01  0.17446206824E+01  0.00000000000E+00 0.  1.
          2   -1    0    0  501    0 -0.00000000000E+00 -0.00000000000E+00 -0.66208446764E+03  0.66208446764E+03  0.00000000000E+00 0.  1.
          2    1    1    2  501    0  0.24664370561E+02  0.18246667219E-01 -0.10181238318E+03  0.10475730465E+03  0.00000000000E+00 0.  1.
          2    1    1    2  502    0 -0.24664370561E+02 -0.18246667219E-01 -0.55852746378E+03  0.55907178367E+03  0.00000000000E+00 0.  1.
</event>
<event>
 4    1  0.8104768E+003  0.2201285E+02  0.7546771E-02  0.1505280E+00
          2   -1    0    0  501    0  0.00000000000E+00  0.00000000000E+00  0.46858354524E+00  0.46858354524E+00  0.00000000000E+00 0.  1.
          2   -1    0    0  502    0 -0.00000000000E+00 -0.00000000000E+00 -0.11057145131E+04  0.11057145131E+04  0.00000000000E+00 0.  1.
          2    1    1    2  501    0 -0.21651926780E+02  0.39698367071E+01 -0.69337501562E+03  0.69372435291E+03  0.00000000000E+00 0.  1.
          2    1    1    2  502    0  0.21651926780E+02 -0.39698367071E+01 -0.41187091392E+03  0.41245874372E+03  0.00000000000E+00 0.  1.
</event>
<event>
 4    1  0.8104768E+003  0.2142715E+02  0.7546771E-02  0.1513253E+00
          2   -1    0    0  502    0  0.00000000000E+00  0.00000000000E+00  0.47962083898E+03  0.47962083898E+03  0.00000000000E+00 0.  1.
          2   -1    0    0  501    0 -0.00000000000E+00 -0.00000000000E+00 -0.10945268196E+01  0.10945268196E+01  0.00000000000E+00 0. -1.
          2    1    1    2  501    0  0.13630921614E+02  0.16532414123E+02  0.32438178781E+03  0.32508870637E+03  0.00000000000E+00 0.  1.
          2    1    1    2  502    0 -0.13630921614E+02 -0.16532414123E+02  0.15414452435E+03  0.15562665944E+03  0.00000000000E+00 0. -1.
</event>
<event>
 4    1  0.8104768E+003  0.2934221E+02  0.7546771E-02  0.1425400E+00
          2   -1    0    0  501    0  0.00000000000E+00  0.00000000000E+00  0.82220133139E+03  0.82220133139E+03  0.00000000000E+00 0.  1.
          2   -1    0    0  502    0 -0.00000000000E+00 -0.00000000000E+00 -0.19497489693E+01  0.19497489693E+01  0.00000000000E+00 0.  1.
          2    1    1    2  501    0  0.10297015867E+02 -0.27476116614E+02  0.12975312891E+03  0.13302947035E+03  0.00000000000E+00 0.  1.
          2    1    1    2  502    0 -0.10297015867E+02  0.27476116614E+02  0.69049845351E+03  0.69112161001E+03  0.00000000000E+00 0.  1.
</event>
<event>
 4    1  0.8104768E+003  0.3539165E+02  0.7546771E-02  0.1377831E+00
          2   -1    0    0  501    0  0.00000000000E+00  0.00000000000E+00  0.61660022661E+01  0.61660022661E+01  0.00000000000E+00 0. -1.
          2   -1    0    0  502    0 -0.00000000000E+00 -0.00000000000E+00 -0.95121189587E+03  0.95121189587E+03  0.00000000000E+00 0.  1.
          2    1    1    2  501    0 -0.35294233122E+02  0.26240878970E+01 -0.89703116642E+03  0.89772906951E+03  0.00000000000E+00 0.  1.
          2    1    1    2  502    0  0.35294233122E+02 -0.26240878970E+01 -0.48014727185E+02  0.59648828619E+02  0.00000000000E+00 0. -1.
</event>
<event>
 4    1  0.8104768E+003  0.4748411E+02  0.7546771E-02  0.1309465E+00
          2   -1    0    0  501    0  0.00000000000E+00  0.00000000000E+00  0.11148427735E+03  0.11148427735E+03  0.00000000000E+00 0. -1.
          2   -1    0    0  502    0 -0.00000000000E+00 -0.00000000000E+00 -0.17837408549E+04  0.17837408549E+04  0.00000000000E+00 0. -1.
          2    1    1    2  501    0  0.47072451583E+02 -0.62389764248E+01 -0.17783533421E+04  0.17789871697E+04  0.00000000000E+00 0. -1.
          2    1    1    2  502    0 -0.47072451583E+02  0.62389764248E+01  0.10609676448E+03  0.11623796264E+03  0.00000000000E+00 0. -1.
</event>
<event>
 4    1  0.8104768E+003  0.2017441E+02  0.7546771E-02  0.1531386E+00
          2   -1    0    0  502    0  0.00000000000E+00  0.00000000000E+00  0.76724301480E+03  0.76724301480E+03  0.00000000000E+00 0. -1.
          2   -1    0    0  501    0 -0.00000000000E+00 -0.00000000000E+00 -0.11507854114E+01  0.11507854114E+01  0.00000000000E+00 0. -1.
          2    1    1    2  501    0 -0.83933674083E+01  0.18345527080E+02  0.66511781116E+03  0.66542370690E+03  0.00000000000E+00 0. -1.
          2    1    1    2  502    0  0.83933674083E+01 -0.18345527080E+02  0.10097441823E+03  0.10297009331E+03  0.00000000000E+00 0. -1.
</event>
<event>
 4    1  0.8104768E+003  0.6280004E+02  0.7546771E-02  0.1250605E+00
          2   -1    0    0  502    0  0.00000000000E+00  0.00000000000E+00  0.38223886358E+03  0.38223886358E+03  0.00000000000E+00 0.  1.
          2   -1    0    0  501    0 -0.00000000000E+00 -0.00000000000E+00 -0.56145232494E+02  0.56145232494E+02  0.00000000000E+00 0. -1.
          2    1    1    2  501    0 -0.42639251104E+02  0.46105744468E+02  0.36107697981E+03  0.36649751808E+03  0.00000000000E+00 0.  1.
          2    1    1    2  502    0  0.42639251104E+02 -0.46105744468E+02 -0.34983348726E+02  0.71886577995E+02  0.00000000000E+00 0. -1.
</event>
<event>
 4    1  0.8104768E+003  0.2607109E+02  0.7546771E-02  0.1457169E+00
          2   -1    0    0  501    0  0.00000000000E+00  0.00000000000E+00  0.29898321427E+03  0.29898321427E+03  0.00000000000E+00 0.  1.
          2   -1    0    0  502    0 -0.00000000000E+00 -0.00000000000E+00 -0.29874449218E+01  0.29874449218E+01  0.00000000000E+00 0. -1.
          2    1    1    2  501    0  0.14477492693E+02  0.21681876616E+02  0.74181196922E+02  0.78629202877E+02  0.00000000000E+00 0. -1.
          2    1    1    2  502    0 -0.14477492693E+02 -0.21681876616E+02  0.22181457243E+03  0.22334145631E+03  0.00000000000E+00 0.  1.
</event>
<event>
 4    1  0.8104768E+003  0.2076631E+02  0.7546771E-02  0.1522628E+00
          2   -1    0    0  501    0  0.00000000000E+00  0.00000000000E+00  0.86375780008E+02  0.86375780008E+02  0.00000000000E+00 0. -1.
          2   -1    0    0  502    0 -0.00000000000E+00 -0.00000000000E+00 -0.40381522471E+03  0.40381522471E+03  0.00000000000E+00 0.  1.
          2    1    1    2  501    0 -0.12632454050E+02  0.16482133857E+02 -0.40229538437E+03  0.40283100168E+03  0.00000000000E+00 0.  1.
          2    1    1    2  502    0  0.12632454050E+02 -0.16482133857E+02  0.84855939672E+02  0.87360003030E+02  0.00000000000E+00 0. -1.
</event>
<event>
 4    1  0.8104768E+003  0.3469423E+02  0.7546771E-02  0.1382726E+00
          2   -1    0    0  501    0  0.00000000000E+00  0.00000000000E+00  0.52544398986E+03  0.52544398986E+03  0.00000000000E+00 0.  1.
          2   -1    0    0  502    0 -0.00000000000E+00 -0.00000000000E+00 -0.31916470725E+02  0.31916470725E+02  0.00000000000E+00 0. -1.
          2    1    1    2  501    0  0.20476345401E+01  0.34633750511E+02 -0.21729132143E+02  0.40937081789E+02  0.00000000000E+00 0. -1.
          2    1    1    2  502    0 -0.20476345401E+01 -0.34633750511E+02  0.51525665128E+03  0.51642337880E+03  0.00000000000E+00 0.  1.
</event>
<event>
 4    1  0.8104768E+003  0.2202419E+02  0.7546771E-02  0.1505129E+00
          2   -1    0    0  502    0  0.00000000000E+00  0.00000000000E+00  0.83041519408E+03  0.83041519408E+03  0.00000000000E+00 0. -1.
          2   -1    0    0  501    0 -0.00000000000E+00 -0.00000000000E+00 -0.58924055985E+00  0.58924055985E+00  0.00000000000E+00 0. -1.
          2    1    1    2  501    0 -0.52602176810E+01 -0.21386792012E+02  0.37619158834E+03  0.37683574128E+03  0.00000000000E+00 0. -1.
          2    1    1    2  502    0  0.52602176810E+01  0.21386792012E+02  0.45363436517E+03  0.45416869336E+03  0.00000000000E+00 0. -1.
</event>
<event>
 4    1  0.8104768E+003  0.2183849E+02  0.7546771E-02  0.1507622E+00
          2   -1    0    0  502    0  0.00000000000E+00  0.00000000000E+00  0.72049197617E+03  0.72049197617E+03  0.00000000000E+00 0. -1.
          2   -1    0    0  501    0 -0.00000000000E+00 -0.00000000000E+00 -0.44020223827E+01  0.44020223827E+01  0.00000000000E+00 0. -1.
          2    1    1    2  501    0  0.67195887513E+01  0.20779002687E+02  0.69213167308E+03  0.69247611706E+03  0.00000000000E+00 0. -1.
          2    1    1    2  502    0 -0.67195887513E+01 -0.20779002687E+02  0.23958280706E+02  0.32417881486E+02  0.00000000000E+00 0. -1.
</event>
<event>
 4    1  0.8104768E+003  0.2890390E+02  0.7546771E-02  0.1429367E+00
          2   -1    0    0  502    0  0.00000000000E+00  0.00000000000E+00  0.19281500317E+03  0.19281500317E+03  0.00000000000E+00 0. -1.
          2   -1    0    0  501    0 -0.00000000000E+00 -0.00000000000E+00 -0.20096151238E+02  0.20096151238E+02  0.00000000000E+00 0.  1.
          2    1    1    2  501    0 -0.17912378239E+02  0.22684400004E+02  0.18064294618E+03  0.18294072619E+03  0.00000000000E+00 0. -1.
          2    1    1    2  502    0  0.17912378239E+02 -0.22684400004E+02 -0.79240942431E+01  0.29970428214E+02  0.00000000000E+00 0.  1.
</event>
<event>
 4    1  0.8104768E+003  0.2384470E+02  0.7546771E-02  0.1482155E+00
          2   -1    0    0  502    0  0.00000000000E+00  0.00000000000E+00  0.24859108171E+01  0.24859108171E+01  0.00000000000E+00 0. -1.
          2   -1    0    0  501    0 -0.00000000000E+00 -0.00000000000E+00 -0.64160237833E+03  0.64160237833E+03  0.00000000000E+00 0.  1.
          2    1    1    2  501    0 -0.19303280887E+02  0.13998316328E+02 -0.61214880167E+02  0.65694985096E+02  0.00000000000E+00 0. -1.
          2    1    1    2  502    0  0.19303280887E+02 -0.13998316328E+02 -0.57790158735E+03  0.57839330405E+03  0.00000000000E+00 0.  1.
</event>
<event>
 4    1  0.8104768E+003  0.2792385E+02  0.7546771E-02  0.1438542E+00
          2   -1    0    0  501    0  0.00000000000E+00  0.00000000000E+00  0.39284636653E+02  0.39284636653E+02  0.00000000000E+00 0.  1.
          2   -1    0    0  502    0 -0.00000000000E+00 -0.00000000000E+00 -0.11825069090E+04  0.11825069090E+04  0.00000000000E+00 0. -1.
          2    1    1    2  501    0  0.46147660965E+01 -0.27539888981E+02 -0.11773582353E+04  0.11776893290E+04  0.00000000000E+00 0. -1.
          2    1    1    2  502    0 -0.46147660965E+01  0.27539888981E+02  0.34135962893E+02  0.44102216654E+02  0.00000000000E+00 0.  1.
</event>
<event>
 4    1  0.8104768E+003  0.2883612E+02  0.7546771E-02  0.1429987E+00
          2   -1    0    0  502    0  0.00000000000E+00  0.00000000000E+00  0.30596692633E+01  0.30596692633E+01  0.00000000000E+00 0. -1.
          2   -1    0    0  501    0 -0.00000000000E+00 -0.00000000000E+00 -0.34313881021E+03  0.34313881021E+03  0.00000000000E+00 0.  1.
          2    1    1    2  501    0 -0.84855103751E+01  0.27559348548E+02 -0.91095561214E+02  0.95550629782E+02  0.00000000000E+00 0. -1.
          2    1    1    2  502    0  0.84855103751E+01 -0.27559348548E+02 -0.24898357973E+03  0.25064784969E+03  0.00000000000E+00 0.  1.
</event>
<event>
 4    1  0.8104768E+003  0.2024182E+02  0.7546771E-02  0.1530371E+00
          2   -1    0    0  502    0  0.00000000000E+00  0.00000000000E+00  0.54704177241E+03  0.54704177241E+03  0.00000000000E+00 0.  1.
          2   -1    0    0  501    0 -0.00000000000E+00 -0.00000000000E+00 -0.54563871443E+01  0.54563871443E+01  0.00000000000E+00 0.  1.
          2    1    1    2  501    0  0.14612640255E+02 -0.14007218872E+02  0.52738193857E+03  0.52777025358E+03  0.00000000000E+00 0.  1.
          2    1    1    2  502    0 -0.14612640255E+02  0.14007218872E+02  0.14203446697E+02  0.24727905974E+02  0.00000000000E+00 0.  1.
</event>
<event>
 4    1  0.9254076E+003  0.2183950E+02  0.7546771E-02  0.1507608E+00
          2   -1    0    0  501    0  0.00000000000E+00  0.00000000000E+00  0.33134421541E+03  0.33134421541E+03  0.00000000000E+00 0. -1.
          2   -1    0    0  502    0 -0.00000000000E+00 -0.00000000000E+00 -0.15566588446E+04  0.15566588446E+04  0.00000000000E+00 0.  1.
          2    1    1    2  501    0  0.12602870537E+02 -0.17836233443E+02 -0.15562222730E+04  0.15563755095E+04  0.00000000000E+00 0.  1.
          2    1    1    2  502    0 -0.12602870537E+02  0.17836233443E+02  0.33090764378E+03  0.33162755055E+03  0.00000000000E+00 0. -1.
</event>
<event>
 4    1  0.8104768E+003  0.2688525E+02  0.7546771E-02  0.1448764E+00
          2   -1    0    0  501    0  0.00000000000E+00  0.00000000000E+00  0.62358285840E+02  0.62358285840E+02  0.00000000000E+00 0. -1.
          2   -1    0    0  502    0 -0.00000000000E+00 -0.00000000000E+00 -0.54175204653E+03  0.54175204653E+03  0.00000000000E+00 0. -1.
          2    1    1    2  501    0 -0.25658958467E+01 -0.26762523931E+02 -0.53850318266E+03  0.53917389981E+03  0.00000000000E+00 0. -1.
          2    1    1    2  502    0  0.25658958467E+01  0.26762523931E+02  0.59109421964E+02  0.64936432560E+02  0.00000000000E+00 0. -1.
</event>
<event>
 4    1  0.8104768E+003  0.3077925E+02  0.7546771E-02  0.1412943E+00
          2   -1    0    0  502    0  0.00000000000E+00  0.00000000000E+00  0.36107007724E+02  0.36107007724E+02  0.00000000000E+00 0. -1.
          2   -1    0    0  501    0 -0.00000000000E+00 -0.00000000000E+00 -0.10704937764E+04  0.10704937764E+04  0.00000000000E+00 0.  1.
          2    1    1    2  501    0  0.28856375926E+01 -0.30643684443E+02  0.29284290774E+02  0.42484491131E+02  0.00000000000E+00 0. -1.
          2    1    1    2  502    0 -0.28856375926E+01  0.30643684443E+02 -0.10636710594E+04  0.10641162930E+04  0.00000000000E+00 0.  1.
</event>
<event>
 4    1  0.8104768E+003  0.2346569E+02  0.7546771E-02  0.1486732E+00
          2   -1    0    0  502    0  0.00000000000E+00  0.00000000000E+00  0.74439875083E+02  0.74439875083E+02  0.00000000000E+00 0. -1.
          2   -1    0    0  501    0 -0.00000000000E+00 -0.00000000000E+00 -0.24354148476E+03  0.24354148476E+03  0.00000000000E+00 0.  1.
          2    1    1    2  501    0 -0.17881340765E+02 -0.15195265801E+02  0.72006743837E+02  0.75733807565E+02  0.00000000000E+00 0. -1.
          2    1    1    2  502    0  0.17881340765E+02  0.15195265801E+02 -0.24110835351E+03  0.24224755228E+03  0.00000000000E+00 0.  1.
</event>
<event>
 4    1  0.8104768E+003  0.5927403E+02  0.7546771E-02  0.1262319E+00
          2   -1    0    0  501    0  0.00000000000E+00  0.00000000000E+00  0.89703303111E+02  0.89703303111E+02  0.00000000000E+00 0. -1.
          2   -1    0    0  502    0 -0.00000000000E+00 -0.00000000000E+00 -0.30382022834E+03  0.30382022834E+03  0.00000000000E+00 0. -1.
          2    1    1    2  501    0 -0.59206643990E+02  0.28256720658E+01 -0.29070001253E+03  0.29668149319E+03  0.00000000000E+00 0. -1.
          2    1    1    2  502    0  0.59206643990E+02 -0.28256720658E+01  0.76583087299E+02  0.96842038266E+02  0.00000000000E+00 0. -1.
</event>
<event>
 4    1  0.8104768E+003  0.2785605E+02  0.7546771E-02  0.1439193E+00
          2   -1    0    0  501    0  0.00000000000E+00  0.00000000000E+00  0.17183084052E+01  0.17183084052E+01  0.00000000000E+00 0. -1.
          2   -1    0    0  502    0 -0.00000000000E+00 -0.00000000000E+00 -0.11028546199E+04  0.11028546199E+04  0.00000000000E+00 0. -1.
          2    1    1    2  501    0  0.27828652589E+02 -0.12351652943E+01 -0.97497874573E+03  0.97537660120E+03  0.00000000000E+00 0. -1.
          2    1    1    2  502    0 -0.27828652589E+02  0.12351652943E+01 -0.12615756572E+03  0.12919632707E+03  0.00000000000E+00 0. -1.
</event>
<event>
 4    1  0.8104768E+003  0.2092386E+02  0.7546771E-02  0.1520355E+00
          2   -1    0    0  501    0  0.00000000000E+00  0.00000000000E+00  0.29309464297E+01  0.29309464297E+01  0.00000000000E+00 0.  1.
          2   -1    0    0  502    0 -0.00000000000E+00 -0.00000000000E+00 -0.15345237553E+03  0.15345237553E+03  0.00000000000E+00 0.  1.
          2    1    1    2  501    0 -0.63554754827E+01 -0.19935289930E+02 -0.62513795579E+02  0.65922549184E+02  0.00000000000E+00 0.  1.
          2    1    1    2  502    0  0.63554754827E+01  0.19935289930E+02 -0.88007633525E+02  0.90460772780E+02  0.00000000000E+00 0.  1.
</event>
<event>
 4    1  0.8104768E+003  0.2341762E+02  0.7546771E-02  0.1487320E+00
          2   -1    0    0  501    0  0.00000000000E+00  0.00000000000E+00  0.11193164027E+02  0.11193164027E+02  0.00000000000E+00 0. -1.
          2   -1    0    0  502    0 -0.00000000000E+00 -0.00000000000E+00 -0.32790123223E+03  0.32790123223E+03  0.00000000000E+00 0.  1.
          2    1    1    2  501    0  0.11196023538E+02 -0.20567790670E+02 -0.31472275356E+03  0.31559277014E+03  0.00000000000E+00 0.  1.
          2    1    1    2  502    0 -0.11196023538E+02  0.20567790670E+02 -0.19853146469E+01  0.23501626121E+02  0.00000000000E+00 0. -1.
</event>
<event>
 4    1  0.8104768E+003  0.2250686E+02  0.7546771E-02  0.1498785E+00
          2   -1    0    0  502    0  0.00000000000E+00  0.00000000000E+00  0.10607634040E+04  0.10607634040E+04  0.00000000000E+00 0.  1.
          2   -1    0    0  501    0 -0.00000000000E+00 -0.00000000000E+00 -0.12825808950E+01  0.12825808950E+01  0.00000000000E+00 0. -1.
          2    1    1    2  501    0  0.11512160471E+02 -0.19339826367E+02  0.95044714649E+03  0.95071359356E+03  0.00000000000E+00 0.  1.
          2    1    1    2  502    0 -0.11512160471E+02  0.19339826367E+02  0.10903367663E+03  0.11133239134E+03  0.00000000000E+00 0. -1.
</event>
<event>
 4    1  0.8104768E+003  0.2747247E+02  0.7546771E-02  0.1442919E+00
          2   -1    0    0  502    0  0.00000000000E+00  0.00000000000E+00  0.23625480160E+03  0.23625480160E+03  0.00000000000E+00 0. -1.
          2   -1    0    0  501    0 -0.00000000000E+00 -0.00000000000E+00 -0.10493931071E+03  0.10493931071E+03  0.00000000000E+00 0. -1.
          2    1    1    2  501    0 -0.26874071020E+02  0.57027165835E+01  0.23363805454E+03  0.23524769329E+03  0.00000000000E+00 0. -1.
          2    1    1    2  502    0  0.26874071020E+02 -0.57027165835E+01 -0.10232256365E+03  0.10594641902E+03  0.00000000000E+00 0. -1.
</event>
<event>
 4    1  0.8104768E+003  0.2426986E+02  0.7546771E-02  0.1477140E+00
          2   -1    0    0  501    0  0.00000000000E+00  0.00000000000E+00  0.61407104056E+01  0.61407104056E+01  0.00000000000E+00 0.  1.
          2   -1    0    0  502    0 -0.00000000000E+00 -0.00000000000E+00 -0.12695481369E+04  0.12695481369E+04  0.00000000000E+00 0.  1.
          2    1    1    2  501    0 -0.24095299538E+02 -0.29056236920E+01 -0.12449785662E+04  0.12452151045E+04  0.00000000000E+00 0.  1.
          2    1    1    2  502    0  0.24095299538E+02  0.29056236920E+01 -0.18428860226E+02  0.30473742765E+02  0.00000000000E+00 0.  1.
</event>
<event>
 4    1  0.8104768E+003  0.2065455E+02  0.7546771E-02  0.1524255E+00
          2   -1    0    0  501    0  0.00000000000E+00  0.00000000000E+00  0.95251023342E+01  0.95251023342E+01  0.00000000000E+00 0. -1.
          2   -1    0    0  502    0 -0.00000000000E+00 -0.00000000000E+00 -0.62390988977E+02  0.62390988977E+02  0.00000000000E+00 0.  1.
          2    1    1    2  501    0 -0.19114733860E+01 -0.20565906438E+02 -0.45532725379E+02  0.49998393160E+02  0.00000000000E+00 0.  1.
          2    1    1    2  502    0  0.19114733860E+01  0.20565906438E+02 -0.73331612635E+01  0.21917698151E+02  0.00000000000E+00 0. -1.
</event>
<event>
 4    1  0.8104768E+003  0.2331929E+02  0.7546771E-02  0.1488527E+00
          2   -1    0    0  502    0  0.00000000000E+00  0.00000000000E+00  0.14734988653E+02  0.14734988653E+02  0.00000000000E+00 0.  1.
          2   -1    0    0  501    0 -0.00000000000E+00 -0.00000000000E+00 -0.10078962509E+04  0.10078962509E+04  0.00000000000E+00 0.  1.
          2    1    1    2  501    0 -0.11594099863E+02 -0.20232797311E+02  0.52866546084E+01  0.23911042545E+02  0.00000000000E+00 0.  1.
          2    1    1    2  502    0  0.11594099863E+02  0.20232797311E+02 -0.99844791681E+03  0.99872019696E+03  0.00000000000E+00 0.  1.
</event>
<event>
 4    1  0.8104768E+003  0.2977733E+02  0.7546771E-02  0.1421541E+00
          2   -1    0    0  501    0  0.00000000000E+00  0.00000000000E+00  0.10027906525E+03  0.10027906525E+03  0.00000000000E+00 0. -1.
          2   -1    0    0  502    0 -0.00000000000E+00 -0.00000000000E+00 -0.33205336721E+03  0.33205336721E+03  0.00000000000E+00 0. -1.
          2    1    1    2  501    0 -0.16527721683E+02 -0.24769416562E+02 -0.32915581168E+03  0.33049998176E+03  0.00000000000E+00 0. -1.
          2    1    1    2  502    0  0.16527721683E+02  0.24769416562E+02  0.97381509718E+02  0.10183245070E+03  0.00000000000E+00 0. -1.
</event>
<event>
 4    1  0.8104768E+003  0.3801288E+02  0.7546771E-02  0.1360541E+00
          2   -1    0    0  501    0  0.00000000000E+00  0.00000000000E+00  0.13300937152E+03  0.13300937152E+03  0.00000000000E+00 0.  1.
          2   -1    0    0  502    0 -0.00000000000E+00 -0.00000000000E+00 -0.66025743145E+03  0.66025743145E+03  0.00000000000E+00 0. -1.
          2    1    1    2  501    0  0.37745595234E+02 -0.44998777270E+01 -0.65698083607E+03  0.65807962878E+03  0.00000000000E+00 0. -1.
          2    1    1    2  502    0 -0.37745595234E+02  0.44998777270E+01  0.12973277614E+03  0.13518717419E+03  0.00000000000E+00 0.  1.
</event>
<event>
 4    1  0.8104768E+003  0.2655554E+02  0.7546771E-02  0.1452125E+00
          2   -1    0    0  502    0  0.00000000000E+00  0.00000000000E+00  0.44979270281E+01  0.44979270281E+01  0.00000000000E+00 0.  1.
          2   -1    0    0  501    0 -0.00000000000E+00 -0.00000000000E+00 -0.83566017751E+03  0.83566017751E+03  0.00000000000E+00 0.  1.
          2    1    1    2  501    0  0.23426666897E+02  0.12505528594E+02 -0.36953859693E+02  0.45505875594E+02  0.00000000000E+00 0.  1.
          2    1    1    2  502    0 -0.23426666897E+02 -0.12505528594E+02 -0.79420839079E+03  0.79465222895E+03  0.00000000000E+00 0.  1.
</event>
<event>
 4    1  0.8104768E+003  0.2403303E+02  0.7546771E-02  0.1479918E+00
          2   -1    0    0  502    0  0.00000000000E+00  0.00000000000E+00  0.25883067345E+02  0.25883067345E+02  0.00000000000E+00 0.  1.
          2   -1    0    0  501    0 -0.00000000000E+00 -0.00000000000E+00 -0.40917177468E+02  0.40917177468E+02  0.00000000000E+00 0. -1.
          2    1    1    2  501    0 -0.23906009335E+02  0.24676491039E+01  0.15003259028E+02  0.28331684664E+02  0.00000000000E+00 0.  1.
          2    1    1    2  502    0  0.23906009335E+02 -0.24676491039E+01 -0.30037369150E+02  0.38468560149E+02  0.00000000000E+00 0. -1.
</event>
<event>
 4    1  0.8104768E+003  0.3097458E+02  0.7546771E-02  0.1411312E+00
          2   -1    0    0  502    0  0.00000000000E+00  0.00000000000E+00  0.63298493291E+02  0.63298493291E+02  0.00000000000E+00 0.  1.
          2   -1    0    0  501    0 -0.00000000000E+00 -0.00000000000E+00 -0.44981299837E+02  0.44981299837E+02  0.00000000000E+00 0. -1.
          2    1    1    2  501    0  0.18825570552E+02  0.24597200551E+02  0.53243054214E+02  0.61597461016E+02  0.00000000000E+00 0.  1.
          2    1    1    2  502    0 -0.18825570552E+02 -0.24597200551E+02 -0.34925860760E+02  0.46682332112E+02  0.00000000000E+00 0. -1.
</event>
<event>
 4    1  0.8104768E+003  0.2103910E+02  0.7546771E-02  0.1518707E+00
          2   -1    0    0  502    0  0.00000000000E+00  0.00000000000E+00  0.14347566190E+02  0.14347566190E+02  0.00000000000E+00 0. -1.
          2   -1    0    0  501    0 -0.00000000000E+00 -0.00000000000E+00 -0.80451902008E+02  0.80451902008E+02  0.00000000000E+00 0. -1.
          2    1    1    2  501    0 -0.91105820970E+01 -0.18964198302E+02  0.41656127652E+01  0.21447513914E+02  0.00000000000E+00 0. -1.
          2    1    1    2  502    0  0.91105820970E+01  0.18964198302E+02 -0.70269948584E+02  0.73351954284E+02  0.00000000000E+00 0. -1.
</event>
<event>
 4    1  0.8104768E+003  0.2253195E+02  0.7546771E-02  0.1498461E+00
          2   -1    0    0  501    0  0.00000000000E+00  0.00000000000E+00  0.39883206284E+03  0.39883206284E+03  0.00000000000E+00 0. -1.
          2   -1    0    0  502    0 -0.00000000000E+00 -0.00000000000E+00 -0.18462526700E+03  0.18462526700E+03  0.00000000000E+00 0.  1.
          2    1    1    2  501    0  0.17743931575E+02 -0.13886741639E+02 -0.18361783456E+03  0.18499512931E+03  0.00000000000E+00 0.  1.
          2    1    1    2  502    0 -0.17743931575E+02  0.13886741639E+02  0.39782463039E+03  0.39846220053E+03  0.00000000000E+00 0. -1.
</event>
<event>
 4    1  0.8104768E+003  0.3050497E+02  0.7546771E-02  0.1415258E+00
          2   -1    0    0  502    0  0.00000000000E+00  0.00000000000E+00  0.17986103293E+02  0.17986103293E+02  0.00000000000E+00 0.  1.
          2   -1    0    0  501    0 -0.00000000000E+00 -0.00000000000E+00 -0.60997130969E+02  0.60997130969E+02  0.00000000000E+00 0.  1.
          2    1    1    2  501    0  0.27489037977E+02  0.13225200536E+02 -0.61186252399E+01  0.31112549123E+02  0.00000000000E+00 0.  1.
          2    1    1    2  502    0 -0.27489037977E+02 -0.13225200536E+02 -0.36892402436E+02  0.47870685139E+02  0.00000000000E+00 0.  1.
</event>
<event>
 4    1  0.8104768E+003  0.2478619E+02  0.7546771E-02  0.1471210E+00
          2   -1    0    0  502    0  0.00000000000E+00  0.00000000000E+00  0.17747104400E+03  0.17747104400E+03  0.00000000000E+00 0. -1.
          2   -1    0    0  501    0 -0.00000000000E+00 -0.00000000000E+00 -0.11126798550E+02  0.11126798550E+02  0.00000000000E+00 0. -1.
          2    1    1    2  501    0 -0.11127676648E+02  0.22147907845E+02  0.16143934582E+03  0.16333100559E+03  0.00000000000E+00 0. -1.
          2    1    1    2  502    0  0.11127676648E+02 -0.22147907845E+02  0.49048996309E+01  0.25266836958E+02  0.00000000000E+00 0. -1.
</event>
<event>
 4    1  0.8104768E+003  0.2348585E+02  0.7546771E-02  0.1486486E+00
          2   -1    0    0  502    0  0.00000000000E+00  0.00000000000E+00  0.23660349340E+02  0.23660349340E+02  0.00000000000E+00 0.  1.
          2   -1    0    0  501    0 -0.00000000000E+00 -0.00000000000E+00 -0.26096465764E+03  0.26096465764E+03  0.00000000000E+00 0. -1.
          2    1    1    2  501    0  0.19570841398E+01 -0.23404162026E+02  0.17155101374E+02  0.29084058892E+02  0.00000000000E+00 0.  1.
          2    1    1    2  502    0 -0.19570841398E+01  0.23404162026E+02 -0.25445940967E+03  0.25554094809E+03  0.00000000000E+00 0. -1.
</event>
<event>
 4    1  0.8104768E+003  0.5710260E+02  0.7546771E-02  0.1270008E+00
          2   -1    0    0  501    0  0.00000000000E+00  0.00000000000E+00  0.39667790979E+03  0.39667790979E+03  0.00000000000E+00 0.  1.
          2   -1    0    0  502    0 -0.00000000000E+00 -0.00000000000E+00 -0.92054349697E+03  0.92054349697E+03  0.00000000000E+00 0.  1.
          2    1    1    2  501    0 -0.40733693723E+02  0.40018411246E+02 -0.91759635528E+03  0.91937140388E+03  0.00000000000E+00 0.  1.
          2    1    1    2  502    0  0.40733693723E+02 -0.40018411246E+02  0.39373076810E+03  0.39785000288E+03  0.00000000000E+00 0.  1.
</event>
<event>
 4    1  0.8104768E+003  0.2582094E+02  0.7546771E-02  0.1459825E+00
          2   -1    0    0  501    0  0.00000000000E+00  0.00000000000E+00  0.53248804077E+01  0.53248804077E+01  0.00000000000E+00 0. -1.
          2   -1    0    0  502    0 -0.00000000000E+00 -0.00000000000E+00 -0.57632124030E+03  0.57632124030E+03  0.00000000000E+00 0.  1.
          2    1    1    2  501    0 -0.16021540269E+02 -0.20249231912E+02 -0.54279771188E+03  0.54341151733E+03  0.00000000000E+00 0.  1.
          2    1    1    2  502    0  0.16021540269E+02  0.20249231912E+02 -0.28198648011E+02  0.38234603375E+02  0.00000000000E+00 0. -1.
</event>
<event>
 4    1  0.8104768E+003  0.3009819E+02  0.7546771E-02  0.1418745E+00
          2   -1    0    0  501    0  0.00000000000E+00  0.00000000000E+00  0.43959235445E+01  0.43959235445E+01  0.00000000000E+00 0. -1.
          2   -1    0    0  502    0 -0.00000000000E+00 -0.00000000000E+00 -0.21411325270E+03  0.21411325270E+03  0.00000000000E+00 0. -1.
          2    1    1    2  501    0  0.11826127700E+02  0.27677493051E+02 -0.83693030128E+02  0.88940565604E+02  0.00000000000E+00 0. -1.
          2    1    1    2  502    0 -0.11826127700E+02 -0.27677493051E+02 -0.12602429903E+03  0.12956861064E+03  0.00000000000E+00 0. -1.
</event>
<event>
 4    1  0.8104768E+003  0.2292071E+02  0.7546771E-02  0.1493496E+00
          2   -1    0    0  502    0  0.00000000000E+00  0.00000000000E+00  0.43674466935E+01  0.43674466935E+01  0.00000000000E+00 0. -1.
          2   -1    0    0  501    0 -0.00000000000E+00 -0.00000000000E+00 -0.44952905112E+03  0.44952905112E+03  0.00000000000E+00 0.  1.
          2    1    1    2  501    0  0.13256035603E+02 -0.18698567554E+02 -0.28356390596E+02  0.36461538587E+02  0.00000000000E+00 0. -1.
          2    1    1    2  502    0 -0.13256035603E+02  0.18698567554E+02 -0.41680521383E+03  0.41743495923E+03  0.00000000000E+00 0.  1.
</event>
<event>
 4    1  0.8104768E+003  0.2584114E+02  0.7546771E-02  0.1459610E+00
          2   -1    0    0  502    0  0.00000000000E+00  0.00000000000E+00  0.10017817017E+02  0.10017817017E+02  0.00000000000E+00 0.  1.
          2   -1    0    0  501    0 -0.00000000000E+00 -0.00000000000E+00 -0.73069568957E+03  0.73069568957E+03  0.00000000000E+00 0. -1.
          2    1    1    2  501    0  0.72868759365E+01 -0.24792454679E+02 -0.72789764951E+01  0.26846747825E+02  0.00000000000E+00 0.  1.
          2    1    1    2  502    0 -0.72868759365E+01  0.24792454679E+02 -0.71339889605E+03  0.71386675876E+03  0.00000000000E+00 0. -1.
</event>
<event>
 4    1  0.8104768E+003  0.2126381E+02  0.7546771E-02  0.1515531E+00
          2   -1    0    0  501    0  0.00000000000E+00  0.00000000000E+00  0.34947020356E+02  0.34947020356E+02  0.00000000000E+00 0.  1.
          2   -1    0    0  502    0 -0.00000000000E+00 -0.00000000000E+00 -0.61180693617E+03  0.61180693617E+03  0.00000000000E+00 0.  1.
          2    1    1    2  501    0 -0.67451215880E+01 -0.20165641226E+02 -0.60836936793E+03  0.60874086242E+03  0.00000000000E+00 0.  1.
          2    1    1    2  502    0  0.67451215880E+01  0.20165641226E+02  0.31509452110E+02  0.38013094107E+02  0.00000000000E+00 0.  1.
</event>
<event>
 4    1  0.8104768E+003  0.3103030E+02  0.7546771E-02  0.1410849E+00
          2   -1    0    0  501    0  0.00000000000E+00  0.00000000000E+00  0.96477837217E+01  0.96477837217E+01  0.00000000000E+00 0.  1.
          2   -1    0    0  502    0 -0.00000000000E+00 -0.00000000000E+00 -0.23623233366E+03  0.23623233366E+03  0.00000000000E+00 0.  1.
          2    1    1    2  501    0 -0.20094597096E+02 -0.23645012173E+02 -0.20672033880E+03  0.20903630762E+03  0.00000000000E+00 0.  1.
          2    1    1    2  502    0  0.20094597096E+02  0.23645012173E+02 -0.19864211141E+02  0.36843809757E+02  0.00000000000E+00 0.  1.
</event>
<event>
 4    1  0.8104768E+003  0.2033312E+02  0.7546771E-02  0.1529003E+00
          2   -1    0    0  502    0  0.00000000000E+00  0.00000000000E+00  0.38256001496E+01  0.38256001496E+01  0.00000000000E+00 0. -1.
          2   -1    0    0  501    0 -0.00000000000E+00 -0.00000000000E+00 -0.10141905846E+04  0.10141905846E+04  0.00000000000E+00 0.  1.
          2    1    1    2  501    0  0.41757741990E+01 -0.19899716388E+02 -0.24057742812E+02  0.31499377640E+02  0.00000000000E+00 0. -1.
          2    1    1    2  502    0 -0.41757741990E+01  0.19899716388E+02 -0.98630724160E+03  0.98651680707E+03  0.00000000000E+00 0.  1.
</event>
<event>
 4    1  0.8104768E+003  0.2586534E+02  0.7546771E-02  0.1459351E+00
          2   -1    0    0  502    0  0.00000000000E+00  0.00000000000E+00  0.31424529101E+01  0.31424529101E+01  0.00000000000E+00 0. -1.
          2   -1    0    0  501    0 -0.00000000000E+00 -0.00000000000E+00 -0.85026566796E+03  0.85026566796E+03  0.00000000000E+00 0. -1.
          2    1    1    2  501    0 -0.14935331244E+02  0.21117567725E+02 -0.54120569786E+02  0.59983763303E+02  0.00000000000E+00 0. -1.
          2    1    1    2  502    0  0.14935331244E+02 -0.21117567725E+02 -0.79300264526E+03  0.79342435757E+03  0.00000000000E+00 0. -1.
</event>
<event>
 4    1  0.8104768E+003  0.2074121E+02  0.7546771E-02  0.1522992E+00
          2   -1    0    0  501    0  0.00000000000E+00  0.00000000000E+00  0.80750254933E+02  0.80750254933E+02  0.00000000000E+00 0.  1.
          2   -1    0    0  502    0 -0.00000000000E+00 -0.00000000000E+00 -0.12003283885E+04  0.12003283885E+04  0.00000000000E+00 0. -1.
          2    1    1    2  501    0 -0.48667826085E+01  0.20162152147E+02 -0.11989053297E+04  0.11990847291E+04  0.00000000000E+00 0. -1.
          2    1    1    2  502    0  0.48667826085E+01 -0.20162152147E+02  0.79327196105E+02  0.81993914372E+02  0.00000000000E+00 0.  1.
</event>
<event>
 4    1  0.8104768E+003  0.3612296E+02  0.7546771E-02  0.1372836E+00
          2   -1    0    0  502    0  0.00000000000E+00  0.00000000000E+00  0.76986005814E+02  0.76986005814E+02  0.00000000000E+00 0. -1.
          2   -1    0    0  501    0 -0.00000000000E+00 -0.00000000000E+00 -0.14401350931E+03  0.14401350931E+03  0.00000000000E+00 0. -1.
          2    1    1    2  501    0 -0.33762287202E+02 -0.12844303020E+02  0.70279978969E+02  0.79019893705E+02  0.00000000000E+00 0. -1.
          2    1    1    2  502    0  0.33762287202E+02  0.12844303020E+02 -0.13730748247E+03  0.14197962142E+03  0.00000000000E+00 0. -1.
</event>
<event>
 4    1  0.8104768E+003  0.4385134E+02  0.7546771E-02  0.1327284E+00
          2   -1    0    0  502    0  0.00000000000E+00  0.00000000000E+00  0.20064284179E+03  0.20064284179E+03  0.00000000000E+00 0.  1.
          2   -1    0    0  501    0 -0.00000000000E+00 -0.00000000000E+00 -0.98277113097E+02  0.98277113097E+02  0.00000000000E+00 0.  1.
          2    1    1    2  501    0 -0.30703512264E+02  0.31308696397E+02  0.19316834012E+03  0.19808318394E+03  0.00000000000E+00 0.  1.
          2    1    1    2  502    0  0.30703512264E+02 -0.31308696397E+02 -0.90802611420E+02  0.10083677095E+03  0.00000000000E+00 0.  1.
</event>
<event>
 4    1  0.8104768E+003  0.2349408E+02  0.7546771E-02  0.1486385E+00
          2   -1    0    0  502    0  0.00000000000E+00  0.00000000000E+00  0.19244379348E+01  0.19244379348E+01  0.00000000000E+00 0.  1.
          2   -1    0    0  501    0 -0.00000000000E+00 -0.00000000000E+00 -0.35839438630E+03  0.35839438630E+03  0.00000000000E+00 0. -1.
          2    1    1    2  501    0  0.88489990475E+01 -0.21763888373E+02 -0.97725249322E+02  0.10050968101E+03  0.00000000000E+00 0.  1.
          2    1    1    2  502    0 -0.88489990475E+01  0.21763888373E+02 -0.25874469904E+03  0.25980914322E+03  0.00000000000E+00 0. -1.
</event>
<event>
 4    1  0.8104768E+003  0.2585630E+02  0.7546771E-02  0.1459448E+00
          2   -1    0    0  502    0  0.00000000000E+00  0.00000000000E+00  0.18371013504E+02  0.18371013504E+02  0.00000000000E+00 0.  1.
          2   -1    0    0  501    0 -0.00000000000E+00 -0.00000000000E+00 -0.11794039162E+03  0.11794039162E+03  0.00000000000E+00 0.  1.
          2    1    1    2  501    0 -0.25396013581E+02 -0.48570429602E+01  0.68888065360E+01  0.26758251580E+02  0.00000000000E+00 0.  1.
          2    1    1    2  502    0  0.25396013581E+02  0.48570429602E+01 -0.10645818465E+03  0.10955315355E+03  0.00000000000E+00 0.  1.
</event>
<event>
 4    1  0.8104768E+003  0.2098788E+02  0.7546771E-02  0.1519438E+00
          2   -1    0    0  502    0  0.00000000000E+00  0.00000000000E+00  0.61370499061E+02  0.61370499061E+02  0.00000000000E+00 0.  1.
          2   -1    0    0  501    0 -0.00000000000E+00 -0.00000000000E+00 -0.53761374269E+03  0.53761374269E+03  0.00000000000E+00 0.  1.
          2    1    1    2  501    0 -0.20951916941E+02 -0.12281936462E+01  0.59364551555E+02  0.62965397358E+02  0.00000000000E+00 0.  1.
          2    1    1    2  502    0  0.20951916941E+02  0.12281936462E+01 -0.53560779518E+03  0.53601884439E+03  0.00000000000E+00 0.  1.
</event>
<event>
 4    1  0.8104768E+003  0.2569939E+02  0.7546771E-02  0.1461129E+00
          2   -1    0    0  501    0  0.00000000000E+00  0.00000000000E+00  0.70135002685E+02  0.70135002685E+02  0.00000000000E+00 0. -1.
          2   -1    0    0  502    0 -0.00000000000E+00 -0.00000000000E+00 -0.41948423935E+02  0.41948423935E+02  0.00000000000E+00 0.  1.
          2    1    1    2  501    0 -0.14061933074E+02  0.21510945913E+02 -0.35258779188E+02  0.43630726165E+02  0.00000000000E+00 0.  1.
          2    1    1    2  502    0  0.14061933074E+02 -0.21510945913E+02  0.63445357938E+02  0.68452700456E+02  0.00000000000E+00 0. -1.
</event>
<event>
 4    1  0.8104768E+003  0.2532251E+02  0.7546771E-02  0.1465228E+00
          2   -1    0    0  501    0  0.00000000000E+00  0.00000000000E+00  0.54839848192E+02  0.54839848192E+02  0.00000000000E+00 0. -1.
          2   -1    0    0  502    0 -0.00000000000E+00 -0.00000000000E+00 -0.18020193606E+02  0.18020193606E+02  0.00000000000E+00 0. -1.
          2    1    1    2  501    0 -0.68121661649E+01 -0.24389006943E+02 -0.31772297826E+01  0.25521051244E+02  0.00000000000E+00 0. -1.
          2    1    1    2  502    0  0.68121661649E+01  0.24389006943E+02  0.39996884368E+02  0.47338990554E+02  0.00000000000E+00 0. -1.
</event>
<event>
 4    1  0.8104768E+003  0.3190820E+02  0.7546771E-02  0.1403708E+00
          2   -1    0    0  501    0  0.00000000000E+00  0.00000000000E+00  0.92435381125E+03  0.92435381125E+03  0.00000000000E+00 0.  1.
          2   -1    0    0  502    0 -0.00000000000E+00 -0.00000000000E+00 -0.11832201236E+02  0.11832201236E+02  0.00000000000E+00 0. -1.
          2    1    1    2  501    0 -0.81808148463E+01 -0.30841656476E+02  0.10487194796E+02  0.33587419675E+02  0.00000000000E+00 0. -1.
          2    1    1    2  502    0  0.81808148463E+01  0.30841656476E+02  0.90203441522E+03  0.90259859281E+03  0.00000000000E+00 0.  1.
</event>
<event>
 4    1  0.8104768E+003  0.2018552E+02  0.7546771E-02  0.1531218E+00
          2   -1    0    0  502    0  0.00000000000E+00  0.00000000000E+00  0.15609071917E+02  0.15609071917E+02  0.00000000000E+00 0.  1.
          2   -1    0    0  501    0 -0.00000000000E+00 -0.00000000000E+00 -0.23475641945E+03  0.23475641945E+03  0.00000000000E+00 0.  1.
          2    1    1    2  501    0 -0.60491068347E+01 -0.19257813262E+02  0.84441829967E+01  0.21880568814E+02  0.00000000000E+00 0.  1.
          2    1    1    2  502    0  0.60491068347E+01  0.19257813262E+02 -0.22759153053E+03  0.22848492256E+03  0.00000000000E+00 0.  1.
</event>
<event>
 4    1  0.8104768E+003  0.2072708E+02  0.7546771E-02  0.1523197E+00
          2   -1    0    0  501    0  0.00000000000E+00  0.00000000000E+00  0.11416912913E+04  0.11416912913E+04  0.00000000000E+00 0.  1.
          2   -1    0    0  502    0 -0.00000000000E+00 -0.00000000000E+00 -0.94836954701E+02  0.94836954701E+02  0.00000000000E+00 0.  1.
          2    1    1    2  501    0  0.20720818834E+02 -0.50957043881E+00 -0.93609160432E+02  0.95876414785E+02  0.00000000000E+00 0.  1.
          2    1    1    2  502    0 -0.20720818834E+02  0.50957043881E+00  0.11404634970E+04  0.11406518312E+04  0.00000000000E+00 0.  1.
</event>
<event>
 4    1  0.8104768E+003  0.2002808E+02  0.7546771E-02  0.1533607E+00
          2   -1    0    0  501    0  0.00000000000E+00  0.00000000000E+00  0.44309883870E+03  0.44309883870E+03  0.00000000000E+00 0.  1.
          2   -1    0    0  502    0 -0.00000000000E+00 -0.00000000000E+00 -0.11048035526E+01  0.11048035526E+01  0.00000000000E+00 0. -1.
          2    1    1    2  501    0  0.16272352415E+02 -0.11676246511E+02  0.12660890312E+03  0.12818322252E+03  0.00000000000E+00 0. -1.
          2    1    1    2  502    0 -0.16272352415E+02  0.11676246511E+02  0.31538513203E+03  0.31602041974E+03  0.00000000000E+00 0.  1.
</event>
<event>
 4    1  0.8104768E+003  0.2188477E+02  0.7546771E-02  0.1506998E+00
          2   -1    0    0  501    0  0.00000000000E+00  0.00000000000E+00  0.18715527511E+04  0.18715527511E+04  0.00000000000E+00 0.  1.
          2   -1    0    0  502    0 -0.00000000000E+00 -0.00000000000E+00 -0.53737494599E+00  0.53737494599E+00  0.00000000000E+00 0. -1.
          2    1    1    2  501    0 -0.27674278629E+01  0.21709083221E+02  0.16129506377E+04  0.16130990988E+04  0.00000000000E+00 0.  1.
          2    1    1    2  502    0  0.27674278629E+01 -0.21709083221E+02  0.25806473850E+03  0.25899102727E+03  0.00000000000E+00 0. -1.
</event>
<event>
 4    1  0.8104768E+003  0.2435151E+02  0.7546771E-02  0.1476190E+00
          2   -1    0    0  501    0  0.00000000000E+00  0.00000000000E+00  0.12157979048E+03  0.12157979048E+03  0.00000000000E+00 0.  1.
          2   -1    0    0  502    0 -0.00000000000E+00 -0.00000000000E+00 -0.13233488033E+02  0.13233488033E+02  0.00000000000E+00 0. -1.
          2    1    1    2  501    0  0.24341922060E+02 -0.68315546559E+00  0.60995828907E+00  0.24359144486E+02  0.00000000000E+00 0. -1.
          2    1    1    2  502    0 -0.24341922060E+02  0.68315546559E+00  0.10773634415E+03  0.11045413402E+03  0.00000000000E+00 0.  1.
</event>
<event>
 4    1  0.8104768E+003  0.7262544E+02  0.7546771E-02  0.1222087E+00
          2   -1    0    0  502    0  0.00000000000E+00  0.00000000000E+00  0.72409266011E+03  0.72409266011E+03  0.00000000000E+00 0. -1.
          2   -1    0    0  501    0 -0.00000000000E+00 -0.00000000000E+00 -0.21099985242E+04  0.21099985242E+04  0.00000000000E+00 0.  1.
          2    1    1    2  501    0  0.66328743868E+02 -0.29579600853E+02  0.72164455288E+03  0.72528981501E+03  0.00000000000E+00 0. -1.
          2    1    1    2  502    0 -0.66328743868E+02  0.29579600853E+02 -0.21075504170E+04  0.21088013693E+04  0.00000000000E+00 0.  1.
</event>
<event>
 4    1  0.8104768E+003  0.2823907E+02  0.7546771E-02  0.1435543E+00
          2   -1    0    0  501    0  0.00000000000E+00  0.00000000000E+00  0.88750906735E+03  0.88750906735E+03  0.00000000000E+00 0. -1.
          2   -1    0    0  502    0 -0.00000000000E+00 -0.00000000000E+00 -0.10272004381E+02  0.10272004381E+02  0.00000000000E+00 0. -1.
          2    1    1    2  501    0 -0.11407871887E+02 -0.25832258520E+02  0.98100480082E+01  0.29894517276E+02  0.00000000000E+00 0. -1.
          2    1    1    2  502    0  0.11407871887E+02  0.25832258520E+02  0.86742701496E+03  0.86788655446E+03  0.00000000000E+00 0. -1.
</event>
<event>
 4    1  0.8104768E+003  0.2326341E+02  0.7546771E-02  0.1489217E+00
          2   -1    0    0  501    0  0.00000000000E+00  0.00000000000E+00  0.84843905060E+02  0.84843905060E+02  0.00000000000E+00 0. -1.
          2   -1    0    0  502    0 -0.00000000000E+00 -0.00000000000E+00 -0.35246481775E+03  0.35246481775E+03  0.00000000000E+00 0. -1.
          2    1    1    2  501    0  0.10172166026E+02  0.20921594283E+02 -0.35047727409E+03  0.35124849569E+03  0.00000000000E+00 0. -1.
          2    1    1    2  502    0 -0.10172166026E+02 -0.20921594283E+02  0.82856361397E+02  0.86060227126E+02  0.00000000000E+00 0. -1.
</event>
<event>
 4    1  0.8104768E+003  0.2151082E+02  0.7546771E-02  0.1512095E+00
          2   -1    0    0  502    0  0.00000000000E+00  0.00000000000E+00  0.86980932324E+01  0.86980932324E+01  0.00000000000E+00 0.  1.
          2   -1    0    0  501    0 -0.00000000000E+00 -0.00000000000E+00 -0.15922021018E+03  0.15922021018E+03  0.00000000000E+00 0. -1.
          2    1    1    2  501    0  0.20324824607E+02  0.70439332280E+01 -0.67487331046E+01  0.22544642138E+02  0.00000000000E+00 0.  1.
          2    1    1    2  502    0 -0.20324824607E+02 -0.70439332280E+01 -0.14377338384E+03  0.14537366128E+03  0.00000000000E+00 0. -1.
</event>
<event>
 4    1  0.8104768E+003  0.5718756E+02  0.7546771E-02  0.1269700E+00
          2   -1    0    0  502    0  0.00000000000E+00  0.00000000000E+00  0.39230694427E+03  0.39230694427E+03  0.00000000000E+00 0.  1.
          2   -1    0    0  501    0 -0.00000000000E+00 -0.00000000000E+00 -0.27389926527E+02  0.27389926527E+02  0.00000000000E+00 0.  1.
          2    1    1    2  501    0  0.50288821215E+02 -0.27229614309E+02  0.35748278170E+03  0.36202811583E+03  0.00000000000E+00 0.  1.
          2    1    1    2  502    0 -0.50288821215E+02  0.27229614309E+02  0.74342360423E+01  0.57668754973E+02  0.00000000000E+00 0.  1.
</event>
<event>
 4    1  0.8104768E+003  0.2169223E+02  0.7546771E-02  0.1509607E+00
          2   -1    0    0  502    0  0.00000000000E+00  0.00000000000E+00  0.28817792317E+00  0.28817792317E+00  0.00000000000E+00 0.  1.
          2   -1    0    0  501    0 -0.00000000000E+00 -0.00000000000E+00 -0.16498592146E+04  0.16498592146E+04  0.00000000000E+00 0.  1.
          2    1    1    2  501    0  0.10517942832E+02 -0.18971705940E+02 -0.74102328400E+03  0.74134071801E+03  0.00000000000E+00 0.  1.
          2    1    1    2  502    0 -0.10517942832E+02  0.18971705940E+02 -0.90854775267E+03  0.90880667451E+03  0.00000000000E+00 0.  1.
</event>
<event>
 4    1  0.8104768E+003  0.2337646E+02  0.7546771E-02  0.1487824E+00
          2   -1    0    0  502    0  0.00000000000E+00  0.00000000000E+00  0.66732699442E+03  0.66732699442E+03  0.00000000000E+00 0. -1.
          2   -1    0    0  501    0 -0.00000000000E+00 -0.00000000000E+00 -0.53619490892E+01  0.53619490892E+01  0.00000000000E+00 0. -1.
          2    1    1    2  501    0 -0.23278995306E+02 -0.21324633082E+01  0.64058023562E+03  0.64100662812E+03  0.00000000000E+00 0. -1.
          2    1    1    2  502    0  0.23278995306E+02  0.21324633082E+01  0.21384809708E+02  0.31682315390E+02  0.00000000000E+00 0. -1.
</event>
<event>
 4    1  0.8104768E+003  0.2901342E+02  0.7546771E-02  0.1428368E+00
          2   -1    0    0  502    0  0.00000000000E+00  0.00000000000E+00  0.48842540940E+03  0.48842540940E+03  0.00000000000E+00 0.  1.
          2   -1    0    0  501    0 -0.00000000000E+00 -0.00000000000E+00 -0.47961084503E+01  0.47961084503E+01  0.00000000000E+00 0. -1.
          2    1    1    2  501    0 -0.28881179475E+02 -0.27669020518E+01  0.43920433307E+03  0.44016158903E+03  0.00000000000E+00 0.  1.
          2    1    1    2  502    0  0.28881179475E+02  0.27669020518E+01  0.44424967886E+02  0.53059928821E+02  0.00000000000E+00 0. -1.
</event>
<event>
 4    1  0.8104768E+003  0.2272649E+02  0.7546771E-02  0.1495961E+00
          2   -1    0    0  501    0  0.00000000000E+00  0.00000000000E+00  0.17683999126E+02  0.17683999126E+02  0.00000000000E+00 0. -1.
          2   -1    0    0  502    0 -0.00000000000E+00 -0.00000000000E+00 -0.52652886572E+03  0.52652886572E+03  0.00000000000E+00 0.  1.
          2    1    1    2  501    0  0.13335204352E+02  0.18402876974E+02 -0.51887425742E+03  0.51937172484E+03  0.00000000000E+00 0.  1.
          2    1    1    2  502    0 -0.13335204352E+02 -0.18402876974E+02  0.10029390828E+02  0.24841139998E+02  0.00000000000E+00 0. -1.
</event>
<event>
 4    1  0.8104768E+003  0.2637328E+02  0.7546771E-02  0.1454007E+00
          2   -1    0    0  502    0  0.00000000000E+00  0.00000000000E+00  0.96684553491E+03  0.96684553491E+03  0.00000000000E+00 0. -1.
          2   -1    0    0  501    0 -0.00000000000E+00 -0.00000000000E+00 -0.12988844942E+03  0.12988844942E+03  0.00000000000E+00 0.  1.
          2    1    1    2  501    0  0.69567345495E+00  0.26364100481E+02  0.96532483163E+03  0.96568503163E+03  0.00000000000E+00 0. -1.
          2    1    1    2  502    0 -0.69567345495E+00 -0.26364100481E+02 -0.12836774614E+03  0.13104895270E+03  0.00000000000E+00 0.  1.
</event>
<event>
 4    1  0.8104768E+003  0.3439836E+02  0.7546771E-02  0.1384843E+00
          2   -1    0    0  502    0  0.00000000000E+00  0.00000000000E+00  0.46559477043E+03  0.46559477043E+03  0.00000000000E+00 0.  1.
          2   -1    0    0  501    0 -0.00000000000E+00 -0.00000000000E+00 -0.12167013976E+02  0.12167013976E+02  0.00000000000E+00 0.  1.
          2    1    1    2  501    0 -0.20416864559E+02 -0.27683904830E+02  0.43918718916E+03  0.44053221683E+03  0.00000000000E+00 0.  1.
          2    1    1    2  502    0  0.20416864559E+02  0.27683904830E+02  0.14240567299E+02  0.37229567578E+02  0.00000000000E+00 0.  1.
</event>
<event>
 4    1  0.8104768E+003  0.2571872E+02  0.7546771E-02  0.1460921E+00
          2   -1    0    0  501    0  0.00000000000E+00  0.00000000000E+00  0.32296355911E+01  0.32296355911E+01  0.00000000000E+00 0.  1.
          2   -1    0    0  502    0 -0.00000000000E+00 -0.00000000000E+00 -0.36841979815E+03  0.36841979815E+03  0.00000000000E+00 0.  1.
          2    1    1    2  501    0 -0.17719557186E+02  0.18640542020E+02 -0.30642922770E+03  0.30750662449E+03  0.00000000000E+00 0.  1.
          2    1    1    2  502    0  0.17719557186E+02 -0.18640542020E+02 -0.58760934855E+02  0.64142809252E+02  0.00000000000E+00 0.  1.
</event>
<event>
 4    1  0.8104768E+003  0.2604258E+02  0.7546771E-02  0.1457470E+00
          2   -1    0    0  501    0  0.00000000000E+00  0.00000000000E+00  0.42000229880E+03  0.42000229880E+03  0.00000000000E+00 0.  1.
          2   -1    0    0  502    0 -0.00000000000E+00 -0.00000000000E+00 -0.29227372007E+03  0.29227372007E+03  0.00000000000E+00 0.  1.
          2    1    1    2  501    0 -0.59730140969E+00 -0.26035730937E+02 -0.29128853898E+03  0.29245038723E+03  0.00000000000E+00 0.  1.
          2    1    1    2  502    0  0.59730140969E+00  0.26035730937E+02  0.41901711770E+03  0.41982563164E+03  0.00000000000E+00 0.  1.
</event>
<event>
 4    1  0.8104768E+003  0.2632123E+02  0.7546771E-02  0.1454548E+00
          2   -1    0    0  501    0  0.00000000000E+00  0.00000000000E+00  0.26523049585E+03  0.26523049585E+03  0.00000000000E+00 0.  1.
          2   -1    0    0  502    0 -0.00000000000E+00 -0.00000000000E+00 -0.21764927266E+02  0.21764927266E+02  0.00000000000E+00 0. -1.
          2    1    1    2  501    0  0.25117919416E+02 -0.78674716404E+01 -0.12878937453E+02  0.29303140032E+02  0.00000000000E+00 0. -1.
          2    1    1    2  502    0 -0.25117919416E+02  0.78674716404E+01  0.25634450603E+03  0.25769228308E+03  0.00000000000E+00 0.  1.
</event>
<event>
 4    1  0.8104768E+003  0.4663744E+02  0.7546771E-02  0.1313449E+00
          2   -1    0    0  501    0  0.00000000000E+00  0.00000000000E+00  0.87364905775E+03  0.87364905775E+03  0.00000000000E+00 0. -1.
          2   -1    0    0  502    0 -0.00000000000E+00 -0.00000000000E+00 -0.42091586656E+01  0.42091586656E+01  0.00000000000E+00 0.  1.
          2    1    1    2  501    0 -0.35874824769E+02  0.29800122812E+02  0.15417448263E+03  0.16107396272E+03  0.00000000000E+00 0.  1.
          2    1    1    2  502    0  0.35874824769E+02 -0.29800122812E+02  0.71526541645E+03  0.71678425370E+03  0.00000000000E+00 0. -1.
</event>
<event>
 4    1  0.8104768E+003  0.2684818E+02  0.7546771E-02  0.1449139E+00
          2   -1    0    0  502    0  0.00000000000E+00  0.00000000000E+00  0.10168077507E+04  0.10168077507E+04  0.00000000000E+00 0. -1.
          2   -1    0    0  501    0 -0.00000000000E+00 -0.00000000000E+00 -0.90368472706E+02  0.90368472706E+02  0.00000000000E+00 0.  1.
          2    1    1    2  501    0 -0.11566556114E+02  0.24228903878E+02  0.10146321207E+04  0.10149872735E+04  0.00000000000E+00 0. -1.
          2    1    1    2  502    0  0.11566556114E+02 -0.24228903878E+02 -0.88192842644E+02  0.92188949973E+02  0.00000000000E+00 0.  1.
</event>
<event>
 4    1  0.8104768E+003  0.1836276E+03  0.7546771E-02  0.1067394E+00
          2   -1    0    0  501    0  0.00000000000E+00  0.00000000000E+00  0.30382583971E+04  0.30382583971E+04  0.00000000000E+00 0.  1.
          2   -1    0    0  502    0 -0.00000000000E+00 -0.00000000000E+00 -0.10260142859E+04  0.10260142859E+04  0.00000000000E+00 0. -1.
          2    1    1    2  501    0  0.17168136227E+03 -0.65150505410E+02 -0.10149938281E+04  0.10314705762E+04  0.00000000000E+00 0. -1.
          2    1    1    2  502    0 -0.17168136227E+03  0.65150505410E+02  0.30272379393E+04  0.30328021069E+04  0.00000000000E+00 0.  1.
</event>
<event>
 4    1  0.8104768E+003  0.2193208E+02  0.7546771E-02  0.1506362E+00
          2   -1    0    0  502    0  0.00000000000E+00  0.00000000000E+00  0.19377578519E+02  0.19377578519E+02  0.00000000000E+00 0. -1.
          2   -1    0    0  501    0 -0.00000000000E+00 -0.00000000000E+00 -0.51536767404E+02  0.51536767404E+02  0.00000000000E+00 0.  1.
          2    1    1    2  501    0 -0.16398399710E+02  0.14563952115E+02  0.94480256206E+01  0.23880565370E+02  0.00000000000E+00 0. -1.
          2    1    1    2  502    0  0.16398399710E+02 -0.14563952115E+02 -0.41607214505E+02  0.47033780554E+02  0.00000000000E+00 0.  1.
</event>
<event>
 4    1  0.8104768E+003  0.2168671E+02  0.7546771E-02  0.1509682E+00
          2   -1    0    0  502    0  0.00000000000E+00  0.00000000000E+00  0.82165813589E+01  0.82165813589E+01  0.00000000000E+00 0. -1.
          2   -1    0    0  501    0 -0.00000000000E+00 -0.00000000000E+00 -0.10450422775E+03  0.10450422775E+03  0.00000000000E+00 0. -1.
          2    1    1    2  501    0 -0.19872993109E+02 -0.86820353050E+01 -0.10240662587E+02  0.23983009869E+02  0.00000000000E+00 0. -1.
          2    1    1    2  502    0  0.19872993109E+02  0.86820353050E+01 -0.86046983803E+02  0.88737799239E+02  0.00000000000E+00 0. -1.
</event>
<event>
 4    1  0.8104768E+003  0.3604975E+02  0.7546771E-02  0.1373330E+00
          2   -1    0    0  502    0  0.00000000000E+00  0.00000000000E+00  0.14218737272E+04  0.14218737272E+04  0.00000000000E+00 0. -1.
          2   -1    0    0  501    0 -0.00000000000E+00 -0.00000000000E+00 -0.13797554477E+01  0.13797554477E+01  0.00000000000E+00 0. -1.
          2    1    1    2  501    0 -0.61846930654E+01 -0.35515260342E+02  0.11237064528E+04  0.11242845619E+04  0.00000000000E+00 0. -1.
          2    1    1    2  502    0  0.61846930654E+01  0.35515260342E+02  0.29678751903E+03  0.29896892079E+03  0.00000000000E+00 0. -1.
</event>
<event>
 4    1  0.8104768E+003  0.2161726E+02  0.7546771E-02  0.1510632E+00
          2   -1    0    0  501    0  0.00000000000E+00  0.00000000000E+00  0.10416110187E+03  0.10416110187E+03  0.00000000000E+00 0.  1.
          2   -1    0    0  502    0 -0.00000000000E+00 -0.00000000000E+00 -0.28820877918E+03  0.28820877918E+03  0.00000000000E+00 0.  1.
          2    1    1    2  501    0  0.55483828863E+01  0.20893095272E+02 -0.28667584222E+03  0.28748972937E+03  0.00000000000E+00 0.  1.
          2    1    1    2  502    0 -0.55483828863E+01 -0.20893095272E+02  0.10262816491E+03  0.10488015168E+03  0.00000000000E+00 0.  1.
</event>
<event>
 4    1  0.8104768E+003  0.2639629E+02  0.7546771E-02  0.1453769E+00
          2   -1    0    0  502    0  0.00000000000E+00  0.00000000000E+00  0.30993604846E+01  0.30993604846E+01  0.00000000000E+00 0. -1.
          2   -1    0    0  501    0 -0.00000000000E+00 -0.00000000000E+00 -0.34538153769E+03  0.34538153769E+03  0.00000000000E+00 0.  1.
          2    1    1    2  501    0  0.23189004357E+02 -0.12610874030E+02 -0.68191726357E+02  0.73122333185E+02  0.00000000000E+00 0. -1.
          2    1    1    2  502    0 -0.23189004357E+02  0.12610874030E+02 -0.27409045085E+03  0.27535856499E+03  0.00000000000E+00 0.  1.
</event>
<event>
 4    1  0.8104768E+003  0.2283750E+02  0.7546771E-02  0.1494549E+00
          2   -1    0    0  501    0  0.00000000000E+00  0.00000000000E+00  0.58894419866E+03  0.58894419866E+03  0.00000000000E+00 0.  1.
          2   -1    0    0  502    0 -0.00000000000E+00 -0.00000000000E+00 -0.28747388735E+02  0.28747388735E+02  0.00000000000E+00 0. -1.
          2    1    1    2  501    0  0.17076241448E+02  0.15164219451E+02 -0.23953142291E+02  0.33095386373E+02  0.00000000000E+00 0. -1.
          2    1    1    2  502    0 -0.17076241448E+02 -0.15164219451E+02  0.58414995222E+03  0.58459620102E+03  0.00000000000E+00 0.  1.
</event>
<event>
 4    1  0.8104768E+003  0.2730231E+02  0.7546771E-02  0.1444595E+00
          2   -1    0    0  501    0  0.00000000000E+00  0.00000000000E+00  0.14546523501E+02  0.14546523501E+02  0.00000000000E+00 0. -1.
          2   -1    0    0  502    0 -0.00000000000E+00 -0.00000000000E+00 -0.33212489990E+03  0.33212489990E+03  0.00000000000E+00 0. -1.
          2    1    1    2  501    0 -0.21276670711E+02  0.17109051775E+02 -0.31819301218E+03  0.31936219151E+03  0.00000000000E+00 0. -1.
          2    1    1    2  502    0  0.21276670711E+02 -0.17109051775E+02  0.61463577758E+00  0.27309231888E+02  0.00000000000E+00 0. -1.
</event>
<event>
 4    1  0.8104768E+003  0.2102245E+02  0.7546771E-02  0.1518944E+00
          2   -1    0    0  501    0  0.00000000000E+00  0.00000000000E+00  0.66219944486E+01  0.66219944486E+01  0.00000000000E+00 0.  1.
          2   -1    0    0  502    0 -0.00000000000E+00 -0.00000000000E+00 -0.14982072324E+04  0.14982072324E+04  0.00000000000E+00 0.  1.
          2    1    1    2  501    0  0.13171018547E+02  0.16384984971E+02 -0.14812579007E+04  0.14814070716E+04  0.00000000000E+00 0.  1.
          2    1    1    2  502    0 -0.13171018547E+02 -0.16384984971E+02 -0.10327337299E+02  0.23422155276E+02  0.00000000000E+00 0.  1.
</event>
<event>
 4    1  0.8104768E+003  0.2522236E+02  0.7546771E-02  0.1466331E+00
          2   -1    0    0  501    0  0.00000000000E+00  0.00000000000E+00  0.68247011394E+02  0.68247011394E+02  0.00000000000E+00 0.  1.
          2   -1    0    0  502    0 -0.00000000000E+00 -0.00000000000E+00 -0.91290029318E+02  0.91290029318E+02  0.00000000000E+00 0. -1.
          2    1    1    2  501    0  0.24735684377E+02  0.49308812314E+01 -0.87107848162E+02  0.90685968499E+02  0.00000000000E+00 0. -1.
          2    1    1    2  502    0 -0.24735684377E+02 -0.49308812314E+01  0.64064830238E+02  0.68851072212E+02  0.00000000000E+00 0.  1.
</event>
<event>
 4    1  0.8104768E+003  0.2207592E+02  0.7546771E-02  0.1504440E+00
          2   -1    0    0  502    0  0.00000000000E+00  0.00000000000E+00  0.34573077286E+02  0.34573077286E+02  0.00000000000E+00 0. -1.
          2   -1    0    0  501    0 -0.00000000000E+00 -0.00000000000E+00 -0.14037690259E+03  0.14037690259E+03  0.00000000000E+00 0.  1.
          2    1    1    2  501    0 -0.22064818614E+02 -0.69993270217E+00  0.30064958397E+02  0.37299434978E+02  0.00000000000E+00 0. -1.
          2    1    1    2  502    0  0.22064818614E+02  0.69993270217E+00 -0.13586878370E+03  0.13765054489E+03  0.00000000000E+00 0.  1.
</event>
<event>
 4    1  0.8104768E+003  0.2319399E+02  0.7546771E-02  0.1490076E+00
          2   -1    0    0  502    0  0.00000000000E+00  0.00000000000E+00  0.11024369706E+03  0.11024369706E+03  0.00000000000E+00 0.  1.
          2   -1    0    0  501    0 -0.00000000000E+00 -0.00000000000E+00 -0.88014367856E+02  0.88014367856E+02  0.00000000000E+00 0. -1.
          2    1    1    2  501    0 -0.11424484522E+02  0.20185202764E+02  0.10745652816E+03  0.10993119076E+03  0.00000000000E+00 0.  1.
          2    1    1    2  502    0  0.11424484522E+02 -0.20185202764E+02 -0.85227198954E+02  0.88326874160E+02  0.00000000000E+00 0. -1.
</event>
<event>
 4    1  0.8104768E+003  0.2319151E+02  0.7546771E-02  0.1490107E+00
          2   -1    0    0  502    0  0.00000000000E+00  0.00000000000E+00  0.70255676822E+03  0.70255676822E+03  0.00000000000E+00 0.  1.
          2   -1    0    0  501    0 -0.00000000000E+00 -0.00000000000E+00 -0.40837367298E+03  0.40837367298E+03  0.00000000000E+00 0. -1.
          2    1    1    2  501    0  0.10694504801E+02  0.20578481313E+02  0.70203587392E+03  0.70241883132E+03  0.00000000000E+00 0.  1.
          2    1    1    2  502    0 -0.10694504801E+02 -0.20578481313E+02 -0.40785277868E+03  0.40851160988E+03  0.00000000000E+00 0. -1.
</event>
<event>
 4    1  0.8104768E+003  0.2197014E+02  0.7546771E-02  0.1505851E+00
          2   -1    0    0  502    0  0.00000000000E+00  0.00000000000E+00  0.81250845137E+03  0.81250845137E+03  0.00000000000E+00 0. -1.
          2   -1    0    0  501    0 -0.00000000000E+00 -0.00000000000E+00 -0.16041572029E+01  0.16041572029E+01  0.00000000000E+00 0.  1.
          2    1    1    2  501    0  0.10069415770E+02  0.19526750976E+02  0.72845800074E+03  0.72878923290E+03  0.00000000000E+00 0. -1.
          2    1    1    2  502    0 -0.10069415770E+02 -0.19526750976E+02  0.82446293419E+02  0.85323375673E+02  0.00000000000E+00 0.  1.
</event>
<event>
 4    1  0.1151613E+004  0.3209030E+02  0.7546771E-02  0.1402261E+00
          2   -1    0    0  501    0  0.00000000000E+00  0.00000000000E+00  0.51666259399E+03  0.51666259399E+03  0.00000000000E+00 0. -1.
          2   -1    0    0  502    0 -0.00000000000E+00 -0.00000000000E+00 -0.11063153396E+04  0.11063153396E+04  0.00000000000E+00 0. -1.
          2    1    1    2  501    0 -0.54598080462E+01  0.31622430298E+02 -0.11055840152E+04  0.11060496382E+04  0.00000000000E+00 0. -1.
          2    1    1    2  502    0  0.54598080462E+01 -0.31622430298E+02  0.51593126958E+03  0.51692829535E+03  0.00000000000E+00 0. -1.
</event>
<event>
 4    1  0.8104768E+003  0.2701567E+02  0.7546771E-02  0.1447451E+00
          2   -1    0    0  502    0  0.00000000000E+00  0.00000000000E+00  0.14497530697E+03  0.14497530697E+03  0.00000000000E+00 0.  1.
          2   -1    0    0  501    0 -0.00000000000E+00 -0.00000000000E+00 -0.50442076354E+03  0.50442076354E+03  0.00000000000E+00 0.  1.
          2    1    1    2  501    0  0.20276379686E+02 -0.17852588595E+02  0.14335094850E+03  0.14587440121E+03  0.00000000000E+00 0.  1.
          2    1    1    2  502    0 -0.20276379686E+02  0.17852588595E+02 -0.50279640507E+03  0.50352166929E+03  0.00000000000E+00 0.  1.
</event>
<event>
 4    1  0.8104768E+003  0.2306254E+02  0.7546771E-02  0.1491714E+00
          2   -1    0    0  501    0  0.00000000000E+00  0.00000000000E+00  0.90254978350E+01  0.90254978350E+01  0.00000000000E+00 0. -1.
          2   -1    0    0  502    0 -0.00000000000E+00 -0.00000000000E+00 -0.14499061049E+03  0.14499061049E+03  0.00000000000E+00 0. -1.
          2    1    1    2  501    0  0.23025847802E+02  0.13004942234E+01 -0.12731142723E+03  0.12938346284E+03  0.00000000000E+00 0. -1.
          2    1    1    2  502    0 -0.23025847802E+02 -0.13004942234E+01 -0.86536854217E+01  0.24632645485E+02  0.00000000000E+00 0. -1.
</event>
<event>
 4    1  0.8104768E+003  0.2919336E+02  0.7546771E-02  0.1426738E+00
          2   -1    0    0  502    0  0.00000000000E+00  0.00000000000E+00  0.10810954786E+02  0.10810954786E+02  0.00000000000E+00 0.  1.
          2   -1    0    0  501    0 -0.00000000000E+00 -0.00000000000E+00 -0.52261969009E+03  0.52261969009E+03  0.00000000000E+00 0.  1.
          2    1    1    2  501    0 -0.16135291179E+02  0.24329092343E+02 -0.10126617507E+02  0.30899850125E+02  0.00000000000E+00 0.  1.
          2    1    1    2  502    0  0.16135291179E+02 -0.24329092343E+02 -0.50168211780E+03  0.50253079475E+03  0.00000000000E+00 0.  1.
</event>
<event>
 4    1  0.8104768E+003  0.2274855E+02  0.7546771E-02  0.1495680E+00
          2   -1    0    0  501    0  0.00000000000E+00  0.00000000000E+00  0.12416121376E+02  0.12416121376E+02  0.00000000000E+00 0.  1.
          2   -1    0    0  502    0 -0.00000000000E+00 -0.00000000000E+00 -0.22258421308E+03  0.22258421308E+03  0.00000000000E+00 0. -1.
          2    1    1    2  501    0 -0.89491501932E+00 -0.22730937324E+02 -0.21101341269E+03  0.21223608722E+03  0.00000000000E+00 0. -1.
          2    1    1    2  502    0  0.89491501932E+00  0.22730937324E+02  0.84532098633E+00  0.22764247233E+02  0.00000000000E+00 0.  1.
</event>
<event>
 4    1  0.8104768E+003  0.2141943E+02  0.7546771E-02  0.1513360E+00
          2   -1    0    0  501    0  0.00000000000E+00  0.00000000000E+00  0.25194847678E+03  0.25194847678E+03  0.00000000000E+00 0.  1.
          2   -1    0    0  502    0 -0.00000000000E+00 -0.00000000000E+00 -0.31480996763E+03  0.31480996763E+03  0.00000000000E+00 0. -1.
          2    1    1    2  501    0  0.20832605297E+02 -0.49794285512E+01 -0.31398919442E+03  0.31471893232E+03  0.00000000000E+00 0. -1.
          2    1    1    2  502    0 -0.20832605297E+02  0.49794285512E+01  0.25112770357E+03  0.25203951208E+03  0.00000000000E+00 0.  1.
</event>
<event>
 4    1  0.8104768E+003  0.2277089E+02  0.7546771E-02  0.1495395E+00
          2   -1    0    0  502    0  0.00000000000E+00  0.00000000000E+00  0.32967378092E+02  0.32967378092E+02  0.00000000000E+00 0. -1.
          2   -1    0    0  501    0 -0.00000000000E+00 -0.00000000000E+00 -0.12811470209E+03  0.12811470209E+03  0.00000000000E+00 0. -1.
          2    1    1    2  501    0  0.88851050176E+01  0.20965888922E+02  0.27861713335E+02  0.35983171892E+02  0.00000000000E+00 0. -1.
          2    1    1    2  502    0 -0.88851050176E+01 -0.20965888922E+02 -0.12300903733E+03  0.12509890829E+03  0.00000000000E+00 0. -1.
</event>
<event>
 4    1  0.8104768E+003  0.2351807E+02  0.7546771E-02  0.1486093E+00
          2   -1    0    0  501    0  0.00000000000E+00  0.00000000000E+00  0.43752536055E+02  0.43752536055E+02  0.00000000000E+00 0.  1.
          2   -1    0    0  502    0 -0.00000000000E+00 -0.00000000000E+00 -0.71493656512E+03  0.71493656512E+03  0.00000000000E+00 0.  1.
          2    1    1    2  501    0  0.90296895267E+01  0.21715537006E+02 -0.71156781104E+03  0.71195635369E+03  0.00000000000E+00 0.  1.
          2    1    1    2  502    0 -0.90296895267E+01 -0.21715537006E+02  0.40383781982E+02  0.46732747486E+02  0.00000000000E+00 0.  1.
</event>
<event>
 4    1  0.8104768E+003  0.4618517E+02  0.7546771E-02  0.1315617E+00
          2   -1    0    0  501    0  0.00000000000E+00  0.00000000000E+00  0.21276808474E+03  0.21276808474E+03  0.00000000000E+00 0. -1.
          2   -1    0    0  502    0 -0.00000000000E+00 -0.00000000000E+00 -0.54160854515E+02  0.54160854515E+02  0.00000000000E+00 0. -1.
          2    1    1    2  501    0 -0.35437639214E+02  0.29618296173E+02 -0.41176970345E+02  0.61875783858E+02  0.00000000000E+00 0. -1.
          2    1    1    2  502    0  0.35437639214E+02 -0.29618296173E+02  0.19978420057E+03  0.20505315540E+03  0.00000000000E+00 0. -1.
</event>
<event>
 4    1  0.8104768E+003  0.2470789E+02  0.7546771E-02  0.1472098E+00
          2   -1    0    0  502    0  0.00000000000E+00  0.00000000000E+00  0.75167072914E+03  0.75167072914E+03  0.00000000000E+00 0. -1.
          2   -1    0    0  501    0 -0.00000000000E+00 -0.00000000000E+00 -0.37655531286E+01  0.37655531286E+01  0.00000000000E+00 0.  1.
          2    1    1    2  501    0 -0.41172868919E+01  0.24362426073E+02  0.70846620012E+03  0.70889691533E+03  0.00000000000E+00 0. -1.
          2    1    1    2  502    0  0.41172868919E+01 -0.24362426073E+02  0.39438975897E+02  0.46539366941E+02  0.00000000000E+00 0.  1.
</event>
<event>
 4    1  0.8104768E+003  0.2991380E+02  0.7546771E-02  0.1420347E+00
          2   -1    0    0  501    0  0.00000000000E+00  0.00000000000E+00  0.18744836507E+04  0.18744836507E+04  0.00000000000E+00 0. -1.
          2   -1    0    0  502    0 -0.00000000000E+00 -0.00000000000E+00 -0.21549554255E+01  0.21549554255E+01  0.00000000000E+00 0. -1.
          2    1    1    2  501    0  0.16455075502E+02  0.24981311642E+02  0.10827381345E+03  0.11233011226E+03  0.00000000000E+00 0. -1.
          2    1    1    2  502    0 -0.16455075502E+02 -0.24981311642E+02  0.17640548818E+04  0.17643084939E+04  0.00000000000E+00 0. -1.
</event>
<event>
 4    1  0.9110151E+003  0.3757890E+02  0.7546771E-02  0.1363289E+00
          2   -1    0    0  501    0  0.00000000000E+00  0.00000000000E+00  0.71555045212E+03  0.71555045212E+03  0.00000000000E+00 0.  1.
          2   -1    0    0  502    0 -0.00000000000E+00 -0.00000000000E+00 -0.15072607009E+04  0.15072607009E+04  0.00000000000E+00 0. -1.
          2    1    1    2  501    0 -0.64781141757E+01 -0.37016315934E+02 -0.15065328469E+04  0.15070014573E+04  0.00000000000E+00 0. -1.
          2    1    1    2  502    0  0.64781141757E+01  0.37016315934E+02  0.71482259813E+03  0.71580969567E+03  0.00000000000E+00 0.  1.
</event>
<event>
 4    1  0.8104768E+003  0.2273429E+02  0.7546771E-02  0.1495862E+00
          2   -1    0    0  502    0  0.00000000000E+00  0.00000000000E+00  0.15020512149E+02  0.15020512149E+02  0.00000000000E+00 0. -1.
          2   -1    0    0  501    0 -0.00000000000E+00 -0.00000000000E+00 -0.42775528678E+02  0.42775528678E+02  0.00000000000E+00 0. -1.
          2    1    1    2  501    0 -0.22605990716E+02  0.24119109197E+01 -0.10975219132E+01  0.22760770745E+02  0.00000000000E+00 0. -1.
          2    1    1    2  502    0  0.22605990716E+02 -0.24119109197E+01 -0.26657494615E+02  0.35035270082E+02  0.00000000000E+00 0. -1.
</event>
<event>
 4    1  0.8104768E+003  0.2051703E+02  0.7546771E-02  0.1526273E+00
          2   -1    0    0  501    0  0.00000000000E+00  0.00000000000E+00  0.62768773033E+01  0.62768773033E+01  0.00000000000E+00 0. -1.
          2   -1    0    0  502    0 -0.00000000000E+00 -0.00000000000E+00 -0.41495715064E+03  0.41495715064E+03  0.00000000000E+00 0.  1.
          2    1    1    2  501    0  0.95608908457E-01  0.20516804018E+02 -0.39718815160E+03  0.39771770914E+03  0.00000000000E+00 0.  1.
          2    1    1    2  502    0 -0.95608908457E-01 -0.20516804018E+02 -0.11492121731E+02  0.23516318803E+02  0.00000000000E+00 0. -1.
</event>
<event>
 4    1  0.8104768E+003  0.2098397E+02  0.7546771E-02  0.1519494E+00
          2   -1    0    0  501    0  0.00000000000E+00  0.00000000000E+00  0.21813305451E+03  0.21813305451E+03  0.00000000000E+00 0.  1.
          2   -1    0    0  502    0 -0.00000000000E+00 -0.00000000000E+00 -0.24519826360E+02  0.24519826360E+02  0.00000000000E+00 0. -1.
          2    1    1    2  501    0  0.17650060338E+02 -0.11349119275E+02 -0.19418421872E+02  0.28590247398E+02  0.00000000000E+00 0. -1.
          2    1    1    2  502    0 -0.17650060338E+02  0.11349119275E+02  0.21303165002E+03  0.21406263347E+03  0.00000000000E+00 0.  1.
</event>
<event>
 4    1  0.8104768E+003  0.2022381E+02  0.7546771E-02  0.1530641E+00
          2   -1    0    0  501    0  0.00000000000E+00  0.00000000000E+00  0.56716613978E+01  0.56716613978E+01  0.00000000000E+00 0. -1.
          2   -1    0    0  502    0 -0.00000000000E+00 -0.00000000000E+00 -0.60879307531E+03  0.60879307531E+03  0.00000000000E+00 0. -1.
          2    1    1    2  501    0  0.92205170481E+01  0.17999570592E+02 -0.59002343946E+03  0.59036993621E+03  0.00000000000E+00 0. -1.
          2    1    1    2  502    0 -0.92205170481E+01 -0.17999570592E+02 -0.13097974459E+02  0.24094800498E+02  0.00000000000E+00 0. -1.
</event>
<event>
 4    1  0.8104768E+003  0.2170244E+02  0.7546771E-02  0.1509468E+00
          2   -1    0    0  501    0  0.00000000000E+00  0.00000000000E+00  0.79925853818E+03  0.79925853818E+03  0.00000000000E+00 0.  1.
          2   -1    0    0  502    0 -0.00000000000E+00 -0.00000000000E+00 -0.73505040449E+00  0.73505040449E+00  0.00000000000E+00 0.  1.
          2    1    1    2  501    0 -0.16779089151E+02  0.13764373373E+02  0.22114024232E+03  0.22220261606E+03  0.00000000000E+00 0.  1.
          2    1    1    2  502    0  0.16779089151E+02 -0.13764373373E+02  0.57738324545E+03  0.57779097253E+03  0.00000000000E+00 0.  1.
</event>
<event>
 4    1  0.8104768E+003  0.2099235E+02  0.7546771E-02  0.1519374E+00
          2   -1    0    0  501    0  0.00000000000E+00  0.00000000000E+00  0.41995460632E+03  0.41995460632E+03  0.00000000000E+00 0. -1.
          2   -1    0    0  502    0 -0.00000000000E+00 -0.00000000000E+00 -0.12181596940E+04  0.12181596940E+04  0.00000000000E+00 0.  1.
          2    1    1    2  501    0  0.20749520744E+02 -0.31837546951E+01 -0.12178068413E+04  0.12179877592E+04  0.00000000000E+00 0.  1.
          2    1    1    2  502    0 -0.20749520744E+02  0.31837546951E+01  0.41960175361E+03  0.42012654110E+03  0.00000000000E+00 0. -1.
</event>
<event>
 4    1  0.8104768E+003  0.2866821E+02  0.7546771E-02  0.1431534E+00
          2   -1    0    0  501    0  0.00000000000E+00  0.00000000000E+00  0.22112785203E+02  0.22112785203E+02  0.00000000000E+00 0. -1.
          2   -1    0    0  502    0 -0.00000000000E+00 -0.00000000000E+00 -0.14599203013E+03  0.14599203013E+03  0.00000000000E+00 0. -1.
          2    1    1    2  501    0  0.10356182836E+02 -0.26732302590E+02 -0.13450841967E+03  0.13752956586E+03  0.00000000000E+00 0. -1.
          2    1    1    2  502    0 -0.10356182836E+02  0.26732302590E+02  0.10629174739E+02  0.30575249473E+02  0.00000000000E+00 0. -1.
</event>
<event>
 4    1  0.8104768E+003  0.2288753E+02  0.7546771E-02  0.1493915E+00
          2   -1    0    0  501    0  0.00000000000E+00  0.00000000000E+00  0.15607718045E+04  0.15607718045E+04  0.00000000000E+00 0. -1.
          2   -1    0    0  502    0 -0.00000000000E+00 -0.00000000000E+00 -0.16306029747E+03  0.16306029747E+03  0.00000000000E+00 0. -1.
          2    1    1    2  501    0 -0.13958847511E+02 -0.18138064608E+02 -0.16217279687E+03  0.16377989759E+03  0.00000000000E+00 0. -1.
          2    1    1    2  502    0  0.13958847511E+02  0.18138064608E+02  0.15598843039E+04  0.15600522043E+04  0.00000000000E+00 0. -1.
</event>
<event>
 4    1  0.8104768E+003  0.2130515E+02  0.7546771E-02  0.1514952E+00
          2   -1    0    0  502    0  0.00000000000E+00  0.00000000000E+00  0.58207345827E+00  0.58207345827E+00  0.00000000000E+00 0. -1.
          2   -1    0    0  501    0 -0.00000000000E+00 -0.00000000000E+00 -0.12006755864E+04  0.12006755864E+04  0.00000000000E+00 0.  1.
          2    1    1    2  501    0 -0.20781733945E+02  0.46935150980E+01 -0.24444612863E+03  0.24537281706E+03  0.00000000000E+00 0. -1.
          2    1    1    2  502    0  0.20781733945E+02 -0.46935150980E+01 -0.95564738436E+03  0.95588484285E+03  0.00000000000E+00 0.  1.
</event>
<event>
 4    1  0.8104768E+003  0.2090531E+02  0.7546771E-02  0.1520621E+00
          2   -1    0    0  501    0  0.00000000000E+00  0.00000000000E+00  0.85087403465E+02  0.85087403465E+02  0.00000000000E+00 0.  1.
          2   -1    0    0  502    0 -0.00000000000E+00 -0.00000000000E+00 -0.10140845367E+03  0.10140845367E+03  0.00000000000E+00 0. -1.
          2    1    1    2  501    0 -0.19469972401E+02 -0.76126331478E+01 -0.99016296640E+02  0.10119910577E+03  0.00000000000E+00 0. -1.
          2    1    1    2  502    0  0.19469972401E+02  0.76126331478E+01  0.82695246440E+02  0.85296751359E+02  0.00000000000E+00 0.  1.
</event>
<event>
 4    1  0.8104768E+003  0.2201170E+02  0.7546771E-02  0.1505296E+00
          2   -1    0    0  502    0  0.00000000000E+00  0.00000000000E+00  0.14829872594E+01  0.14829872594E+01  0.00000000000E+00 0. -1.
          2   -1    0    0  501    0 -0.00000000000E+00 -0.00000000000E+00 -0.81812682348E+03  0.81812682348E+03  0.00000000000E+00 0.  1.
          2    1    1    2  501    0  0.87898862168E+01 -0.20180501140E+02 -0.90715349711E+02  0.93347680203E+02  0.00000000000E+00 0. -1.
          2    1    1    2  502    0 -0.87898862168E+01  0.20180501140E+02 -0.72592848651E+03  0.72626213053E+03  0.00000000000E+00 0.  1.
</event>
<event>
 4    1  0.8104768E+003  0.3657829E+02  0.7546771E-02  0.1369794E+00
          2   -1    0    0  502    0  0.00000000000E+00  0.00000000000E+00  0.72560295603E+03  0.72560295603E+03  0.00000000000E+00 0.  1.
          2   -1    0    0  501    0 -0.00000000000E+00 -0.00000000000E+00 -0.17072864466E+02  0.17072864466E+02  0.00000000000E+00 0. -1.
          2    1    1    2  501    0  0.36162491557E+02  0.54995612577E+01  0.70497707069E+03  0.70592537932E+03  0.00000000000E+00 0.  1.
          2    1    1    2  502    0 -0.36162491557E+02 -0.54995612577E+01  0.35530208785E+01  0.36750441181E+02  0.00000000000E+00 0. -1.
</event>
<event>
 4    1  0.8104768E+003  0.2303757E+02  0.7546771E-02  0.1492027E+00
          2   -1    0    0  502    0  0.00000000000E+00  0.00000000000E+00  0.17210392860E+01  0.17210392860E+01  0.00000000000E+00 0.  1.
          2   -1    0    0  501    0 -0.00000000000E+00 -0.00000000000E+00 -0.10080129525E+04  0.10080129525E+04  0.00000000000E+00 0.  1.
          2    1    1    2  501    0  0.12066137856E+01  0.23005954260E+02 -0.82535738773E+02  0.85690594717E+02  0.00000000000E+00 0.  1.
          2    1    1    2  502    0 -0.12066137856E+01 -0.23005954260E+02 -0.92375617444E+03  0.92404339706E+03  0.00000000000E+00 0.  1.
</event>
<event>
 4    1  0.8104768E+003  0.7061940E+02  0.7546771E-02  0.1227478E+00
          2   -1    0    0  501    0  0.00000000000E+00  0.00000000000E+00  0.28294621755E+03  0.28294621755E+03  0.00000000000E+00 0.  1.
          2   -1    0    0  502    0 -0.00000000000E+00 -0.00000000000E+00 -0.11842562324E+03  0.11842562324E+03  0.00000000000E+00 0. -1.
          2    1    1    2  501    0  0.56754490803E+01  0.70390967310E+02 -0.10288997931E+03  0.12479361700E+03  0.00000000000E+00 0. -1.
          2    1    1    2  502    0 -0.56754490803E+01 -0.70390967310E+02  0.26741057361E+03  0.27657822380E+03  0.00000000000E+00 0.  1.
</event>
<event>
 4    1  0.8104768E+003  0.3467953E+02  0.7546771E-02  0.1382830E+00
          2   -1    0    0  502    0  0.00000000000E+00  0.00000000000E+00  0.80739444343E+03  0.80739444343E+03  0.00000000000E+00 0. -1.
          2   -1    0    0  501    0 -0.00000000000E+00 -0.00000000000E+00 -0.22234978326E+03  0.22234978326E+03  0.00000000000E+00 0. -1.
          2    1    1    2  501    0 -0.18098179220E+02  0.29582523784E+02  0.80566692572E+03  0.80641296183E+03  0.00000000000E+00 0. -1.
          2    1    1    2  502    0  0.18098179220E+02 -0.29582523784E+02 -0.22062226555E+03  0.22333126486E+03  0.00000000000E+00 0. -1.
</event>
<event>
 4    1  0.8104768E+003  0.2530290E+02  0.7546771E-02  0.1465443E+00
          2   -1    0    0  501    0  0.00000000000E+00  0.00000000000E+00  0.44146846775E+03  0.44146846775E+03  0.00000000000E+00 0.  1.
          2   -1    0    0  502    0 -0.00000000000E+00 -0.00000000000E+00 -0.95124764721E+01  0.95124764721E+01  0.00000000000E+00 0.  1.
          2    1    1    2  501    0  0.31875198780E+01  0.25101328869E+02  0.83867395997E+01  0.26656601341E+02  0.00000000000E+00 0.  1.
          2    1    1    2  502    0 -0.31875198780E+01 -0.25101328869E+02  0.42356925168E+03  0.42432434288E+03  0.00000000000E+00 0.  1.
</event>
<event>
 4    1  0.8104768E+003  0.4122861E+02  0.7546771E-02  0.1341433E+00
          2   -1    0    0  501    0  0.00000000000E+00  0.00000000000E+00  0.54204863236E+01  0.54204863236E+01  0.00000000000E+00 0.  1.
          2   -1    0    0  502    0 -0.00000000000E+00 -0.00000000000E+00 -0.40679186706E+03  0.40679186706E+03  0.00000000000E+00 0.  1.
          2    1    1    2  501    0  0.32364105090E+02  0.25541394798E+02 -0.29934144185E+03  0.30216733270E+03  0.00000000000E+00 0.  1.
          2    1    1    2  502    0 -0.32364105090E+02 -0.25541394798E+02 -0.10202993889E+03  0.11004502068E+03  0.00000000000E+00 0.  1.
</event>
<event>
 4    1  0.8104768E+003  0.2140548E+02  0.7546771E-02  0.1513554E+00
          2   -1    0    0  502    0  0.00000000000E+00  0.00000000000E+00  0.41417005129E+02  0.41417005129E+02  0.00000000000E+00 0.  1.
          2   -1    0    0  501    0 -0.00000000000E+00 -0.00000000000E+00 -0.15308692195E+02  0.15308692195E+02  0.00000000000E+00 0. -1.
          2    1    1    2  501    0 -0.19676129113E+02  0.84288032832E+01  0.27990935769E+02  0.35237583159E+02  0.00000000000E+00 0.  1.
          2    1    1    2  502    0  0.19676129113E+02 -0.84288032832E+01 -0.18826228347E+01  0.21488114166E+02  0.00000000000E+00 0. -1.
</event>
<event>
 4    1  0.8104768E+003  0.3670624E+02  0.7546771E-02  0.1368949E+00
          2   -1    0    0  502    0  0.00000000000E+00  0.00000000000E+00  0.18828872282E+01  0.18828872282E+01  0.00000000000E+00 0.  1.
          2   -1    0    0  501    0 -0.00000000000E+00 -0.00000000000E+00 -0.14629475974E+04  0.14629475974E+04  0.00000000000E+00 0.  1.
          2    1    1    2  501    0  0.44311455302E+01  0.36437797315E+02 -0.20703872090E+03  0.21026740136E+03  0.00000000000E+00 0.  1.
          2    1    1    2  502    0 -0.44311455302E+01 -0.36437797315E+02 -0.12540259893E+04  0.12545630833E+04  0.00000000000E+00 0.  1.
</event>
<event>
 4    1  0.8104768E+003  0.2153428E+02  0.7546771E-02  0.1511772E+00
          2   -1    0    0  501    0  0.00000000000E+00  0.00000000000E+00  0.19834499332E+02  0.19834499332E+02  0.00000000000E+00 0. -1.
          2   -1    0    0  502    0 -0.00000000000E+00 -0.00000000000E+00 -0.21741474517E+03  0.21741474517E+03  0.00000000000E+00 0.  1.
          2    1    1    2  501    0  0.19221248074E+02  0.97092150011E+01 -0.21085522726E+03  0.21195200423E+03  0.00000000000E+00 0.  1.
          2    1    1    2  502    0 -0.19221248074E+02 -0.97092150011E+01  0.13274981426E+02  0.25297240271E+02  0.00000000000E+00 0. -1.
</event>
<event>
 4    1  0.8104768E+003  0.4804615E+02  0.7546771E-02  0.1306873E+00
          2   -1    0    0  501    0  0.00000000000E+00  0.00000000000E+00  0.71739473297E+02  0.71739473297E+02  0.00000000000E+00 0. -1.
          2   -1    0    0  502    0 -0.00000000000E+00 -0.00000000000E+00 -0.15256184459E+04  0.15256184459E+04  0.00000000000E+00 0. -1.
          2    1    1    2  501    0 -0.47528945033E+02  0.70307543216E+01 -0.15171507826E+04  0.15179113707E+04  0.00000000000E+00 0. -1.
          2    1    1    2  502    0  0.47528945033E+02 -0.70307543216E+01  0.63271810022E+02  0.79446548482E+02  0.00000000000E+00 0. -1.
</event>
<event>
 4    1  0.8104768E+003  0.3444398E+02  0.7546771E-02  0.1384515E+00
          2   -1    0    0  502    0  0.00000000000E+00  0.00000000000E+00  0.35288191053E+01  0.35288191053E+01  0.00000000000E+00 0. -1.
          2   -1    0    0  501    0 -0.00000000000E+00 -0.00000000000E+00 -0.11339251717E+04  0.11339251717E+04  0.00000000000E+00 0.  1.
          2    1    1    2  501    0  0.29702257301E+02  0.17440284662E+02 -0.88176187841E+02  0.94664817752E+02  0.00000000000E+00 0. -1.
          2    1    1    2  502    0 -0.29702257301E+02 -0.17440284662E+02 -0.10422201648E+04  0.10427891731E+04  0.00000000000E+00 0.  1.
</event>
<event>
 4    1  0.8104768E+003  0.2188360E+02  0.7546771E-02  0.1507014E+00
          2   -1    0    0  501    0  0.00000000000E+00  0.00000000000E+00  0.81094724565E+00  0.81094724565E+00  0.00000000000E+00 0.  1.
          2   -1    0    0  502    0 -0.00000000000E+00 -0.00000000000E+00 -0.78447354844E+03  0.78447354844E+03  0.00000000000E+00 0. -1.
          2    1    1    2  501    0  0.27335962359E+01 -0.21712189916E+02 -0.58705894571E+03  0.58746667776E+03  0.00000000000E+00 0. -1.
          2    1    1    2  502    0 -0.27335962359E+01  0.21712189916E+02 -0.19660365548E+03  0.19781781792E+03  0.00000000000E+00 0.  1.
</event>
<event>
 4    1  0.8104768E+003  0.2087836E+02  0.7546771E-02  0.1521009E+00
          2   -1    0    0  501    0  0.00000000000E+00  0.00000000000E+00  0.77278818951E+02  0.77278818951E+02  0.00000000000E+00 0. -1.
          2   -1    0    0  502    0 -0.00000000000E+00 -0.00000000000E+00 -0.86275755403E+01  0.86275755403E+01  0.00000000000E+00 0. -1.
          2    1    1    2  501    0  0.11318821081E+02  0.17543948372E+02  0.90524105500E+01  0.22756361130E+02  0.00000000000E+00 0. -1.
          2    1    1    2  502    0 -0.11318821081E+02 -0.17543948372E+02  0.59598832861E+02  0.63150033361E+02  0.00000000000E+00 0. -1.
</event>
<event>
 4    1  0.8104768E+003  0.2835951E+02  0.7546771E-02  0.1434410E+00
          2   -1    0    0  501    0  0.00000000000E+00  0.00000000000E+00  0.16377469140E+02  0.16377469140E+02  0.00000000000E+00 0. -1.
          2   -1    0    0  502    0 -0.00000000000E+00 -0.00000000000E+00 -0.51245454008E+03  0.51245454008E+03  0.00000000000E+00 0.  1.
          2    1    1    2  501    0 -0.25493253794E+02  0.12424005960E+02 -0.49946622796E+03  0.50027070151E+03  0.00000000000E+00 0.  1.
          2    1    1    2  502    0  0.25493253794E+02 -0.12424005960E+02  0.33891570176E+01  0.28561307715E+02  0.00000000000E+00 0. -1.
</event>
<event>
 4    1  0.8104768E+003  0.5535146E+02  0.7546771E-02  0.1276501E+00
          2   -1    0    0  502    0  0.00000000000E+00  0.00000000000E+00  0.15909998653E+04  0.15909998653E+04  0.00000000000E+00 0.  1.
          2   -1    0    0  501    0 -0.00000000000E+00 -0.00000000000E+00 -0.20848313234E+03  0.20848313234E+03  0.00000000000E+00 0. -1.
          2    1    1    2  501    0  0.45915077205E+02  0.30912614434E+02  0.15868349018E+04  0.15877999842E+04  0.00000000000E+00 0.  1.
          2    1    1    2  502    0 -0.45915077205E+02 -0.30912614434E+02 -0.20431816889E+03  0.21168301345E+03  0.00000000000E+00 0. -1.
</event>
<event>
 4    1  0.8104768E+003  0.2638917E+02  0.7546771E-02  0.1453842E+00
          2   -1    0    0  501    0  0.00000000000E+00  0.00000000000E+00  0.19091904673E+04  0.19091904673E+04  0.00000000000E+00 0.  1.
          2   -1    0    0  502    0 -0.00000000000E+00 -0.00000000000E+00 -0.13977667051E+01  0.13977667051E+01  0.00000000000E+00 0.  1.
          2    1    1    2  501    0 -0.71699724723E+00  0.26379430937E+02  0.13265238275E+03  0.13525177673E+03  0.00000000000E+00 0.  1.
          2    1    1    2  502    0  0.71699724723E+00 -0.26379430937E+02  0.17751403179E+04  0.17753364573E+04  0.00000000000E+00 0.  1.
</event>
<event>
 4    1  0.8104768E+003  0.1452896E+03  0.7546771E-02  0.1102545E+00
          2   -1    0    0  502    0  0.00000000000E+00  0.00000000000E+00  0.13254318408E+04  0.13254318408E+04  0.00000000000E+00 0.  1.
          2   -1    0    0  501    0 -0.00000000000E+00 -0.00000000000E+00 -0.80108326313E+03  0.80108326313E+03  0.00000000000E+00 0.  1.
          2    1    1    2  501    0 -0.13681267502E+03  0.48901603573E+02  0.13148095685E+04  0.13228126384E+04  0.00000000000E+00 0.  1.
          2    1    1    2  502    0  0.13681267502E+03 -0.48901603573E+02 -0.79046099090E+03  0.80370246547E+03  0.00000000000E+00 0.  1.
</event>
<event>
 4    1  0.8104768E+003  0.2824135E+02  0.7546771E-02  0.1435522E+00
          2   -1    0    0  502    0  0.00000000000E+00  0.00000000000E+00  0.16383710716E+04  0.16383710716E+04  0.00000000000E+00 0. -1.
          2   -1    0    0  501    0 -0.00000000000E+00 -0.00000000000E+00 -0.12590773836E+01  0.12590773836E+01  0.00000000000E+00 0.  1.
          2    1    1    2  501    0  0.19136389322E+02 -0.20769512213E+02  0.14606132746E+04  0.14608862762E+04  0.00000000000E+00 0. -1.
          2    1    1    2  502    0 -0.19136389322E+02  0.20769512213E+02  0.17649871967E+03  0.17874387284E+03  0.00000000000E+00 0.  1.
</event>
<event>
 4    1  0.1597624E+004  0.3074403E+02  0.7546771E-02  0.1413239E+00
          2   -1    0    0  501    0  0.00000000000E+00  0.00000000000E+00  0.14292813224E+04  0.14292813224E+04  0.00000000000E+00 0.  1.
          2   -1    0    0  502    0 -0.00000000000E+00 -0.00000000000E+00 -0.67134620170E+03  0.67134620170E+03  0.00000000000E+00 0. -1.
          2    1    1    2  501    0 -0.19361978581E+02  0.23881151303E+02 -0.67082876946E+03  0.67153289833E+03  0.00000000000E+00 0. -1.
          2    1    1    2  502    0  0.19361978581E+02 -0.23881151303E+02  0.14287638901E+04  0.14290946257E+04  0.00000000000E+00 0.  1.
</event>
<event>
 4    1  0.8104768E+003  0.2638048E+02  0.7546771E-02  0.1453933E+00
          2   -1    0    0  501    0  0.00000000000E+00  0.00000000000E+00  0.10133829040E+01  0.10133829040E+01  0.00000000000E+00 0. -1.
          2   -1    0    0  502    0 -0.00000000000E+00 -0.00000000000E+00 -0.16091721597E+04  0.16091721597E+04  0.00000000000E+00 0. -1.
          2    1    1    2  501    0 -0.26374062292E+02  0.58164907160E+00 -0.14136333316E+04  0.14138794594E+04  0.00000000000E+00 0. -1.
          2    1    1    2  502    0  0.26374062292E+02 -0.58164907160E+00 -0.19452544511E+03  0.19630608313E+03  0.00000000000E+00 0. -1.
</event>
<event>
 4    1  0.8104768E+003  0.2098159E+02  0.7546771E-02  0.1519528E+00
          2   -1    0    0  502    0  0.00000000000E+00  0.00000000000E+00  0.48395341387E+03  0.48395341387E+03  0.00000000000E+00 0.  1.
          2   -1    0    0  501    0 -0.00000000000E+00 -0.00000000000E+00 -0.47787277394E+03  0.47787277394E+03  0.00000000000E+00 0. -1.
          2    1    1    2  501    0 -0.15955622404E+02  0.13625171970E+02  0.48349547823E+03  0.48395051882E+03  0.00000000000E+00 0.  1.
          2    1    1    2  502    0  0.15955622404E+02 -0.13625171970E+02 -0.47741483830E+03  0.47787566900E+03  0.00000000000E+00 0. -1.
</event>
<event>
 4    1  0.8104768E+003  0.3496394E+02  0.7546771E-02  0.1380817E+00
          2   -1    0    0  501    0  0.00000000000E+00  0.00000000000E+00  0.21616444477E+03  0.21616444477E+03  0.00000000000E+00 0. -1.
          2   -1    0    0  502    0 -0.00000000000E+00 -0.00000000000E+00 -0.68669370041E+03  0.68669370041E+03  0.00000000000E+00 0.  1.
          2    1    1    2  501    0  0.19392767579E+02  0.29092910127E+02 -0.68483097093E+03  0.68572292918E+03  0.00000000000E+00 0.  1.
          2    1    1    2  502    0 -0.19392767579E+02 -0.29092910127E+02  0.21430171529E+03  0.21713521600E+03  0.00000000000E+00 0. -1.
</event>
<event>
 4    1  0.8104768E+003  0.3383287E+02  0.7546771E-02  0.1388959E+00
          2   -1    0    0  501    0  0.00000000000E+00  0.00000000000E+00  0.94942655532E+01  0.94942655532E+01  0.00000000000E+00 0.  1.
          2   -1    0    0  502    0 -0.00000000000E+00 -0.00000000000E+00 -0.53858265429E+03  0.53858265429E+03  0.00000000000E+00 0.  1.
          2    1    1    2  501    0  0.30627062031E+02  0.14375181461E+02 -0.50596982787E+03  0.50709972342E+03  0.00000000000E+00 0.  1.
          2    1    1    2  502    0 -0.30627062031E+02 -0.14375181461E+02 -0.23118560866E+02  0.40977196430E+02  0.00000000000E+00 0.  1.
</event>
<event>
 4    1  0.8104768E+003  0.3322533E+02  0.7546771E-02  0.1393488E+00
          2   -1    0    0  502    0  0.00000000000E+00  0.00000000000E+00  0.10173618007E+01  0.10173618007E+01  0.00000000000E+00 0.  1.
          2   -1    0    0  501    0 -0.00000000000E+00 -0.00000000000E+00 -0.13023739011E+04  0.13023739011E+04  0.00000000000E+00 0.  1.
          2    1    1    2  501    0 -0.28910576755E+02 -0.16373792615E+02 -0.38448491499E+03  0.38591783114E+03  0.00000000000E+00 0.  1.
          2    1    1    2  502    0  0.28910576755E+02  0.16373792615E+02 -0.91687162435E+03  0.91747343181E+03  0.00000000000E+00 0.  1.
</event>
<event>
 4    1  0.8104768E+003  0.2085595E+02  0.7546771E-02  0.1521331E+00
          2   -1    0    0  502    0  0.00000000000E+00  0.00000000000E+00  0.20961907860E+03  0.20961907860E+03  0.00000000000E+00 0. -1.
          2   -1    0    0  501    0 -0.00000000000E+00 -0.00000000000E+00 -0.15743290968E+02  0.15743290968E+02  0.00000000000E+00 0. -1.
          2    1    1    2  501    0  0.18566633946E+02  0.95000464713E+01  0.20193078697E+03  0.20300495931E+03  0.00000000000E+00 0. -1.
          2    1    1    2  502    0 -0.18566633946E+02 -0.95000464713E+01 -0.80549993376E+01  0.22357410257E+02  0.00000000000E+00 0. -1.
</event>
<event>
 4    1  0.8104768E+003  0.2125056E+02  0.7546771E-02  0.1515717E+00
          2   -1    0    0  502    0  0.00000000000E+00  0.00000000000E+00  0.16015223790E+03  0.16015223790E+03  0.00000000000E+00 0. -1.
          2   -1    0    0  501    0 -0.00000000000E+00 -0.00000000000E+00 -0.77379945683E+03  0.77379945683E+03  0.00000000000E+00 0. -1.
          2    1    1    2  501    0  0.58514512970E+01  0.20429065376E+02  0.15930062971E+03  0.16071178183E+03  0.00000000000E+00 0. -1.
          2    1    1    2  502    0 -0.58514512970E+01 -0.20429065376E+02 -0.77294784863E+03  0.77323991290E+03  0.00000000000E+00 0. -1.
</event>
<event>
 4    1  0.8104768E+003  0.2072809E+02  0.7546771E-02  0.1523183E+00
          2   -1    0    0  501    0  0.00000000000E+00  0.00000000000E+00  0.22049506372E+03  0.22049506372E+03  0.00000000000E+00 0.  1.
          2   -1    0    0  502    0 -0.00000000000E+00 -0.00000000000E+00 -0.12582362381E+03  0.12582362381E+03  0.00000000000E+00 0.  1.
          2    1    1    2  501    0 -0.20624578799E+02 -0.20688914647E+01 -0.12447756330E+03  0.12619158977E+03  0.00000000000E+00 0.  1.
          2    1    1    2  502    0  0.20624578799E+02  0.20688914647E+01  0.21914900321E+03  0.22012709776E+03  0.00000000000E+00 0.  1.
</event>
<event>
 4    1  0.8104768E+003  0.2302053E+02  0.7546771E-02  0.1492240E+00
          2   -1    0    0  502    0  0.00000000000E+00  0.00000000000E+00  0.32655044192E+02  0.32655044192E+02  0.00000000000E+00 0.  1.
          2   -1    0    0  501    0 -0.00000000000E+00 -0.00000000000E+00 -0.10030040183E+04  0.10030040183E+04  0.00000000000E+00 0.  1.
          2    1    1    2  501    0 -0.18075857235E+02 -0.14255116079E+02  0.28448726206E+02  0.36596105967E+02  0.00000000000E+00 0.  1.
          2    1    1    2  502    0  0.18075857235E+02  0.14255116079E+02 -0.99879770033E+03  0.99906295654E+03  0.00000000000E+00 0.  1.
</event>
<event>
 4    1  0.8104768E+003  0.2571819E+02  0.7546771E-02  0.1460927E+00
          2   -1    0    0  501    0  0.00000000000E+00  0.00000000000E+00  0.20860309568E+04  0.20860309568E+04  0.00000000000E+00 0.  1.
          2   -1    0    0  502    0 -0.00000000000E+00 -0.00000000000E+00 -0.34702253218E+00  0.34702253218E+00  0.00000000000E+00 0. -1.
          2    1    1    2  501    0 -0.24007807063E+02 -0.92222872743E+01  0.73638133095E+03  0.73683029930E+03  0.00000000000E+00 0. -1.
          2    1    1    2  502    0  0.24007807063E+02  0.92222872743E+01  0.13493026033E+04  0.13495476801E+04  0.00000000000E+00 0.  1.
</event>
<event>
 4    1  0.8104768E+003  0.2051233E+02  0.7546771E-02  0.1526343E+00
          2   -1    0    0  502    0  0.00000000000E+00  0.00000000000E+00  0.20748553355E+03  0.20748553355E+03  0.00000000000E+00 0.  1.
          2   -1    0    0  501    0 -0.00000000000E+00 -0.00000000000E+00 -0.12183049306E+03  0.12183049306E+03  0.00000000000E+00 0.  1.
          2    1    1    2  501    0  0.19729646523E+02 -0.56122050451E+01  0.20610940893E+03  0.20712760378E+03  0.00000000000E+00 0.  1.
          2    1    1    2  502    0 -0.19729646523E+02  0.56122050451E+01 -0.12045436844E+03  0.12218842283E+03  0.00000000000E+00 0.  1.
</event>
<event>
 4    1  0.8104768E+003  0.3596111E+02  0.7546771E-02  0.1373929E+00
          2   -1    0    0  501    0  0.00000000000E+00  0.00000000000E+00  0.31829697615E+02  0.31829697615E+02  0.00000000000E+00 0.  1.
          2   -1    0    0  502    0 -0.00000000000E+00 -0.00000000000E+00 -0.53940521502E+03  0.53940521502E+03  0.00000000000E+00 0.  1.
          2    1    1    2  501    0  0.34305427550E+02 -0.10786051828E+02 -0.52843810247E+03  0.52966029624E+03  0.00000000000E+00 0.  1.
          2    1    1    2  502    0 -0.34305427550E+02  0.10786051828E+02  0.20862585059E+02  0.41574616399E+02  0.00000000000E+00 0.  1.
</event>
<event>
 4    1  0.8104768E+003  0.2399155E+02  0.7546771E-02  0.1480409E+00
          2   -1    0    0  502    0  0.00000000000E+00  0.00000000000E+00  0.81078723144E+01  0.81078723144E+01  0.00000000000E+00 0.  1.
          2   -1    0    0  501    0 -0.00000000000E+00 -0.00000000000E+00 -0.72594771658E+02  0.72594771658E+02  0.00000000000E+00 0. -1.
          2    1    1    2  501    0 -0.23951105468E+02 -0.13925537670E+01 -0.26247871068E+02  0.35560447055E+02  0.00000000000E+00 0.  1.
          2    1    1    2  502    0  0.23951105468E+02  0.13925537670E+01 -0.38239028276E+02  0.45142196918E+02  0.00000000000E+00 0. -1.
</event>
<event>
 4    1  0.8104768E+003  0.2804801E+02  0.7546771E-02  0.1437355E+00
          2   -1    0    0  502    0  0.00000000000E+00  0.00000000000E+00  0.34949992810E+02  0.34949992810E+02  0.00000000000E+00 0. -1.
          2   -1    0    0  501    0 -0.00000000000E+00 -0.00000000000E+00 -0.28912950599E+02  0.28912950599E+02  0.00000000000E+00 0.  1.
          2    1    1    2  501    0 -0.71375838150E+01 -0.27124635401E+02  0.18046313997E+02  0.33352067361E+02  0.00000000000E+00 0. -1.
          2    1    1    2  502    0  0.71375838150E+01  0.27124635401E+02 -0.12009271787E+02  0.30510876048E+02  0.00000000000E+00 0.  1.
</event>
<event>
 4    1  0.8104768E+003  0.2186302E+02  0.7546771E-02  0.1507291E+00
          2   -1    0    0  501    0  0.00000000000E+00  0.00000000000E+00  0.18262989076E+01  0.18262989076E+01  0.00000000000E+00 0.  1.
          2   -1    0    0  502    0 -0.00000000000E+00 -0.00000000000E+00 -0.13779007125E+04  0.13779007125E+04  0.00000000000E+00 0.  1.
          2    1    1    2  501    0 -0.21861135902E+02  0.28677747751E+00 -0.13089350171E+04  0.13091175923E+04  0.00000000000E+00 0.  1.
          2    1    1    2  502    0  0.21861135902E+02 -0.28677747751E+00 -0.67139396534E+02  0.70609419140E+02  0.00000000000E+00 0.  1.
</event>
