<event>
 4    1  0.1772365E+004  0.3147216E+02  0.7546771E-02  0.1407221E+00
         21   -1    0    0  503  502  0.00000000000E+00  0.00000000000E+00  0.16976352868E+02  0.16976352868E+02  0.00000000000E+00 0.  1.
         21   -1    0    0  501  503 -0.00000000000E+00 -0.00000000000E+00 -0.10723578097E+03  0.10723578097E+03  0.00000000000E+00 0. -1.
          2    1    1    2  501    0  0.28121185401E+00 -0.31470900406E+02 -0.87064524732E+02  0.92578227026E+02  0.00000000000E+00 0. -1.
         -2    1    1    2    0  502 -0.28121185401E+00  0.31470900406E+02 -0.31949033676E+01  0.31633906809E+02  0.00000000000E+00 0.  1.
</event>
<event>
 4    1  0.1772365E+004  0.4051519E+02  0.7546771E-02  0.1345493E+00
         21   -1    0    0  501  502  0.00000000000E+00  0.00000000000E+00  0.11687558019E+02  0.11687558019E+02  0.00000000000E+00 0.  1.
         21   -1    0    0  502  503 -0.00000000000E+00 -0.00000000000E+00 -0.14110836412E+03  0.14110836412E+03  0.00000000000E+00 0. -1.
          2    1    1    2  501    0 -0.30042242581E+02 -0.27183526647E+02 -0.59479436937E+02  0.71967241705E+02  0.00000000000E+00 0.  1.
         -2    1    1    2    0  503  0.30042242581E+02  0.27183526647E+02 -0.69941369167E+02  0.80828680437E+02  0.00000000000E+00 0. -1.
</event>
<event>
 4    1  0.1772365E+004  0.2082091E+02  0.7546771E-02  0.1521837E+00
         21   -1    0    0  503  502  0.00000000000E+00  0.00000000000E+00  0.24078095692E+03  0.24078095692E+03  0.00000000000E+00 0. -1.
         21   -1    0    0  501  503 -0.00000000000E+00 -0.00000000000E+00 -0.16911052807E+02  0.16911052807E+02  0.00000000000E+00 0.  1.
          2    1    1    2  501    0  0.20740154345E+02  0.18320227247E+01 -0.98592890576E+01  0.23037271762E+02  0.00000000000E+00 0.  1.
         -2    1    1    2    0  502 -0.20740154345E+02 -0.18320227247E+01  0.23372919317E+03  0.23465473797E+03  0.00000000000E+00 0. -1.
</event>
<event>
 4    1  0.1772365E+004  0.2860757E+02  0.7546771E-02  0.1432095E+00
         21   -1    0    0  501  502  0.00000000000E+00  0.00000000000E+00  0.29165215764E+02  0.29165215764E+02  0.00000000000E+00 0. -1.
         21   -1    0    0  502  503 -0.00000000000E+00 -0.00000000000E+00 -0.79131501292E+02  0.79131501292E+02  0.00000000000E+00 0.  1.
          2    1    1    2  501    0  0.20973567877E+02 -0.19455134899E+02  0.18517677494E+02  0.34077811010E+02  0.00000000000E+00 0. -1.
         -2    1    1    2    0  503 -0.20973567877E+02  0.19455134899E+02 -0.68483963023E+02  0.74218906046E+02  0.00000000000E+00 0.  1.
</event>
<event>
 4    1  0.1772365E+004  0.2460210E+02  0.7546771E-02  0.1473304E+00
         21   -1    0    0  501  502  0.00000000000E+00  0.00000000000E+00  0.47425754180E+03  0.47425754180E+03  0.00000000000E+00 0.  1.
         21   -1    0    0  502  503 -0.00000000000E+00 -0.00000000000E+00 -0.16123774408E+01  0.16123774408E+01  0.00000000000E+00 0. -1.
          2    1    1    2  501    0  0.23311818153E+02  0.78627273180E+01  0.34496203415E+03  0.34583821124E+03  0.00000000000E+00 0.  1.
         -2    1    1    2    0  503 -0.23311818153E+02 -0.78627273180E+01  0.12768313021E+03  0.13003170800E+03  0.00000000000E+00 0. -1.
</event>
<event>
 4    1  0.1772365E+004  0.2752938E+02  0.7546771E-02  0.1442362E+00
         21   -1    0    0  501  502  0.00000000000E+00  0.00000000000E+00  0.21253182033E+02  0.21253182033E+02  0.00000000000E+00 0.  1.
         21   -1    0    0  502  503 -0.00000000000E+00 -0.00000000000E+00 -0.13965322838E+03  0.13965322838E+03  0.00000000000E+00 0. -1.
          2    1    1    2  501    0  0.10440110277E+02  0.25472943397E+02  0.10226037824E+02  0.29367304907E+02  0.00000000000E+00 0.  1.
         -2    1    1    2    0  503 -0.10440110277E+02 -0.25472943397E+02 -0.12862608417E+03  0.13153910550E+03  0.00000000000E+00 0. -1.
</event>
<event>
 4    1  0.1772365E+004  0.2163929E+02  0.7546771E-02  0.1510330E+00
         21   -1    0    0  501  502  0.00000000000E+00  0.00000000000E+00  0.68324651206E+01  0.68324651206E+01  0.00000000000E+00 0. -1.
         21   -1    0    0  502  503 -0.00000000000E+00 -0.00000000000E+00 -0.22503580748E+03  0.22503580748E+03  0.00000000000E+00 0.  1.
          2    1    1    2  501    0 -0.15745932994E+02 -0.14843325244E+02 -0.12419882013E+02  0.24950193975E+02  0.00000000000E+00 0. -1.
         -2    1    1    2    0  503  0.15745932994E+02  0.14843325244E+02 -0.20578346035E+03  0.20691807863E+03  0.00000000000E+00 0.  1.
</event>
<event>
 4    1  0.1772365E+004  0.3294642E+02  0.7546771E-02  0.1395605E+00
         21   -1    0    0  503  502  0.00000000000E+00  0.00000000000E+00  0.41061206793E+03  0.41061206793E+03  0.00000000000E+00 0.  1.
         21   -1    0    0  501  503 -0.00000000000E+00 -0.00000000000E+00 -0.36538020780E+01  0.36538020780E+01  0.00000000000E+00 0. -1.
          2    1    1    2  501    0  0.29982613563E+02  0.13656850560E+02  0.94562273240E+02  0.10013735668E+03  0.00000000000E+00 0. -1.
         -2    1    1    2    0  502 -0.29982613563E+02 -0.13656850560E+02  0.31239599261E+03  0.31412851332E+03  0.00000000000E+00 0.  1.
</event>
<event>
 4    1  0.1772365E+004  0.2127014E+02  0.7546771E-02  0.1515443E+00
         21   -1    0    0  503  502  0.00000000000E+00  0.00000000000E+00  0.25511728605E+02  0.25511728605E+02  0.00000000000E+00 0.  1.
         21   -1    0    0  501  503 -0.00000000000E+00 -0.00000000000E+00 -0.18998700256E+02  0.18998700256E+02  0.00000000000E+00 0. -1.
          2    1    1    2  501    0  0.19415085920E+02  0.86875488174E+01 -0.24860193963E+01  0.21414933065E+02  0.00000000000E+00 0. -1.
         -2    1    1    2    0  502 -0.19415085920E+02 -0.86875488174E+01  0.89990477454E+01  0.23095495796E+02  0.00000000000E+00 0.  1.
</event>
<event>
 4    1  0.1772365E+004  0.2200681E+02  0.7546771E-02  0.1505361E+00
         21   -1    0    0  503  502  0.00000000000E+00  0.00000000000E+00  0.31278812729E+00  0.31278812729E+00  0.00000000000E+00 0. -1.
         21   -1    0    0  501  503 -0.00000000000E+00 -0.00000000000E+00 -0.15506011246E+04  0.15506011246E+04  0.00000000000E+00 0.  1.
          2    1    1    2  501    0  0.21118663478E+02 -0.61888230925E+01 -0.74547156826E+03  0.74579632512E+03  0.00000000000E+00 0.  1.
         -2    1    1    2    0  502 -0.21118663478E+02  0.61888230925E+01 -0.80481676816E+03  0.80511758755E+03  0.00000000000E+00 0. -1.
</event>
<event>
 4    1  0.1772365E+004  0.2482603E+02  0.7546771E-02  0.1470759E+00
         21   -1    0    0  503  502  0.00000000000E+00  0.00000000000E+00  0.24392177012E+03  0.24392177012E+03  0.00000000000E+00 0.  1.
         21   -1    0    0  501  503 -0.00000000000E+00 -0.00000000000E+00 -0.25771888788E+01  0.25771888788E+01  0.00000000000E+00 0. -1.
          2    1    1    2  501    0 -0.19570803078E+02 -0.15274667887E+02  0.10343174865E+03  0.10636944317E+03  0.00000000000E+00 0. -1.
         -2    1    1    2    0  502  0.19570803078E+02  0.15274667887E+02  0.13791283259E+03  0.14012951582E+03  0.00000000000E+00 0.  1.
</event>
<event>
 4    1  0.1772365E+004  0.2922450E+02  0.7546771E-02  0.1426457E+00
         21   -1    0    0  501  502  0.00000000000E+00  0.00000000000E+00  0.60733846862E+02  0.60733846862E+02  0.00000000000E+00 0.  1.
         21   -1    0    0  502  503 -0.00000000000E+00 -0.00000000000E+00 -0.14065944296E+02  0.14065944296E+02  0.00000000000E+00 0. -1.
          2    1    1    2  501    0 -0.18353716727E+02 -0.22742304795E+02  0.23916918614E+02  0.37763611335E+02  0.00000000000E+00 0. -1.
         -2    1    1    2    0  503  0.18353716727E+02  0.22742304795E+02  0.22750983953E+02  0.37036179823E+02  0.00000000000E+00 0.  1.
</event>
<event>
 4    1  0.1772365E+004  0.2028122E+02  0.7546771E-02  0.1529779E+00
         21   -1    0    0  503  502  0.00000000000E+00  0.00000000000E+00  0.71755006024E+02  0.71755006024E+02  0.00000000000E+00 0. -1.
         21   -1    0    0  501  503 -0.00000000000E+00 -0.00000000000E+00 -0.20583359642E+02  0.20583359642E+02  0.00000000000E+00 0.  1.
          2    1    1    2  501    0 -0.17836771749E+02 -0.96528385120E+01 -0.13630913654E+02  0.24436233851E+02  0.00000000000E+00 0.  1.
         -2    1    1    2    0  502  0.17836771749E+02  0.96528385120E+01  0.64802560036E+02  0.67902131815E+02  0.00000000000E+00 0. -1.
</event>
<event>
 4    1  0.1772365E+004  0.2033892E+02  0.7546771E-02  0.1528916E+00
         21   -1    0    0  501  502  0.00000000000E+00  0.00000000000E+00  0.55176370166E+01  0.55176370166E+01  0.00000000000E+00 0. -1.
         21   -1    0    0  502  503 -0.00000000000E+00 -0.00000000000E+00 -0.10317603363E+03  0.10317603363E+03  0.00000000000E+00 0.  1.
          2    1    1    2  501    0  0.51804597888E+01  0.19668108092E+02 -0.20414976067E+02  0.28817405979E+02  0.00000000000E+00 0. -1.
         -2    1    1    2    0  503 -0.51804597888E+01 -0.19668108092E+02 -0.77243420543E+02  0.79876264664E+02  0.00000000000E+00 0.  1.
</event>
<event>
 4    1  0.1772365E+004  0.3888589E+02  0.7546771E-02  0.1355141E+00
         21   -1    0    0  503  502  0.00000000000E+00  0.00000000000E+00  0.17785169957E+03  0.17785169957E+03  0.00000000000E+00 0.  1.
         21   -1    0    0  501  503 -0.00000000000E+00 -0.00000000000E+00 -0.11933333837E+02  0.11933333837E+02  0.00000000000E+00 0. -1.
          2    1    1    2  501    0 -0.37911941515E+02 -0.86485130823E+01  0.32075735260E+02  0.50407984293E+02  0.00000000000E+00 0. -1.
         -2    1    1    2    0  502  0.37911941515E+02  0.86485130823E+01  0.13384263047E+03  0.13937704911E+03  0.00000000000E+00 0.  1.
</event>
<event>
 4    1  0.1772365E+004  0.2324146E+02  0.7546771E-02  0.1489488E+00
         21   -1    0    0  503  502  0.00000000000E+00  0.00000000000E+00  0.31756193318E+02  0.31756193318E+02  0.00000000000E+00 0. -1.
         21   -1    0    0  501  503 -0.00000000000E+00 -0.00000000000E+00 -0.19628944710E+02  0.19628944710E+02  0.00000000000E+00 0.  1.
          2    1    1    2  501    0 -0.19831896516E+02  0.12118629258E+02 -0.33215413521E+01  0.23477604892E+02  0.00000000000E+00 0.  1.
         -2    1    1    2    0  502  0.19831896516E+02 -0.12118629258E+02  0.15448789960E+02  0.27907533136E+02  0.00000000000E+00 0. -1.
</event>
<event>
 4    1  0.1772365E+004  0.4398768E+02  0.7546771E-02  0.1326579E+00
         21   -1    0    0  503  502  0.00000000000E+00  0.00000000000E+00  0.59767902078E+02  0.59767902078E+02  0.00000000000E+00 0.  1.
         21   -1    0    0  501  503 -0.00000000000E+00 -0.00000000000E+00 -0.52256626921E+02  0.52256626921E+02  0.00000000000E+00 0. -1.
          2    1    1    2  501    0  0.70480031709E+01  0.43419372626E+02 -0.30794606175E+02  0.53695661253E+02  0.00000000000E+00 0. -1.
         -2    1    1    2    0  502 -0.70480031709E+01 -0.43419372626E+02  0.38305881332E+02  0.58328867746E+02  0.00000000000E+00 0.  1.
</event>
<event>
 4    1  0.1772365E+004  0.2977681E+02  0.7546771E-02  0.1421546E+00
         21   -1    0    0  501  502  0.00000000000E+00  0.00000000000E+00  0.43286019109E+01  0.43286019109E+01  0.00000000000E+00 0.  1.
         21   -1    0    0  502  503 -0.00000000000E+00 -0.00000000000E+00 -0.29967915166E+03  0.29967915166E+03  0.00000000000E+00 0. -1.
          2    1    1    2  501    0  0.50535982909E+01 -0.29344837588E+02 -0.62163322196E+02  0.68927040958E+02  0.00000000000E+00 0.  1.
         -2    1    1    2    0  503 -0.50535982909E+01  0.29344837588E+02 -0.23318722755E+03  0.23508071261E+03  0.00000000000E+00 0. -1.
</event>
<event>
 4    1  0.1772365E+004  0.2721340E+02  0.7546771E-02  0.1445476E+00
         21   -1    0    0  503  502  0.00000000000E+00  0.00000000000E+00  0.91793663432E+01  0.91793663432E+01  0.00000000000E+00 0.  1.
         21   -1    0    0  501  503 -0.00000000000E+00 -0.00000000000E+00 -0.85017631527E+02  0.85017631527E+02  0.00000000000E+00 0. -1.
          2    1    1    2  501    0  0.88466469708E+00 -0.27199013838E+02 -0.27277691917E+02  0.38531045427E+02  0.00000000000E+00 0.  1.
         -2    1    1    2    0  502 -0.88466469708E+00  0.27199013838E+02 -0.48560573267E+02  0.55665952443E+02  0.00000000000E+00 0. -1.
</event>
<event>
 4    1  0.1772365E+004  0.3810067E+02  0.7546771E-02  0.1359990E+00
         21   -1    0    0  501  502  0.00000000000E+00  0.00000000000E+00  0.10277344539E+02  0.10277344539E+02  0.00000000000E+00 0. -1.
         21   -1    0    0  502  503 -0.00000000000E+00 -0.00000000000E+00 -0.14561975223E+03  0.14561975223E+03  0.00000000000E+00 0.  1.
          2    1    1    2  501    0 -0.17675492214E+02 -0.33752599221E+02 -0.54166232333E+02  0.66224177641E+02  0.00000000000E+00 0.  1.
         -2    1    1    2    0  503  0.17675492214E+02  0.33752599221E+02 -0.81176175358E+02  0.89672919128E+02  0.00000000000E+00 0. -1.
</event>
<event>
 4    1  0.1772365E+004  0.2200756E+02  0.7546771E-02  0.1505351E+00
         21   -1    0    0  501  502  0.00000000000E+00  0.00000000000E+00  0.38327995887E+03  0.38327995887E+03  0.00000000000E+00 0.  1.
         21   -1    0    0  502  503 -0.00000000000E+00 -0.00000000000E+00 -0.36448025031E+01  0.36448025031E+01  0.00000000000E+00 0. -1.
          2    1    1    2  501    0  0.29020026866E+01 -0.21815388191E+02  0.34618737808E+03  0.34688619679E+03  0.00000000000E+00 0.  1.
         -2    1    1    2    0  503 -0.29020026866E+01  0.21815388191E+02  0.33447778286E+02  0.40038564582E+02  0.00000000000E+00 0. -1.
</event>
<event>
 4    1  0.1772365E+004  0.3255766E+02  0.7546771E-02  0.1398598E+00
         21   -1    0    0  503  502  0.00000000000E+00  0.00000000000E+00  0.17914562362E+02  0.17914562362E+02  0.00000000000E+00 0.  1.
         21   -1    0    0  501  503 -0.00000000000E+00 -0.00000000000E+00 -0.71804045803E+02  0.71804045803E+02  0.00000000000E+00 0. -1.
          2    1    1    2  501    0  0.31892563383E+02 -0.65471607724E+01 -0.45761850156E+02  0.56161800568E+02  0.00000000000E+00 0. -1.
         -2    1    1    2    0  502 -0.31892563383E+02  0.65471607724E+01 -0.81276332852E+01  0.33556807598E+02  0.00000000000E+00 0.  1.
</event>
<event>
 4    1  0.1772365E+004  0.2128314E+02  0.7546771E-02  0.1515261E+00
         21   -1    0    0  501  502  0.00000000000E+00  0.00000000000E+00  0.84320797762E+02  0.84320797762E+02  0.00000000000E+00 0.  1.
         21   -1    0    0  502  503 -0.00000000000E+00 -0.00000000000E+00 -0.61699137511E+01  0.61699137511E+01  0.00000000000E+00 0. -1.
          2    1    1    2  501    0 -0.77454749800E+01  0.19823712336E+02  0.55346298292E+02  0.59297425644E+02  0.00000000000E+00 0.  1.
         -2    1    1    2    0  503  0.77454749800E+01 -0.19823712336E+02  0.22804585719E+02  0.31193285869E+02  0.00000000000E+00 0. -1.
</event>
<event>
 4    1  0.1772365E+004  0.2069612E+02  0.7546771E-02  0.1523648E+00
         21   -1    0    0  501  502  0.00000000000E+00  0.00000000000E+00  0.19339083367E+02  0.19339083367E+02  0.00000000000E+00 0. -1.
         21   -1    0    0  502  503 -0.00000000000E+00 -0.00000000000E+00 -0.53733733722E+02  0.53733733722E+02  0.00000000000E+00 0.  1.
          2    1    1    2  501    0  0.14186424831E+02  0.15068993551E+02  0.10814749250E+02  0.23351402901E+02  0.00000000000E+00 0. -1.
         -2    1    1    2    0  503 -0.14186424831E+02 -0.15068993551E+02 -0.45209399605E+02  0.49721414187E+02  0.00000000000E+00 0.  1.
</event>
<event>
 4    1  0.1772365E+004  0.2497703E+02  0.7546771E-02  0.1469061E+00
         21   -1    0    0  503  502  0.00000000000E+00  0.00000000000E+00  0.17075100252E+02  0.17075100252E+02  0.00000000000E+00 0. -1.
         21   -1    0    0  501  503 -0.00000000000E+00 -0.00000000000E+00 -0.12132720467E+03  0.12132720467E+03  0.00000000000E+00 0.  1.
          2    1    1    2  501    0 -0.17019878876E+02  0.18280474258E+02 -0.10997696437E+03  0.11277758956E+03  0.00000000000E+00 0.  1.
         -2    1    1    2    0  502  0.17019878876E+02 -0.18280474258E+02  0.57248599462E+01  0.25624715363E+02  0.00000000000E+00 0. -1.
</event>
<event>
 4    1  0.1772365E+004  0.3877131E+02  0.7546771E-02  0.1355840E+00
         21   -1    0    0  503  502  0.00000000000E+00  0.00000000000E+00  0.14602285204E+03  0.14602285204E+03  0.00000000000E+00 0. -1.
         21   -1    0    0  501  503 -0.00000000000E+00 -0.00000000000E+00 -0.10905158900E+02  0.10905158900E+02  0.00000000000E+00 0.  1.
          2    1    1    2  501    0 -0.20320174765E+02 -0.33019770354E+02  0.86128186469E+02  0.94452523741E+02  0.00000000000E+00 0. -1.
         -2    1    1    2    0  502  0.20320174765E+02  0.33019770354E+02  0.48989506669E+02  0.62475487196E+02  0.00000000000E+00 0.  1.
</event>
<event>
 4    1  0.1772365E+004  0.2077498E+02  0.7546771E-02  0.1522502E+00
         21   -1    0    0  501  502  0.00000000000E+00  0.00000000000E+00  0.43563730064E+02  0.43563730064E+02  0.00000000000E+00 0. -1.
         21   -1    0    0  502  503 -0.00000000000E+00 -0.00000000000E+00 -0.23980748878E+02  0.23980748878E+02  0.00000000000E+00 0.  1.
          2    1    1    2  501    0 -0.15133025279E+02 -0.14233454256E+02  0.35663401105E+02  0.41273209865E+02  0.00000000000E+00 0. -1.
         -2    1    1    2    0  503  0.15133025279E+02  0.14233454256E+02 -0.16080419919E+02  0.26271269077E+02  0.00000000000E+00 0.  1.
</event>
<event>
 4    1  0.1772365E+004  0.2284097E+02  0.7546771E-02  0.1494505E+00
         21   -1    0    0  501  502  0.00000000000E+00  0.00000000000E+00  0.14267999624E+03  0.14267999624E+03  0.00000000000E+00 0.  1.
         21   -1    0    0  502  503 -0.00000000000E+00 -0.00000000000E+00 -0.36570073287E+01  0.36570073287E+01  0.00000000000E+00 0. -1.
          2    1    1    2  501    0  0.13112282025E+02  0.18702348178E+02  0.70371141606E+02  0.73985183234E+02  0.00000000000E+00 0. -1.
         -2    1    1    2    0  503 -0.13112282025E+02 -0.18702348178E+02  0.68651847305E+02  0.72351820334E+02  0.00000000000E+00 0.  1.
</event>
<event>
 4    1  0.1772365E+004  0.2172911E+02  0.7546771E-02  0.1509105E+00
         21   -1    0    0  501  502  0.00000000000E+00  0.00000000000E+00  0.16353377309E+03  0.16353377309E+03  0.00000000000E+00 0. -1.
         21   -1    0    0  502  503 -0.00000000000E+00 -0.00000000000E+00 -0.32027763194E+01  0.32027763194E+01  0.00000000000E+00 0.  1.
          2    1    1    2  501    0 -0.10027601262E+02 -0.19276963800E+02  0.10633480359E+03  0.10853222828E+03  0.00000000000E+00 0. -1.
         -2    1    1    2    0  503  0.10027601262E+02  0.19276963800E+02  0.53996193179E+02  0.58204321130E+02  0.00000000000E+00 0.  1.
</event>
<event>
 4    1  0.1772365E+004  0.2556630E+02  0.7546771E-02  0.1462567E+00
         21   -1    0    0  503  502  0.00000000000E+00  0.00000000000E+00  0.14290512166E+02  0.14290512166E+02  0.00000000000E+00 0. -1.
         21   -1    0    0  501  503 -0.00000000000E+00 -0.00000000000E+00 -0.83238555334E+03  0.83238555334E+03  0.00000000000E+00 0.  1.
          2    1    1    2  501    0  0.61149228656E+01  0.24824249742E+02 -0.82059012839E+03  0.82098830349E+03  0.00000000000E+00 0.  1.
         -2    1    1    2    0  502 -0.61149228656E+01 -0.24824249742E+02  0.24950872204E+01  0.25687762011E+02  0.00000000000E+00 0. -1.
</event>
<event>
 4    1  0.1772365E+004  0.3072170E+02  0.7546771E-02  0.1413427E+00
         21   -1    0    0  503  502  0.00000000000E+00  0.00000000000E+00  0.19558561681E+01  0.19558561681E+01  0.00000000000E+00 0. -1.
         21   -1    0    0  501  503 -0.00000000000E+00 -0.00000000000E+00 -0.97212928386E+03  0.97212928386E+03  0.00000000000E+00 0.  1.
          2    1    1    2  501    0 -0.13517245281E+01 -0.30691948453E+02 -0.83071627329E+03  0.83128415693E+03  0.00000000000E+00 0.  1.
         -2    1    1    2    0  502  0.13517245281E+01  0.30691948453E+02 -0.13945715440E+03  0.14280098310E+03  0.00000000000E+00 0. -1.
</event>
<event>
 4    1  0.1772365E+004  0.2187300E+02  0.7546771E-02  0.1507156E+00
         21   -1    0    0  503  502  0.00000000000E+00  0.00000000000E+00  0.28613076523E+02  0.28613076523E+02  0.00000000000E+00 0.  1.
         21   -1    0    0  501  503 -0.00000000000E+00 -0.00000000000E+00 -0.17761869276E+02  0.17761869276E+02  0.00000000000E+00 0. -1.
          2    1    1    2  501    0 -0.40404129181E+01 -0.21496587148E+02 -0.18859511109E+00  0.21873814566E+02  0.00000000000E+00 0. -1.
         -2    1    1    2    0  502  0.40404129181E+01  0.21496587148E+02  0.11039802358E+02  0.24501131232E+02  0.00000000000E+00 0.  1.
</event>
<event>
 4    1  0.1772365E+004  0.2444000E+02  0.7546771E-02  0.1475167E+00
         21   -1    0    0  501  502  0.00000000000E+00  0.00000000000E+00  0.18948477720E+02  0.18948477720E+02  0.00000000000E+00 0. -1.
         21   -1    0    0  502  503 -0.00000000000E+00 -0.00000000000E+00 -0.12319647590E+03  0.12319647590E+03  0.00000000000E+00 0.  1.
          2    1    1    2  501    0  0.27750293582E+01 -0.24281939604E+02  0.91849811923E+01  0.26108949776E+02  0.00000000000E+00 0. -1.
         -2    1    1    2    0  503 -0.27750293582E+01  0.24281939604E+02 -0.11343297938E+03  0.11603600385E+03  0.00000000000E+00 0.  1.
</event>
<event>
 4    1  0.1772365E+004  0.2077283E+02  0.7546771E-02  0.1522533E+00
         21   -1    0    0  501  502  0.00000000000E+00  0.00000000000E+00  0.67364792286E+00  0.67364792286E+00  0.00000000000E+00 0. -1.
         21   -1    0    0  502  503 -0.00000000000E+00 -0.00000000000E+00 -0.64480250755E+03  0.64480250755E+03  0.00000000000E+00 0.  1.
          2    1    1    2  501    0 -0.82158256367E+00 -0.20756580647E+02 -0.34824897565E+03  0.34886796884E+03  0.00000000000E+00 0. -1.
         -2    1    1    2    0  503  0.82158256367E+00  0.20756580647E+02 -0.29587988397E+03  0.29660818663E+03  0.00000000000E+00 0.  1.
</event>
<event>
 4    1  0.1772365E+004  0.2389890E+02  0.7546771E-02  0.1481509E+00
         21   -1    0    0  503  502  0.00000000000E+00  0.00000000000E+00  0.75011565859E+02  0.75011565859E+02  0.00000000000E+00 0. -1.
         21   -1    0    0  501  503 -0.00000000000E+00 -0.00000000000E+00 -0.33619679133E+02  0.33619679133E+02  0.00000000000E+00 0.  1.
          2    1    1    2  501    0 -0.23648938380E+02 -0.34474627923E+01 -0.27074573372E+02  0.36113568219E+02  0.00000000000E+00 0.  1.
         -2    1    1    2    0  502  0.23648938380E+02  0.34474627923E+01  0.68466460098E+02  0.72517676773E+02  0.00000000000E+00 0. -1.
</event>
<event>
 4    1  0.1772365E+004  0.2630232E+02  0.7546771E-02  0.1454745E+00
         21   -1    0    0  503  502  0.00000000000E+00  0.00000000000E+00  0.28052685732E+02  0.28052685732E+02  0.00000000000E+00 0.  1.
         21   -1    0    0  501  503 -0.00000000000E+00 -0.00000000000E+00 -0.28079382654E+02  0.28079382654E+02  0.00000000000E+00 0. -1.
          2    1    1    2  501    0 -0.26174681556E+02  0.25880448134E+01  0.97790051026E+01  0.28061376861E+02  0.00000000000E+00 0.  1.
         -2    1    1    2    0  502  0.26174681556E+02 -0.25880448134E+01 -0.98057020251E+01  0.28070691526E+02  0.00000000000E+00 0. -1.
</event>
<event>
 4    1  0.1772365E+004  0.2005836E+02  0.7546771E-02  0.1533145E+00
         21   -1    0    0  503  502  0.00000000000E+00  0.00000000000E+00  0.18990750756E+02  0.18990750756E+02  0.00000000000E+00 0.  1.
         21   -1    0    0  501  503 -0.00000000000E+00 -0.00000000000E+00 -0.25754150041E+02  0.25754150041E+02  0.00000000000E+00 0. -1.
          2    1    1    2  501    0 -0.19025377560E+01  0.19967927086E+02 -0.12804084362E+02  0.23796687550E+02  0.00000000000E+00 0. -1.
         -2    1    1    2    0  502  0.19025377560E+01 -0.19967927086E+02  0.60406850770E+01  0.20948213247E+02  0.00000000000E+00 0.  1.
</event>
<event>
 4    1  0.1772365E+004  0.2764303E+02  0.7546771E-02  0.1441254E+00
         21   -1    0    0  501  502  0.00000000000E+00  0.00000000000E+00  0.37591236289E+01  0.37591236289E+01  0.00000000000E+00 0.  1.
         21   -1    0    0  502  503 -0.00000000000E+00 -0.00000000000E+00 -0.10199416959E+04  0.10199416959E+04  0.00000000000E+00 0. -1.
          2    1    1    2  501    0 -0.10096481026E+02  0.25733206225E+02 -0.50078359228E+02  0.57201214102E+02  0.00000000000E+00 0.  1.
         -2    1    1    2    0  503  0.10096481026E+02 -0.25733206225E+02 -0.96610421303E+03  0.96649960541E+03  0.00000000000E+00 0. -1.
</event>
<event>
 4    1  0.1772365E+004  0.2179027E+02  0.7546771E-02  0.1508274E+00
         21   -1    0    0  503  502  0.00000000000E+00  0.00000000000E+00  0.55153793268E+01  0.55153793268E+01  0.00000000000E+00 0.  1.
         21   -1    0    0  501  503 -0.00000000000E+00 -0.00000000000E+00 -0.11434527005E+03  0.11434527005E+03  0.00000000000E+00 0. -1.
          2    1    1    2  501    0  0.21381711037E+02  0.41998047375E+01 -0.84206389123E+02  0.86980066083E+02  0.00000000000E+00 0. -1.
         -2    1    1    2    0  502 -0.21381711037E+02 -0.41998047375E+01 -0.24623501601E+02  0.32880583294E+02  0.00000000000E+00 0.  1.
</event>
<event>
 4    1  0.1772365E+004  0.2062911E+02  0.7546771E-02  0.1524627E+00
         21   -1    0    0  501  502  0.00000000000E+00  0.00000000000E+00  0.10941976672E+03  0.10941976672E+03  0.00000000000E+00 0.  1.
         21   -1    0    0  502  503 -0.00000000000E+00 -0.00000000000E+00 -0.48182800490E+01  0.48182800490E+01  0.00000000000E+00 0. -1.
          2    1    1    2  501    0 -0.15682082414E+02 -0.13402703900E+02  0.77382099580E+02  0.80084639702E+02  0.00000000000E+00 0.  1.
         -2    1    1    2    0  503  0.15682082414E+02  0.13402703900E+02  0.27219387089E+02  0.34153407065E+02  0.00000000000E+00 0. -1.
</event>
<event>
 4    1  0.1772365E+004  0.2924061E+02  0.7546771E-02  0.1426312E+00
         21   -1    0    0  503  502  0.00000000000E+00  0.00000000000E+00  0.37388486456E+01  0.37388486456E+01  0.00000000000E+00 0.  1.
         21   -1    0    0  501  503 -0.00000000000E+00 -0.00000000000E+00 -0.52826634084E+03  0.52826634084E+03  0.00000000000E+00 0. -1.
          2    1    1    2  501    0 -0.29240604703E+02  0.20989770430E-01 -0.46258073849E+03  0.46350399462E+03  0.00000000000E+00 0. -1.
         -2    1    1    2    0  502  0.29240604703E+02 -0.20989770430E-01 -0.61946753706E+02  0.68501194870E+02  0.00000000000E+00 0.  1.
</event>
<event>
 4    1  0.1772365E+004  0.2980557E+02  0.7546771E-02  0.1421294E+00
         21   -1    0    0  501  502  0.00000000000E+00  0.00000000000E+00  0.15238037239E+02  0.15238037239E+02  0.00000000000E+00 0. -1.
         21   -1    0    0  502  503 -0.00000000000E+00 -0.00000000000E+00 -0.28901409418E+03  0.28901409418E+03  0.00000000000E+00 0.  1.
          2    1    1    2  501    0  0.17436905226E+02 -0.24172846655E+02 -0.96860659378E+00  0.29821307450E+02  0.00000000000E+00 0. -1.
         -2    1    1    2    0  503 -0.17436905226E+02  0.24172846655E+02 -0.27280745035E+03  0.27443082397E+03  0.00000000000E+00 0.  1.
</event>
<event>
 4    1  0.1772365E+004  0.4111265E+02  0.7546771E-02  0.1342086E+00
         21   -1    0    0  501  502  0.00000000000E+00  0.00000000000E+00  0.66206090483E+02  0.66206090483E+02  0.00000000000E+00 0. -1.
         21   -1    0    0  502  503 -0.00000000000E+00 -0.00000000000E+00 -0.38085931579E+02  0.38085931579E+02  0.00000000000E+00 0.  1.
          2    1    1    2  501    0  0.36214406102E+02 -0.19461936737E+02  0.44000713846E+02  0.60218875860E+02  0.00000000000E+00 0. -1.
         -2    1    1    2    0  503 -0.36214406102E+02  0.19461936737E+02 -0.15880554942E+02  0.44073146202E+02  0.00000000000E+00 0.  1.
</event>
<event>
 4    1  0.1772365E+004  0.2243772E+02  0.7546771E-02  0.1499682E+00
         21   -1    0    0  503  502  0.00000000000E+00  0.00000000000E+00  0.32659684391E+02  0.32659684391E+02  0.00000000000E+00 0.  1.
         21   -1    0    0  501  503 -0.00000000000E+00 -0.00000000000E+00 -0.44080842402E+02  0.44080842402E+02  0.00000000000E+00 0. -1.
          2    1    1    2  501    0  0.18198238991E+02  0.13125363850E+02 -0.36652816712E+02  0.42975342366E+02  0.00000000000E+00 0. -1.
         -2    1    1    2    0  502 -0.18198238991E+02 -0.13125363850E+02  0.25231658701E+02  0.33765184427E+02  0.00000000000E+00 0.  1.
</event>
<event>
 4    1  0.1772365E+004  0.2143547E+02  0.7546771E-02  0.1513137E+00
         21   -1    0    0  501  502  0.00000000000E+00  0.00000000000E+00  0.27500843321E+02  0.27500843321E+02  0.00000000000E+00 0. -1.
         21   -1    0    0  502  503 -0.00000000000E+00 -0.00000000000E+00 -0.25523698717E+02  0.25523698717E+02  0.00000000000E+00 0.  1.
          2    1    1    2  501    0  0.10956329769E+02  0.18423846096E+02  0.16570020335E+02  0.27093261909E+02  0.00000000000E+00 0. -1.
         -2    1    1    2    0  503 -0.10956329769E+02 -0.18423846096E+02 -0.14592875731E+02  0.25931280128E+02  0.00000000000E+00 0.  1.
</event>
<event>
 4    1  0.1772365E+004  0.2388764E+02  0.7546771E-02  0.1481643E+00
         21   -1    0    0  501  502  0.00000000000E+00  0.00000000000E+00  0.75343654463E+02  0.75343654463E+02  0.00000000000E+00 0.  1.
         21   -1    0    0  502  503 -0.00000000000E+00 -0.00000000000E+00 -0.40488364167E+02  0.40488364167E+02  0.00000000000E+00 0. -1.
          2    1    1    2  501    0  0.10244062626E+02 -0.21579589390E+02  0.69646719418E+02  0.73629376087E+02  0.00000000000E+00 0.  1.
         -2    1    1    2    0  503 -0.10244062626E+02  0.21579589390E+02 -0.34791429121E+02  0.42202642543E+02  0.00000000000E+00 0. -1.
</event>
<event>
 4    1  0.1772365E+004  0.2603914E+02  0.7546771E-02  0.1457506E+00
         21   -1    0    0  503  502  0.00000000000E+00  0.00000000000E+00  0.84198676576E+02  0.84198676576E+02  0.00000000000E+00 0.  1.
         21   -1    0    0  501  503 -0.00000000000E+00 -0.00000000000E+00 -0.30219273357E+02  0.30219273357E+02  0.00000000000E+00 0. -1.
          2    1    1    2  501    0  0.96766471201E+01  0.24174354108E+02 -0.22007384249E+02  0.34093428362E+02  0.00000000000E+00 0.  1.
         -2    1    1    2    0  502 -0.96766471201E+01 -0.24174354108E+02  0.75986787467E+02  0.80324521571E+02  0.00000000000E+00 0. -1.
</event>
<event>
 4    1  0.1772365E+004  0.2152351E+02  0.7546771E-02  0.1511920E+00
         21   -1    0    0  501  502  0.00000000000E+00  0.00000000000E+00  0.16134523923E+02  0.16134523923E+02  0.00000000000E+00 0. -1.
         21   -1    0    0  502  503 -0.00000000000E+00 -0.00000000000E+00 -0.28759253100E+02  0.28759253100E+02  0.00000000000E+00 0.  1.
          2    1    1    2  501    0  0.21312349357E+02  0.30074975535E+01 -0.54065701695E+01  0.22192167034E+02  0.00000000000E+00 0.  1.
         -2    1    1    2    0  503 -0.21312349357E+02 -0.30074975535E+01 -0.72181590077E+01  0.22701609990E+02  0.00000000000E+00 0. -1.
</event>
<event>
 4    1  0.1772365E+004  0.2376224E+02  0.7546771E-02  0.1483142E+00
         21   -1    0    0  501  502  0.00000000000E+00  0.00000000000E+00  0.22100333998E+03  0.22100333998E+03  0.00000000000E+00 0. -1.
         21   -1    0    0  502  503 -0.00000000000E+00 -0.00000000000E+00 -0.34176145256E+01  0.34176145256E+01  0.00000000000E+00 0.  1.
          2    1    1    2  501    0 -0.23757434476E+02 -0.47778628014E+00  0.16516993701E+03  0.16687046493E+03  0.00000000000E+00 0. -1.
         -2    1    1    2    0  503  0.23757434476E+02  0.47778628014E+00  0.52415788443E+02  0.57550489579E+02  0.00000000000E+00 0.  1.
</event>
<event>
 4    1  0.1772365E+004  0.2488111E+02  0.7546771E-02  0.1470138E+00
         21   -1    0    0  501  502  0.00000000000E+00  0.00000000000E+00  0.11688400571E+04  0.11688400571E+04  0.00000000000E+00 0.  1.
         21   -1    0    0  502  503 -0.00000000000E+00 -0.00000000000E+00 -0.15666137830E+02  0.15666137830E+02  0.00000000000E+00 0. -1.
          2    1    1    2  501    0  0.15415426147E+02  0.19530337630E+02  0.11587424655E+04  0.11590095646E+04  0.00000000000E+00 0.  1.
         -2    1    1    2    0  503 -0.15415426147E+02 -0.19530337630E+02 -0.55685462384E+01  0.25496630335E+02  0.00000000000E+00 0. -1.
</event>
<event>
 4    1  0.1772365E+004  0.2076113E+02  0.7546771E-02  0.1522703E+00
         21   -1    0    0  501  502  0.00000000000E+00  0.00000000000E+00  0.35711509724E+02  0.35711509724E+02  0.00000000000E+00 0.  1.
         21   -1    0    0  502  503 -0.00000000000E+00 -0.00000000000E+00 -0.13262427925E+02  0.13262427925E+02  0.00000000000E+00 0. -1.
          2    1    1    2  501    0  0.11555099421E+02 -0.17248311141E+02  0.18568118832E+02  0.27853179295E+02  0.00000000000E+00 0.  1.
         -2    1    1    2    0  503 -0.11555099421E+02  0.17248311141E+02  0.38809629667E+01  0.21120758353E+02  0.00000000000E+00 0. -1.
</event>
<event>
 4    1  0.1772365E+004  0.2754657E+02  0.7546771E-02  0.1442194E+00
         21   -1    0    0  503  502  0.00000000000E+00  0.00000000000E+00  0.31891259031E+03  0.31891259031E+03  0.00000000000E+00 0. -1.
         21   -1    0    0  501  503 -0.00000000000E+00 -0.00000000000E+00 -0.24840832329E+01  0.24840832329E+01  0.00000000000E+00 0.  1.
          2    1    1    2  501    0 -0.25359714408E+02 -0.10756321905E+02  0.12522194769E+03  0.12821602770E+03  0.00000000000E+00 0. -1.
         -2    1    1    2    0  502  0.25359714408E+02  0.10756321905E+02  0.19120655938E+03  0.19318064584E+03  0.00000000000E+00 0.  1.
</event>
<event>
 4    1  0.1772365E+004  0.3503646E+02  0.7546771E-02  0.1380307E+00
         21   -1    0    0  503  502  0.00000000000E+00  0.00000000000E+00  0.12149491472E+03  0.12149491472E+03  0.00000000000E+00 0. -1.
         21   -1    0    0  501  503 -0.00000000000E+00 -0.00000000000E+00 -0.10114481889E+02  0.10114481889E+02  0.00000000000E+00 0.  1.
          2    1    1    2  501    0 -0.30272638074E+02  0.17638612803E+02  0.57834509482E+02  0.67619403759E+02  0.00000000000E+00 0.  1.
         -2    1    1    2    0  502  0.30272638074E+02 -0.17638612803E+02  0.53545923344E+02  0.63989992846E+02  0.00000000000E+00 0. -1.
</event>
<event>
 4    1  0.1772365E+004  0.2233507E+02  0.7546771E-02  0.1501021E+00
         21   -1    0    0  501  502  0.00000000000E+00  0.00000000000E+00  0.23170538156E+03  0.23170538156E+03  0.00000000000E+00 0.  1.
         21   -1    0    0  502  503 -0.00000000000E+00 -0.00000000000E+00 -0.21696835985E+01  0.21696835985E+01  0.00000000000E+00 0. -1.
          2    1    1    2  501    0  0.81190754730E+01 -0.20807108354E+02  0.12503069365E+03  0.12700995827E+03  0.00000000000E+00 0. -1.
         -2    1    1    2    0  503 -0.81190754730E+01  0.20807108354E+02  0.10450500431E+03  0.10686510689E+03  0.00000000000E+00 0.  1.
</event>
<event>
 4    1  0.1772365E+004  0.2289196E+02  0.7546771E-02  0.1493859E+00
         21   -1    0    0  501  502  0.00000000000E+00  0.00000000000E+00  0.15975562559E+02  0.15975562559E+02  0.00000000000E+00 0.  1.
         21   -1    0    0  502  503 -0.00000000000E+00 -0.00000000000E+00 -0.54328379939E+02  0.54328379939E+02  0.00000000000E+00 0. -1.
          2    1    1    2  501    0 -0.76635724434E+01 -0.21571081164E+02  0.29501848151E+01  0.23081279766E+02  0.00000000000E+00 0.  1.
         -2    1    1    2    0  503  0.76635724434E+01  0.21571081164E+02 -0.41303002195E+02  0.47222662732E+02  0.00000000000E+00 0. -1.
</event>
<event>
 4    1  0.1772365E+004  0.2114978E+02  0.7546771E-02  0.1517137E+00
         21   -1    0    0  503  502  0.00000000000E+00  0.00000000000E+00  0.21235785421E+03  0.21235785421E+03  0.00000000000E+00 0.  1.
         21   -1    0    0  501  503 -0.00000000000E+00 -0.00000000000E+00 -0.23414651508E+01  0.23414651508E+01  0.00000000000E+00 0. -1.
          2    1    1    2  501    0 -0.17874401152E+02  0.11305708567E+02  0.70995636606E+02  0.74078969214E+02  0.00000000000E+00 0. -1.
         -2    1    1    2    0  502  0.17874401152E+02 -0.11305708567E+02  0.13902075246E+03  0.14062035015E+03  0.00000000000E+00 0.  1.
</event>
<event>
 4    1  0.1772365E+004  0.2167446E+02  0.7546771E-02  0.1509849E+00
         21   -1    0    0  501  502  0.00000000000E+00  0.00000000000E+00  0.67592265099E+02  0.67592265099E+02  0.00000000000E+00 0. -1.
         21   -1    0    0  502  503 -0.00000000000E+00 -0.00000000000E+00 -0.36726093429E+02  0.36726093429E+02  0.00000000000E+00 0.  1.
          2    1    1    2  501    0  0.99721598019E+01 -0.19244173945E+02  0.62398214779E+02  0.66055426799E+02  0.00000000000E+00 0. -1.
         -2    1    1    2    0  503 -0.99721598019E+01  0.19244173945E+02 -0.31532043109E+02  0.38262931730E+02  0.00000000000E+00 0.  1.
</event>
<event>
 4    1  0.1772365E+004  0.4260043E+02  0.7546771E-02  0.1333886E+00
         21   -1    0    0  503  502  0.00000000000E+00  0.00000000000E+00  0.18281830864E+02  0.18281830864E+02  0.00000000000E+00 0. -1.
         21   -1    0    0  501  503 -0.00000000000E+00 -0.00000000000E+00 -0.99665461488E+02  0.99665461488E+02  0.00000000000E+00 0.  1.
          2    1    1    2  501    0 -0.38724949081E+02  0.17753164644E+02 -0.36966524889E+02  0.56403195819E+02  0.00000000000E+00 0. -1.
         -2    1    1    2    0  502  0.38724949081E+02 -0.17753164644E+02 -0.44417105735E+02  0.61544096533E+02  0.00000000000E+00 0.  1.
</event>
<event>
 4    1  0.1772365E+004  0.2001830E+02  0.7546771E-02  0.1533756E+00
         21   -1    0    0  501  502  0.00000000000E+00  0.00000000000E+00  0.13203535003E+03  0.13203535003E+03  0.00000000000E+00 0. -1.
         21   -1    0    0  502  503 -0.00000000000E+00 -0.00000000000E+00 -0.62245170376E+01  0.62245170376E+01  0.00000000000E+00 0.  1.
          2    1    1    2  501    0  0.19552898116E+02 -0.42914355365E+01  0.11239037573E+03  0.11415922565E+03  0.00000000000E+00 0. -1.
         -2    1    1    2    0  503 -0.19552898116E+02  0.42914355365E+01  0.13420457260E+02  0.24100641418E+02  0.00000000000E+00 0.  1.
</event>
<event>
 4    1  0.1772365E+004  0.5036860E+02  0.7546771E-02  0.1296582E+00
         21   -1    0    0  503  502  0.00000000000E+00  0.00000000000E+00  0.64205271187E+02  0.64205271187E+02  0.00000000000E+00 0.  1.
         21   -1    0    0  501  503 -0.00000000000E+00 -0.00000000000E+00 -0.75378191231E+02  0.75378191231E+02  0.00000000000E+00 0. -1.
          2    1    1    2  501    0 -0.49851774341E+02  0.71969456964E+01 -0.53727197056E+02  0.73645143328E+02  0.00000000000E+00 0. -1.
         -2    1    1    2    0  502  0.49851774341E+02 -0.71969456964E+01  0.42554277012E+02  0.65938319089E+02  0.00000000000E+00 0.  1.
</event>
<event>
 4    1  0.1772365E+004  0.3005020E+02  0.7546771E-02  0.1419161E+00
         21   -1    0    0  503  502  0.00000000000E+00  0.00000000000E+00  0.22715419469E+01  0.22715419469E+01  0.00000000000E+00 0. -1.
         21   -1    0    0  501  503 -0.00000000000E+00 -0.00000000000E+00 -0.49205333046E+03  0.49205333046E+03  0.00000000000E+00 0.  1.
          2    1    1    2  501    0 -0.15897938587E+02 -0.25500391700E+02 -0.35321807339E+03  0.35449403633E+03  0.00000000000E+00 0.  1.
         -2    1    1    2    0  502  0.15897938587E+02  0.25500391700E+02 -0.13656371512E+03  0.13983083607E+03  0.00000000000E+00 0. -1.
</event>
<event>
 4    1  0.1772365E+004  0.2007354E+02  0.7546771E-02  0.1532914E+00
         21   -1    0    0  503  502  0.00000000000E+00  0.00000000000E+00  0.19113157143E+02  0.19113157143E+02  0.00000000000E+00 0. -1.
         21   -1    0    0  501  503 -0.00000000000E+00 -0.00000000000E+00 -0.21098041625E+02  0.21098041625E+02  0.00000000000E+00 0.  1.
          2    1    1    2  501    0  0.67178664531E+00 -0.20062297508E+02 -0.15436651743E+01  0.20132808567E+02  0.00000000000E+00 0.  1.
         -2    1    1    2    0  502 -0.67178664531E+00  0.20062297508E+02 -0.44121930693E+00  0.20078390202E+02  0.00000000000E+00 0. -1.
</event>
<event>
 4    1  0.1772365E+004  0.2290655E+02  0.7546771E-02  0.1493675E+00
         21   -1    0    0  501  502  0.00000000000E+00  0.00000000000E+00  0.70625198793E+01  0.70625198793E+01  0.00000000000E+00 0.  1.
         21   -1    0    0  502  503 -0.00000000000E+00 -0.00000000000E+00 -0.95383712291E+02  0.95383712291E+02  0.00000000000E+00 0. -1.
          2    1    1    2  501    0  0.19180419959E+02 -0.12522840653E+02 -0.20075204118E+02  0.30458559851E+02  0.00000000000E+00 0.  1.
         -2    1    1    2    0  503 -0.19180419959E+02  0.12522840653E+02 -0.68245988293E+02  0.71987672319E+02  0.00000000000E+00 0. -1.
</event>
<event>
 4    1  0.1772365E+004  0.2225175E+02  0.7546771E-02  0.1502114E+00
         21   -1    0    0  503  502  0.00000000000E+00  0.00000000000E+00  0.92639948211E+01  0.92639948211E+01  0.00000000000E+00 0.  1.
         21   -1    0    0  501  503 -0.00000000000E+00 -0.00000000000E+00 -0.53522979324E+02  0.53522979324E+02  0.00000000000E+00 0. -1.
          2    1    1    2  501    0 -0.69591329763E+01  0.21135533799E+02 -0.23305913895E+02  0.32222755054E+02  0.00000000000E+00 0.  1.
         -2    1    1    2    0  502  0.69591329763E+01 -0.21135533799E+02 -0.20953070607E+02  0.30564219091E+02  0.00000000000E+00 0. -1.
</event>
<event>
 4    1  0.1772365E+004  0.2391379E+02  0.7546771E-02  0.1481332E+00
         21   -1    0    0  501  502  0.00000000000E+00  0.00000000000E+00  0.62806275504E+01  0.62806275504E+01  0.00000000000E+00 0. -1.
         21   -1    0    0  502  503 -0.00000000000E+00 -0.00000000000E+00 -0.14193205372E+03  0.14193205372E+03  0.00000000000E+00 0.  1.
          2    1    1    2  501    0  0.19857722497E+02 -0.13324418701E+02 -0.11219527247E+03  0.11471551090E+03  0.00000000000E+00 0.  1.
         -2    1    1    2    0  503 -0.19857722497E+02  0.13324418701E+02 -0.23456153703E+02  0.33497170373E+02  0.00000000000E+00 0. -1.
</event>
<event>
 4    1  0.1772365E+004  0.3467628E+02  0.7546771E-02  0.1382853E+00
         21   -1    0    0  501  502  0.00000000000E+00  0.00000000000E+00  0.21544809335E+03  0.21544809335E+03  0.00000000000E+00 0. -1.
         21   -1    0    0  502  503 -0.00000000000E+00 -0.00000000000E+00 -0.65412527667E+01  0.65412527667E+01  0.00000000000E+00 0.  1.
          2    1    1    2  501    0 -0.83460365802E+00  0.34666232562E+02  0.14697746904E+03  0.15101265062E+03  0.00000000000E+00 0. -1.
         -2    1    1    2    0  503  0.83460365802E+00 -0.34666232562E+02  0.61929371549E+02  0.70976695497E+02  0.00000000000E+00 0.  1.
</event>
<event>
 4    1  0.1772365E+004  0.3032503E+02  0.7546771E-02  0.1416793E+00
         21   -1    0    0  501  502  0.00000000000E+00  0.00000000000E+00  0.34917793823E+02  0.34917793823E+02  0.00000000000E+00 0. -1.
         21   -1    0    0  502  503 -0.00000000000E+00 -0.00000000000E+00 -0.39689529572E+02  0.39689529572E+02  0.00000000000E+00 0.  1.
          2    1    1    2  501    0  0.86915958126E+01 -0.29052770158E+02  0.19251568736E+02  0.35919774365E+02  0.00000000000E+00 0. -1.
         -2    1    1    2    0  503 -0.86915958126E+01  0.29052770158E+02 -0.24023304485E+02  0.38687549031E+02  0.00000000000E+00 0.  1.
</event>
<event>
 4    1  0.1772365E+004  0.3733746E+02  0.7546771E-02  0.1364836E+00
         21   -1    0    0  501  502  0.00000000000E+00  0.00000000000E+00  0.57405149557E+02  0.57405149557E+02  0.00000000000E+00 0. -1.
         21   -1    0    0  502  503 -0.00000000000E+00 -0.00000000000E+00 -0.75105845797E+02  0.75105845797E+02  0.00000000000E+00 0.  1.
          2    1    1    2  501    0  0.70169935833E+01 -0.36672165937E+02  0.45650825329E+02  0.58975281319E+02  0.00000000000E+00 0. -1.
         -2    1    1    2    0  503 -0.70169935833E+01  0.36672165937E+02 -0.63351521569E+02  0.73535714034E+02  0.00000000000E+00 0.  1.
</event>
<event>
 4    1  0.1772365E+004  0.2971735E+02  0.7546771E-02  0.1422069E+00
         21   -1    0    0  503  502  0.00000000000E+00  0.00000000000E+00  0.29500802417E+02  0.29500802417E+02  0.00000000000E+00 0. -1.
         21   -1    0    0  501  503 -0.00000000000E+00 -0.00000000000E+00 -0.32570569996E+02  0.32570569996E+02  0.00000000000E+00 0.  1.
          2    1    1    2  501    0  0.11537201002E+02  0.27386385022E+02  0.72927691657E+01  0.30599110668E+02  0.00000000000E+00 0.  1.
         -2    1    1    2    0  502 -0.11537201002E+02 -0.27386385022E+02 -0.10362536745E+02  0.31472261745E+02  0.00000000000E+00 0. -1.
</event>
<event>
 4    1  0.1772365E+004  0.1116975E+03  0.7546771E-02  0.1144949E+00
         21   -1    0    0  501  502  0.00000000000E+00  0.00000000000E+00  0.20896103126E+03  0.20896103126E+03  0.00000000000E+00 0. -1.
         21   -1    0    0  502  503 -0.00000000000E+00 -0.00000000000E+00 -0.68622896101E+02  0.68622896101E+02  0.00000000000E+00 0.  1.
          2    1    1    2  501    0 -0.10948881267E+03  0.22102535216E+02  0.12019850282E+03  0.16408535048E+03  0.00000000000E+00 0. -1.
         -2    1    1    2    0  503  0.10948881267E+03 -0.22102535216E+02  0.20139632343E+02  0.11349857688E+03  0.00000000000E+00 0.  1.
</event>
<event>
 4    1  0.1772365E+004  0.2049365E+02  0.7546771E-02  0.1526618E+00
         21   -1    0    0  503  502  0.00000000000E+00  0.00000000000E+00  0.24059248627E+01  0.24059248627E+01  0.00000000000E+00 0. -1.
         21   -1    0    0  501  503 -0.00000000000E+00 -0.00000000000E+00 -0.26831601998E+03  0.26831601998E+03  0.00000000000E+00 0.  1.
          2    1    1    2  501    0  0.50757224136E+01 -0.19855142630E+02 -0.21296771851E+03  0.21395148696E+03  0.00000000000E+00 0.  1.
         -2    1    1    2    0  502 -0.50757224136E+01  0.19855142630E+02 -0.52942376607E+02  0.56770457878E+02  0.00000000000E+00 0. -1.
</event>
<event>
 4    1  0.1772365E+004  0.2103153E+02  0.7546771E-02  0.1518815E+00
         21   -1    0    0  501  502  0.00000000000E+00  0.00000000000E+00  0.48265540866E+03  0.48265540866E+03  0.00000000000E+00 0.  1.
         21   -1    0    0  502  503 -0.00000000000E+00 -0.00000000000E+00 -0.11795752953E+01  0.11795752953E+01  0.00000000000E+00 0. -1.
          2    1    1    2  501    0  0.17215387516E+02 -0.12081206337E+02  0.35499768029E+03  0.35562013178E+03  0.00000000000E+00 0. -1.
         -2    1    1    2    0  503 -0.17215387516E+02  0.12081206337E+02  0.12647815307E+03  0.12821485218E+03  0.00000000000E+00 0.  1.
</event>
<event>
 4    1  0.1772365E+004  0.2466441E+02  0.7546771E-02  0.1472593E+00
         21   -1    0    0  501  502  0.00000000000E+00  0.00000000000E+00  0.27369466786E+02  0.27369466786E+02  0.00000000000E+00 0. -1.
         21   -1    0    0  502  503 -0.00000000000E+00 -0.00000000000E+00 -0.23193200519E+02  0.23193200519E+02  0.00000000000E+00 0.  1.
          2    1    1    2  501    0 -0.16530919036E+02 -0.18304688856E+02  0.72489774663E+01  0.25707597955E+02  0.00000000000E+00 0. -1.
         -2    1    1    2    0  503  0.16530919036E+02  0.18304688856E+02 -0.30727111988E+01  0.24855069350E+02  0.00000000000E+00 0.  1.
</event>
<event>
 4    1  0.1772365E+004  0.3968004E+02  0.7546771E-02  0.1350371E+00
         21   -1    0    0  501  502  0.00000000000E+00  0.00000000000E+00  0.71669383119E+01  0.71669383119E+01  0.00000000000E+00 0.  1.
         21   -1    0    0  502  503 -0.00000000000E+00 -0.00000000000E+00 -0.22807091211E+03  0.22807091211E+03  0.00000000000E+00 0. -1.
          2    1    1    2  501    0  0.34986965399E+02  0.18719440074E+02 -0.13299884689E+03  0.13879192505E+03  0.00000000000E+00 0. -1.
         -2    1    1    2    0  503 -0.34986965399E+02 -0.18719440074E+02 -0.87905126908E+02  0.96445925374E+02  0.00000000000E+00 0.  1.
</event>
<event>
 4    1  0.1772365E+004  0.2069218E+02  0.7546771E-02  0.1523705E+00
         21   -1    0    0  501  502  0.00000000000E+00  0.00000000000E+00  0.22422804956E+01  0.22422804956E+01  0.00000000000E+00 0.  1.
         21   -1    0    0  502  503 -0.00000000000E+00 -0.00000000000E+00 -0.20176043225E+03  0.20176043225E+03  0.00000000000E+00 0. -1.
          2    1    1    2  501    0  0.13851824844E+02 -0.15371827436E+02 -0.12336850907E+03  0.12509178694E+03  0.00000000000E+00 0.  1.
         -2    1    1    2    0  503 -0.13851824844E+02  0.15371827436E+02 -0.76149642684E+02  0.78910925803E+02  0.00000000000E+00 0. -1.
</event>
<event>
 4    1  0.1772365E+004  0.2105709E+02  0.7546771E-02  0.1518451E+00
         21   -1    0    0  501  502  0.00000000000E+00  0.00000000000E+00  0.88820547975E+03  0.88820547975E+03  0.00000000000E+00 0.  1.
         21   -1    0    0  502  503 -0.00000000000E+00 -0.00000000000E+00 -0.72503695960E+00  0.72503695960E+00  0.00000000000E+00 0. -1.
          2    1    1    2  501    0  0.57204728350E+01  0.20265172602E+02  0.69179389923E+03  0.69211429695E+03  0.00000000000E+00 0.  1.
         -2    1    1    2    0  503 -0.57204728350E+01 -0.20265172602E+02  0.19568654356E+03  0.19681621976E+03  0.00000000000E+00 0. -1.
</event>
<event>
 4    1  0.1772365E+004  0.2918481E+02  0.7546771E-02  0.1426815E+00
         21   -1    0    0  503  502  0.00000000000E+00  0.00000000000E+00  0.33560052432E+02  0.33560052432E+02  0.00000000000E+00 0.  1.
         21   -1    0    0  501  503 -0.00000000000E+00 -0.00000000000E+00 -0.29298527283E+02  0.29298527283E+02  0.00000000000E+00 0. -1.
          2    1    1    2  501    0 -0.20982612616E+02 -0.20285049630E+02 -0.93633257619E+01  0.30650043067E+02  0.00000000000E+00 0. -1.
         -2    1    1    2    0  502  0.20982612616E+02  0.20285049630E+02  0.13624850911E+02  0.32208536648E+02  0.00000000000E+00 0.  1.
</event>
<event>
 4    1  0.1772365E+004  0.2121687E+02  0.7546771E-02  0.1516191E+00
         21   -1    0    0  503  502  0.00000000000E+00  0.00000000000E+00  0.11829056129E+03  0.11829056129E+03  0.00000000000E+00 0. -1.
         21   -1    0    0  501  503 -0.00000000000E+00 -0.00000000000E+00 -0.39566475344E+01  0.39566475344E+01  0.00000000000E+00 0.  1.
          2    1    1    2  501    0 -0.21206653034E+02 -0.65831071879E+00  0.45220574919E+02  0.49950534551E+02  0.00000000000E+00 0.  1.
         -2    1    1    2    0  502  0.21206653034E+02  0.65831071879E+00  0.69113338842E+02  0.72296674279E+02  0.00000000000E+00 0. -1.
</event>
<event>
 4    1  0.1772365E+004  0.2109557E+02  0.7546771E-02  0.1517905E+00
         21   -1    0    0  503  502  0.00000000000E+00  0.00000000000E+00  0.21376177183E+01  0.21376177183E+01  0.00000000000E+00 0. -1.
         21   -1    0    0  501  503 -0.00000000000E+00 -0.00000000000E+00 -0.21264682070E+03  0.21264682070E+03  0.00000000000E+00 0.  1.
          2    1    1    2  501    0  0.19409830442E+02 -0.82632758744E+01 -0.12080796249E+03  0.12263599410E+03  0.00000000000E+00 0.  1.
         -2    1    1    2    0  502 -0.19409830442E+02  0.82632758744E+01 -0.89701240488E+02  0.92148444322E+02  0.00000000000E+00 0. -1.
</event>
<event>
 4    1  0.1772365E+004  0.3127285E+02  0.7546771E-02  0.1408849E+00
         21   -1    0    0  501  502  0.00000000000E+00  0.00000000000E+00  0.23729297350E+02  0.23729297350E+02  0.00000000000E+00 0. -1.
         21   -1    0    0  502  503 -0.00000000000E+00 -0.00000000000E+00 -0.20751561871E+03  0.20751561871E+03  0.00000000000E+00 0.  1.
          2    1    1    2  501    0  0.16982377544E+02  0.26260043371E+02  0.11612569632E+02  0.33359298529E+02  0.00000000000E+00 0. -1.
         -2    1    1    2    0  503 -0.16982377544E+02 -0.26260043371E+02 -0.19539889099E+03  0.19788561753E+03  0.00000000000E+00 0.  1.
</event>
<event>
 4    1  0.1772365E+004  0.2045128E+02  0.7546771E-02  0.1527245E+00
         21   -1    0    0  503  502  0.00000000000E+00  0.00000000000E+00  0.36201053319E+03  0.36201053319E+03  0.00000000000E+00 0. -1.
         21   -1    0    0  501  503 -0.00000000000E+00 -0.00000000000E+00 -0.22194160283E+02  0.22194160283E+02  0.00000000000E+00 0.  1.
          2    1    1    2  501    0 -0.19759643998E+02 -0.52736404930E+01 -0.17127178061E+02  0.26675738852E+02  0.00000000000E+00 0.  1.
         -2    1    1    2    0  502  0.19759643998E+02  0.52736404930E+01  0.35694355097E+03  0.35752895462E+03  0.00000000000E+00 0. -1.
</event>
<event>
 4    1  0.1772365E+004  0.2124579E+02  0.7546771E-02  0.1515784E+00
         21   -1    0    0  501  502  0.00000000000E+00  0.00000000000E+00  0.41062200728E+01  0.41062200728E+01  0.00000000000E+00 0. -1.
         21   -1    0    0  502  503 -0.00000000000E+00 -0.00000000000E+00 -0.26905248789E+03  0.26905248789E+03  0.00000000000E+00 0.  1.
          2    1    1    2  501    0  0.12766286794E+02 -0.16982504352E+02 -0.27437483662E+02  0.34701571179E+02  0.00000000000E+00 0. -1.
         -2    1    1    2    0  503 -0.12766286794E+02  0.16982504352E+02 -0.23750878416E+03  0.23845713679E+03  0.00000000000E+00 0.  1.
</event>
<event>
 4    1  0.1772365E+004  0.3934232E+02  0.7546771E-02  0.1352383E+00
         21   -1    0    0  503  502  0.00000000000E+00  0.00000000000E+00  0.37473395225E+02  0.37473395225E+02  0.00000000000E+00 0.  1.
         21   -1    0    0  501  503 -0.00000000000E+00 -0.00000000000E+00 -0.73596794697E+02  0.73596794697E+02  0.00000000000E+00 0. -1.
          2    1    1    2  501    0 -0.38295010292E+02  0.90172418179E+01 -0.54848140630E+02  0.67499162912E+02  0.00000000000E+00 0. -1.
         -2    1    1    2    0  502  0.38295010292E+02 -0.90172418179E+01  0.18724741158E+02  0.43571027010E+02  0.00000000000E+00 0.  1.
</event>
<event>
 4    1  0.1772365E+004  0.2971083E+02  0.7546771E-02  0.1422126E+00
         21   -1    0    0  503  502  0.00000000000E+00  0.00000000000E+00  0.23158586571E+02  0.23158586571E+02  0.00000000000E+00 0.  1.
         21   -1    0    0  501  503 -0.00000000000E+00 -0.00000000000E+00 -0.24796718208E+03  0.24796718208E+03  0.00000000000E+00 0. -1.
          2    1    1    2  501    0 -0.26570759540E+02  0.13293918104E+02 -0.23711349286E+03  0.23896765894E+03  0.00000000000E+00 0. -1.
         -2    1    1    2    0  502  0.26570759540E+02 -0.13293918104E+02  0.12304897358E+02  0.32158109709E+02  0.00000000000E+00 0.  1.
</event>
<event>
 4    1  0.1772365E+004  0.2739787E+02  0.7546771E-02  0.1443652E+00
         21   -1    0    0  501  502  0.00000000000E+00  0.00000000000E+00  0.48686277263E+01  0.48686277263E+01  0.00000000000E+00 0. -1.
         21   -1    0    0  502  503 -0.00000000000E+00 -0.00000000000E+00 -0.71743425413E+03  0.71743425413E+03  0.00000000000E+00 0.  1.
          2    1    1    2  501    0  0.15085302830E+02  0.22870879412E+02 -0.36282311150E+02  0.45464817046E+02  0.00000000000E+00 0. -1.
         -2    1    1    2    0  503 -0.15085302830E+02 -0.22870879412E+02 -0.67628331526E+03  0.67683806482E+03  0.00000000000E+00 0.  1.
</event>
<event>
 4    1  0.1772365E+004  0.2663314E+02  0.7546771E-02  0.1451329E+00
         21   -1    0    0  503  502  0.00000000000E+00  0.00000000000E+00  0.65731478893E+03  0.65731478893E+03  0.00000000000E+00 0.  1.
         21   -1    0    0  501  503 -0.00000000000E+00 -0.00000000000E+00 -0.12122313993E+01  0.12122313993E+01  0.00000000000E+00 0. -1.
          2    1    1    2  501    0 -0.25257946165E+02 -0.84474884724E+01  0.43715826994E+03  0.43796880811E+03  0.00000000000E+00 0.  1.
         -2    1    1    2    0  502  0.25257946165E+02  0.84474884724E+01  0.21894428759E+03  0.22055821221E+03  0.00000000000E+00 0. -1.
</event>
<event>
 4    1  0.1772365E+004  0.2363063E+02  0.7546771E-02  0.1484728E+00
         21   -1    0    0  501  502  0.00000000000E+00  0.00000000000E+00  0.33367074396E+03  0.33367074396E+03  0.00000000000E+00 0.  1.
         21   -1    0    0  502  503 -0.00000000000E+00 -0.00000000000E+00 -0.38314319327E+01  0.38314319327E+01  0.00000000000E+00 0. -1.
          2    1    1    2  501    0 -0.12746703836E+02 -0.19897941226E+02  0.29156298600E+03  0.29251902729E+03  0.00000000000E+00 0.  1.
         -2    1    1    2    0  503  0.12746703836E+02  0.19897941226E+02  0.38276326025E+02  0.44983148597E+02  0.00000000000E+00 0. -1.
</event>
<event>
 4    1  0.1772365E+004  0.2495743E+02  0.7546771E-02  0.1469280E+00
         21   -1    0    0  503  502  0.00000000000E+00  0.00000000000E+00  0.54696225585E+01  0.54696225585E+01  0.00000000000E+00 0. -1.
         21   -1    0    0  501  503 -0.00000000000E+00 -0.00000000000E+00 -0.12753431151E+03  0.12753431151E+03  0.00000000000E+00 0.  1.
          2    1    1    2  501    0  0.24783230277E+02  0.29436206776E+01 -0.39271445143E+02  0.46530847932E+02  0.00000000000E+00 0. -1.
         -2    1    1    2    0  502 -0.24783230277E+02 -0.29436206776E+01 -0.82793243808E+02  0.86473086136E+02  0.00000000000E+00 0.  1.
</event>
<event>
 4    1  0.1772365E+004  0.3575641E+02  0.7546771E-02  0.1375322E+00
         21   -1    0    0  501  502  0.00000000000E+00  0.00000000000E+00  0.13526204661E+04  0.13526204661E+04  0.00000000000E+00 0.  1.
         21   -1    0    0  502  503 -0.00000000000E+00 -0.00000000000E+00 -0.10084179669E+01  0.10084179669E+01  0.00000000000E+00 0. -1.
          2    1    1    2  501    0 -0.33222677107E+02 -0.13220244606E+02  0.84524289923E+03  0.84599886515E+03  0.00000000000E+00 0.  1.
         -2    1    1    2    0  503  0.33222677107E+02  0.13220244606E+02  0.50636914889E+03  0.50763001890E+03  0.00000000000E+00 0. -1.
</event>
<event>
 4    1  0.1772365E+004  0.2177796E+02  0.7546771E-02  0.1508441E+00
         21   -1    0    0  501  502  0.00000000000E+00  0.00000000000E+00  0.91638125175E+01  0.91638125175E+01  0.00000000000E+00 0.  1.
         21   -1    0    0  502  503 -0.00000000000E+00 -0.00000000000E+00 -0.13039615690E+03  0.13039615690E+03  0.00000000000E+00 0. -1.
          2    1    1    2  501    0 -0.21773484308E+02 -0.44143919707E+00 -0.64258789244E+01  0.22706197555E+02  0.00000000000E+00 0.  1.
         -2    1    1    2    0  503  0.21773484308E+02  0.44143919707E+00 -0.11480646546E+03  0.11685377187E+03  0.00000000000E+00 0. -1.
</event>
<event>
 4    1  0.1772365E+004  0.2651138E+02  0.7546771E-02  0.1452579E+00
         21   -1    0    0  501  502  0.00000000000E+00  0.00000000000E+00  0.31339511913E+02  0.31339511913E+02  0.00000000000E+00 0. -1.
         21   -1    0    0  502  503 -0.00000000000E+00 -0.00000000000E+00 -0.55945314771E+02  0.55945314771E+02  0.00000000000E+00 0.  1.
          2    1    1    2  501    0 -0.10865570864E+02  0.24182481668E+02  0.21477718048E+02  0.34119575354E+02  0.00000000000E+00 0. -1.
         -2    1    1    2    0  503  0.10865570864E+02 -0.24182481668E+02 -0.46083520906E+02  0.53165251329E+02  0.00000000000E+00 0.  1.
</event>
<event>
 4    1  0.1772365E+004  0.3115072E+02  0.7546771E-02  0.1409853E+00
         21   -1    0    0  501  502  0.00000000000E+00  0.00000000000E+00  0.21690553323E+02  0.21690553323E+02  0.00000000000E+00 0.  1.
         21   -1    0    0  502  503 -0.00000000000E+00 -0.00000000000E+00 -0.45613962393E+02  0.45613962393E+02  0.00000000000E+00 0. -1.
          2    1    1    2  501    0  0.20043220808E+02  0.23846100141E+02 -0.72952065331E+01  0.31993549829E+02  0.00000000000E+00 0.  1.
         -2    1    1    2    0  503 -0.20043220808E+02 -0.23846100141E+02 -0.16628202537E+02  0.35310965888E+02  0.00000000000E+00 0. -1.
</event>
<event>
 4    1  0.1772365E+004  0.2439626E+02  0.7546771E-02  0.1475672E+00
         21   -1    0    0  501  502  0.00000000000E+00  0.00000000000E+00  0.32880784919E+02  0.32880784919E+02  0.00000000000E+00 0.  1.
         21   -1    0    0  502  503 -0.00000000000E+00 -0.00000000000E+00 -0.10692828868E+03  0.10692828868E+03  0.00000000000E+00 0. -1.
          2    1    1    2  501    0  0.11761244886E+02  0.21374063466E+02  0.26689838654E+02  0.36159714569E+02  0.00000000000E+00 0.  1.
         -2    1    1    2    0  503 -0.11761244886E+02 -0.21374063466E+02 -0.10073734242E+03  0.10364935903E+03  0.00000000000E+00 0. -1.
</event>
<event>
 4    1  0.1772365E+004  0.2232753E+02  0.7546771E-02  0.1501120E+00
         21   -1    0    0  503  502  0.00000000000E+00  0.00000000000E+00  0.14677334008E+03  0.14677334008E+03  0.00000000000E+00 0.  1.
         21   -1    0    0  501  503 -0.00000000000E+00 -0.00000000000E+00 -0.75935798961E+01  0.75935798961E+01  0.00000000000E+00 0. -1.
          2    1    1    2  501    0 -0.21530723638E+02 -0.59115646221E+01  0.12208165875E+02  0.25447160365E+02  0.00000000000E+00 0. -1.
         -2    1    1    2    0  502  0.21530723638E+02  0.59115646221E+01  0.12697159431E+03  0.12891975961E+03  0.00000000000E+00 0.  1.
</event>
<event>
 4    1  0.1772365E+004  0.2585792E+02  0.7546771E-02  0.1459430E+00
         21   -1    0    0  503  502  0.00000000000E+00  0.00000000000E+00  0.29093142692E+02  0.29093142692E+02  0.00000000000E+00 0.  1.
         21   -1    0    0  501  503 -0.00000000000E+00 -0.00000000000E+00 -0.32931903664E+02  0.32931903664E+02  0.00000000000E+00 0. -1.
          2    1    1    2  501    0 -0.25814808960E+02 -0.14925939666E+01 -0.18965594029E+02  0.32067521813E+02  0.00000000000E+00 0. -1.
         -2    1    1    2    0  502  0.25814808960E+02  0.14925939666E+01  0.15126833057E+02  0.29957524543E+02  0.00000000000E+00 0.  1.
</event>
<event>
 4    1  0.1772365E+004  0.3681979E+02  0.7546771E-02  0.1368202E+00
         21   -1    0    0  503  502  0.00000000000E+00  0.00000000000E+00  0.57261834380E+02  0.57261834380E+02  0.00000000000E+00 0.  1.
         21   -1    0    0  501  503 -0.00000000000E+00 -0.00000000000E+00 -0.13554261274E+03  0.13554261274E+03  0.00000000000E+00 0. -1.
          2    1    1    2  501    0  0.36541195942E+02 -0.45208015607E+01 -0.12671950166E+03  0.13196033021E+03  0.00000000000E+00 0. -1.
         -2    1    1    2    0  502 -0.36541195942E+02  0.45208015607E+01  0.48438723302E+02  0.60844116911E+02  0.00000000000E+00 0.  1.
</event>
<event>
 4    1  0.1772365E+004  0.2927919E+02  0.7546771E-02  0.1425965E+00
         21   -1    0    0  503  502  0.00000000000E+00  0.00000000000E+00  0.84425786788E+03  0.84425786788E+03  0.00000000000E+00 0.  1.
         21   -1    0    0  501  503 -0.00000000000E+00 -0.00000000000E+00 -0.15011649897E+01  0.15011649897E+01  0.00000000000E+00 0. -1.
          2    1    1    2  501    0 -0.19401040894E+02  0.21928767270E+02  0.18082616861E+03  0.18318126125E+03  0.00000000000E+00 0. -1.
         -2    1    1    2    0  502  0.19401040894E+02 -0.21928767270E+02  0.66193053428E+03  0.66257777161E+03  0.00000000000E+00 0.  1.
</event>
<event>
 4    1  0.1772365E+004  0.2495784E+02  0.7546771E-02  0.1469276E+00
         21   -1    0    0  501  502  0.00000000000E+00  0.00000000000E+00  0.93453569257E+02  0.93453569257E+02  0.00000000000E+00 0. -1.
         21   -1    0    0  502  503 -0.00000000000E+00 -0.00000000000E+00 -0.78620453510E+01  0.78620453510E+01  0.00000000000E+00 0.  1.
          2    1    1    2  501    0 -0.21292216258E+02  0.13020571010E+02  0.62560179426E+02  0.67354805266E+02  0.00000000000E+00 0. -1.
         -2    1    1    2    0  503  0.21292216258E+02 -0.13020571010E+02  0.23031344480E+02  0.33960809342E+02  0.00000000000E+00 0.  1.
</event>
<event>
 4    1  0.1772365E+004  0.4074897E+02  0.7546771E-02  0.1344152E+00
         21   -1    0    0  501  502  0.00000000000E+00  0.00000000000E+00  0.56082648968E+02  0.56082648968E+02  0.00000000000E+00 0. -1.
         21   -1    0    0  502  503 -0.00000000000E+00 -0.00000000000E+00 -0.32417134133E+02  0.32417134133E+02  0.00000000000E+00 0.  1.
          2    1    1    2  501    0 -0.40707786266E+02 -0.18316467277E+01  0.24859432344E+02  0.47733323463E+02  0.00000000000E+00 0. -1.
         -2    1    1    2    0  503  0.40707786266E+02  0.18316467277E+01 -0.11939175089E+01  0.40766459638E+02  0.00000000000E+00 0.  1.
</event>
<event>
 4    1  0.1772365E+004  0.2097962E+02  0.7546771E-02  0.1519556E+00
         21   -1    0    0  501  502  0.00000000000E+00  0.00000000000E+00  0.45429626457E+01  0.45429626457E+01  0.00000000000E+00 0. -1.
         21   -1    0    0  502  503 -0.00000000000E+00 -0.00000000000E+00 -0.19702918583E+03  0.19702918583E+03  0.00000000000E+00 0.  1.
          2    1    1    2  501    0 -0.93727407180E+01 -0.18769554582E+02 -0.24389541566E+02  0.32171325517E+02  0.00000000000E+00 0. -1.
         -2    1    1    2    0  503  0.93727407180E+01  0.18769554582E+02 -0.16809668162E+03  0.16940082296E+03  0.00000000000E+00 0.  1.
</event>
<event>
 4    1  0.1772365E+004  0.2130851E+02  0.7546771E-02  0.1514905E+00
         21   -1    0    0  503  502  0.00000000000E+00  0.00000000000E+00  0.22402172956E+01  0.22402172956E+01  0.00000000000E+00 0. -1.
         21   -1    0    0  501  503 -0.00000000000E+00 -0.00000000000E+00 -0.46750544470E+03  0.46750544470E+03  0.00000000000E+00 0.  1.
          2    1    1    2  501    0 -0.76507414417E+01 -0.19887651527E+02 -0.40940619729E+03  0.40996034797E+03  0.00000000000E+00 0.  1.
         -2    1    1    2    0  502  0.76507414417E+01  0.19887651527E+02 -0.55859030113E+02  0.59785314025E+02  0.00000000000E+00 0. -1.
</event>
<event>
 4    1  0.1772365E+004  0.4035122E+02  0.7546771E-02  0.1346440E+00
         21   -1    0    0  503  502  0.00000000000E+00  0.00000000000E+00  0.28417180792E+02  0.28417180792E+02  0.00000000000E+00 0.  1.
         21   -1    0    0  501  503 -0.00000000000E+00 -0.00000000000E+00 -0.70441183922E+02  0.70441183922E+02  0.00000000000E+00 0. -1.
          2    1    1    2  501    0  0.40308878170E+02 -0.18479697742E+01 -0.42363879480E+02  0.58505717124E+02  0.00000000000E+00 0. -1.
         -2    1    1    2    0  502 -0.40308878170E+02  0.18479697742E+01  0.33987634975E+00  0.40352647590E+02  0.00000000000E+00 0.  1.
</event>
<event>
 4    1  0.1772365E+004  0.2376856E+02  0.7546771E-02  0.1483066E+00
         21   -1    0    0  503  502  0.00000000000E+00  0.00000000000E+00  0.17203159759E+02  0.17203159759E+02  0.00000000000E+00 0.  1.
         21   -1    0    0  501  503 -0.00000000000E+00 -0.00000000000E+00 -0.50531986079E+02  0.50531986079E+02  0.00000000000E+00 0. -1.
          2    1    1    2  501    0 -0.17745116456E+02  0.15813131466E+02 -0.36704265764E+02  0.43728107781E+02  0.00000000000E+00 0. -1.
         -2    1    1    2    0  502  0.17745116456E+02 -0.15813131466E+02  0.33754394442E+01  0.24007038057E+02  0.00000000000E+00 0.  1.
</event>
<event>
 4    1  0.1772365E+004  0.6676008E+02  0.7546771E-02  0.1238446E+00
         21   -1    0    0  503  502  0.00000000000E+00  0.00000000000E+00  0.44179558729E+02  0.44179558729E+02  0.00000000000E+00 0.  1.
         21   -1    0    0  501  503 -0.00000000000E+00 -0.00000000000E+00 -0.12112201364E+03  0.12112201364E+03  0.00000000000E+00 0. -1.
          2    1    1    2  501    0 -0.42893544846E+02  0.51157128895E+02 -0.72257812713E+02  0.98377332370E+02  0.00000000000E+00 0. -1.
         -2    1    1    2    0  502  0.42893544846E+02 -0.51157128895E+02 -0.46846421931E+01  0.66924239993E+02  0.00000000000E+00 0.  1.
</event>
<event>
 4    1  0.1772365E+004  0.2143383E+02  0.7546771E-02  0.1513160E+00
         21   -1    0    0  501  502  0.00000000000E+00  0.00000000000E+00  0.20193092580E+02  0.20193092580E+02  0.00000000000E+00 0.  1.
         21   -1    0    0  502  503 -0.00000000000E+00 -0.00000000000E+00 -0.23346659174E+02  0.23346659174E+02  0.00000000000E+00 0. -1.
          2    1    1    2  501    0 -0.21048143641E+02  0.40477790345E+01  0.19011240620E+01  0.21517972455E+02  0.00000000000E+00 0.  1.
         -2    1    1    2    0  503  0.21048143641E+02 -0.40477790345E+01 -0.50546906563E+01  0.22021779299E+02  0.00000000000E+00 0. -1.
</event>
<event>
 4    1  0.1772365E+004  0.3815510E+02  0.7546771E-02  0.1359650E+00
         21   -1    0    0  503  502  0.00000000000E+00  0.00000000000E+00  0.93726534928E+02  0.93726534928E+02  0.00000000000E+00 0.  1.
         21   -1    0    0  501  503 -0.00000000000E+00 -0.00000000000E+00 -0.16460464440E+02  0.16460464440E+02  0.00000000000E+00 0. -1.
          2    1    1    2  501    0 -0.18695686466E+02 -0.33260833683E+02  0.51713830097E+02  0.64266102831E+02  0.00000000000E+00 0. -1.
         -2    1    1    2    0  502  0.18695686466E+02  0.33260833683E+02  0.25552240391E+02  0.45920896537E+02  0.00000000000E+00 0.  1.
</event>
<event>
 4    1  0.1772365E+004  0.2042877E+02  0.7546771E-02  0.1527579E+00
         21   -1    0    0  501  502  0.00000000000E+00  0.00000000000E+00  0.16392143250E+02  0.16392143250E+02  0.00000000000E+00 0.  1.
         21   -1    0    0  502  503 -0.00000000000E+00 -0.00000000000E+00 -0.27289771342E+02  0.27289771342E+02  0.00000000000E+00 0. -1.
          2    1    1    2  501    0 -0.13247901166E+02 -0.15550810986E+02  0.20755688755E+00  0.20429823481E+02  0.00000000000E+00 0.  1.
         -2    1    1    2    0  503  0.13247901166E+02  0.15550810986E+02 -0.11105184980E+02  0.23252091111E+02  0.00000000000E+00 0. -1.
</event>
<event>
 4    1  0.1772365E+004  0.2044982E+02  0.7546771E-02  0.1527267E+00
         21   -1    0    0  501  502  0.00000000000E+00  0.00000000000E+00  0.10237650359E+01  0.10237650359E+01  0.00000000000E+00 0. -1.
         21   -1    0    0  502  503 -0.00000000000E+00 -0.00000000000E+00 -0.44643624670E+03  0.44643624670E+03  0.00000000000E+00 0.  1.
          2    1    1    2  501    0  0.22234735404E+01  0.20328582511E+02 -0.15747676456E+03  0.15879901284E+03  0.00000000000E+00 0. -1.
         -2    1    1    2    0  503 -0.22234735404E+01 -0.20328582511E+02 -0.28793571710E+03  0.28866099889E+03  0.00000000000E+00 0.  1.
</event>
<event>
 4    1  0.1772365E+004  0.2708872E+02  0.7546771E-02  0.1446719E+00
         21   -1    0    0  501  502  0.00000000000E+00  0.00000000000E+00  0.78612880437E+03  0.78612880437E+03  0.00000000000E+00 0. -1.
         21   -1    0    0  502  503 -0.00000000000E+00 -0.00000000000E+00 -0.98857096820E+00  0.98857096820E+00  0.00000000000E+00 0.  1.
          2    1    1    2  501    0 -0.13107198403E+02 -0.23706544104E+02  0.29962440049E+03  0.30084643965E+03  0.00000000000E+00 0.  1.
         -2    1    1    2    0  503  0.13107198403E+02  0.23706544104E+02  0.48551583292E+03  0.48627093569E+03  0.00000000000E+00 0. -1.
</event>
<event>
 4    1  0.1772365E+004  0.2541500E+02  0.7546771E-02  0.1464214E+00
         21   -1    0    0  501  502  0.00000000000E+00  0.00000000000E+00  0.48207196278E+01  0.48207196278E+01  0.00000000000E+00 0. -1.
         21   -1    0    0  502  503 -0.00000000000E+00 -0.00000000000E+00 -0.17767513325E+03  0.17767513325E+03  0.00000000000E+00 0.  1.
          2    1    1    2  501    0 -0.97009223562E+01 -0.23490729951E+02 -0.41180952628E+02  0.48392077322E+02  0.00000000000E+00 0. -1.
         -2    1    1    2    0  503  0.97009223562E+01  0.23490729951E+02 -0.13167346099E+03  0.13410377556E+03  0.00000000000E+00 0.  1.
</event>
<event>
 4    1  0.1772365E+004  0.2253838E+02  0.7546771E-02  0.1498378E+00
         21   -1    0    0  501  502  0.00000000000E+00  0.00000000000E+00  0.13840908441E+03  0.13840908441E+03  0.00000000000E+00 0.  1.
         21   -1    0    0  502  503 -0.00000000000E+00 -0.00000000000E+00 -0.37840172948E+01  0.37840172948E+01  0.00000000000E+00 0. -1.
          2    1    1    2  501    0 -0.59656579183E+01 -0.21734519906E+02  0.79647047881E+02  0.82774577414E+02  0.00000000000E+00 0.  1.
         -2    1    1    2    0  503  0.59656579183E+01  0.21734519906E+02  0.54978019231E+02  0.59418524287E+02  0.00000000000E+00 0. -1.
</event>
<event>
 4    1  0.1772365E+004  0.2648812E+02  0.7546771E-02  0.1452819E+00
         21   -1    0    0  503  502  0.00000000000E+00  0.00000000000E+00  0.16870147147E+02  0.16870147147E+02  0.00000000000E+00 0.  1.
         21   -1    0    0  501  503 -0.00000000000E+00 -0.00000000000E+00 -0.44301594937E+02  0.44301594937E+02  0.00000000000E+00 0. -1.
          2    1    1    2  501    0 -0.14732926575E+02 -0.22012756393E+02 -0.21283453165E+02  0.33979493052E+02  0.00000000000E+00 0.  1.
         -2    1    1    2    0  502  0.14732926575E+02  0.22012756393E+02 -0.61479946245E+01  0.27192249031E+02  0.00000000000E+00 0. -1.
</event>
<event>
 4    1  0.1772365E+004  0.2178168E+02  0.7546771E-02  0.1508391E+00
         21   -1    0    0  501  502  0.00000000000E+00  0.00000000000E+00  0.54263351348E+02  0.54263351348E+02  0.00000000000E+00 0.  1.
         21   -1    0    0  502  503 -0.00000000000E+00 -0.00000000000E+00 -0.11234242702E+02  0.11234242702E+02  0.00000000000E+00 0. -1.
          2    1    1    2  501    0 -0.14064012278E+02  0.16632656883E+02  0.36935243474E+02  0.42879528062E+02  0.00000000000E+00 0.  1.
         -2    1    1    2    0  503  0.14064012278E+02 -0.16632656883E+02  0.60938651716E+01  0.22618065988E+02  0.00000000000E+00 0. -1.
</event>
<event>
 4    1  0.1772365E+004  0.3760520E+02  0.7546771E-02  0.1363121E+00
         21   -1    0    0  503  502  0.00000000000E+00  0.00000000000E+00  0.60920926240E+02  0.60920926240E+02  0.00000000000E+00 0.  1.
         21   -1    0    0  501  503 -0.00000000000E+00 -0.00000000000E+00 -0.36850693659E+02  0.36850693659E+02  0.00000000000E+00 0. -1.
          2    1    1    2  501    0  0.29778690886E+02  0.22964763860E+02 -0.17704282533E+02  0.41564316788E+02  0.00000000000E+00 0.  1.
         -2    1    1    2    0  502 -0.29778690886E+02 -0.22964763860E+02  0.41774515113E+02  0.56207303111E+02  0.00000000000E+00 0. -1.
</event>
<event>
 4    1  0.1772365E+004  0.5858730E+02  0.7546771E-02  0.1264709E+00
         21   -1    0    0  503  502  0.00000000000E+00  0.00000000000E+00  0.45739106441E+03  0.45739106441E+03  0.00000000000E+00 0. -1.
         21   -1    0    0  501  503 -0.00000000000E+00 -0.00000000000E+00 -0.11499144704E+02  0.11499144704E+02  0.00000000000E+00 0.  1.
          2    1    1    2  501    0 -0.58572322937E+02  0.13247405716E+01  0.36112741784E+03  0.36584899052E+03  0.00000000000E+00 0. -1.
         -2    1    1    2    0  502  0.58572322937E+02 -0.13247405716E+01  0.84764501872E+02  0.10304121859E+03  0.00000000000E+00 0.  1.
</event>
<event>
 4    1  0.1772365E+004  0.2455852E+02  0.7546771E-02  0.1473803E+00
         21   -1    0    0  501  502  0.00000000000E+00  0.00000000000E+00  0.36975839831E+02  0.36975839831E+02  0.00000000000E+00 0. -1.
         21   -1    0    0  502  503 -0.00000000000E+00 -0.00000000000E+00 -0.17661536900E+02  0.17661536900E+02  0.00000000000E+00 0.  1.
          2    1    1    2  501    0  0.12591314035E+02 -0.21085054601E+02  0.21033609912E+01  0.24648424780E+02  0.00000000000E+00 0.  1.
         -2    1    1    2    0  503 -0.12591314035E+02  0.21085054601E+02  0.17210941940E+02  0.29988951951E+02  0.00000000000E+00 0. -1.
</event>
<event>
 4    1  0.1772365E+004  0.2115307E+02  0.7546771E-02  0.1517090E+00
         21   -1    0    0  503  502  0.00000000000E+00  0.00000000000E+00  0.82215749225E+01  0.82215749225E+01  0.00000000000E+00 0.  1.
         21   -1    0    0  501  503 -0.00000000000E+00 -0.00000000000E+00 -0.74455006825E+02  0.74455006825E+02  0.00000000000E+00 0. -1.
          2    1    1    2  501    0 -0.32866875049E+01  0.20896176707E+02 -0.54558205139E+02  0.58515384847E+02  0.00000000000E+00 0. -1.
         -2    1    1    2    0  502  0.32866875049E+01 -0.20896176707E+02 -0.11675226764E+02  0.24161196901E+02  0.00000000000E+00 0.  1.
</event>
<event>
 4    1  0.1772365E+004  0.4848397E+02  0.7546771E-02  0.1304883E+00
         21   -1    0    0  501  502  0.00000000000E+00  0.00000000000E+00  0.13684040171E+01  0.13684040171E+01  0.00000000000E+00 0. -1.
         21   -1    0    0  502  503 -0.00000000000E+00 -0.00000000000E+00 -0.17479093279E+04  0.17479093279E+04  0.00000000000E+00 0.  1.
          2    1    1    2  501    0  0.14238153842E+02 -0.46346203873E+02 -0.98799326517E+03  0.98918218123E+03  0.00000000000E+00 0.  1.
         -2    1    1    2    0  503 -0.14238153842E+02  0.46346203873E+02 -0.75854765876E+03  0.76009555073E+03  0.00000000000E+00 0. -1.
</event>
<event>
 4    1  0.1772365E+004  0.2195470E+02  0.7546771E-02  0.1506058E+00
         21   -1    0    0  503  502  0.00000000000E+00  0.00000000000E+00  0.89805679547E+03  0.89805679547E+03  0.00000000000E+00 0.  1.
         21   -1    0    0  501  503 -0.00000000000E+00 -0.00000000000E+00 -0.62825552676E+02  0.62825552676E+02  0.00000000000E+00 0. -1.
          2    1    1    2  501    0 -0.21520791184E+02 -0.43432931893E+01 -0.60768925959E+02  0.64613241763E+02  0.00000000000E+00 0. -1.
         -2    1    1    2    0  502  0.21520791184E+02  0.43432931893E+01  0.89600016876E+03  0.89626910639E+03  0.00000000000E+00 0.  1.
</event>
<event>
 4    1  0.1772365E+004  0.3203152E+02  0.7546771E-02  0.1402727E+00
         21   -1    0    0  503  502  0.00000000000E+00  0.00000000000E+00  0.35008637725E+01  0.35008637725E+01  0.00000000000E+00 0. -1.
         21   -1    0    0  501  503 -0.00000000000E+00 -0.00000000000E+00 -0.36942749766E+03  0.36942749766E+03  0.00000000000E+00 0.  1.
          2    1    1    2  501    0 -0.18418274726E+02  0.26206589769E+02 -0.26773296267E+03  0.26964227689E+03  0.00000000000E+00 0.  1.
         -2    1    1    2    0  502  0.18418274726E+02 -0.26206589769E+02 -0.98193671224E+02  0.10328608454E+03  0.00000000000E+00 0. -1.
</event>
<event>
 4    1  0.1772365E+004  0.3650972E+02  0.7546771E-02  0.1370249E+00
         21   -1    0    0  503  502  0.00000000000E+00  0.00000000000E+00  0.22061638294E+03  0.22061638294E+03  0.00000000000E+00 0. -1.
         21   -1    0    0  501  503 -0.00000000000E+00 -0.00000000000E+00 -0.95398953451E+01  0.95398953451E+01  0.00000000000E+00 0.  1.
          2    1    1    2  501    0  0.11805251016E+01  0.36490626400E+02  0.35855416648E+02  0.51171968475E+02  0.00000000000E+00 0.  1.
         -2    1    1    2    0  502 -0.11805251016E+01 -0.36490626400E+02  0.17522107095E+03  0.17898430981E+03  0.00000000000E+00 0. -1.
</event>
<event>
 4    1  0.1772365E+004  0.3245054E+02  0.7546771E-02  0.1399431E+00
         21   -1    0    0  503  502  0.00000000000E+00  0.00000000000E+00  0.48397497327E+03  0.48397497327E+03  0.00000000000E+00 0.  1.
         21   -1    0    0  501  503 -0.00000000000E+00 -0.00000000000E+00 -0.27800720457E+01  0.27800720457E+01  0.00000000000E+00 0. -1.
          2    1    1    2  501    0  0.86945265657E+01  0.31264078471E+02  0.12713158220E+03  0.13120776115E+03  0.00000000000E+00 0. -1.
         -2    1    1    2    0  502 -0.86945265657E+01 -0.31264078471E+02  0.35406331903E+03  0.35554728416E+03  0.00000000000E+00 0.  1.
</event>
<event>
 4    1  0.1772365E+004  0.5065879E+02  0.7546771E-02  0.1295341E+00
         21   -1    0    0  501  502  0.00000000000E+00  0.00000000000E+00  0.46988859892E+01  0.46988859892E+01  0.00000000000E+00 0.  1.
         21   -1    0    0  502  503 -0.00000000000E+00 -0.00000000000E+00 -0.59522997655E+03  0.59522997655E+03  0.00000000000E+00 0. -1.
          2    1    1    2  501    0  0.36425539305E+02  0.35206429205E+02 -0.20913355512E+03  0.21518168242E+03  0.00000000000E+00 0. -1.
         -2    1    1    2    0  503 -0.36425539305E+02 -0.35206429205E+02 -0.38139753544E+03  0.38474718012E+03  0.00000000000E+00 0.  1.
</event>
<event>
 4    1  0.1772365E+004  0.2595287E+02  0.7546771E-02  0.1458420E+00
         21   -1    0    0  503  502  0.00000000000E+00  0.00000000000E+00  0.77853134772E+02  0.77853134772E+02  0.00000000000E+00 0.  1.
         21   -1    0    0  501  503 -0.00000000000E+00 -0.00000000000E+00 -0.86567379632E+01  0.86567379632E+01  0.00000000000E+00 0. -1.
          2    1    1    2  501    0 -0.25487796673E+02  0.48911951652E+01  0.33540974277E+02  0.42409297622E+02  0.00000000000E+00 0. -1.
         -2    1    1    2    0  502  0.25487796673E+02 -0.48911951652E+01  0.35655422532E+02  0.44100575113E+02  0.00000000000E+00 0.  1.
</event>
<event>
 4    1  0.1772365E+004  0.2781019E+02  0.7546771E-02  0.1439635E+00
         21   -1    0    0  501  502  0.00000000000E+00  0.00000000000E+00  0.29093755353E+01  0.29093755353E+01  0.00000000000E+00 0. -1.
         21   -1    0    0  502  503 -0.00000000000E+00 -0.00000000000E+00 -0.29335519002E+03  0.29335519002E+03  0.00000000000E+00 0.  1.
          2    1    1    2  501    0  0.12094579007E+02 -0.25042521340E+02 -0.99849867534E+02  0.10365038718E+03  0.00000000000E+00 0.  1.
         -2    1    1    2    0  503 -0.12094579007E+02  0.25042521340E+02 -0.19059594695E+03  0.19261417837E+03  0.00000000000E+00 0. -1.
</event>
<event>
 4    1  0.1772365E+004  0.3986823E+02  0.7546771E-02  0.1349260E+00
         21   -1    0    0  503  502  0.00000000000E+00  0.00000000000E+00  0.42786534470E+02  0.42786534470E+02  0.00000000000E+00 0.  1.
         21   -1    0    0  501  503 -0.00000000000E+00 -0.00000000000E+00 -0.13028493729E+03  0.13028493729E+03  0.00000000000E+00 0. -1.
          2    1    1    2  501    0  0.39178123802E+02 -0.73857966267E+01 -0.11691483176E+03  0.12352551665E+03  0.00000000000E+00 0. -1.
         -2    1    1    2    0  502 -0.39178123802E+02  0.73857966267E+01  0.29416428943E+02  0.49545955115E+02  0.00000000000E+00 0.  1.
</event>
<event>
 4    1  0.1772365E+004  0.2105705E+02  0.7546771E-02  0.1518452E+00
         21   -1    0    0  501  502  0.00000000000E+00  0.00000000000E+00  0.92594115206E+01  0.92594115206E+01  0.00000000000E+00 0.  1.
         21   -1    0    0  502  503 -0.00000000000E+00 -0.00000000000E+00 -0.48013342897E+02  0.48013342897E+02  0.00000000000E+00 0. -1.
          2    1    1    2  501    0  0.71858782391E+01 -0.19792988552E+02 -0.17904111109E+02  0.27639761875E+02  0.00000000000E+00 0.  1.
         -2    1    1    2    0  503 -0.71858782391E+01  0.19792988552E+02 -0.20849820267E+02  0.29632992543E+02  0.00000000000E+00 0. -1.
</event>
<event>
 4    1  0.1772365E+004  0.3563454E+02  0.7546771E-02  0.1376156E+00
         21   -1    0    0  501  502  0.00000000000E+00  0.00000000000E+00  0.30555185326E+01  0.30555185326E+01  0.00000000000E+00 0.  1.
         21   -1    0    0  502  503 -0.00000000000E+00 -0.00000000000E+00 -0.47576144917E+03  0.47576144917E+03  0.00000000000E+00 0. -1.
          2    1    1    2  501    0  0.35506636122E+02  0.30165426150E+01 -0.15120654847E+03  0.15534877225E+03  0.00000000000E+00 0.  1.
         -2    1    1    2    0  503 -0.35506636122E+02 -0.30165426150E+01 -0.32149938217E+03  0.32346819545E+03  0.00000000000E+00 0. -1.
</event>
<event>
 4    1  0.1772365E+004  0.4023883E+02  0.7546771E-02  0.1347092E+00
         21   -1    0    0  501  502  0.00000000000E+00  0.00000000000E+00  0.62647445932E+01  0.62647445932E+01  0.00000000000E+00 0.  1.
         21   -1    0    0  502  503 -0.00000000000E+00 -0.00000000000E+00 -0.26887815000E+03  0.26887815000E+03  0.00000000000E+00 0. -1.
          2    1    1    2  501    0  0.11906353776E+02 -0.38436988157E+02 -0.10422219612E+03  0.11172031813E+03  0.00000000000E+00 0.  1.
         -2    1    1    2    0  503 -0.11906353776E+02  0.38436988157E+02 -0.15839120929E+03  0.16342257646E+03  0.00000000000E+00 0. -1.
</event>
<event>
 4    1  0.1772365E+004  0.3526191E+02  0.7546771E-02  0.1378731E+00
         21   -1    0    0  503  502  0.00000000000E+00  0.00000000000E+00  0.68467752606E+03  0.68467752606E+03  0.00000000000E+00 0.  1.
         21   -1    0    0  501  503 -0.00000000000E+00 -0.00000000000E+00 -0.21148098177E+01  0.21148098177E+01  0.00000000000E+00 0. -1.
          2    1    1    2  501    0 -0.33151288171E+02 -0.12016416211E+02  0.21221063866E+03  0.21512033220E+03  0.00000000000E+00 0. -1.
         -2    1    1    2    0  502  0.33151288171E+02  0.12016416211E+02  0.47035207759E+03  0.47167200368E+03  0.00000000000E+00 0.  1.
</event>
<event>
 4    1  0.1772365E+004  0.2220907E+02  0.7546771E-02  0.1502676E+00
         21   -1    0    0  501  502  0.00000000000E+00  0.00000000000E+00  0.88007914804E+02  0.88007914804E+02  0.00000000000E+00 0.  1.
         21   -1    0    0  502  503 -0.00000000000E+00 -0.00000000000E+00 -0.13063172480E+02  0.13063172480E+02  0.00000000000E+00 0. -1.
          2    1    1    2  501    0 -0.32121677208E+01  0.21975548141E+02  0.75658232664E+02  0.78850560603E+02  0.00000000000E+00 0.  1.
         -2    1    1    2    0  503  0.32121677208E+01 -0.21975548141E+02 -0.71349033956E+00  0.22220526682E+02  0.00000000000E+00 0. -1.
</event>
<event>
 4    1  0.1772365E+004  0.3301696E+02  0.7546771E-02  0.1395067E+00
         21   -1    0    0  503  502  0.00000000000E+00  0.00000000000E+00  0.15622401881E+01  0.15622401881E+01  0.00000000000E+00 0. -1.
         21   -1    0    0  501  503 -0.00000000000E+00 -0.00000000000E+00 -0.79681704993E+03  0.79681704993E+03  0.00000000000E+00 0.  1.
          2    1    1    2  501    0 -0.32759763085E+02  0.41131324071E+01 -0.53835224573E+03  0.53936375519E+03  0.00000000000E+00 0.  1.
         -2    1    1    2    0  502  0.32759763085E+02 -0.41131324071E+01 -0.25690256402E+03  0.25901553493E+03  0.00000000000E+00 0. -1.
</event>
<event>
 4    1  0.1772365E+004  0.2731199E+02  0.7546771E-02  0.1444499E+00
         21   -1    0    0  501  502  0.00000000000E+00  0.00000000000E+00  0.33192500154E+01  0.33192500154E+01  0.00000000000E+00 0. -1.
         21   -1    0    0  502  503 -0.00000000000E+00 -0.00000000000E+00 -0.11659823979E+04  0.11659823979E+04  0.00000000000E+00 0.  1.
          2    1    1    2  501    0 -0.27271901889E+02 -0.14792010934E+01 -0.56036958986E+02  0.62338474804E+02  0.00000000000E+00 0. -1.
         -2    1    1    2    0  503  0.27271901889E+02  0.14792010934E+01 -0.11066261889E+04  0.11069631731E+04  0.00000000000E+00 0.  1.
</event>
<event>
 4    1  0.1772365E+004  0.2815041E+02  0.7546771E-02  0.1436382E+00
         21   -1    0    0  503  502  0.00000000000E+00  0.00000000000E+00  0.56144149770E+03  0.56144149770E+03  0.00000000000E+00 0.  1.
         21   -1    0    0  501  503 -0.00000000000E+00 -0.00000000000E+00 -0.25879282046E+01  0.25879282046E+01  0.00000000000E+00 0. -1.
          2    1    1    2  501    0 -0.26716613506E+02  0.88695048144E+01  0.89280457029E+02  0.93613276623E+02  0.00000000000E+00 0. -1.
         -2    1    1    2    0  502  0.26716613506E+02 -0.88695048144E+01  0.46957311246E+03  0.47041614928E+03  0.00000000000E+00 0.  1.
</event>
<event>
 4    1  0.1772365E+004  0.4157637E+02  0.7546771E-02  0.1339488E+00
         21   -1    0    0  503  502  0.00000000000E+00  0.00000000000E+00  0.21312525920E+02  0.21312525920E+02  0.00000000000E+00 0.  1.
         21   -1    0    0  501  503 -0.00000000000E+00 -0.00000000000E+00 -0.15109499663E+03  0.15109499663E+03  0.00000000000E+00 0. -1.
          2    1    1    2  501    0  0.32210396873E+02 -0.26288494436E+02 -0.12356082061E+03  0.13036821313E+03  0.00000000000E+00 0. -1.
         -2    1    1    2    0  502 -0.32210396873E+02  0.26288494436E+02 -0.62216501049E+01  0.42039309419E+02  0.00000000000E+00 0.  1.
</event>
<event>
 4    1  0.1772365E+004  0.3699904E+02  0.7546771E-02  0.1367029E+00
         21   -1    0    0  501  502  0.00000000000E+00  0.00000000000E+00  0.65245475177E+02  0.65245475177E+02  0.00000000000E+00 0.  1.
         21   -1    0    0  502  503 -0.00000000000E+00 -0.00000000000E+00 -0.66170951860E+02  0.66170951860E+02  0.00000000000E+00 0. -1.
          2    1    1    2  501    0  0.36582563086E+02 -0.55357949944E+01  0.53838021149E+02  0.65325810132E+02  0.00000000000E+00 0.  1.
         -2    1    1    2    0  503 -0.36582563086E+02  0.55357949944E+01 -0.54763497831E+02  0.66090616905E+02  0.00000000000E+00 0. -1.
</event>
<event>
 4    1  0.1772365E+004  0.2713305E+02  0.7546771E-02  0.1446276E+00
         21   -1    0    0  501  502  0.00000000000E+00  0.00000000000E+00  0.43055405093E+02  0.43055405093E+02  0.00000000000E+00 0. -1.
         21   -1    0    0  502  503 -0.00000000000E+00 -0.00000000000E+00 -0.54320933872E+02  0.54320933872E+02  0.00000000000E+00 0.  1.
          2    1    1    2  501    0 -0.15941803853E+02 -0.21955896336E+02  0.34670437867E+02  0.44025467128E+02  0.00000000000E+00 0. -1.
         -2    1    1    2    0  503  0.15941803853E+02  0.21955896336E+02 -0.45935966647E+02  0.53350871837E+02  0.00000000000E+00 0.  1.
</event>
<event>
 4    1  0.1772365E+004  0.4118474E+02  0.7546771E-02  0.1341680E+00
         21   -1    0    0  501  502  0.00000000000E+00  0.00000000000E+00  0.11871838426E+03  0.11871838426E+03  0.00000000000E+00 0.  1.
         21   -1    0    0  502  503 -0.00000000000E+00 -0.00000000000E+00 -0.23794494803E+02  0.23794494803E+02  0.00000000000E+00 0. -1.
          2    1    1    2  501    0 -0.40764195673E+02  0.58705194309E+01  0.92503015661E+02  0.10125705187E+03  0.00000000000E+00 0.  1.
         -2    1    1    2    0  503  0.40764195673E+02 -0.58705194309E+01  0.24208737941E+01  0.41255827191E+02  0.00000000000E+00 0. -1.
</event>
<event>
 4    1  0.1772365E+004  0.2079910E+02  0.7546771E-02  0.1522153E+00
         21   -1    0    0  501  502  0.00000000000E+00  0.00000000000E+00  0.72072147384E+02  0.72072147384E+02  0.00000000000E+00 0.  1.
         21   -1    0    0  502  503 -0.00000000000E+00 -0.00000000000E+00 -0.16186224066E+02  0.16186224066E+02  0.00000000000E+00 0. -1.
          2    1    1    2  501    0 -0.19300171814E+02 -0.77527892146E+01  0.62946312002E+02  0.66293593712E+02  0.00000000000E+00 0.  1.
         -2    1    1    2    0  503  0.19300171814E+02  0.77527892146E+01 -0.70603886839E+01  0.21964777737E+02  0.00000000000E+00 0. -1.
</event>
<event>
 4    1  0.1772365E+004  0.2410669E+02  0.7546771E-02  0.1479050E+00
         21   -1    0    0  501  502  0.00000000000E+00  0.00000000000E+00  0.13539158754E+01  0.13539158754E+01  0.00000000000E+00 0.  1.
         21   -1    0    0  502  503 -0.00000000000E+00 -0.00000000000E+00 -0.44870011989E+03  0.44870011989E+03  0.00000000000E+00 0. -1.
          2    1    1    2  501    0  0.23838627771E+02 -0.35849894037E+01 -0.27055604999E+03  0.27162788610E+03  0.00000000000E+00 0.  1.
         -2    1    1    2    0  503 -0.23838627771E+02  0.35849894037E+01 -0.17679015403E+03  0.17842614966E+03  0.00000000000E+00 0. -1.
</event>
<event>
 4    1  0.1772365E+004  0.2019939E+02  0.7546771E-02  0.1531009E+00
         21   -1    0    0  501  502  0.00000000000E+00  0.00000000000E+00  0.15727428936E+03  0.15727428936E+03  0.00000000000E+00 0.  1.
         21   -1    0    0  502  503 -0.00000000000E+00 -0.00000000000E+00 -0.38267957217E+01  0.38267957217E+01  0.00000000000E+00 0. -1.
          2    1    1    2  501    0  0.12487257648E+02  0.15877144985E+02  0.12243730803E+03  0.12409234357E+03  0.00000000000E+00 0.  1.
         -2    1    1    2    0  503 -0.12487257648E+02 -0.15877144985E+02  0.31010185612E+02  0.37008741510E+02  0.00000000000E+00 0. -1.
</event>
<event>
 4    1  0.1772365E+004  0.3278122E+02  0.7546771E-02  0.1396871E+00
         21   -1    0    0  501  502  0.00000000000E+00  0.00000000000E+00  0.57863674440E+01  0.57863674440E+01  0.00000000000E+00 0. -1.
         21   -1    0    0  502  503 -0.00000000000E+00 -0.00000000000E+00 -0.79500658155E+03  0.79500658155E+03  0.00000000000E+00 0.  1.
          2    1    1    2  501    0 -0.25044964839E+02 -0.21150847157E+02 -0.44086009363E+02  0.54938008890E+02  0.00000000000E+00 0. -1.
         -2    1    1    2    0  503  0.25044964839E+02  0.21150847157E+02 -0.74513420474E+03  0.74585494010E+03  0.00000000000E+00 0.  1.
</event>
<event>
 4    1  0.1772365E+004  0.2621348E+02  0.7546771E-02  0.1455673E+00
         21   -1    0    0  503  502  0.00000000000E+00  0.00000000000E+00  0.36482708388E+01  0.36482708388E+01  0.00000000000E+00 0.  1.
         21   -1    0    0  501  503 -0.00000000000E+00 -0.00000000000E+00 -0.23530482497E+03  0.23530482497E+03  0.00000000000E+00 0. -1.
          2    1    1    2  501    0  0.22620418137E+02  0.13246255063E+02 -0.16920033916E+03  0.17121886976E+03  0.00000000000E+00 0.  1.
         -2    1    1    2    0  502 -0.22620418137E+02 -0.13246255063E+02 -0.62456214965E+02  0.67734226043E+02  0.00000000000E+00 0. -1.
</event>
<event>
 4    1  0.1772365E+004  0.3404112E+02  0.7546771E-02  0.1387433E+00
         21   -1    0    0  501  502  0.00000000000E+00  0.00000000000E+00  0.96184331222E+01  0.96184331222E+01  0.00000000000E+00 0. -1.
         21   -1    0    0  502  503 -0.00000000000E+00 -0.00000000000E+00 -0.36879276667E+03  0.36879276667E+03  0.00000000000E+00 0.  1.
          2    1    1    2  501    0  0.22930347214E+02 -0.25159431663E+02 -0.24332332693E+02  0.41843281890E+02  0.00000000000E+00 0. -1.
         -2    1    1    2    0  503 -0.22930347214E+02  0.25159431663E+02 -0.33484200086E+03  0.33656791790E+03  0.00000000000E+00 0.  1.
</event>
<event>
 4    1  0.1772365E+004  0.2087890E+02  0.7546771E-02  0.1521001E+00
         21   -1    0    0  501  502  0.00000000000E+00  0.00000000000E+00  0.89757011455E+01  0.89757011455E+01  0.00000000000E+00 0. -1.
         21   -1    0    0  502  503 -0.00000000000E+00 -0.00000000000E+00 -0.68208926913E+02  0.68208926913E+02  0.00000000000E+00 0.  1.
          2    1    1    2  501    0  0.56507941320E+01 -0.20099673204E+02 -0.89073075138E+01  0.22699525642E+02  0.00000000000E+00 0. -1.
         -2    1    1    2    0  503 -0.56507941320E+01  0.20099673204E+02 -0.50325918253E+02  0.54485102416E+02  0.00000000000E+00 0.  1.
</event>
<event>
 4    1  0.1772365E+004  0.3368326E+02  0.7546771E-02  0.1390064E+00
         21   -1    0    0  501  502  0.00000000000E+00  0.00000000000E+00  0.61139252436E+01  0.61139252436E+01  0.00000000000E+00 0.  1.
         21   -1    0    0  502  503 -0.00000000000E+00 -0.00000000000E+00 -0.24431447705E+03  0.24431447705E+03  0.00000000000E+00 0. -1.
          2    1    1    2  501    0  0.25960239735E+02  0.21462246589E+02 -0.57701187728E+02  0.66813091090E+02  0.00000000000E+00 0.  1.
         -2    1    1    2    0  503 -0.25960239735E+02 -0.21462246589E+02 -0.18049936408E+03  0.18361531121E+03  0.00000000000E+00 0. -1.
</event>
<event>
 4    1  0.1772365E+004  0.2195005E+02  0.7546771E-02  0.1506121E+00
         21   -1    0    0  503  502  0.00000000000E+00  0.00000000000E+00  0.69764457493E+02  0.69764457493E+02  0.00000000000E+00 0. -1.
         21   -1    0    0  501  503 -0.00000000000E+00 -0.00000000000E+00 -0.17482166640E+02  0.17482166640E+02  0.00000000000E+00 0.  1.
          2    1    1    2  501    0  0.20554271616E+02  0.77023806260E+01 -0.77886931903E+01  0.23290952977E+02  0.00000000000E+00 0.  1.
         -2    1    1    2    0  502 -0.20554271616E+02 -0.77023806260E+01  0.60070984043E+02  0.63955671155E+02  0.00000000000E+00 0. -1.
</event>
<event>
 4    1  0.1772365E+004  0.3525900E+02  0.7546771E-02  0.1378751E+00
         21   -1    0    0  501  502  0.00000000000E+00  0.00000000000E+00  0.50466790824E+03  0.50466790824E+03  0.00000000000E+00 0. -1.
         21   -1    0    0  502  503 -0.00000000000E+00 -0.00000000000E+00 -0.47383653423E+01  0.47383653423E+01  0.00000000000E+00 0.  1.
          2    1    1    2  501    0  0.20020084902E+02  0.29024006410E+02  0.42644978242E+03  0.42790491195E+03  0.00000000000E+00 0.  1.
         -2    1    1    2    0  503 -0.20020084902E+02 -0.29024006410E+02  0.73479760479E+02  0.81501361631E+02  0.00000000000E+00 0. -1.
</event>
<event>
 4    1  0.1772365E+004  0.3085255E+02  0.7546771E-02  0.1412329E+00
         21   -1    0    0  501  502  0.00000000000E+00  0.00000000000E+00  0.31033600473E+02  0.31033600473E+02  0.00000000000E+00 0.  1.
         21   -1    0    0  502  503 -0.00000000000E+00 -0.00000000000E+00 -0.40738964290E+02  0.40738964290E+02  0.00000000000E+00 0. -1.
          2    1    1    2  501    0 -0.29888509162E+02  0.76522549842E+01  0.12985913401E+02  0.33474078525E+02  0.00000000000E+00 0.  1.
         -2    1    1    2    0  503  0.29888509162E+02 -0.76522549842E+01 -0.22691277218E+02  0.38298486237E+02  0.00000000000E+00 0. -1.
</event>
<event>
 4    1  0.1772365E+004  0.7068836E+02  0.7546771E-02  0.1227289E+00
         21   -1    0    0  501  502  0.00000000000E+00  0.00000000000E+00  0.79810246062E+02  0.79810246062E+02  0.00000000000E+00 0. -1.
         21   -1    0    0  502  503 -0.00000000000E+00 -0.00000000000E+00 -0.62617097901E+02  0.62617097901E+02  0.00000000000E+00 0.  1.
          2    1    1    2  501    0 -0.69613264181E+02  0.12281579624E+02  0.77892696379E+01  0.71116218048E+02  0.00000000000E+00 0. -1.
         -2    1    1    2    0  503  0.69613264181E+02 -0.12281579624E+02  0.94038785222E+01  0.71311125915E+02  0.00000000000E+00 0.  1.
</event>
<event>
 4    1  0.1772365E+004  0.2126383E+02  0.7546771E-02  0.1515531E+00
         21   -1    0    0  501  502  0.00000000000E+00  0.00000000000E+00  0.72192124945E+02  0.72192124945E+02  0.00000000000E+00 0.  1.
         21   -1    0    0  502  503 -0.00000000000E+00 -0.00000000000E+00 -0.64683375818E+01  0.64683375818E+01  0.00000000000E+00 0. -1.
          2    1    1    2  501    0 -0.83419563414E+01 -0.19559203258E+02  0.39866721806E+02  0.45183029727E+02  0.00000000000E+00 0.  1.
         -2    1    1    2    0  503  0.83419563414E+01  0.19559203258E+02  0.25857065556E+02  0.33477432800E+02  0.00000000000E+00 0. -1.
</event>
<event>
 4    1  0.1772365E+004  0.2081922E+02  0.7546771E-02  0.1521862E+00
         21   -1    0    0  501  502  0.00000000000E+00  0.00000000000E+00  0.17770820978E+02  0.17770820978E+02  0.00000000000E+00 0.  1.
         21   -1    0    0  502  503 -0.00000000000E+00 -0.00000000000E+00 -0.39683138203E+02  0.39683138203E+02  0.00000000000E+00 0. -1.
          2    1    1    2  501    0 -0.92776766946E+01 -0.18637716017E+02  0.68769781956E+01  0.21925614525E+02  0.00000000000E+00 0.  1.
         -2    1    1    2    0  503  0.92776766946E+01  0.18637716017E+02 -0.28789295421E+02  0.35528344656E+02  0.00000000000E+00 0. -1.
</event>
<event>
 4    1  0.1772365E+004  0.2145817E+02  0.7546771E-02  0.1512823E+00
         21   -1    0    0  503  502  0.00000000000E+00  0.00000000000E+00  0.34161354739E+02  0.34161354739E+02  0.00000000000E+00 0. -1.
         21   -1    0    0  501  503 -0.00000000000E+00 -0.00000000000E+00 -0.18191527971E+02  0.18191527971E+02  0.00000000000E+00 0.  1.
          2    1    1    2  501    0  0.21333613383E+02  0.23086404704E+01 -0.53384478499E+01  0.22112256923E+02  0.00000000000E+00 0.  1.
         -2    1    1    2    0  502 -0.21333613383E+02 -0.23086404704E+01  0.21308274618E+02  0.30240625787E+02  0.00000000000E+00 0. -1.
</event>
<event>
 4    1  0.1772365E+004  0.2582125E+02  0.7546771E-02  0.1459822E+00
         21   -1    0    0  501  502  0.00000000000E+00  0.00000000000E+00  0.33026815653E+02  0.33026815653E+02  0.00000000000E+00 0.  1.
         21   -1    0    0  502  503 -0.00000000000E+00 -0.00000000000E+00 -0.25446146713E+02  0.25446146713E+02  0.00000000000E+00 0. -1.
          2    1    1    2  501    0  0.34435191908E+01  0.25590603891E+02  0.17080827554E+02  0.30959513915E+02  0.00000000000E+00 0. -1.
         -2    1    1    2    0  503 -0.34435191908E+01 -0.25590603891E+02 -0.95001586147E+01  0.27513448451E+02  0.00000000000E+00 0.  1.
</event>
<event>
 4    1  0.1772365E+004  0.2241855E+02  0.7546771E-02  0.1499931E+00
         21   -1    0    0  503  502  0.00000000000E+00  0.00000000000E+00  0.54642739996E+01  0.54642739996E+01  0.00000000000E+00 0.  1.
         21   -1    0    0  501  503 -0.00000000000E+00 -0.00000000000E+00 -0.19343215317E+03  0.19343215317E+03  0.00000000000E+00 0. -1.
          2    1    1    2  501    0  0.18491044983E+02  0.12675673237E+02 -0.16600643726E+03  0.16751336857E+03  0.00000000000E+00 0. -1.
         -2    1    1    2    0  502 -0.18491044983E+02 -0.12675673237E+02 -0.21961441911E+02  0.31383058605E+02  0.00000000000E+00 0.  1.
</event>
<event>
 4    1  0.1772365E+004  0.2592069E+02  0.7546771E-02  0.1458762E+00
         21   -1    0    0  501  502  0.00000000000E+00  0.00000000000E+00  0.18349271505E+03  0.18349271505E+03  0.00000000000E+00 0. -1.
         21   -1    0    0  502  503 -0.00000000000E+00 -0.00000000000E+00 -0.98717652307E+01  0.98717652307E+01  0.00000000000E+00 0.  1.
          2    1    1    2  501    0  0.11356300951E+02  0.23300567754E+02  0.16349361711E+03  0.16553563020E+03  0.00000000000E+00 0. -1.
         -2    1    1    2    0  503 -0.11356300951E+02 -0.23300567754E+02  0.10127332702E+02  0.27828850077E+02  0.00000000000E+00 0.  1.
</event>
<event>
 4    1  0.1772365E+004  0.2417131E+02  0.7546771E-02  0.1478291E+00
         21   -1    0    0  503  502  0.00000000000E+00  0.00000000000E+00  0.23431843811E+03  0.23431843811E+03  0.00000000000E+00 0. -1.
         21   -1    0    0  501  503 -0.00000000000E+00 -0.00000000000E+00 -0.30843740844E+01  0.30843740844E+01  0.00000000000E+00 0.  1.
          2    1    1    2  501    0  0.24170269779E+02  0.22458277770E+00  0.16757500403E+03  0.16930928609E+03  0.00000000000E+00 0. -1.
         -2    1    1    2    0  502 -0.24170269779E+02 -0.22458277770E+00  0.63659059992E+02  0.68093526107E+02  0.00000000000E+00 0.  1.
</event>
<event>
 4    1  0.1772365E+004  0.2005064E+02  0.7546771E-02  0.1533263E+00
         21   -1    0    0  501  502  0.00000000000E+00  0.00000000000E+00  0.40042971193E+02  0.40042971193E+02  0.00000000000E+00 0.  1.
         21   -1    0    0  502  503 -0.00000000000E+00 -0.00000000000E+00 -0.20947940422E+02  0.20947940422E+02  0.00000000000E+00 0. -1.
          2    1    1    2  501    0 -0.63665358572E+01  0.19013027968E+02  0.31553334691E+02  0.37385036331E+02  0.00000000000E+00 0.  1.
         -2    1    1    2    0  503  0.63665358572E+01 -0.19013027968E+02 -0.12458303920E+02  0.23605875284E+02  0.00000000000E+00 0. -1.
</event>
<event>
 4    1  0.1772365E+004  0.2223377E+02  0.7546771E-02  0.1502350E+00
         21   -1    0    0  501  502  0.00000000000E+00  0.00000000000E+00  0.20957422216E+02  0.20957422216E+02  0.00000000000E+00 0.  1.
         21   -1    0    0  502  503 -0.00000000000E+00 -0.00000000000E+00 -0.38146792219E+02  0.38146792219E+02  0.00000000000E+00 0. -1.
          2    1    1    2  501    0 -0.38147722125E+01  0.21904068918E+02  0.96620964793E+01  0.24242459252E+02  0.00000000000E+00 0.  1.
         -2    1    1    2    0  503  0.38147722125E+01 -0.21904068918E+02 -0.26851466482E+02  0.34861755183E+02  0.00000000000E+00 0. -1.
</event>
<event>
 4    1  0.1772365E+004  0.7550387E+02  0.7546771E-02  0.1214689E+00
         21   -1    0    0  501  502  0.00000000000E+00  0.00000000000E+00  0.29422081138E+02  0.29422081138E+02  0.00000000000E+00 0. -1.
         21   -1    0    0  502  503 -0.00000000000E+00 -0.00000000000E+00 -0.26402752410E+03  0.26402752410E+03  0.00000000000E+00 0.  1.
          2    1    1    2  501    0  0.52852567439E+02 -0.53920684502E+02 -0.41609840879E+02  0.86210283377E+02  0.00000000000E+00 0. -1.
         -2    1    1    2    0  503 -0.52852567439E+02  0.53920684502E+02 -0.19299560209E+03  0.20723932186E+03  0.00000000000E+00 0.  1.
</event>
<event>
 4    1  0.1772365E+004  0.2217363E+02  0.7546771E-02  0.1503144E+00
         21   -1    0    0  503  502  0.00000000000E+00  0.00000000000E+00  0.25333543251E+02  0.25333543251E+02  0.00000000000E+00 0. -1.
         21   -1    0    0  501  503 -0.00000000000E+00 -0.00000000000E+00 -0.52118601249E+02  0.52118601249E+02  0.00000000000E+00 0.  1.
          2    1    1    2  501    0 -0.22067903566E+02  0.21627778568E+01 -0.44072308798E+02  0.49335974488E+02  0.00000000000E+00 0.  1.
         -2    1    1    2    0  502  0.22067903566E+02 -0.21627778568E+01  0.17287250800E+02  0.28116170011E+02  0.00000000000E+00 0. -1.
</event>
<event>
 4    1  0.1772365E+004  0.2939799E+02  0.7546771E-02  0.1424901E+00
         21   -1    0    0  501  502  0.00000000000E+00  0.00000000000E+00  0.67991819995E+02  0.67991819995E+02  0.00000000000E+00 0.  1.
         21   -1    0    0  502  503 -0.00000000000E+00 -0.00000000000E+00 -0.25768879769E+02  0.25768879769E+02  0.00000000000E+00 0. -1.
          2    1    1    2  501    0 -0.16255793797E+01  0.29353009251E+02  0.54483297267E+02  0.61908572439E+02  0.00000000000E+00 0.  1.
         -2    1    1    2    0  503  0.16255793797E+01 -0.29353009251E+02 -0.12260357040E+02  0.31852127325E+02  0.00000000000E+00 0. -1.
</event>
<event>
 4    1  0.1772365E+004  0.2972160E+02  0.7546771E-02  0.1422031E+00
         21   -1    0    0  503  502  0.00000000000E+00  0.00000000000E+00  0.35269725305E+02  0.35269725305E+02  0.00000000000E+00 0. -1.
         21   -1    0    0  501  503 -0.00000000000E+00 -0.00000000000E+00 -0.65234087361E+02  0.65234087361E+02  0.00000000000E+00 0.  1.
          2    1    1    2  501    0  0.18938791172E+02 -0.22906237939E+02 -0.54424522459E+02  0.62011306973E+02  0.00000000000E+00 0.  1.
         -2    1    1    2    0  502 -0.18938791172E+02  0.22906237939E+02  0.24460160403E+02  0.38492505693E+02  0.00000000000E+00 0. -1.
</event>
<event>
 4    1  0.1772365E+004  0.2936167E+02  0.7546771E-02  0.1425226E+00
         21   -1    0    0  501  502  0.00000000000E+00  0.00000000000E+00  0.60232054270E+01  0.60232054270E+01  0.00000000000E+00 0. -1.
         21   -1    0    0  502  503 -0.00000000000E+00 -0.00000000000E+00 -0.24203373775E+03  0.24203373775E+03  0.00000000000E+00 0.  1.
          2    1    1    2  501    0  0.28148829270E+02  0.83517223301E+01 -0.38720922610E+02  0.48594420492E+02  0.00000000000E+00 0. -1.
         -2    1    1    2    0  503 -0.28148829270E+02 -0.83517223301E+01 -0.19728960972E+03  0.19946252269E+03  0.00000000000E+00 0.  1.
</event>
<event>
 4    1  0.1772365E+004  0.2810446E+02  0.7546771E-02  0.1436818E+00
         21   -1    0    0  501  502  0.00000000000E+00  0.00000000000E+00  0.21190074158E+03  0.21190074158E+03  0.00000000000E+00 0. -1.
         21   -1    0    0  502  503 -0.00000000000E+00 -0.00000000000E+00 -0.37684155065E+01  0.37684155065E+01  0.00000000000E+00 0.  1.
          2    1    1    2  501    0  0.10709589405E+02 -0.25983949762E+02  0.92830487976E+02  0.96991548334E+02  0.00000000000E+00 0. -1.
         -2    1    1    2    0  503 -0.10709589405E+02  0.25983949762E+02  0.11530183809E+03  0.11867760875E+03  0.00000000000E+00 0.  1.
</event>
<event>
 4    1  0.1772365E+004  0.2601571E+02  0.7546771E-02  0.1457754E+00
         21   -1    0    0  501  502  0.00000000000E+00  0.00000000000E+00  0.21957185427E+03  0.21957185427E+03  0.00000000000E+00 0. -1.
         21   -1    0    0  502  503 -0.00000000000E+00 -0.00000000000E+00 -0.18561332063E+02  0.18561332063E+02  0.00000000000E+00 0.  1.
          2    1    1    2  501    0  0.25620935078E+02  0.45149322947E+01  0.20923674174E+03  0.21084788598E+03  0.00000000000E+00 0. -1.
         -2    1    1    2    0  503 -0.25620935078E+02 -0.45149322947E+01 -0.82262195281E+01  0.27285300358E+02  0.00000000000E+00 0.  1.
</event>
<event>
 4    1  0.1772365E+004  0.4398283E+02  0.7546771E-02  0.1326605E+00
         21   -1    0    0  503  502  0.00000000000E+00  0.00000000000E+00  0.76666298546E+03  0.76666298546E+03  0.00000000000E+00 0. -1.
         21   -1    0    0  501  503 -0.00000000000E+00 -0.00000000000E+00 -0.86240825246E+01  0.86240825246E+01  0.00000000000E+00 0.  1.
          2    1    1    2  501    0  0.31135568135E+02  0.31065502422E+02  0.52979864326E+02  0.68857498269E+02  0.00000000000E+00 0.  1.
         -2    1    1    2    0  502 -0.31135568135E+02 -0.31065502422E+02  0.70505903861E+03  0.70642956971E+03  0.00000000000E+00 0. -1.
</event>
<event>
 4    1  0.1772365E+004  0.2256717E+02  0.7546771E-02  0.1498006E+00
         21   -1    0    0  503  502  0.00000000000E+00  0.00000000000E+00  0.97505410147E+00  0.97505410147E+00  0.00000000000E+00 0. -1.
         21   -1    0    0  501  503 -0.00000000000E+00 -0.00000000000E+00 -0.59321633762E+03  0.59321633762E+03  0.00000000000E+00 0.  1.
          2    1    1    2  501    0  0.38281889564E+00  0.22563918838E+02 -0.39883789649E+03  0.39947583740E+03  0.00000000000E+00 0.  1.
         -2    1    1    2    0  502 -0.38281889564E+00 -0.22563918838E+02 -0.19340338702E+03  0.19471555432E+03  0.00000000000E+00 0. -1.
</event>
<event>
 4    1  0.1772365E+004  0.2560389E+02  0.7546771E-02  0.1462160E+00
         21   -1    0    0  503  502  0.00000000000E+00  0.00000000000E+00  0.79231657368E+02  0.79231657368E+02  0.00000000000E+00 0. -1.
         21   -1    0    0  501  503 -0.00000000000E+00 -0.00000000000E+00 -0.13127928261E+03  0.13127928261E+03  0.00000000000E+00 0.  1.
          2    1    1    2  501    0 -0.24112056050E+02 -0.86120782767E+01 -0.12790841128E+03  0.13044585396E+03  0.00000000000E+00 0.  1.
         -2    1    1    2    0  502  0.24112056050E+02  0.86120782767E+01  0.75860786043E+02  0.80065086012E+02  0.00000000000E+00 0. -1.
</event>
<event>
 4    1  0.1772365E+004  0.3406931E+02  0.7546771E-02  0.1387227E+00
         21   -1    0    0  503  502  0.00000000000E+00  0.00000000000E+00  0.20665240936E+01  0.20665240936E+01  0.00000000000E+00 0. -1.
         21   -1    0    0  501  503 -0.00000000000E+00 -0.00000000000E+00 -0.93113873658E+03  0.93113873658E+03  0.00000000000E+00 0.  1.
          2    1    1    2  501    0 -0.25116071255E+02 -0.23019577773E+02 -0.75845331853E+03  0.75921812043E+03  0.00000000000E+00 0.  1.
         -2    1    1    2    0  502  0.25116071255E+02  0.23019577773E+02 -0.17061889396E+03  0.17398714025E+03  0.00000000000E+00 0. -1.
</event>
<event>
 4    1  0.1772365E+004  0.2719080E+02  0.7546771E-02  0.1445701E+00
         21   -1    0    0  503  502  0.00000000000E+00  0.00000000000E+00  0.79956975586E+01  0.79956975586E+01  0.00000000000E+00 0.  1.
         21   -1    0    0  501  503 -0.00000000000E+00 -0.00000000000E+00 -0.95547042876E+02  0.95547042876E+02  0.00000000000E+00 0. -1.
          2    1    1    2  501    0 -0.64378067478E+01 -0.26417691020E+02 -0.34480757946E+02  0.43911984959E+02  0.00000000000E+00 0. -1.
         -2    1    1    2    0  502  0.64378067478E+01  0.26417691020E+02 -0.53070587371E+02  0.59630755475E+02  0.00000000000E+00 0.  1.
</event>
<event>
 4    1  0.1772365E+004  0.2090299E+02  0.7546771E-02  0.1520654E+00
         21   -1    0    0  503  502  0.00000000000E+00  0.00000000000E+00  0.27272697610E+01  0.27272697610E+01  0.00000000000E+00 0. -1.
         21   -1    0    0  501  503 -0.00000000000E+00 -0.00000000000E+00 -0.21912653856E+03  0.21912653856E+03  0.00000000000E+00 0.  1.
          2    1    1    2  501    0 -0.25606018098E+01 -0.20745560077E+02 -0.16571836470E+03  0.16703146812E+03  0.00000000000E+00 0.  1.
         -2    1    1    2    0  502  0.25606018098E+01  0.20745560077E+02 -0.50680904103E+02  0.54822340202E+02  0.00000000000E+00 0. -1.
</event>
<event>
 4    1  0.1772365E+004  0.2024519E+02  0.7546771E-02  0.1530320E+00
         21   -1    0    0  501  502  0.00000000000E+00  0.00000000000E+00  0.27436392139E+01  0.27436392139E+01  0.00000000000E+00 0. -1.
         21   -1    0    0  502  503 -0.00000000000E+00 -0.00000000000E+00 -0.15596160969E+03  0.15596160969E+03  0.00000000000E+00 0.  1.
          2    1    1    2  501    0 -0.46884779249E+01  0.19694822475E+02 -0.60318224629E+02  0.63625121454E+02  0.00000000000E+00 0. -1.
         -2    1    1    2    0  503  0.46884779249E+01 -0.19694822475E+02 -0.92899745849E+02  0.95080127452E+02  0.00000000000E+00 0.  1.
</event>
<event>
 4    1  0.1772365E+004  0.2114282E+02  0.7546771E-02  0.1517235E+00
         21   -1    0    0  503  502  0.00000000000E+00  0.00000000000E+00  0.38770034879E+02  0.38770034879E+02  0.00000000000E+00 0.  1.
         21   -1    0    0  501  503 -0.00000000000E+00 -0.00000000000E+00 -0.13318125825E+02  0.13318125825E+02  0.00000000000E+00 0. -1.
          2    1    1    2  501    0  0.20089588912E+02  0.65899295778E+01  0.31829370955E+01  0.21381062721E+02  0.00000000000E+00 0. -1.
         -2    1    1    2    0  502 -0.20089588912E+02 -0.65899295778E+01  0.22268971958E+02  0.30707097984E+02  0.00000000000E+00 0.  1.
</event>
<event>
 4    1  0.1772365E+004  0.2174838E+02  0.7546771E-02  0.1508843E+00
         21   -1    0    0  501  502  0.00000000000E+00  0.00000000000E+00  0.51279602760E+00  0.51279602760E+00  0.00000000000E+00 0.  1.
         21   -1    0    0  502  503 -0.00000000000E+00 -0.00000000000E+00 -0.10643352154E+04  0.10643352154E+04  0.00000000000E+00 0. -1.
          2    1    1    2  501    0  0.19646457018E+02  0.93278395661E+01 -0.33746616494E+03  0.33816623774E+03  0.00000000000E+00 0.  1.
         -2    1    1    2    0  503 -0.19646457018E+02 -0.93278395661E+01 -0.72635625439E+03  0.72668177365E+03  0.00000000000E+00 0. -1.
</event>
<event>
 4    1  0.1772365E+004  0.2423288E+02  0.7546771E-02  0.1477571E+00
         21   -1    0    0  501  502  0.00000000000E+00  0.00000000000E+00  0.70011753754E+01  0.70011753754E+01  0.00000000000E+00 0. -1.
         21   -1    0    0  502  503 -0.00000000000E+00 -0.00000000000E+00 -0.11250218777E+03  0.11250218777E+03  0.00000000000E+00 0.  1.
          2    1    1    2  501    0 -0.14698693795E+02 -0.19266059195E+02 -0.82890918180E+02  0.86360505747E+02  0.00000000000E+00 0.  1.
         -2    1    1    2    0  503  0.14698693795E+02  0.19266059195E+02 -0.22610094219E+02  0.33142857402E+02  0.00000000000E+00 0. -1.
</event>
<event>
 4    1  0.1772365E+004  0.2069861E+02  0.7546771E-02  0.1523612E+00
         21   -1    0    0  501  502  0.00000000000E+00  0.00000000000E+00  0.11643620658E+02  0.11643620658E+02  0.00000000000E+00 0. -1.
         21   -1    0    0  502  503 -0.00000000000E+00 -0.00000000000E+00 -0.49132812474E+02  0.49132812474E+02  0.00000000000E+00 0.  1.
          2    1    1    2  501    0 -0.13673014315E+02  0.15539663899E+02 -0.35170386555E+01  0.20995286029E+02  0.00000000000E+00 0.  1.
         -2    1    1    2    0  503  0.13673014315E+02 -0.15539663899E+02 -0.33972153160E+02  0.39781147103E+02  0.00000000000E+00 0. -1.
</event>
<event>
 4    1  0.1772365E+004  0.3635904E+02  0.7546771E-02  0.1371252E+00
         21   -1    0    0  501  502  0.00000000000E+00  0.00000000000E+00  0.13078607125E+02  0.13078607125E+02  0.00000000000E+00 0.  1.
         21   -1    0    0  502  503 -0.00000000000E+00 -0.00000000000E+00 -0.12648849245E+03  0.12648849245E+03  0.00000000000E+00 0. -1.
          2    1    1    2  501    0 -0.35857835336E+02 -0.60162379267E+01 -0.25428236724E+02  0.44368622885E+02  0.00000000000E+00 0.  1.
         -2    1    1    2    0  503  0.35857835336E+02  0.60162379267E+01 -0.87981648596E+02  0.95198476686E+02  0.00000000000E+00 0. -1.
</event>
<event>
 4    1  0.1772365E+004  0.2163477E+02  0.7546771E-02  0.1510392E+00
         21   -1    0    0  501  502  0.00000000000E+00  0.00000000000E+00  0.17928494282E+03  0.17928494282E+03  0.00000000000E+00 0. -1.
         21   -1    0    0  502  503 -0.00000000000E+00 -0.00000000000E+00 -0.35093018117E+01  0.35093018117E+01  0.00000000000E+00 0.  1.
          2    1    1    2  501    0  0.17257985458E+02  0.13047044497E+02  0.13413658150E+03  0.13587010682E+03  0.00000000000E+00 0. -1.
         -2    1    1    2    0  503 -0.17257985458E+02 -0.13047044497E+02  0.41639059513E+02  0.46924137811E+02  0.00000000000E+00 0.  1.
</event>
<event>
 4    1  0.1772365E+004  0.2122240E+02  0.7546771E-02  0.1516113E+00
         21   -1    0    0  501  502  0.00000000000E+00  0.00000000000E+00  0.60040559083E+02  0.60040559083E+02  0.00000000000E+00 0. -1.
         21   -1    0    0  502  503 -0.00000000000E+00 -0.00000000000E+00 -0.92770662763E+01  0.92770662763E+01  0.00000000000E+00 0.  1.
          2    1    1    2  501    0 -0.11938538947E+02  0.17545988931E+02  0.40544726475E+02  0.45763143300E+02  0.00000000000E+00 0. -1.
         -2    1    1    2    0  503  0.11938538947E+02 -0.17545988931E+02  0.10218766331E+02  0.23554482059E+02  0.00000000000E+00 0.  1.
</event>
<event>
 4    1  0.1772365E+004  0.2650463E+02  0.7546771E-02  0.1452649E+00
         21   -1    0    0  503  502  0.00000000000E+00  0.00000000000E+00  0.19789046210E+02  0.19789046210E+02  0.00000000000E+00 0.  1.
         21   -1    0    0  501  503 -0.00000000000E+00 -0.00000000000E+00 -0.94938050113E+02  0.94938050113E+02  0.00000000000E+00 0. -1.
          2    1    1    2  501    0  0.17258426939E+02  0.20115714388E+02 -0.82963548508E+02  0.87094463927E+02  0.00000000000E+00 0. -1.
         -2    1    1    2    0  502 -0.17258426939E+02 -0.20115714388E+02  0.78145446055E+01  0.27632632396E+02  0.00000000000E+00 0.  1.
</event>
<event>
 4    1  0.1772365E+004  0.2500338E+02  0.7546771E-02  0.1468766E+00
         21   -1    0    0  503  502  0.00000000000E+00  0.00000000000E+00  0.59243736969E+02  0.59243736969E+02  0.00000000000E+00 0. -1.
         21   -1    0    0  501  503 -0.00000000000E+00 -0.00000000000E+00 -0.44379721109E+02  0.44379721109E+02  0.00000000000E+00 0.  1.
          2    1    1    2  501    0 -0.14346935114E+01  0.24962184776E+02 -0.37802411296E+02  0.45323187378E+02  0.00000000000E+00 0.  1.
         -2    1    1    2    0  502  0.14346935114E+01 -0.24962184776E+02  0.52666427156E+02  0.58300270700E+02  0.00000000000E+00 0. -1.
</event>
<event>
 4    1  0.1772365E+004  0.2598710E+02  0.7546771E-02  0.1458057E+00
         21   -1    0    0  503  502  0.00000000000E+00  0.00000000000E+00  0.11718521375E+04  0.11718521375E+04  0.00000000000E+00 0. -1.
         21   -1    0    0  501  503 -0.00000000000E+00 -0.00000000000E+00 -0.13685356314E+01  0.13685356314E+01  0.00000000000E+00 0.  1.
          2    1    1    2  501    0 -0.25980741018E+02  0.57470046041E+00  0.13891702590E+03  0.14132681724E+03  0.00000000000E+00 0.  1.
         -2    1    1    2    0  502  0.25980741018E+02 -0.57470046041E+00  0.10315665760E+04  0.10318938559E+04  0.00000000000E+00 0. -1.
</event>
<event>
 4    1  0.1772365E+004  0.2701876E+02  0.7546771E-02  0.1447420E+00
         21   -1    0    0  501  502  0.00000000000E+00  0.00000000000E+00  0.13658912580E+03  0.13658912580E+03  0.00000000000E+00 0.  1.
         21   -1    0    0  502  503 -0.00000000000E+00 -0.00000000000E+00 -0.18363957927E+02  0.18363957927E+02  0.00000000000E+00 0. -1.
          2    1    1    2  501    0  0.25737237338E+02 -0.82223964996E+01  0.12434778348E+03  0.12724930037E+03  0.00000000000E+00 0.  1.
         -2    1    1    2    0  503 -0.25737237338E+02  0.82223964996E+01 -0.61226156071E+01  0.27703783349E+02  0.00000000000E+00 0. -1.
</event>
<event>
 4    1  0.1772365E+004  0.3971460E+02  0.7546771E-02  0.1350166E+00
         21   -1    0    0  503  502  0.00000000000E+00  0.00000000000E+00  0.21181497236E+03  0.21181497236E+03  0.00000000000E+00 0. -1.
         21   -1    0    0  501  503 -0.00000000000E+00 -0.00000000000E+00 -0.21975874084E+03  0.21975874084E+03  0.00000000000E+00 0.  1.
          2    1    1    2  501    0 -0.32484987592E+02  0.22846768077E+02 -0.21607135076E+03  0.21969086884E+03  0.00000000000E+00 0.  1.
         -2    1    1    2    0  502  0.32484987592E+02 -0.22846768077E+02  0.20812758228E+03  0.21188284436E+03  0.00000000000E+00 0. -1.
</event>
<event>
 4    1  0.1772365E+004  0.3034271E+02  0.7546771E-02  0.1416641E+00
         21   -1    0    0  501  502  0.00000000000E+00  0.00000000000E+00  0.18035777295E+03  0.18035777295E+03  0.00000000000E+00 0.  1.
         21   -1    0    0  502  503 -0.00000000000E+00 -0.00000000000E+00 -0.62672302429E+01  0.62672302429E+01  0.00000000000E+00 0. -1.
          2    1    1    2  501    0 -0.44144427695E+01  0.30019873333E+02  0.12723324268E+03  0.13080129259E+03  0.00000000000E+00 0.  1.
         -2    1    1    2    0  503  0.44144427695E+01 -0.30019873333E+02  0.46857300030E+02  0.55823710607E+02  0.00000000000E+00 0. -1.
</event>
<event>
 4    1  0.1772365E+004  0.3229811E+02  0.7546771E-02  0.1400623E+00
         21   -1    0    0  503  502  0.00000000000E+00  0.00000000000E+00  0.43049791492E+02  0.43049791492E+02  0.00000000000E+00 0. -1.
         21   -1    0    0  501  503 -0.00000000000E+00 -0.00000000000E+00 -0.24489151254E+02  0.24489151254E+02  0.00000000000E+00 0.  1.
          2    1    1    2  501    0 -0.31698945613E+02 -0.61923397045E+01  0.58176390305E+01  0.32817878480E+02  0.00000000000E+00 0. -1.
         -2    1    1    2    0  502  0.31698945613E+02  0.61923397045E+01  0.12743001208E+02  0.34721064267E+02  0.00000000000E+00 0.  1.
</event>
<event>
 4    1  0.1772365E+004  0.2187060E+02  0.7546771E-02  0.1507189E+00
         21   -1    0    0  501  502  0.00000000000E+00  0.00000000000E+00  0.72900964590E+01  0.72900964590E+01  0.00000000000E+00 0. -1.
         21   -1    0    0  502  503 -0.00000000000E+00 -0.00000000000E+00 -0.74454256513E+02  0.74454256513E+02  0.00000000000E+00 0.  1.
          2    1    1    2  501    0  0.20021696463E+02  0.88008446316E+01 -0.19497418730E+02  0.29299701921E+02  0.00000000000E+00 0.  1.
         -2    1    1    2    0  503 -0.20021696463E+02 -0.88008446316E+01 -0.47666741323E+02  0.52444651051E+02  0.00000000000E+00 0. -1.
</event>
<event>
 4    1  0.1772365E+004  0.3199104E+02  0.7546771E-02  0.1403048E+00
         21   -1    0    0  503  502  0.00000000000E+00  0.00000000000E+00  0.67781123477E+02  0.67781123477E+02  0.00000000000E+00 0.  1.
         21   -1    0    0  501  503 -0.00000000000E+00 -0.00000000000E+00 -0.17193907696E+02  0.17193907696E+02  0.00000000000E+00 0. -1.
          2    1    1    2  501    0 -0.31807154910E+02 -0.34250918802E+01  0.10463041070E+02  0.33658603451E+02  0.00000000000E+00 0. -1.
         -2    1    1    2    0  502  0.31807154910E+02  0.34250918802E+01  0.40124174712E+02  0.51316427722E+02  0.00000000000E+00 0.  1.
</event>
<event>
 4    1  0.1772365E+004  0.2025593E+02  0.7546771E-02  0.1530159E+00
         21   -1    0    0  503  502  0.00000000000E+00  0.00000000000E+00  0.11224799992E+03  0.11224799992E+03  0.00000000000E+00 0.  1.
         21   -1    0    0  501  503 -0.00000000000E+00 -0.00000000000E+00 -0.41373609566E+01  0.41373609566E+01  0.00000000000E+00 0. -1.
          2    1    1    2  501    0 -0.11834108008E+02  0.16439485183E+02  0.34192224710E+02  0.39741804389E+02  0.00000000000E+00 0. -1.
         -2    1    1    2    0  502  0.11834108008E+02 -0.16439485183E+02  0.73918414255E+02  0.76643556490E+02  0.00000000000E+00 0.  1.
</event>
<event>
 4    1  0.1772365E+004  0.4092542E+02  0.7546771E-02  0.1343147E+00
         21   -1    0    0  501  502  0.00000000000E+00  0.00000000000E+00  0.51232396799E+02  0.51232396799E+02  0.00000000000E+00 0.  1.
         21   -1    0    0  502  503 -0.00000000000E+00 -0.00000000000E+00 -0.11084388669E+03  0.11084388669E+03  0.00000000000E+00 0. -1.
          2    1    1    2  501    0 -0.70780729059E+01 -0.40308694197E+02  0.38240366362E+02  0.56010852193E+02  0.00000000000E+00 0.  1.
         -2    1    1    2    0  503  0.70780729059E+01  0.40308694197E+02 -0.97851856253E+02  0.10606543130E+03  0.00000000000E+00 0. -1.
</event>
<event>
 4    1  0.1772365E+004  0.2027446E+02  0.7546771E-02  0.1529881E+00
         21   -1    0    0  501  502  0.00000000000E+00  0.00000000000E+00  0.56517581350E+01  0.56517581350E+01  0.00000000000E+00 0.  1.
         21   -1    0    0  502  503 -0.00000000000E+00 -0.00000000000E+00 -0.14624255135E+03  0.14624255135E+03  0.00000000000E+00 0. -1.
          2    1    1    2  501    0 -0.18969747689E+02 -0.71555735828E+01 -0.16449234319E+02  0.26108061406E+02  0.00000000000E+00 0.  1.
         -2    1    1    2    0  503  0.18969747689E+02  0.71555735828E+01 -0.12414155890E+03  0.12578624808E+03  0.00000000000E+00 0. -1.
</event>
<event>
 4    1  0.1772365E+004  0.3105709E+02  0.7546771E-02  0.1410627E+00
         21   -1    0    0  501  502  0.00000000000E+00  0.00000000000E+00  0.18517410072E+03  0.18517410072E+03  0.00000000000E+00 0. -1.
         21   -1    0    0  502  503 -0.00000000000E+00 -0.00000000000E+00 -0.13036049647E+02  0.13036049647E+02  0.00000000000E+00 0.  1.
          2    1    1    2  501    0  0.27316189216E+02  0.14777299611E+02  0.16286285032E+03  0.16579761998E+03  0.00000000000E+00 0. -1.
         -2    1    1    2    0  503 -0.27316189216E+02 -0.14777299611E+02  0.92752007554E+01  0.32412530388E+02  0.00000000000E+00 0.  1.
</event>
<event>
 4    1  0.1772365E+004  0.2133211E+02  0.7546771E-02  0.1514576E+00
         21   -1    0    0  501  502  0.00000000000E+00  0.00000000000E+00  0.60116770413E+02  0.60116770413E+02  0.00000000000E+00 0. -1.
         21   -1    0    0  502  503 -0.00000000000E+00 -0.00000000000E+00 -0.76733952030E+01  0.76733952030E+01  0.00000000000E+00 0.  1.
          2    1    1    2  501    0  0.17463866677E+02 -0.12250396666E+02  0.30164154077E+02  0.36945027392E+02  0.00000000000E+00 0. -1.
         -2    1    1    2    0  503 -0.17463866677E+02  0.12250396666E+02  0.22279221133E+02  0.30845138225E+02  0.00000000000E+00 0.  1.
</event>
<event>
 4    1  0.1772365E+004  0.2338821E+02  0.7546771E-02  0.1487680E+00
         21   -1    0    0  503  502  0.00000000000E+00  0.00000000000E+00  0.15655105419E+01  0.15655105419E+01  0.00000000000E+00 0. -1.
         21   -1    0    0  501  503 -0.00000000000E+00 -0.00000000000E+00 -0.36864714630E+03  0.36864714630E+03  0.00000000000E+00 0.  1.
          2    1    1    2  501    0  0.20006431989E+02  0.12114082016E+02 -0.14125812825E+03  0.14318123865E+03  0.00000000000E+00 0. -1.
         -2    1    1    2    0  502 -0.20006431989E+02 -0.12114082016E+02 -0.22582350751E+03  0.22703141819E+03  0.00000000000E+00 0.  1.
</event>
<event>
 4    1  0.1772365E+004  0.2290506E+02  0.7546771E-02  0.1493694E+00
         21   -1    0    0  503  502  0.00000000000E+00  0.00000000000E+00  0.15093571819E+03  0.15093571819E+03  0.00000000000E+00 0.  1.
         21   -1    0    0  501  503 -0.00000000000E+00 -0.00000000000E+00 -0.38160022884E+01  0.38160022884E+01  0.00000000000E+00 0. -1.
          2    1    1    2  501    0 -0.85724297030E+01 -0.21240412865E+02  0.96658586415E+02  0.99335411699E+02  0.00000000000E+00 0.  1.
         -2    1    1    2    0  502  0.85724297030E+01  0.21240412865E+02  0.50461129488E+02  0.55416308781E+02  0.00000000000E+00 0. -1.
</event>
<event>
 4    1  0.1772365E+004  0.3907347E+02  0.7546771E-02  0.1354002E+00
         21   -1    0    0  503  502  0.00000000000E+00  0.00000000000E+00  0.29941322686E+02  0.29941322686E+02  0.00000000000E+00 0.  1.
         21   -1    0    0  501  503 -0.00000000000E+00 -0.00000000000E+00 -0.12777259503E+03  0.12777259503E+03  0.00000000000E+00 0. -1.
          2    1    1    2  501    0  0.37454961095E+02  0.11129321285E+02 -0.11004500734E+03  0.11677602298E+03  0.00000000000E+00 0. -1.
         -2    1    1    2    0  502 -0.37454961095E+02 -0.11129321285E+02  0.12213734994E+02  0.40937894736E+02  0.00000000000E+00 0.  1.
</event>
<event>
 4    1  0.1772365E+004  0.2223882E+02  0.7546771E-02  0.1502284E+00
         21   -1    0    0  501  502  0.00000000000E+00  0.00000000000E+00  0.12416717855E+03  0.12416717855E+03  0.00000000000E+00 0. -1.
         21   -1    0    0  502  503 -0.00000000000E+00 -0.00000000000E+00 -0.79228648943E+01  0.79228648943E+01  0.00000000000E+00 0.  1.
          2    1    1    2  501    0  0.21995814354E+02 -0.32786222196E+01  0.10469538789E+03  0.10703125458E+03  0.00000000000E+00 0. -1.
         -2    1    1    2    0  503 -0.21995814354E+02  0.32786222196E+01  0.11548925768E+02  0.25058788860E+02  0.00000000000E+00 0.  1.
</event>
<event>
 4    1  0.1772365E+004  0.5170638E+02  0.7546771E-02  0.1290939E+00
         21   -1    0    0  501  502  0.00000000000E+00  0.00000000000E+00  0.10734414497E+02  0.10734414497E+02  0.00000000000E+00 0. -1.
         21   -1    0    0  502  503 -0.00000000000E+00 -0.00000000000E+00 -0.31709985809E+03  0.31709985809E+03  0.00000000000E+00 0.  1.
          2    1    1    2  501    0 -0.44205766611E+02 -0.26821622760E+02 -0.77255529940E+02  0.92962175939E+02  0.00000000000E+00 0. -1.
         -2    1    1    2    0  503  0.44205766611E+02  0.26821622760E+02 -0.22910991366E+03  0.23487209665E+03  0.00000000000E+00 0.  1.
</event>
<event>
 4    1  0.1772365E+004  0.2912589E+02  0.7546771E-02  0.1427347E+00
         21   -1    0    0  501  502  0.00000000000E+00  0.00000000000E+00  0.56754114433E+01  0.56754114433E+01  0.00000000000E+00 0. -1.
         21   -1    0    0  502  503 -0.00000000000E+00 -0.00000000000E+00 -0.17780008391E+03  0.17780008391E+03  0.00000000000E+00 0.  1.
          2    1    1    2  501    0  0.26256717446E+02 -0.12605641127E+02 -0.49444929334E+02  0.57385698881E+02  0.00000000000E+00 0. -1.
         -2    1    1    2    0  503 -0.26256717446E+02  0.12605641127E+02 -0.12267974313E+03  0.12608979647E+03  0.00000000000E+00 0.  1.
</event>
<event>
 4    1  0.1772365E+004  0.2537184E+02  0.7546771E-02  0.1464686E+00
         21   -1    0    0  503  502  0.00000000000E+00  0.00000000000E+00  0.20727488788E+03  0.20727488788E+03  0.00000000000E+00 0.  1.
         21   -1    0    0  501  503 -0.00000000000E+00 -0.00000000000E+00 -0.18471736920E+02  0.18471736920E+02  0.00000000000E+00 0. -1.
          2    1    1    2  501    0  0.18885347365E+02 -0.16943260880E+02 -0.85465767638E+01  0.26772642916E+02  0.00000000000E+00 0. -1.
         -2    1    1    2    0  502 -0.18885347365E+02  0.16943260880E+02  0.19734972773E+03  0.19897398189E+03  0.00000000000E+00 0.  1.
</event>
<event>
 4    1  0.1772365E+004  0.2023933E+02  0.7546771E-02  0.1530408E+00
         21   -1    0    0  501  502  0.00000000000E+00  0.00000000000E+00  0.98306720232E+01  0.98306720232E+01  0.00000000000E+00 0.  1.
         21   -1    0    0  502  503 -0.00000000000E+00 -0.00000000000E+00 -0.50603881683E+02  0.50603881683E+02  0.00000000000E+00 0. -1.
          2    1    1    2  501    0 -0.20169767951E+02  0.16765342902E+01 -0.76891225473E+01  0.21650702344E+02  0.00000000000E+00 0.  1.
         -2    1    1    2    0  503  0.20169767951E+02 -0.16765342902E+01 -0.33084087113E+02  0.38783851363E+02  0.00000000000E+00 0. -1.
</event>
<event>
 4    1  0.1772365E+004  0.3900807E+02  0.7546771E-02  0.1354399E+00
         21   -1    0    0  503  502  0.00000000000E+00  0.00000000000E+00  0.62264186966E+03  0.62264186966E+03  0.00000000000E+00 0.  1.
         21   -1    0    0  501  503 -0.00000000000E+00 -0.00000000000E+00 -0.43408591588E+01  0.43408591588E+01  0.00000000000E+00 0. -1.
          2    1    1    2  501    0  0.36728816935E+02  0.13138637580E+02  0.10190985899E+03  0.10912034251E+03  0.00000000000E+00 0. -1.
         -2    1    1    2    0  502 -0.36728816935E+02 -0.13138637580E+02  0.51639115151E+03  0.51786238631E+03  0.00000000000E+00 0.  1.
</event>
<event>
 4    1  0.1772365E+004  0.2116230E+02  0.7546771E-02  0.1516960E+00
         21   -1    0    0  503  502  0.00000000000E+00  0.00000000000E+00  0.88139302699E+02  0.88139302699E+02  0.00000000000E+00 0. -1.
         21   -1    0    0  501  503 -0.00000000000E+00 -0.00000000000E+00 -0.66340973302E+01  0.66340973302E+01  0.00000000000E+00 0.  1.
          2    1    1    2  501    0  0.10470331090E+02  0.18390621245E+02  0.17825255849E+02  0.27669162058E+02  0.00000000000E+00 0.  1.
         -2    1    1    2    0  502 -0.10470331090E+02 -0.18390621245E+02  0.63679949520E+02  0.67104237971E+02  0.00000000000E+00 0. -1.
</event>
<event>
 4    1  0.1772365E+004  0.2902257E+02  0.7546771E-02  0.1428285E+00
         21   -1    0    0  503  502  0.00000000000E+00  0.00000000000E+00  0.19502664312E+03  0.19502664312E+03  0.00000000000E+00 0.  1.
         21   -1    0    0  501  503 -0.00000000000E+00 -0.00000000000E+00 -0.79453323350E+01  0.79453323350E+01  0.00000000000E+00 0. -1.
          2    1    1    2  501    0  0.11778338881E+02 -0.26525087418E+02  0.24978085555E+02  0.38291177669E+02  0.00000000000E+00 0. -1.
         -2    1    1    2    0  502 -0.11778338881E+02  0.26525087418E+02  0.16210322523E+03  0.16468079779E+03  0.00000000000E+00 0.  1.
</event>
<event>
 4    1  0.1772365E+004  0.2028762E+02  0.7546771E-02  0.1529683E+00
         21   -1    0    0  503  502  0.00000000000E+00  0.00000000000E+00  0.13064107093E+01  0.13064107093E+01  0.00000000000E+00 0. -1.
         21   -1    0    0  501  503 -0.00000000000E+00 -0.00000000000E+00 -0.35139435968E+03  0.35139435968E+03  0.00000000000E+00 0.  1.
          2    1    1    2  501    0  0.20110309110E+02  0.26763441398E+01 -0.11833061409E+03  0.12005715964E+03  0.00000000000E+00 0. -1.
         -2    1    1    2    0  502 -0.20110309110E+02 -0.26763441398E+01 -0.23175733488E+03  0.23264361074E+03  0.00000000000E+00 0.  1.
</event>
<event>
 4    1  0.1772365E+004  0.2088267E+02  0.7546771E-02  0.1520947E+00
         21   -1    0    0  503  502  0.00000000000E+00  0.00000000000E+00  0.21644191592E+02  0.21644191592E+02  0.00000000000E+00 0.  1.
         21   -1    0    0  501  503 -0.00000000000E+00 -0.00000000000E+00 -0.45025368418E+02  0.45025368418E+02  0.00000000000E+00 0. -1.
          2    1    1    2  501    0  0.12929360432E+02  0.16398708169E+02 -0.36468896648E+02  0.42024592960E+02  0.00000000000E+00 0. -1.
         -2    1    1    2    0  502 -0.12929360432E+02 -0.16398708169E+02  0.13087719822E+02  0.24644967050E+02  0.00000000000E+00 0.  1.
</event>
<event>
 4    1  0.1772365E+004  0.2009648E+02  0.7546771E-02  0.1532566E+00
         21   -1    0    0  503  502  0.00000000000E+00  0.00000000000E+00  0.58030930917E+03  0.58030930917E+03  0.00000000000E+00 0.  1.
         21   -1    0    0  501  503 -0.00000000000E+00 -0.00000000000E+00 -0.14530951470E+01  0.14530951470E+01  0.00000000000E+00 0. -1.
          2    1    1    2  501    0 -0.19552574622E+02  0.46438295325E+01  0.79458139026E+02  0.81960137778E+02  0.00000000000E+00 0. -1.
         -2    1    1    2    0  502  0.19552574622E+02 -0.46438295325E+01  0.49939807500E+03  0.49980226654E+03  0.00000000000E+00 0.  1.
</event>
<event>
 4    1  0.1772365E+004  0.2037296E+02  0.7546771E-02  0.1528409E+00
         21   -1    0    0  503  502  0.00000000000E+00  0.00000000000E+00  0.12284228069E+02  0.12284228069E+02  0.00000000000E+00 0.  1.
         21   -1    0    0  501  503 -0.00000000000E+00 -0.00000000000E+00 -0.43004855331E+02  0.43004855331E+02  0.00000000000E+00 0. -1.
          2    1    1    2  501    0  0.10043210886E+02 -0.17725450817E+02 -0.25622136442E+01  0.20533451495E+02  0.00000000000E+00 0.  1.
         -2    1    1    2    0  502 -0.10043210886E+02  0.17725450817E+02 -0.28158413618E+02  0.34755631904E+02  0.00000000000E+00 0. -1.
</event>
<event>
 4    1  0.1772365E+004  0.3730525E+02  0.7546771E-02  0.1365044E+00
         21   -1    0    0  501  502  0.00000000000E+00  0.00000000000E+00  0.25081236442E+02  0.25081236442E+02  0.00000000000E+00 0.  1.
         21   -1    0    0  502  503 -0.00000000000E+00 -0.00000000000E+00 -0.66262101761E+02  0.66262101761E+02  0.00000000000E+00 0. -1.
          2    1    1    2  501    0 -0.28804174944E+02 -0.23706559962E+02 -0.21731377016E+01  0.37368489492E+02  0.00000000000E+00 0.  1.
         -2    1    1    2    0  503  0.28804174944E+02  0.23706559962E+02 -0.39007727617E+02  0.53974848711E+02  0.00000000000E+00 0. -1.
</event>
<event>
 4    1  0.1772365E+004  0.2470075E+02  0.7546771E-02  0.1472179E+00
         21   -1    0    0  501  502  0.00000000000E+00  0.00000000000E+00  0.17354973147E+03  0.17354973147E+03  0.00000000000E+00 0.  1.
         21   -1    0    0  502  503 -0.00000000000E+00 -0.00000000000E+00 -0.81560807851E+01  0.81560807851E+01  0.00000000000E+00 0. -1.
          2    1    1    2  501    0  0.17604765732E+02 -0.17326263269E+02  0.15122682071E+03  0.15323080134E+03  0.00000000000E+00 0.  1.
         -2    1    1    2    0  503 -0.17604765732E+02  0.17326263269E+02  0.14166829972E+02  0.28475010919E+02  0.00000000000E+00 0. -1.
</event>
<event>
 4    1  0.1772365E+004  0.2198361E+02  0.7546771E-02  0.1505671E+00
         21   -1    0    0  501  502  0.00000000000E+00  0.00000000000E+00  0.91669871432E+02  0.91669871432E+02  0.00000000000E+00 0.  1.
         21   -1    0    0  502  503 -0.00000000000E+00 -0.00000000000E+00 -0.57136022617E+01  0.57136022617E+01  0.00000000000E+00 0. -1.
          2    1    1    2  501    0  0.71653772519E+01  0.20783078873E+02  0.56515694338E+02  0.60640767682E+02  0.00000000000E+00 0. -1.
         -2    1    1    2    0  503 -0.71653772519E+01 -0.20783078873E+02  0.29440574832E+02  0.36742706011E+02  0.00000000000E+00 0.  1.
</event>
<event>
 4    1  0.1772365E+004  0.2766859E+02  0.7546771E-02  0.1441005E+00
         21   -1    0    0  501  502  0.00000000000E+00  0.00000000000E+00  0.13814862421E+03  0.13814862421E+03  0.00000000000E+00 0. -1.
         21   -1    0    0  502  503 -0.00000000000E+00 -0.00000000000E+00 -0.55607987681E+01  0.55607987681E+01  0.00000000000E+00 0.  1.
          2    1    1    2  501    0  0.20652450341E+02 -0.18412696504E+02  0.70526549542E+02  0.75759786747E+02  0.00000000000E+00 0.  1.
         -2    1    1    2    0  503 -0.20652450341E+02  0.18412696504E+02  0.62061275902E+02  0.67949636233E+02  0.00000000000E+00 0. -1.
</event>
<event>
 4    1  0.1772365E+004  0.2587226E+02  0.7546771E-02  0.1459278E+00
         21   -1    0    0  501  502  0.00000000000E+00  0.00000000000E+00  0.37716375281E+03  0.37716375281E+03  0.00000000000E+00 0. -1.
         21   -1    0    0  502  503 -0.00000000000E+00 -0.00000000000E+00 -0.11531209307E+02  0.11531209307E+02  0.00000000000E+00 0.  1.
          2    1    1    2  501    0  0.23637787725E+02  0.10518018643E+02  0.36158331960E+03  0.36250775266E+03  0.00000000000E+00 0. -1.
         -2    1    1    2    0  503 -0.23637787725E+02 -0.10518018643E+02  0.40492238975E+01  0.26187209452E+02  0.00000000000E+00 0.  1.
</event>
<event>
 4    1  0.1772365E+004  0.2218665E+02  0.7546771E-02  0.1502972E+00
         21   -1    0    0  503  502  0.00000000000E+00  0.00000000000E+00  0.12275094747E+02  0.12275094747E+02  0.00000000000E+00 0. -1.
         21   -1    0    0  501  503 -0.00000000000E+00 -0.00000000000E+00 -0.41772277440E+02  0.41772277440E+02  0.00000000000E+00 0.  1.
          2    1    1    2  501    0  0.45859699550E+01 -0.21707515909E+02 -0.20153453667E+02  0.29973472639E+02  0.00000000000E+00 0.  1.
         -2    1    1    2    0  502 -0.45859699550E+01  0.21707515909E+02 -0.93437290262E+01  0.24073899548E+02  0.00000000000E+00 0. -1.
</event>
<event>
 4    1  0.1772365E+004  0.2298909E+02  0.7546771E-02  0.1492635E+00
         21   -1    0    0  501  502  0.00000000000E+00  0.00000000000E+00  0.27911275974E+03  0.27911275974E+03  0.00000000000E+00 0. -1.
         21   -1    0    0  502  503 -0.00000000000E+00 -0.00000000000E+00 -0.18970350587E+01  0.18970350587E+01  0.00000000000E+00 0.  1.
          2    1    1    2  501    0 -0.97894474802E+01 -0.20800597926E+02  0.14467885701E+03  0.14649392418E+03  0.00000000000E+00 0. -1.
         -2    1    1    2    0  503  0.97894474802E+01  0.20800597926E+02  0.13253686766E+03  0.13451587061E+03  0.00000000000E+00 0.  1.
</event>
<event>
 4    1  0.1772365E+004  0.6361168E+02  0.7546771E-02  0.1248032E+00
         21   -1    0    0  501  502  0.00000000000E+00  0.00000000000E+00  0.12603241145E+03  0.12603241145E+03  0.00000000000E+00 0.  1.
         21   -1    0    0  502  503 -0.00000000000E+00 -0.00000000000E+00 -0.93573709439E+02  0.93573709439E+02  0.00000000000E+00 0. -1.
          2    1    1    2  501    0 -0.53820944873E+02  0.33907990173E+02  0.10522313122E+03  0.12295671290E+03  0.00000000000E+00 0.  1.
         -2    1    1    2    0  503  0.53820944873E+02 -0.33907990173E+02 -0.72764429212E+02  0.96649407981E+02  0.00000000000E+00 0. -1.
</event>
<event>
 4    1  0.1772365E+004  0.2902702E+02  0.7546771E-02  0.1428244E+00
         21   -1    0    0  503  502  0.00000000000E+00  0.00000000000E+00  0.12991417344E+02  0.12991417344E+02  0.00000000000E+00 0. -1.
         21   -1    0    0  501  503 -0.00000000000E+00 -0.00000000000E+00 -0.10675590999E+03  0.10675590999E+03  0.00000000000E+00 0.  1.
          2    1    1    2  501    0  0.22056787340E+02 -0.18869710528E+02 -0.84392311543E+02  0.89244776266E+02  0.00000000000E+00 0.  1.
         -2    1    1    2    0  502 -0.22056787340E+02  0.18869710528E+02 -0.93721811056E+01  0.30502551071E+02  0.00000000000E+00 0. -1.
</event>
<event>
 4    1  0.1772365E+004  0.2096224E+02  0.7546771E-02  0.1519805E+00
         21   -1    0    0  501  502  0.00000000000E+00  0.00000000000E+00  0.60392252104E+02  0.60392252104E+02  0.00000000000E+00 0.  1.
         21   -1    0    0  502  503 -0.00000000000E+00 -0.00000000000E+00 -0.77238491868E+01  0.77238491868E+01  0.00000000000E+00 0. -1.
          2    1    1    2  501    0  0.15496732585E+02  0.14116186834E+02  0.18133380202E+02  0.27717051234E+02  0.00000000000E+00 0.  1.
         -2    1    1    2    0  503 -0.15496732585E+02 -0.14116186834E+02  0.34535022715E+02  0.40399050056E+02  0.00000000000E+00 0. -1.
</event>
<event>
 4    1  0.1772365E+004  0.3085366E+02  0.7546771E-02  0.1412320E+00
         21   -1    0    0  501  502  0.00000000000E+00  0.00000000000E+00  0.97917229252E+01  0.97917229252E+01  0.00000000000E+00 0. -1.
         21   -1    0    0  502  503 -0.00000000000E+00 -0.00000000000E+00 -0.26301463706E+03  0.26301463706E+03  0.00000000000E+00 0.  1.
          2    1    1    2  501    0  0.52139258867E+01  0.30409918581E+02 -0.18313517445E+02  0.35879424361E+02  0.00000000000E+00 0. -1.
         -2    1    1    2    0  503 -0.52139258867E+01 -0.30409918581E+02 -0.23490939669E+03  0.23692693562E+03  0.00000000000E+00 0.  1.
</event>
<event>
 4    1  0.1772365E+004  0.2414115E+02  0.7546771E-02  0.1478645E+00
         21   -1    0    0  501  502  0.00000000000E+00  0.00000000000E+00  0.70576152362E+03  0.70576152362E+03  0.00000000000E+00 0.  1.
         21   -1    0    0  502  503 -0.00000000000E+00 -0.00000000000E+00 -0.92927239726E+00  0.92927239726E+00  0.00000000000E+00 0. -1.
          2    1    1    2  501    0 -0.43405301627E+00 -0.24137243235E+02  0.23449043792E+03  0.23572984620E+03  0.00000000000E+00 0. -1.
         -2    1    1    2    0  503  0.43405301627E+00  0.24137243235E+02  0.47034181331E+03  0.47096094982E+03  0.00000000000E+00 0.  1.
</event>
<event>
 4    1  0.1772365E+004  0.2359485E+02  0.7546771E-02  0.1485161E+00
         21   -1    0    0  503  502  0.00000000000E+00  0.00000000000E+00  0.21138686990E+02  0.21138686990E+02  0.00000000000E+00 0. -1.
         21   -1    0    0  501  503 -0.00000000000E+00 -0.00000000000E+00 -0.43738642649E+02  0.43738642649E+02  0.00000000000E+00 0.  1.
          2    1    1    2  501    0 -0.21499884820E+02 -0.97196659572E+01 -0.31761262963E+02  0.39566333904E+02  0.00000000000E+00 0.  1.
         -2    1    1    2    0  502  0.21499884820E+02  0.97196659572E+01  0.91613073029E+01  0.25310995735E+02  0.00000000000E+00 0. -1.
</event>
<event>
 4    1  0.1772365E+004  0.3846042E+02  0.7546771E-02  0.1357752E+00
         21   -1    0    0  503  502  0.00000000000E+00  0.00000000000E+00  0.73846757142E+02  0.73846757142E+02  0.00000000000E+00 0.  1.
         21   -1    0    0  501  503 -0.00000000000E+00 -0.00000000000E+00 -0.38057375446E+02  0.38057375446E+02  0.00000000000E+00 0. -1.
          2    1    1    2  501    0  0.36278393725E+02  0.12770368533E+02 -0.20613597751E+02  0.43636275918E+02  0.00000000000E+00 0. -1.
         -2    1    1    2    0  502 -0.36278393725E+02 -0.12770368533E+02  0.56402979447E+02  0.68267856670E+02  0.00000000000E+00 0.  1.
</event>
<event>
 4    1  0.1772365E+004  0.5730945E+02  0.7546771E-02  0.1269259E+00
         21   -1    0    0  501  502  0.00000000000E+00  0.00000000000E+00  0.22625202467E+02  0.22625202467E+02  0.00000000000E+00 0. -1.
         21   -1    0    0  502  503 -0.00000000000E+00 -0.00000000000E+00 -0.16904341467E+03  0.16904341467E+03  0.00000000000E+00 0.  1.
          2    1    1    2  501    0  0.49622245348E+02  0.28670639645E+02 -0.10922801400E+03  0.12334963256E+03  0.00000000000E+00 0.  1.
         -2    1    1    2    0  503 -0.49622245348E+02 -0.28670639645E+02 -0.37190198205E+02  0.68318984577E+02  0.00000000000E+00 0. -1.
</event>
<event>
 4    1  0.1772365E+004  0.2244400E+02  0.7546771E-02  0.1499600E+00
         21   -1    0    0  501  502  0.00000000000E+00  0.00000000000E+00  0.12757528332E+02  0.12757528332E+02  0.00000000000E+00 0.  1.
         21   -1    0    0  502  503 -0.00000000000E+00 -0.00000000000E+00 -0.67580308278E+02  0.67580308278E+02  0.00000000000E+00 0. -1.
          2    1    1    2  501    0  0.13589583717E+02 -0.17862148015E+02 -0.15116338577E+01  0.22494847282E+02  0.00000000000E+00 0.  1.
         -2    1    1    2    0  503 -0.13589583717E+02  0.17862148015E+02 -0.53311146088E+02  0.57842989329E+02  0.00000000000E+00 0. -1.
</event>
<event>
 4    1  0.1772365E+004  0.2339072E+02  0.7546771E-02  0.1487649E+00
         21   -1    0    0  503  502  0.00000000000E+00  0.00000000000E+00  0.13189494170E+02  0.13189494170E+02  0.00000000000E+00 0.  1.
         21   -1    0    0  501  503 -0.00000000000E+00 -0.00000000000E+00 -0.77701853457E+02  0.77701853457E+02  0.00000000000E+00 0. -1.
          2    1    1    2  501    0  0.23364865421E+02  0.10995158359E+01 -0.63283947410E+02  0.67468391644E+02  0.00000000000E+00 0. -1.
         -2    1    1    2    0  502 -0.23364865421E+02 -0.10995158359E+01 -0.12284118779E+01  0.23422955983E+02  0.00000000000E+00 0.  1.
</event>
<event>
 4    1  0.1772365E+004  0.3027479E+02  0.7546771E-02  0.1417223E+00
         21   -1    0    0  501  502  0.00000000000E+00  0.00000000000E+00  0.25086982361E+02  0.25086982361E+02  0.00000000000E+00 0. -1.
         21   -1    0    0  502  503 -0.00000000000E+00 -0.00000000000E+00 -0.24471373387E+03  0.24471373387E+03  0.00000000000E+00 0.  1.
          2    1    1    2  501    0  0.30026589846E+02 -0.38686689433E+01  0.14609921153E+02  0.33615658453E+02  0.00000000000E+00 0. -1.
         -2    1    1    2    0  503 -0.30026589846E+02  0.38686689433E+01 -0.23423667266E+03  0.23618505778E+03  0.00000000000E+00 0.  1.
</event>
<event>
 4    1  0.1772365E+004  0.3073396E+02  0.7546771E-02  0.1413323E+00
         21   -1    0    0  501  502  0.00000000000E+00  0.00000000000E+00  0.16872426007E+03  0.16872426007E+03  0.00000000000E+00 0. -1.
         21   -1    0    0  502  503 -0.00000000000E+00 -0.00000000000E+00 -0.70971017809E+01  0.70971017809E+01  0.00000000000E+00 0.  1.
          2    1    1    2  501    0 -0.22887282609E+02 -0.20512162177E+02  0.40414933408E+02  0.50773451181E+02  0.00000000000E+00 0.  1.
         -2    1    1    2    0  503  0.22887282609E+02  0.20512162177E+02  0.12121222488E+03  0.12504791067E+03  0.00000000000E+00 0. -1.
</event>
<event>
 4    1  0.1772365E+004  0.2978381E+02  0.7546771E-02  0.1421485E+00
         21   -1    0    0  503  502  0.00000000000E+00  0.00000000000E+00  0.52583784212E+01  0.52583784212E+01  0.00000000000E+00 0.  1.
         21   -1    0    0  501  503 -0.00000000000E+00 -0.00000000000E+00 -0.21767346869E+03  0.21767346869E+03  0.00000000000E+00 0. -1.
          2    1    1    2  501    0 -0.25888146314E+02 -0.14726824502E+02 -0.15908015282E+03  0.16184427856E+03  0.00000000000E+00 0. -1.
         -2    1    1    2    0  502  0.25888146314E+02  0.14726824502E+02 -0.53334937442E+02  0.61087568550E+02  0.00000000000E+00 0.  1.
</event>
<event>
 4    1  0.1772365E+004  0.2560023E+02  0.7546771E-02  0.1462199E+00
         21   -1    0    0  501  502  0.00000000000E+00  0.00000000000E+00  0.53685774780E+03  0.53685774780E+03  0.00000000000E+00 0. -1.
         21   -1    0    0  502  503 -0.00000000000E+00 -0.00000000000E+00 -0.62011855883E+01  0.62011855883E+01  0.00000000000E+00 0.  1.
          2    1    1    2  501    0  0.13531220108E+02 -0.21731959477E+02  0.50866801663E+03  0.50931181326E+03  0.00000000000E+00 0. -1.
         -2    1    1    2    0  503 -0.13531220108E+02  0.21731959477E+02  0.21988545578E+02  0.33747120128E+02  0.00000000000E+00 0.  1.
</event>
<event>
 4    1  0.1772365E+004  0.2198738E+02  0.7546771E-02  0.1505621E+00
         21   -1    0    0  501  502  0.00000000000E+00  0.00000000000E+00  0.70826468679E+01  0.70826468679E+01  0.00000000000E+00 0. -1.
         21   -1    0    0  502  503 -0.00000000000E+00 -0.00000000000E+00 -0.78137539804E+02  0.78137539804E+02  0.00000000000E+00 0.  1.
          2    1    1    2  501    0  0.73810846930E+01 -0.20711453822E+02 -0.20375829578E+02  0.29976977193E+02  0.00000000000E+00 0.  1.
         -2    1    1    2    0  503 -0.73810846930E+01  0.20711453822E+02 -0.50679063358E+02  0.55243209479E+02  0.00000000000E+00 0. -1.
</event>
<event>
 4    1  0.1772365E+004  0.2507449E+02  0.7546771E-02  0.1467972E+00
         21   -1    0    0  503  502  0.00000000000E+00  0.00000000000E+00  0.24860294484E+03  0.24860294484E+03  0.00000000000E+00 0. -1.
         21   -1    0    0  501  503 -0.00000000000E+00 -0.00000000000E+00 -0.35872815319E+01  0.35872815319E+01  0.00000000000E+00 0.  1.
          2    1    1    2  501    0  0.23439868617E+02  0.89052041223E+01  0.54021296650E+02  0.59556952516E+02  0.00000000000E+00 0.  1.
         -2    1    1    2    0  502 -0.23439868617E+02 -0.89052041223E+01  0.19099436665E+03  0.19263327385E+03  0.00000000000E+00 0. -1.
</event>
<event>
 4    1  0.1772365E+004  0.2513284E+02  0.7546771E-02  0.1467323E+00
         21   -1    0    0  501  502  0.00000000000E+00  0.00000000000E+00  0.13725038488E+03  0.13725038488E+03  0.00000000000E+00 0. -1.
         21   -1    0    0  502  503 -0.00000000000E+00 -0.00000000000E+00 -0.84721712877E+01  0.84721712877E+01  0.00000000000E+00 0.  1.
          2    1    1    2  501    0  0.18649090007E+02 -0.16848477770E+02  0.11363282342E+03  0.11637902869E+03  0.00000000000E+00 0. -1.
         -2    1    1    2    0  503 -0.18649090007E+02  0.16848477770E+02  0.15145390176E+02  0.29343527478E+02  0.00000000000E+00 0.  1.
</event>
<event>
 4    1  0.1772365E+004  0.2278062E+02  0.7546771E-02  0.1495271E+00
         21   -1    0    0  503  502  0.00000000000E+00  0.00000000000E+00  0.10247131351E+04  0.10247131351E+04  0.00000000000E+00 0. -1.
         21   -1    0    0  501  503 -0.00000000000E+00 -0.00000000000E+00 -0.99184281693E+00  0.99184281693E+00  0.00000000000E+00 0.  1.
          2    1    1    2  501    0  0.10048002069E+02 -0.20444914353E+02  0.15308604839E+03  0.15477175156E+03  0.00000000000E+00 0.  1.
         -2    1    1    2    0  502 -0.10048002069E+02  0.20444914353E+02  0.87063524391E+03  0.87093322637E+03  0.00000000000E+00 0. -1.
</event>
<event>
 4    1  0.1772365E+004  0.2129634E+02  0.7546771E-02  0.1515076E+00
         21   -1    0    0  501  502  0.00000000000E+00  0.00000000000E+00  0.23802783457E+02  0.23802783457E+02  0.00000000000E+00 0. -1.
         21   -1    0    0  502  503 -0.00000000000E+00 -0.00000000000E+00 -0.23688833099E+02  0.23688833099E+02  0.00000000000E+00 0.  1.
          2    1    1    2  501    0 -0.21261396826E+02  0.12194805441E+01 -0.10446675232E+02  0.23720606047E+02  0.00000000000E+00 0.  1.
         -2    1    1    2    0  503  0.21261396826E+02 -0.12194805441E+01  0.10560625591E+02  0.23771010510E+02  0.00000000000E+00 0. -1.
</event>
<event>
 4    1  0.1772365E+004  0.2269142E+02  0.7546771E-02  0.1496410E+00
         21   -1    0    0  501  502  0.00000000000E+00  0.00000000000E+00  0.99073454661E+03  0.99073454661E+03  0.00000000000E+00 0.  1.
         21   -1    0    0  502  503 -0.00000000000E+00 -0.00000000000E+00 -0.91982127878E+00  0.91982127878E+00  0.00000000000E+00 0. -1.
          2    1    1    2  501    0  0.12612103941E+02  0.18863602485E+02  0.82192088405E+03  0.82223405445E+03  0.00000000000E+00 0.  1.
         -2    1    1    2    0  503 -0.12612103941E+02 -0.18863602485E+02  0.16789384128E+03  0.16942031343E+03  0.00000000000E+00 0. -1.
</event>
<event>
 4    1  0.1772365E+004  0.2433055E+02  0.7546771E-02  0.1476434E+00
         21   -1    0    0  501  502  0.00000000000E+00  0.00000000000E+00  0.24624586293E+03  0.24624586293E+03  0.00000000000E+00 0. -1.
         21   -1    0    0  502  503 -0.00000000000E+00 -0.00000000000E+00 -0.32009672485E+01  0.32009672485E+01  0.00000000000E+00 0.  1.
          2    1    1    2  501    0 -0.13505930078E+02  0.20237719751E+02  0.18375637115E+03  0.18536013430E+03  0.00000000000E+00 0. -1.
         -2    1    1    2    0  503  0.13505930078E+02 -0.20237719751E+02  0.59288524527E+02  0.64086695878E+02  0.00000000000E+00 0.  1.
</event>
<event>
 4    1  0.1772365E+004  0.2886372E+02  0.7546771E-02  0.1429734E+00
         21   -1    0    0  501  502  0.00000000000E+00  0.00000000000E+00  0.45900920920E+02  0.45900920920E+02  0.00000000000E+00 0. -1.
         21   -1    0    0  502  503 -0.00000000000E+00 -0.00000000000E+00 -0.81960129926E+02  0.81960129926E+02  0.00000000000E+00 0.  1.
          2    1    1    2  501    0  0.26331174743E+02  0.11823004054E+02  0.38379712888E+02  0.48022042330E+02  0.00000000000E+00 0. -1.
         -2    1    1    2    0  503 -0.26331174743E+02 -0.11823004054E+02 -0.74438921893E+02  0.79839008516E+02  0.00000000000E+00 0.  1.
</event>
<event>
 4    1  0.1772365E+004  0.2462732E+02  0.7546771E-02  0.1473016E+00
         21   -1    0    0  501  502  0.00000000000E+00  0.00000000000E+00  0.21799373854E+03  0.21799373854E+03  0.00000000000E+00 0.  1.
         21   -1    0    0  502  503 -0.00000000000E+00 -0.00000000000E+00 -0.84487915439E+01  0.84487915439E+01  0.00000000000E+00 0. -1.
          2    1    1    2  501    0 -0.83300277395E+01 -0.23175749239E+02  0.19749627198E+03  0.19902583290E+03  0.00000000000E+00 0.  1.
         -2    1    1    2    0  503  0.83300277395E+01  0.23175749239E+02  0.12048675016E+02  0.27416697186E+02  0.00000000000E+00 0. -1.
</event>
<event>
 4    1  0.1772365E+004  0.2429481E+02  0.7546771E-02  0.1476849E+00
         21   -1    0    0  501  502  0.00000000000E+00  0.00000000000E+00  0.25858093598E+01  0.25858093598E+01  0.00000000000E+00 0. -1.
         21   -1    0    0  502  503 -0.00000000000E+00 -0.00000000000E+00 -0.28988369292E+03  0.28988369292E+03  0.00000000000E+00 0.  1.
          2    1    1    2  501    0  0.14445529694E+02 -0.19533681144E+02 -0.76225495647E+02  0.80003526259E+02  0.00000000000E+00 0.  1.
         -2    1    1    2    0  503 -0.14445529694E+02  0.19533681144E+02 -0.21107238791E+03  0.21246597602E+03  0.00000000000E+00 0. -1.
</event>
<event>
 4    1  0.1772365E+004  0.3092302E+02  0.7546771E-02  0.1411741E+00
         21   -1    0    0  501  502  0.00000000000E+00  0.00000000000E+00  0.91473054877E+01  0.91473054877E+01  0.00000000000E+00 0. -1.
         21   -1    0    0  502  503 -0.00000000000E+00 -0.00000000000E+00 -0.17665724260E+03  0.17665724260E+03  0.00000000000E+00 0.  1.
          2    1    1    2  501    0 -0.19429712584E+02 -0.24056585153E+02 -0.24395660048E+02  0.39387577350E+02  0.00000000000E+00 0. -1.
         -2    1    1    2    0  503  0.19429712584E+02  0.24056585153E+02 -0.14311427706E+03  0.14641697074E+03  0.00000000000E+00 0.  1.
</event>
<event>
 4    1  0.1772365E+004  0.2265025E+02  0.7546771E-02  0.1496937E+00
         21   -1    0    0  503  502  0.00000000000E+00  0.00000000000E+00  0.11480449229E+03  0.11480449229E+03  0.00000000000E+00 0. -1.
         21   -1    0    0  501  503 -0.00000000000E+00 -0.00000000000E+00 -0.11114667654E+02  0.11114667654E+02  0.00000000000E+00 0.  1.
          2    1    1    2  501    0 -0.92080292881E+01  0.20694109953E+02  0.31604187605E+01  0.22869679422E+02  0.00000000000E+00 0.  1.
         -2    1    1    2    0  502  0.92080292881E+01 -0.20694109953E+02  0.10052940588E+03  0.10304948053E+03  0.00000000000E+00 0. -1.
</event>
<event>
 4    1  0.1772365E+004  0.2511739E+02  0.7546771E-02  0.1467494E+00
         21   -1    0    0  503  502  0.00000000000E+00  0.00000000000E+00  0.43321873137E+02  0.43321873137E+02  0.00000000000E+00 0. -1.
         21   -1    0    0  501  503 -0.00000000000E+00 -0.00000000000E+00 -0.12187943838E+03  0.12187943838E+03  0.00000000000E+00 0.  1.
          2    1    1    2  501    0 -0.12846706878E+02 -0.21583457224E+02 -0.11678775921E+03  0.11945821112E+03  0.00000000000E+00 0.  1.
         -2    1    1    2    0  502  0.12846706878E+02  0.21583457224E+02  0.38230193964E+02  0.45743100397E+02  0.00000000000E+00 0. -1.
</event>
<event>
 4    1  0.1772365E+004  0.9866486E+02  0.7546771E-02  0.1166142E+00
         21   -1    0    0  503  502  0.00000000000E+00  0.00000000000E+00  0.12657287879E+04  0.12657287879E+04  0.00000000000E+00 0.  1.
         21   -1    0    0  501  503 -0.00000000000E+00 -0.00000000000E+00 -0.98291952388E+01  0.98291952388E+01  0.00000000000E+00 0. -1.
          2    1    1    2  501    0 -0.98295773302E+02  0.85262013856E+01  0.33048738416E+03  0.34490095136E+03  0.00000000000E+00 0. -1.
         -2    1    1    2    0  502  0.98295773302E+02 -0.85262013856E+01  0.92541220853E+03  0.93065703181E+03  0.00000000000E+00 0.  1.
</event>
<event>
 4    1  0.1772365E+004  0.2062326E+02  0.7546771E-02  0.1524712E+00
         21   -1    0    0  503  502  0.00000000000E+00  0.00000000000E+00  0.15908683699E+03  0.15908683699E+03  0.00000000000E+00 0. -1.
         21   -1    0    0  501  503 -0.00000000000E+00 -0.00000000000E+00 -0.63603884803E+01  0.63603884803E+01  0.00000000000E+00 0.  1.
          2    1    1    2  501    0  0.14029107876E+02  0.15116311994E+02  0.13381051865E+02  0.24583964390E+02  0.00000000000E+00 0.  1.
         -2    1    1    2    0  502 -0.14029107876E+02 -0.15116311994E+02  0.13934539664E+03  0.14086326108E+03  0.00000000000E+00 0. -1.
</event>
<event>
 4    1  0.1772365E+004  0.2482728E+02  0.7546771E-02  0.1470745E+00
         21   -1    0    0  501  502  0.00000000000E+00  0.00000000000E+00  0.39019334323E+02  0.39019334323E+02  0.00000000000E+00 0. -1.
         21   -1    0    0  502  503 -0.00000000000E+00 -0.00000000000E+00 -0.21770019659E+02  0.21770019659E+02  0.00000000000E+00 0.  1.
          2    1    1    2  501    0  0.15041883203E+01  0.24781674154E+02  0.24545275974E+02  0.34912240390E+02  0.00000000000E+00 0. -1.
         -2    1    1    2    0  503 -0.15041883203E+01 -0.24781674154E+02 -0.72959613099E+01  0.25877113592E+02  0.00000000000E+00 0.  1.
</event>
<event>
 4    1  0.1772365E+004  0.3399309E+02  0.7546771E-02  0.1387784E+00
         21   -1    0    0  503  502  0.00000000000E+00  0.00000000000E+00  0.22327093470E+01  0.22327093470E+01  0.00000000000E+00 0. -1.
         21   -1    0    0  501  503 -0.00000000000E+00 -0.00000000000E+00 -0.56124331569E+03  0.56124331569E+03  0.00000000000E+00 0.  1.
          2    1    1    2  501    0  0.37695576880E+01  0.33783432023E+02 -0.35811880060E+03  0.35972851595E+03  0.00000000000E+00 0. -1.
         -2    1    1    2    0  502 -0.37695576880E+01 -0.33783432023E+02 -0.20089180574E+03  0.20374750908E+03  0.00000000000E+00 0.  1.
</event>
<event>
 4    1  0.1772365E+004  0.2173746E+02  0.7546771E-02  0.1508991E+00
         21   -1    0    0  503  502  0.00000000000E+00  0.00000000000E+00  0.12277457785E+02  0.12277457785E+02  0.00000000000E+00 0. -1.
         21   -1    0    0  501  503 -0.00000000000E+00 -0.00000000000E+00 -0.59005080371E+02  0.59005080371E+02  0.00000000000E+00 0.  1.
          2    1    1    2  501    0  0.86018455257E+01 -0.19963101238E+02 -0.44381329888E+02  0.49418818279E+02  0.00000000000E+00 0.  1.
         -2    1    1    2    0  502 -0.86018455257E+01  0.19963101238E+02 -0.23462926985E+01  0.21863719878E+02  0.00000000000E+00 0. -1.
</event>
<event>
 4    1  0.1772365E+004  0.3308717E+02  0.7546771E-02  0.1394534E+00
         21   -1    0    0  503  502  0.00000000000E+00  0.00000000000E+00  0.10637610946E+02  0.10637610946E+02  0.00000000000E+00 0. -1.
         21   -1    0    0  501  503 -0.00000000000E+00 -0.00000000000E+00 -0.15659251495E+03  0.15659251495E+03  0.00000000000E+00 0.  1.
          2    1    1    2  501    0  0.25108753683E+02 -0.21547891137E+02 -0.12193261436E+03  0.12634208946E+03  0.00000000000E+00 0.  1.
         -2    1    1    2    0  502 -0.25108753683E+02  0.21547891137E+02 -0.24022289644E+02  0.40888036438E+02  0.00000000000E+00 0. -1.
</event>
<event>
 4    1  0.1772365E+004  0.2328576E+02  0.7546771E-02  0.1488941E+00
         21   -1    0    0  501  502  0.00000000000E+00  0.00000000000E+00  0.99838819359E+02  0.99838819359E+02  0.00000000000E+00 0.  1.
         21   -1    0    0  502  503 -0.00000000000E+00 -0.00000000000E+00 -0.54410664088E+01  0.54410664088E+01  0.00000000000E+00 0. -1.
          2    1    1    2  501    0 -0.19278877751E+02  0.13059537416E+02  0.49460781995E+02  0.54668049173E+02  0.00000000000E+00 0.  1.
         -2    1    1    2    0  503  0.19278877751E+02 -0.13059537416E+02  0.44936970955E+02  0.50611836595E+02  0.00000000000E+00 0. -1.
</event>
<event>
 4    1  0.1772365E+004  0.2364511E+02  0.7546771E-02  0.1484553E+00
         21   -1    0    0  503  502  0.00000000000E+00  0.00000000000E+00  0.86179807934E+03  0.86179807934E+03  0.00000000000E+00 0. -1.
         21   -1    0    0  501  503 -0.00000000000E+00 -0.00000000000E+00 -0.66557725480E+00  0.66557725480E+00  0.00000000000E+00 0.  1.
          2    1    1    2  501    0 -0.15002395697E+02 -0.18276194796E+02  0.36199798534E+03  0.36276939309E+03  0.00000000000E+00 0.  1.
         -2    1    1    2    0  502  0.15002395697E+02  0.18276194796E+02  0.49913451674E+03  0.49969426350E+03  0.00000000000E+00 0. -1.
</event>
<event>
 4    1  0.1772365E+004  0.2267515E+02  0.7546771E-02  0.1496618E+00
         21   -1    0    0  501  502  0.00000000000E+00  0.00000000000E+00  0.12207272442E+02  0.12207272442E+02  0.00000000000E+00 0. -1.
         21   -1    0    0  502  503 -0.00000000000E+00 -0.00000000000E+00 -0.96823386495E+02  0.96823386495E+02  0.00000000000E+00 0.  1.
          2    1    1    2  501    0  0.22457501125E+02 -0.31341545703E+01 -0.13312395155E+01  0.22714191165E+02  0.00000000000E+00 0. -1.
         -2    1    1    2    0  503 -0.22457501125E+02  0.31341545703E+01 -0.83284874538E+02  0.86316467771E+02  0.00000000000E+00 0.  1.
</event>
<event>
 4    1  0.1772365E+004  0.2129518E+02  0.7546771E-02  0.1515092E+00
         21   -1    0    0  503  502  0.00000000000E+00  0.00000000000E+00  0.91102686046E+01  0.91102686046E+01  0.00000000000E+00 0.  1.
         21   -1    0    0  501  503 -0.00000000000E+00 -0.00000000000E+00 -0.28173477208E+03  0.28173477208E+03  0.00000000000E+00 0. -1.
          2    1    1    2  501    0 -0.89522922839E+01 -0.19322041003E+02 -0.26826413746E+03  0.26910803083E+03  0.00000000000E+00 0. -1.
         -2    1    1    2    0  502  0.89522922839E+01  0.19322041003E+02 -0.43603660065E+01  0.21737009854E+02  0.00000000000E+00 0.  1.
</event>
<event>
 4    1  0.1772365E+004  0.2492150E+02  0.7546771E-02  0.1469683E+00
         21   -1    0    0  501  502  0.00000000000E+00  0.00000000000E+00  0.10164006853E+02  0.10164006853E+02  0.00000000000E+00 0. -1.
         21   -1    0    0  502  503 -0.00000000000E+00 -0.00000000000E+00 -0.80540820414E+02  0.80540820414E+02  0.00000000000E+00 0.  1.
          2    1    1    2  501    0 -0.23802699388E+02 -0.73832778537E+01 -0.12910047165E+02  0.28066895229E+02  0.00000000000E+00 0. -1.
         -2    1    1    2    0  503  0.23802699388E+02  0.73832778537E+01 -0.57466766396E+02  0.62637932038E+02  0.00000000000E+00 0.  1.
</event>
<event>
 4    1  0.1772365E+004  0.2138421E+02  0.7546771E-02  0.1513849E+00
         21   -1    0    0  503  502  0.00000000000E+00  0.00000000000E+00  0.25013728831E+01  0.25013728831E+01  0.00000000000E+00 0. -1.
         21   -1    0    0  501  503 -0.00000000000E+00 -0.00000000000E+00 -0.66103540094E+03  0.66103540094E+03  0.00000000000E+00 0.  1.
          2    1    1    2  501    0 -0.15636973366E+02  0.14586626296E+02 -0.61145426986E+03  0.61182808756E+03  0.00000000000E+00 0.  1.
         -2    1    1    2    0  502  0.15636973366E+02 -0.14586626296E+02 -0.47079758201E+02  0.51708686263E+02  0.00000000000E+00 0. -1.
</event>
<event>
 4    1  0.1772365E+004  0.2546120E+02  0.7546771E-02  0.1463710E+00
         21   -1    0    0  501  502  0.00000000000E+00  0.00000000000E+00  0.60463283761E+02  0.60463283761E+02  0.00000000000E+00 0.  1.
         21   -1    0    0  502  503 -0.00000000000E+00 -0.00000000000E+00 -0.37642193194E+02  0.37642193194E+02  0.00000000000E+00 0. -1.
          2    1    1    2  501    0  0.25044081247E+02 -0.45898636384E+01  0.52893226147E+02  0.58702352814E+02  0.00000000000E+00 0.  1.
         -2    1    1    2    0  503 -0.25044081247E+02  0.45898636384E+01 -0.30072135579E+02  0.39403124140E+02  0.00000000000E+00 0. -1.
</event>
<event>
 4    1  0.1772365E+004  0.2839764E+02  0.7546771E-02  0.1434052E+00
         21   -1    0    0  503  502  0.00000000000E+00  0.00000000000E+00  0.90048301465E+01  0.90048301465E+01  0.00000000000E+00 0. -1.
         21   -1    0    0  501  503 -0.00000000000E+00 -0.00000000000E+00 -0.25402926421E+03  0.25402926421E+03  0.00000000000E+00 0.  1.
          2    1    1    2  501    0 -0.18392721027E+01 -0.28338012444E+02 -0.22833749031E+03  0.23009657832E+03  0.00000000000E+00 0.  1.
         -2    1    1    2    0  502  0.18392721027E+01  0.28338012444E+02 -0.16686943753E+02  0.32937516041E+02  0.00000000000E+00 0. -1.
</event>
<event>
 4    1  0.1772365E+004  0.2475113E+02  0.7546771E-02  0.1471607E+00
         21   -1    0    0  503  502  0.00000000000E+00  0.00000000000E+00  0.33669413985E+02  0.33669413985E+02  0.00000000000E+00 0. -1.
         21   -1    0    0  501  503 -0.00000000000E+00 -0.00000000000E+00 -0.25333241413E+02  0.25333241413E+02  0.00000000000E+00 0.  1.
          2    1    1    2  501    0 -0.13034151240E+02  0.21041129877E+02 -0.11491808988E+02  0.27288824065E+02  0.00000000000E+00 0.  1.
         -2    1    1    2    0  502  0.13034151240E+02 -0.21041129877E+02  0.19827981561E+02  0.31713831333E+02  0.00000000000E+00 0. -1.
</event>
<event>
 4    1  0.1772365E+004  0.2258801E+02  0.7546771E-02  0.1497737E+00
         21   -1    0    0  501  502  0.00000000000E+00  0.00000000000E+00  0.28671260694E+03  0.28671260694E+03  0.00000000000E+00 0. -1.
         21   -1    0    0  502  503 -0.00000000000E+00 -0.00000000000E+00 -0.31171658665E+01  0.31171658665E+01  0.00000000000E+00 0.  1.
          2    1    1    2  501    0 -0.29043056718E+01  0.22400522586E+02  0.23672681233E+03  0.23780202287E+03  0.00000000000E+00 0. -1.
         -2    1    1    2    0  503  0.29043056718E+01 -0.22400522586E+02  0.46868628746E+02  0.52027749942E+02  0.00000000000E+00 0.  1.
</event>
<event>
 4    1  0.1772365E+004  0.3261498E+02  0.7546771E-02  0.1398153E+00
         21   -1    0    0  501  502  0.00000000000E+00  0.00000000000E+00  0.10816366402E+04  0.10816366402E+04  0.00000000000E+00 0.  1.
         21   -1    0    0  502  503 -0.00000000000E+00 -0.00000000000E+00 -0.17154913162E+01  0.17154913162E+01  0.00000000000E+00 0. -1.
          2    1    1    2  501    0 -0.28250838417E+02 -0.16298067936E+02  0.89380537197E+03  0.89440023472E+03  0.00000000000E+00 0.  1.
         -2    1    1    2    0  503  0.28250838417E+02  0.16298067936E+02  0.18611577689E+03  0.18895189678E+03  0.00000000000E+00 0. -1.
</event>
<event>
 4    1  0.1772365E+004  0.2755917E+02  0.7546771E-02  0.1442071E+00
         21   -1    0    0  503  502  0.00000000000E+00  0.00000000000E+00  0.14510608187E+03  0.14510608187E+03  0.00000000000E+00 0.  1.
         21   -1    0    0  501  503 -0.00000000000E+00 -0.00000000000E+00 -0.29440215395E+02  0.29440215395E+02  0.00000000000E+00 0. -1.
          2    1    1    2  501    0  0.20380612423E+02 -0.18550977161E+02 -0.21302718810E+02  0.34832656302E+02  0.00000000000E+00 0. -1.
         -2    1    1    2    0  502 -0.20380612423E+02  0.18550977161E+02  0.13696858529E+03  0.13971364097E+03  0.00000000000E+00 0.  1.
</event>
<event>
 4    1  0.1772365E+004  0.2049572E+02  0.7546771E-02  0.1526588E+00
         21   -1    0    0  501  502  0.00000000000E+00  0.00000000000E+00  0.59335323291E+03  0.59335323291E+03  0.00000000000E+00 0.  1.
         21   -1    0    0  502  503 -0.00000000000E+00 -0.00000000000E+00 -0.12878098964E+01  0.12878098964E+01  0.00000000000E+00 0. -1.
          2    1    1    2  501    0 -0.20227192115E+02  0.33068179874E+01  0.49553793893E+03  0.49596161471E+03  0.00000000000E+00 0.  1.
         -2    1    1    2    0  503  0.20227192115E+02 -0.33068179874E+01  0.96527484079E+02  0.98679428092E+02  0.00000000000E+00 0. -1.
</event>
<event>
 4    1  0.1772365E+004  0.3452692E+02  0.7546771E-02  0.1383920E+00
         21   -1    0    0  503  502  0.00000000000E+00  0.00000000000E+00  0.86223287937E+01  0.86223287937E+01  0.00000000000E+00 0. -1.
         21   -1    0    0  501  503 -0.00000000000E+00 -0.00000000000E+00 -0.26789166565E+03  0.26789166565E+03  0.00000000000E+00 0.  1.
          2    1    1    2  501    0 -0.34370613359E+02  0.32816324190E+01 -0.22581050769E+03  0.22843487816E+03  0.00000000000E+00 0. -1.
         -2    1    1    2    0  502  0.34370613359E+02 -0.32816324190E+01 -0.33458829165E+02  0.48079116289E+02  0.00000000000E+00 0.  1.
</event>
<event>
 4    1  0.1772365E+004  0.2219876E+02  0.7546771E-02  0.1502812E+00
         21   -1    0    0  501  502  0.00000000000E+00  0.00000000000E+00  0.30589078324E+02  0.30589078324E+02  0.00000000000E+00 0. -1.
         21   -1    0    0  502  503 -0.00000000000E+00 -0.00000000000E+00 -0.19902732445E+02  0.19902732445E+02  0.00000000000E+00 0.  1.
          2    1    1    2  501    0  0.21844878886E+02  0.39479650012E+01  0.16364143819E+02  0.27578440204E+02  0.00000000000E+00 0. -1.
         -2    1    1    2    0  503 -0.21844878886E+02 -0.39479650012E+01 -0.56777979400E+01  0.22913370565E+02  0.00000000000E+00 0.  1.
</event>
<event>
 4    1  0.1772365E+004  0.3766489E+02  0.7546771E-02  0.1362741E+00
         21   -1    0    0  501  502  0.00000000000E+00  0.00000000000E+00  0.10472185809E+03  0.10472185809E+03  0.00000000000E+00 0.  1.
         21   -1    0    0  502  503 -0.00000000000E+00 -0.00000000000E+00 -0.30443104151E+02  0.30443104151E+02  0.00000000000E+00 0. -1.
          2    1    1    2  501    0 -0.98850417843E+01 -0.36344595667E+02  0.87487793527E+02  0.95251024674E+02  0.00000000000E+00 0.  1.
         -2    1    1    2    0  503  0.98850417843E+01  0.36344595667E+02 -0.13209039587E+02  0.39913937567E+02  0.00000000000E+00 0. -1.
</event>
<event>
 4    1  0.1772365E+004  0.2896190E+02  0.7546771E-02  0.1428837E+00
         21   -1    0    0  501  502  0.00000000000E+00  0.00000000000E+00  0.53467692276E+01  0.53467692276E+01  0.00000000000E+00 0. -1.
         21   -1    0    0  502  503 -0.00000000000E+00 -0.00000000000E+00 -0.26758504857E+03  0.26758504857E+03  0.00000000000E+00 0.  1.
          2    1    1    2  501    0  0.41407319701E+01  0.28664363225E+02 -0.21889610258E+03  0.22080374794E+03  0.00000000000E+00 0.  1.
         -2    1    1    2    0  503 -0.41407319701E+01 -0.28664363225E+02 -0.43342176759E+02  0.52128069853E+02  0.00000000000E+00 0. -1.
</event>
<event>
 4    1  0.1772365E+004  0.2965172E+02  0.7546771E-02  0.1422647E+00
         21   -1    0    0  501  502  0.00000000000E+00  0.00000000000E+00  0.17844787055E+03  0.17844787055E+03  0.00000000000E+00 0.  1.
         21   -1    0    0  502  503 -0.00000000000E+00 -0.00000000000E+00 -0.11200475144E+02  0.11200475144E+02  0.00000000000E+00 0. -1.
          2    1    1    2  501    0 -0.24475826097E+02 -0.16737931488E+02  0.15459007737E+03  0.15740812061E+03  0.00000000000E+00 0.  1.
         -2    1    1    2    0  503  0.24475826097E+02  0.16737931488E+02  0.12657318041E+02  0.32240225086E+02  0.00000000000E+00 0. -1.
</event>
<event>
 4    1  0.1772365E+004  0.2026517E+02  0.7546771E-02  0.1530020E+00
         21   -1    0    0  501  502  0.00000000000E+00  0.00000000000E+00  0.10629682435E+03  0.10629682435E+03  0.00000000000E+00 0.  1.
         21   -1    0    0  502  503 -0.00000000000E+00 -0.00000000000E+00 -0.80111067886E+01  0.80111067886E+01  0.00000000000E+00 0. -1.
          2    1    1    2  501    0 -0.83143858971E+01  0.18481023128E+02  0.90267220335E+02  0.92514043776E+02  0.00000000000E+00 0.  1.
         -2    1    1    2    0  503  0.83143858971E+01 -0.18481023128E+02  0.80184972285E+01  0.21793887365E+02  0.00000000000E+00 0. -1.
</event>
<event>
 4    1  0.1772365E+004  0.3632650E+02  0.7546771E-02  0.1371470E+00
         21   -1    0    0  503  502  0.00000000000E+00  0.00000000000E+00  0.20187406258E+02  0.20187406258E+02  0.00000000000E+00 0. -1.
         21   -1    0    0  501  503 -0.00000000000E+00 -0.00000000000E+00 -0.71137397932E+02  0.71137397932E+02  0.00000000000E+00 0.  1.
          2    1    1    2  501    0  0.20258232067E+02 -0.30153252550E+02 -0.38478701189E+02  0.52917152711E+02  0.00000000000E+00 0.  1.
         -2    1    1    2    0  502 -0.20258232067E+02  0.30153252550E+02 -0.12471290485E+02  0.38407651479E+02  0.00000000000E+00 0. -1.
</event>
<event>
 4    1  0.1772365E+004  0.2492759E+02  0.7546771E-02  0.1469615E+00
         21   -1    0    0  503  502  0.00000000000E+00  0.00000000000E+00  0.11335638613E+02  0.11335638613E+02  0.00000000000E+00 0.  1.
         21   -1    0    0  501  503 -0.00000000000E+00 -0.00000000000E+00 -0.15471041295E+03  0.15471041295E+03  0.00000000000E+00 0. -1.
          2    1    1    2  501    0  0.23629695539E+02  0.79386675474E+01 -0.13839990836E+03  0.14062688074E+03  0.00000000000E+00 0. -1.
         -2    1    1    2    0  502 -0.23629695539E+02 -0.79386675474E+01 -0.49748659776E+01  0.25419170821E+02  0.00000000000E+00 0.  1.
</event>
<event>
 4    1  0.1772365E+004  0.2316748E+02  0.7546771E-02  0.1490406E+00
         21   -1    0    0  503  502  0.00000000000E+00  0.00000000000E+00  0.21404524826E+02  0.21404524826E+02  0.00000000000E+00 0.  1.
         21   -1    0    0  501  503 -0.00000000000E+00 -0.00000000000E+00 -0.26593930253E+02  0.26593930253E+02  0.00000000000E+00 0. -1.
          2    1    1    2  501    0  0.19514602099E+02  0.12486484095E+02 -0.83290579977E+01  0.24619203628E+02  0.00000000000E+00 0. -1.
         -2    1    1    2    0  502 -0.19514602099E+02 -0.12486484095E+02  0.31396525704E+01  0.23379251451E+02  0.00000000000E+00 0.  1.
</event>
<event>
 4    1  0.1772365E+004  0.2479217E+02  0.7546771E-02  0.1471142E+00
         21   -1    0    0  503  502  0.00000000000E+00  0.00000000000E+00  0.37501818543E+03  0.37501818543E+03  0.00000000000E+00 0. -1.
         21   -1    0    0  501  503 -0.00000000000E+00 -0.00000000000E+00 -0.16392968234E+01  0.16392968234E+01  0.00000000000E+00 0.  1.
          2    1    1    2  501    0  0.47981909762E+01  0.24323429051E+02  0.18412170032E+03  0.18578334792E+03  0.00000000000E+00 0.  1.
         -2    1    1    2    0  502 -0.47981909762E+01 -0.24323429051E+02  0.18925718829E+03  0.19087413433E+03  0.00000000000E+00 0. -1.
</event>
<event>
 4    1  0.1772365E+004  0.2492998E+02  0.7546771E-02  0.1469588E+00
         21   -1    0    0  501  502  0.00000000000E+00  0.00000000000E+00  0.22523676747E+02  0.22523676747E+02  0.00000000000E+00 0. -1.
         21   -1    0    0  502  503 -0.00000000000E+00 -0.00000000000E+00 -0.19303643009E+03  0.19303643009E+03  0.00000000000E+00 0.  1.
          2    1    1    2  501    0 -0.19649667119E+02 -0.15342575948E+02  0.14523517351E+02  0.28851977590E+02  0.00000000000E+00 0. -1.
         -2    1    1    2    0  503  0.19649667119E+02  0.15342575948E+02 -0.18503627069E+03  0.18670812925E+03  0.00000000000E+00 0.  1.
</event>
<event>
 4    1  0.1772365E+004  0.2001898E+02  0.7546771E-02  0.1533746E+00
         21   -1    0    0  503  502  0.00000000000E+00  0.00000000000E+00  0.12285102739E+01  0.12285102739E+01  0.00000000000E+00 0.  1.
         21   -1    0    0  501  503 -0.00000000000E+00 -0.00000000000E+00 -0.66958659587E+03  0.66958659587E+03  0.00000000000E+00 0. -1.
          2    1    1    2  501    0  0.66192069840E+01  0.18893002925E+02 -0.93991134053E+02  0.96099389910E+02  0.00000000000E+00 0.  1.
         -2    1    1    2    0  502 -0.66192069840E+01 -0.18893002925E+02 -0.57436695154E+03  0.57471571623E+03  0.00000000000E+00 0. -1.
</event>
<event>
 4    1  0.1772365E+004  0.2194004E+02  0.7546771E-02  0.1506255E+00
         21   -1    0    0  501  502  0.00000000000E+00  0.00000000000E+00  0.82616240082E+02  0.82616240082E+02  0.00000000000E+00 0. -1.
         21   -1    0    0  502  503 -0.00000000000E+00 -0.00000000000E+00 -0.26881206232E+02  0.26881206232E+02  0.00000000000E+00 0.  1.
          2    1    1    2  501    0  0.14744351713E+02 -0.16247138482E+02  0.76320885498E+02  0.79411856668E+02  0.00000000000E+00 0. -1.
         -2    1    1    2    0  503 -0.14744351713E+02  0.16247138482E+02 -0.20585851648E+02  0.30085589646E+02  0.00000000000E+00 0.  1.
</event>
<event>
 4    1  0.1772365E+004  0.2083456E+02  0.7546771E-02  0.1521640E+00
         21   -1    0    0  501  502  0.00000000000E+00  0.00000000000E+00  0.78822665448E+02  0.78822665448E+02  0.00000000000E+00 0.  1.
         21   -1    0    0  502  503 -0.00000000000E+00 -0.00000000000E+00 -0.56189153637E+01  0.56189153637E+01  0.00000000000E+00 0. -1.
          2    1    1    2  501    0  0.16986044441E+02 -0.12064544109E+02  0.42559636813E+02  0.47385668888E+02  0.00000000000E+00 0. -1.
         -2    1    1    2    0  503 -0.16986044441E+02  0.12064544109E+02  0.30644113272E+02  0.37055911924E+02  0.00000000000E+00 0.  1.
</event>
<event>
 4    1  0.1772365E+004  0.4365546E+02  0.7546771E-02  0.1328301E+00
         21   -1    0    0  501  502  0.00000000000E+00  0.00000000000E+00  0.12736831651E+02  0.12736831651E+02  0.00000000000E+00 0.  1.
         21   -1    0    0  502  503 -0.00000000000E+00 -0.00000000000E+00 -0.15266653789E+03  0.15266653789E+03  0.00000000000E+00 0. -1.
          2    1    1    2  501    0 -0.43570618240E+02 -0.27204180042E+01 -0.58299364988E+02  0.72832790733E+02  0.00000000000E+00 0.  1.
         -2    1    1    2    0  503  0.43570618240E+02  0.27204180042E+01 -0.81630341252E+02  0.92570578809E+02  0.00000000000E+00 0. -1.
</event>
<event>
 4    1  0.1772365E+004  0.3087121E+02  0.7546771E-02  0.1412173E+00
         21   -1    0    0  501  502  0.00000000000E+00  0.00000000000E+00  0.42968814702E+01  0.42968814702E+01  0.00000000000E+00 0.  1.
         21   -1    0    0  502  503 -0.00000000000E+00 -0.00000000000E+00 -0.50618245030E+03  0.50618245030E+03  0.00000000000E+00 0. -1.
          2    1    1    2  501    0  0.15498189758E+02  0.26699024645E+02 -0.59627814022E+02  0.67145424325E+02  0.00000000000E+00 0.  1.
         -2    1    1    2    0  503 -0.15498189758E+02 -0.26699024645E+02 -0.44225775480E+03  0.44333390744E+03  0.00000000000E+00 0. -1.
</event>
<event>
 4    1  0.1772365E+004  0.2653511E+02  0.7546771E-02  0.1452335E+00
         21   -1    0    0  501  502  0.00000000000E+00  0.00000000000E+00  0.44090971643E+03  0.44090971643E+03  0.00000000000E+00 0.  1.
         21   -1    0    0  502  503 -0.00000000000E+00 -0.00000000000E+00 -0.28406967358E+01  0.28406967358E+01  0.00000000000E+00 0. -1.
          2    1    1    2  501    0  0.26527774206E+02  0.62398633752E+00  0.36584658067E+03  0.36680762363E+03  0.00000000000E+00 0.  1.
         -2    1    1    2    0  503 -0.26527774206E+02 -0.62398633752E+00  0.72222439019E+02  0.76942789534E+02  0.00000000000E+00 0. -1.
</event>
<event>
 4    1  0.1772365E+004  0.2526358E+02  0.7546771E-02  0.1465876E+00
         21   -1    0    0  503  502  0.00000000000E+00  0.00000000000E+00  0.48684598933E+01  0.48684598933E+01  0.00000000000E+00 0.  1.
         21   -1    0    0  501  503 -0.00000000000E+00 -0.00000000000E+00 -0.13118060473E+03  0.13118060473E+03  0.00000000000E+00 0. -1.
          2    1    1    2  501    0 -0.20971668963E+02 -0.14086792232E+02 -0.64856139724E+02  0.69602927197E+02  0.00000000000E+00 0. -1.
         -2    1    1    2    0  502  0.20971668963E+02  0.14086792232E+02 -0.61456005111E+02  0.66446137425E+02  0.00000000000E+00 0.  1.
</event>
<event>
 4    1  0.1772365E+004  0.2167741E+02  0.7546771E-02  0.1509809E+00
         21   -1    0    0  503  502  0.00000000000E+00  0.00000000000E+00  0.69417463573E+02  0.69417463573E+02  0.00000000000E+00 0.  1.
         21   -1    0    0  501  503 -0.00000000000E+00 -0.00000000000E+00 -0.13646289041E+02  0.13646289041E+02  0.00000000000E+00 0. -1.
          2    1    1    2  501    0  0.15349923648E+01 -0.21622991087E+02 -0.15974610991E+01  0.21736187040E+02  0.00000000000E+00 0. -1.
         -2    1    1    2    0  502 -0.15349923648E+01  0.21622991087E+02  0.57368635631E+02  0.61327565574E+02  0.00000000000E+00 0.  1.
</event>
<event>
 4    1  0.1772365E+004  0.2546910E+02  0.7546771E-02  0.1463623E+00
         21   -1    0    0  503  502  0.00000000000E+00  0.00000000000E+00  0.17863898843E+01  0.17863898843E+01  0.00000000000E+00 0.  1.
         21   -1    0    0  501  503 -0.00000000000E+00 -0.00000000000E+00 -0.11422910143E+04  0.11422910143E+04  0.00000000000E+00 0. -1.
          2    1    1    2  501    0  0.23464543456E+02  0.99040553294E+01 -0.10426994656E+04  0.10430104749E+04  0.00000000000E+00 0. -1.
         -2    1    1    2    0  502 -0.23464543456E+02 -0.99040553294E+01 -0.97805158832E+02  0.10106692934E+03  0.00000000000E+00 0.  1.
</event>
<event>
 4    1  0.1772365E+004  0.2507197E+02  0.7546771E-02  0.1468000E+00
         21   -1    0    0  503  502  0.00000000000E+00  0.00000000000E+00  0.84197695007E+02  0.84197695007E+02  0.00000000000E+00 0.  1.
         21   -1    0    0  501  503 -0.00000000000E+00 -0.00000000000E+00 -0.80668432158E+01  0.80668432158E+01  0.00000000000E+00 0. -1.
          2    1    1    2  501    0  0.38625115766E+00  0.25068990264E+02  0.50657710246E+02  0.56522624410E+02  0.00000000000E+00 0. -1.
         -2    1    1    2    0  502 -0.38625115766E+00 -0.25068990264E+02  0.25473141545E+02  0.35741913813E+02  0.00000000000E+00 0.  1.
</event>
<event>
 4    1  0.1772365E+004  0.2521772E+02  0.7546771E-02  0.1466382E+00
         21   -1    0    0  503  502  0.00000000000E+00  0.00000000000E+00  0.44859487138E+01  0.44859487138E+01  0.00000000000E+00 0. -1.
         21   -1    0    0  501  503 -0.00000000000E+00 -0.00000000000E+00 -0.45803238628E+03  0.45803238628E+03  0.00000000000E+00 0.  1.
          2    1    1    2  501    0  0.24395846887E+02  0.63855945321E+01 -0.41894106632E+03  0.41969935694E+03  0.00000000000E+00 0.  1.
         -2    1    1    2    0  502 -0.24395846887E+02 -0.63855945321E+01 -0.34605371247E+02  0.42818978059E+02  0.00000000000E+00 0. -1.
</event>
<event>
 4    1  0.1772365E+004  0.3053050E+02  0.7546771E-02  0.1415041E+00
         21   -1    0    0  501  502  0.00000000000E+00  0.00000000000E+00  0.94170780622E+02  0.94170780622E+02  0.00000000000E+00 0. -1.
         21   -1    0    0  502  503 -0.00000000000E+00 -0.00000000000E+00 -0.88069299721E+02  0.88069299721E+02  0.00000000000E+00 0.  1.
          2    1    1    2  501    0 -0.23563099125E+02 -0.19413695746E+02  0.88897723413E+02  0.93994236264E+02  0.00000000000E+00 0. -1.
         -2    1    1    2    0  503  0.23563099125E+02  0.19413695746E+02 -0.82796242513E+02  0.88245844078E+02  0.00000000000E+00 0.  1.
</event>
<event>
 4    1  0.1772365E+004  0.2175023E+02  0.7546771E-02  0.1508818E+00
         21   -1    0    0  501  502  0.00000000000E+00  0.00000000000E+00  0.32627275162E+02  0.32627275162E+02  0.00000000000E+00 0. -1.
         21   -1    0    0  502  503 -0.00000000000E+00 -0.00000000000E+00 -0.48300012722E+02  0.48300012722E+02  0.00000000000E+00 0.  1.
          2    1    1    2  501    0 -0.18680643048E+01  0.21669858008E+02  0.26013293822E+02  0.33908168128E+02  0.00000000000E+00 0. -1.
         -2    1    1    2    0  503  0.18680643048E+01 -0.21669858008E+02 -0.41686031381E+02  0.47019119756E+02  0.00000000000E+00 0.  1.
</event>
<event>
 4    1  0.1772365E+004  0.2567026E+02  0.7546771E-02  0.1461443E+00
         21   -1    0    0  503  502  0.00000000000E+00  0.00000000000E+00  0.17426729701E+01  0.17426729701E+01  0.00000000000E+00 0.  1.
         21   -1    0    0  501  503 -0.00000000000E+00 -0.00000000000E+00 -0.72033405894E+03  0.72033405894E+03  0.00000000000E+00 0. -1.
          2    1    1    2  501    0 -0.25554872665E+02  0.24311665294E+01 -0.60813963950E+03  0.60868118356E+03  0.00000000000E+00 0. -1.
         -2    1    1    2    0  502  0.25554872665E+02 -0.24311665294E+01 -0.11045174647E+03  0.11339554835E+03  0.00000000000E+00 0.  1.
</event>
<event>
 4    1  0.1772365E+004  0.2890691E+02  0.7546771E-02  0.1429339E+00
         21   -1    0    0  501  502  0.00000000000E+00  0.00000000000E+00  0.37458719705E+03  0.37458719705E+03  0.00000000000E+00 0. -1.
         21   -1    0    0  502  503 -0.00000000000E+00 -0.00000000000E+00 -0.32228405378E+01  0.32228405378E+01  0.00000000000E+00 0.  1.
          2    1    1    2  501    0 -0.60657243977E-01  0.28906850964E+02  0.80872801778E+02  0.85883757366E+02  0.00000000000E+00 0.  1.
         -2    1    1    2    0  503  0.60657243977E-01 -0.28906850964E+02  0.29049155474E+03  0.29192628022E+03  0.00000000000E+00 0. -1.
</event>
<event>
 4    1  0.1772365E+004  0.2006159E+02  0.7546771E-02  0.1533096E+00
         21   -1    0    0  501  502  0.00000000000E+00  0.00000000000E+00  0.23854762420E+02  0.23854762420E+02  0.00000000000E+00 0.  1.
         21   -1    0    0  502  503 -0.00000000000E+00 -0.00000000000E+00 -0.37599500123E+02  0.37599500123E+02  0.00000000000E+00 0. -1.
          2    1    1    2  501    0  0.18622844644E+02 -0.74603563287E+01  0.15942026517E+02  0.25624509139E+02  0.00000000000E+00 0.  1.
         -2    1    1    2    0  503 -0.18622844644E+02  0.74603563287E+01 -0.29686764220E+02  0.35829753404E+02  0.00000000000E+00 0. -1.
</event>
<event>
 4    1  0.1772365E+004  0.3490100E+02  0.7546771E-02  0.1381261E+00
         21   -1    0    0  503  502  0.00000000000E+00  0.00000000000E+00  0.33145857483E+02  0.33145857483E+02  0.00000000000E+00 0. -1.
         21   -1    0    0  501  503 -0.00000000000E+00 -0.00000000000E+00 -0.58924515612E+02  0.58924515612E+02  0.00000000000E+00 0.  1.
          2    1    1    2  501    0 -0.15523276739E+01 -0.34866459540E+02 -0.41130193781E+02  0.53942307724E+02  0.00000000000E+00 0.  1.
         -2    1    1    2    0  502  0.15523276739E+01  0.34866459540E+02  0.15351535652E+02  0.38128065371E+02  0.00000000000E+00 0. -1.
</event>
<event>
 4    1  0.1772365E+004  0.2151475E+02  0.7546771E-02  0.1512041E+00
         21   -1    0    0  503  502  0.00000000000E+00  0.00000000000E+00  0.21006033148E+02  0.21006033148E+02  0.00000000000E+00 0.  1.
         21   -1    0    0  501  503 -0.00000000000E+00 -0.00000000000E+00 -0.27642963694E+02  0.27642963694E+02  0.00000000000E+00 0. -1.
          2    1    1    2  501    0  0.17993972258E+02 -0.11794135151E+02 -0.14273742294E+02  0.25819070096E+02  0.00000000000E+00 0. -1.
         -2    1    1    2    0  502 -0.17993972258E+02  0.11794135151E+02  0.76368117480E+01  0.22829926746E+02  0.00000000000E+00 0.  1.
</event>
<event>
 4    1  0.1772365E+004  0.3886437E+02  0.7546771E-02  0.1355272E+00
         21   -1    0    0  501  502  0.00000000000E+00  0.00000000000E+00  0.16674878292E+03  0.16674878292E+03  0.00000000000E+00 0.  1.
         21   -1    0    0  502  503 -0.00000000000E+00 -0.00000000000E+00 -0.11409496323E+02  0.11409496323E+02  0.00000000000E+00 0. -1.
          2    1    1    2  501    0 -0.35905993804E+02  0.14872743535E+02  0.11810853015E+03  0.12433850484E+03  0.00000000000E+00 0.  1.
         -2    1    1    2    0  503  0.35905993804E+02 -0.14872743535E+02  0.37230756444E+02  0.53819774402E+02  0.00000000000E+00 0. -1.
</event>
<event>
 4    1  0.1772365E+004  0.2133116E+02  0.7546771E-02  0.1514589E+00
         21   -1    0    0  503  502  0.00000000000E+00  0.00000000000E+00  0.72176573254E+01  0.72176573254E+01  0.00000000000E+00 0. -1.
         21   -1    0    0  501  503 -0.00000000000E+00 -0.00000000000E+00 -0.48547929198E+03  0.48547929198E+03  0.00000000000E+00 0.  1.
          2    1    1    2  501    0 -0.15039521091E+02 -0.15127167643E+02 -0.46892839432E+03  0.46941331190E+03  0.00000000000E+00 0.  1.
         -2    1    1    2    0  502  0.15039521091E+02  0.15127167643E+02 -0.93332403398E+01  0.23283637404E+02  0.00000000000E+00 0. -1.
</event>
<event>
 4    1  0.1772365E+004  0.2191696E+02  0.7546771E-02  0.1506565E+00
         21   -1    0    0  501  502  0.00000000000E+00  0.00000000000E+00  0.31551953161E+03  0.31551953161E+03  0.00000000000E+00 0.  1.
         21   -1    0    0  502  503 -0.00000000000E+00 -0.00000000000E+00 -0.27995928099E+01  0.27995928099E+01  0.00000000000E+00 0. -1.
          2    1    1    2  501    0 -0.20921858011E+02  0.65291018853E+01  0.26386037335E+03  0.26476905019E+03  0.00000000000E+00 0.  1.
         -2    1    1    2    0  503  0.20921858011E+02 -0.65291018853E+01  0.48859565447E+02  0.53550074227E+02  0.00000000000E+00 0. -1.
</event>
<event>
 4    1  0.1772365E+004  0.2381555E+02  0.7546771E-02  0.1482503E+00
         21   -1    0    0  503  502  0.00000000000E+00  0.00000000000E+00  0.43288610478E+01  0.43288610478E+01  0.00000000000E+00 0.  1.
         21   -1    0    0  501  503 -0.00000000000E+00 -0.00000000000E+00 -0.24628156374E+03  0.24628156374E+03  0.00000000000E+00 0. -1.
          2    1    1    2  501    0 -0.20624133384E+02  0.11909061983E+02 -0.20669783284E+03  0.20806531363E+03  0.00000000000E+00 0. -1.
         -2    1    1    2    0  502  0.20624133384E+02 -0.11909061983E+02 -0.35254869853E+02  0.42545111158E+02  0.00000000000E+00 0.  1.
</event>
<event>
 4    1  0.1772365E+004  0.2013010E+02  0.7546771E-02  0.1532056E+00
         21   -1    0    0  501  502  0.00000000000E+00  0.00000000000E+00  0.48645719919E+01  0.48645719919E+01  0.00000000000E+00 0.  1.
         21   -1    0    0  502  503 -0.00000000000E+00 -0.00000000000E+00 -0.10685161267E+03  0.10685161267E+03  0.00000000000E+00 0. -1.
          2    1    1    2  501    0 -0.19788594126E+02 -0.36922103947E+01 -0.24769332922E+02  0.31917718096E+02  0.00000000000E+00 0.  1.
         -2    1    1    2    0  503  0.19788594126E+02  0.36922103947E+01 -0.77217707757E+02  0.79798466567E+02  0.00000000000E+00 0. -1.
</event>
<event>
 4    1  0.1772365E+004  0.2119340E+02  0.7546771E-02  0.1516521E+00
         21   -1    0    0  501  502  0.00000000000E+00  0.00000000000E+00  0.24107476013E+03  0.24107476013E+03  0.00000000000E+00 0.  1.
         21   -1    0    0  502  503 -0.00000000000E+00 -0.00000000000E+00 -0.79003170465E+01  0.79003170465E+01  0.00000000000E+00 0. -1.
          2    1    1    2  501    0 -0.17679465204E+02  0.11687455481E+02  0.22541003949E+03  0.22640416518E+03  0.00000000000E+00 0.  1.
         -2    1    1    2    0  503  0.17679465204E+02 -0.11687455481E+02  0.77644035959E+01  0.22570912004E+02  0.00000000000E+00 0. -1.
</event>
<event>
 4    1  0.1772365E+004  0.3587792E+02  0.7546771E-02  0.1374494E+00
         21   -1    0    0  503  502  0.00000000000E+00  0.00000000000E+00  0.69614730020E+01  0.69614730020E+01  0.00000000000E+00 0. -1.
         21   -1    0    0  501  503 -0.00000000000E+00 -0.00000000000E+00 -0.39883835199E+03  0.39883835199E+03  0.00000000000E+00 0.  1.
          2    1    1    2  501    0 -0.95410410164E+01 -0.34586032184E+02 -0.34453905951E+03  0.34640206208E+03  0.00000000000E+00 0.  1.
         -2    1    1    2    0  502  0.95410410164E+01  0.34586032184E+02 -0.47337819478E+02  0.59397762911E+02  0.00000000000E+00 0. -1.
</event>
<event>
 4    1  0.1772365E+004  0.7224516E+02  0.7546771E-02  0.1223094E+00
         21   -1    0    0  503  502  0.00000000000E+00  0.00000000000E+00  0.27834097557E+01  0.27834097557E+01  0.00000000000E+00 0. -1.
         21   -1    0    0  501  503 -0.00000000000E+00 -0.00000000000E+00 -0.22371183186E+04  0.22371183186E+04  0.00000000000E+00 0.  1.
          2    1    1    2  501    0 -0.70256288167E+02 -0.16835009842E+02 -0.15676504440E+04  0.15693142700E+04  0.00000000000E+00 0.  1.
         -2    1    1    2    0  502  0.70256288167E+02  0.16835009842E+02 -0.66668446485E+03  0.67058745832E+03  0.00000000000E+00 0. -1.
</event>
<event>
 4    1  0.1772365E+004  0.3050169E+02  0.7546771E-02  0.1415286E+00
         21   -1    0    0  501  502  0.00000000000E+00  0.00000000000E+00  0.90062369736E+02  0.90062369736E+02  0.00000000000E+00 0. -1.
         21   -1    0    0  502  503 -0.00000000000E+00 -0.00000000000E+00 -0.10450356542E+02  0.10450356542E+02  0.00000000000E+00 0.  1.
          2    1    1    2  501    0 -0.51059607271E+01  0.30071288933E+02  0.45197145372E+02  0.54526463326E+02  0.00000000000E+00 0.  1.
         -2    1    1    2    0  503  0.51059607271E+01 -0.30071288933E+02  0.34414867822E+02  0.45986262952E+02  0.00000000000E+00 0. -1.
</event>
<event>
 4    1  0.1772365E+004  0.3024498E+02  0.7546771E-02  0.1417479E+00
         21   -1    0    0  501  502  0.00000000000E+00  0.00000000000E+00  0.33294136116E+03  0.33294136116E+03  0.00000000000E+00 0. -1.
         21   -1    0    0  502  503 -0.00000000000E+00 -0.00000000000E+00 -0.47756897894E+01  0.47756897894E+01  0.00000000000E+00 0.  1.
          2    1    1    2  501    0  0.25893292753E+02 -0.15629970053E+02  0.27412485008E+03  0.27578831013E+03  0.00000000000E+00 0. -1.
         -2    1    1    2    0  503 -0.25893292753E+02  0.15629970053E+02  0.54040821282E+02  0.61928740810E+02  0.00000000000E+00 0.  1.
</event>
<event>
 4    1  0.1772365E+004  0.2585493E+02  0.7546771E-02  0.1459462E+00
         21   -1    0    0  503  502  0.00000000000E+00  0.00000000000E+00  0.51049289681E+01  0.51049289681E+01  0.00000000000E+00 0. -1.
         21   -1    0    0  501  503 -0.00000000000E+00 -0.00000000000E+00 -0.28722909503E+03  0.28722909503E+03  0.00000000000E+00 0.  1.
          2    1    1    2  501    0  0.19767181074E+02  0.16665410694E+02 -0.24887955884E+03  0.25021892848E+03  0.00000000000E+00 0.  1.
         -2    1    1    2    0  502 -0.19767181074E+02 -0.16665410694E+02 -0.33244607226E+02  0.42115095522E+02  0.00000000000E+00 0. -1.
</event>
<event>
 4    1  0.1772365E+004  0.4508909E+02  0.7546771E-02  0.1320995E+00
         21   -1    0    0  503  502  0.00000000000E+00  0.00000000000E+00  0.35557459650E+03  0.35557459650E+03  0.00000000000E+00 0. -1.
         21   -1    0    0  501  503 -0.00000000000E+00 -0.00000000000E+00 -0.20771715282E+02  0.20771715282E+02  0.00000000000E+00 0.  1.
          2    1    1    2  501    0 -0.40991636801E+02 -0.18780610376E+02  0.72062700621E+01  0.45661317786E+02  0.00000000000E+00 0.  1.
         -2    1    1    2    0  502  0.40991636801E+02  0.18780610376E+02  0.32759661115E+03  0.33068499399E+03  0.00000000000E+00 0. -1.
</event>
<event>
 4    1  0.1772365E+004  0.2453740E+02  0.7546771E-02  0.1474046E+00
         21   -1    0    0  503  502  0.00000000000E+00  0.00000000000E+00  0.75211716417E+01  0.75211716417E+01  0.00000000000E+00 0.  1.
         21   -1    0    0  501  503 -0.00000000000E+00 -0.00000000000E+00 -0.12193352383E+03  0.12193352383E+03  0.00000000000E+00 0. -1.
          2    1    1    2  501    0  0.41500627552E+01 -0.24183898225E+02 -0.19271350479E+02  0.31200463194E+02  0.00000000000E+00 0.  1.
         -2    1    1    2    0  502 -0.41500627552E+01  0.24183898225E+02 -0.95141001707E+02  0.98254232275E+02  0.00000000000E+00 0. -1.
</event>
<event>
 4    1  0.1772365E+004  0.2468153E+02  0.7546771E-02  0.1472398E+00
         21   -1    0    0  501  502  0.00000000000E+00  0.00000000000E+00  0.10002518393E+02  0.10002518393E+02  0.00000000000E+00 0. -1.
         21   -1    0    0  502  503 -0.00000000000E+00 -0.00000000000E+00 -0.85492783568E+02  0.85492783568E+02  0.00000000000E+00 0.  1.
          2    1    1    2  501    0  0.23005744356E+02 -0.89394436977E+01 -0.12137498991E+02  0.27504487066E+02  0.00000000000E+00 0. -1.
         -2    1    1    2    0  503 -0.23005744356E+02  0.89394436977E+01 -0.63352766184E+02  0.67990814896E+02  0.00000000000E+00 0.  1.
</event>
<event>
 4    1  0.1772365E+004  0.2731664E+02  0.7546771E-02  0.1444453E+00
         21   -1    0    0  503  502  0.00000000000E+00  0.00000000000E+00  0.15691448055E+03  0.15691448055E+03  0.00000000000E+00 0.  1.
         21   -1    0    0  501  503 -0.00000000000E+00 -0.00000000000E+00 -0.52857210211E+02  0.52857210211E+02  0.00000000000E+00 0. -1.
          2    1    1    2  501    0  0.24467269715E+02 -0.12147087754E+02 -0.48027850981E+02  0.55252814390E+02  0.00000000000E+00 0. -1.
         -2    1    1    2    0  502 -0.24467269715E+02  0.12147087754E+02  0.15208512132E+03  0.15451887637E+03  0.00000000000E+00 0.  1.
</event>
<event>
 4    1  0.1772365E+004  0.2157287E+02  0.7546771E-02  0.1511241E+00
         21   -1    0    0  501  502  0.00000000000E+00  0.00000000000E+00  0.52140157899E+02  0.52140157899E+02  0.00000000000E+00 0. -1.
         21   -1    0    0  502  503 -0.00000000000E+00 -0.00000000000E+00 -0.97577682788E+01  0.97577682788E+01  0.00000000000E+00 0.  1.
          2    1    1    2  501    0 -0.16763986418E+02  0.13577824630E+02  0.12153772964E+02  0.24760911929E+02  0.00000000000E+00 0.  1.
         -2    1    1    2    0  503  0.16763986418E+02 -0.13577824630E+02  0.30228616657E+02  0.37137014249E+02  0.00000000000E+00 0. -1.
</event>
<event>
 4    1  0.1772365E+004  0.2113934E+02  0.7546771E-02  0.1517285E+00
         21   -1    0    0  501  502  0.00000000000E+00  0.00000000000E+00  0.36969371928E+02  0.36969371928E+02  0.00000000000E+00 0. -1.
         21   -1    0    0  502  503 -0.00000000000E+00 -0.00000000000E+00 -0.17143329542E+02  0.17143329542E+02  0.00000000000E+00 0.  1.
          2    1    1    2  501    0  0.11499969878E+02  0.17737595007E+02  0.24606101373E+02  0.32439664126E+02  0.00000000000E+00 0. -1.
         -2    1    1    2    0  503 -0.11499969878E+02 -0.17737595007E+02 -0.47800589868E+01  0.21673037345E+02  0.00000000000E+00 0.  1.
</event>
<event>
 4    1  0.1772365E+004  0.2750395E+02  0.7546771E-02  0.1442610E+00
         21   -1    0    0  503  502  0.00000000000E+00  0.00000000000E+00  0.12841887827E+02  0.12841887827E+02  0.00000000000E+00 0.  1.
         21   -1    0    0  501  503 -0.00000000000E+00 -0.00000000000E+00 -0.30171209394E+03  0.30171209394E+03  0.00000000000E+00 0. -1.
          2    1    1    2  501    0  0.23044673698E+02  0.15013665892E+02 -0.28552581368E+03  0.28684744626E+03  0.00000000000E+00 0. -1.
         -2    1    1    2    0  502 -0.23044673698E+02 -0.15013665892E+02 -0.33443924410E+01  0.27706535514E+02  0.00000000000E+00 0.  1.
</event>
<event>
 4    1  0.1772365E+004  0.3097531E+02  0.7546771E-02  0.1411306E+00
         21   -1    0    0  503  502  0.00000000000E+00  0.00000000000E+00  0.28725848804E+03  0.28725848804E+03  0.00000000000E+00 0. -1.
         21   -1    0    0  501  503 -0.00000000000E+00 -0.00000000000E+00 -0.10632751332E+02  0.10632751332E+02  0.00000000000E+00 0.  1.
          2    1    1    2  501    0  0.25439200508E+02  0.17672492530E+02  0.14960396668E+02  0.34398886365E+02  0.00000000000E+00 0.  1.
         -2    1    1    2    0  502 -0.25439200508E+02 -0.17672492530E+02  0.26166534004E+03  0.26349235300E+03  0.00000000000E+00 0. -1.
</event>
<event>
 4    1  0.1772365E+004  0.2512586E+02  0.7546771E-02  0.1467400E+00
         21   -1    0    0  503  502  0.00000000000E+00  0.00000000000E+00  0.19667734418E+03  0.19667734418E+03  0.00000000000E+00 0.  1.
         21   -1    0    0  501  503 -0.00000000000E+00 -0.00000000000E+00 -0.10155988679E+02  0.10155988679E+02  0.00000000000E+00 0. -1.
          2    1    1    2  501    0  0.99407310852E+01  0.23075761656E+02  0.77342175556E+01  0.26289295002E+02  0.00000000000E+00 0. -1.
         -2    1    1    2    0  502 -0.99407310852E+01 -0.23075761656E+02  0.17878713794E+03  0.18054403785E+03  0.00000000000E+00 0.  1.
</event>
<event>
 4    1  0.1772365E+004  0.2564241E+02  0.7546771E-02  0.1461744E+00
         21   -1    0    0  501  502  0.00000000000E+00  0.00000000000E+00  0.45233396431E+02  0.45233396431E+02  0.00000000000E+00 0.  1.
         21   -1    0    0  502  503 -0.00000000000E+00 -0.00000000000E+00 -0.43544826211E+02  0.43544826211E+02  0.00000000000E+00 0. -1.
          2    1    1    2  501    0  0.27467445094E+01 -0.25494870267E+02  0.37074413879E+02  0.45078211808E+02  0.00000000000E+00 0.  1.
         -2    1    1    2    0  503 -0.27467445094E+01  0.25494870267E+02 -0.35385843660E+02  0.43700010834E+02  0.00000000000E+00 0. -1.
</event>
<event>
 4    1  0.1772365E+004  0.3830645E+02  0.7546771E-02  0.1358706E+00
         21   -1    0    0  503  502  0.00000000000E+00  0.00000000000E+00  0.40522245724E+02  0.40522245724E+02  0.00000000000E+00 0. -1.
         21   -1    0    0  501  503 -0.00000000000E+00 -0.00000000000E+00 -0.74161861652E+02  0.74161861652E+02  0.00000000000E+00 0.  1.
          2    1    1    2  501    0  0.29650007089E+02  0.24254098652E+02 -0.57839185566E+02  0.69374026903E+02  0.00000000000E+00 0.  1.
         -2    1    1    2    0  502 -0.29650007089E+02 -0.24254098652E+02  0.24199569638E+02  0.45310080473E+02  0.00000000000E+00 0. -1.
</event>
<event>
 4    1  0.1772365E+004  0.5979492E+02  0.7546771E-02  0.1260531E+00
         21   -1    0    0  503  502  0.00000000000E+00  0.00000000000E+00  0.85579887919E+01  0.85579887919E+01  0.00000000000E+00 0.  1.
         21   -1    0    0  501  503 -0.00000000000E+00 -0.00000000000E+00 -0.44761273708E+03  0.44761273708E+03  0.00000000000E+00 0. -1.
          2    1    1    2  501    0 -0.58230534246E+02 -0.13588150049E+02 -0.16065280084E+03  0.17141982196E+03  0.00000000000E+00 0.  1.
         -2    1    1    2    0  502  0.58230534246E+02  0.13588150049E+02 -0.27840194744E+03  0.28475090391E+03  0.00000000000E+00 0. -1.
</event>
<event>
 4    1  0.1772365E+004  0.3441492E+02  0.7546771E-02  0.1384724E+00
         21   -1    0    0  501  502  0.00000000000E+00  0.00000000000E+00  0.11288230684E+03  0.11288230684E+03  0.00000000000E+00 0. -1.
         21   -1    0    0  502  503 -0.00000000000E+00 -0.00000000000E+00 -0.12626487788E+02  0.12626487788E+02  0.00000000000E+00 0.  1.
          2    1    1    2  501    0 -0.34136781686E+02  0.43665222423E+01  0.75928342317E+02  0.83363658433E+02  0.00000000000E+00 0. -1.
         -2    1    1    2    0  503  0.34136781686E+02 -0.43665222423E+01  0.24327476731E+02  0.42145136190E+02  0.00000000000E+00 0.  1.
</event>
<event>
 4    1  0.1772365E+004  0.2280513E+02  0.7546771E-02  0.1494960E+00
         21   -1    0    0  503  502  0.00000000000E+00  0.00000000000E+00  0.12101560547E+03  0.12101560547E+03  0.00000000000E+00 0. -1.
         21   -1    0    0  501  503 -0.00000000000E+00 -0.00000000000E+00 -0.53521926617E+01  0.53521926617E+01  0.00000000000E+00 0.  1.
          2    1    1    2  501    0  0.19327144695E+02  0.12105184095E+02  0.29784639186E+02  0.37512647674E+02  0.00000000000E+00 0.  1.
         -2    1    1    2    0  502 -0.19327144695E+02 -0.12105184095E+02  0.85878773620E+02  0.88855150456E+02  0.00000000000E+00 0. -1.
</event>
<event>
 4    1  0.1772365E+004  0.3049489E+02  0.7546771E-02  0.1415344E+00
         21   -1    0    0  501  502  0.00000000000E+00  0.00000000000E+00  0.56840430625E+01  0.56840430625E+01  0.00000000000E+00 0.  1.
         21   -1    0    0  502  503 -0.00000000000E+00 -0.00000000000E+00 -0.37862367131E+03  0.37862367131E+03  0.00000000000E+00 0. -1.
          2    1    1    2  501    0 -0.13170862724E+01  0.30466432251E+02 -0.41664916429E+02  0.51632387814E+02  0.00000000000E+00 0.  1.
         -2    1    1    2    0  503  0.13170862724E+01 -0.30466432251E+02 -0.33127471182E+03  0.33267532656E+03  0.00000000000E+00 0. -1.
</event>
<event>
 4    1  0.1772365E+004  0.2108423E+02  0.7546771E-02  0.1518066E+00
         21   -1    0    0  501  502  0.00000000000E+00  0.00000000000E+00  0.29333423080E+02  0.29333423080E+02  0.00000000000E+00 0. -1.
         21   -1    0    0  502  503 -0.00000000000E+00 -0.00000000000E+00 -0.33142204024E+02  0.33142204024E+02  0.00000000000E+00 0.  1.
          2    1    1    2  501    0  0.18895488082E+02  0.93544252030E+01  0.21108603194E+02  0.29834843213E+02  0.00000000000E+00 0. -1.
         -2    1    1    2    0  503 -0.18895488082E+02 -0.93544252030E+01 -0.24917384138E+02  0.32640783891E+02  0.00000000000E+00 0.  1.
</event>
<event>
 4    1  0.1772365E+004  0.2204977E+02  0.7546771E-02  0.1504788E+00
         21   -1    0    0  503  502  0.00000000000E+00  0.00000000000E+00  0.44103704598E+01  0.44103704598E+01  0.00000000000E+00 0. -1.
         21   -1    0    0  501  503 -0.00000000000E+00 -0.00000000000E+00 -0.21782563851E+03  0.21782563851E+03  0.00000000000E+00 0.  1.
          2    1    1    2  501    0 -0.19317488728E+01  0.21964986444E+02 -0.18480030372E+03  0.18611110805E+03  0.00000000000E+00 0.  1.
         -2    1    1    2    0  502  0.19317488728E+01 -0.21964986444E+02 -0.28614964334E+02  0.36124900928E+02  0.00000000000E+00 0. -1.
</event>
<event>
 4    1  0.1772365E+004  0.2877768E+02  0.7546771E-02  0.1430524E+00
         21   -1    0    0  503  502  0.00000000000E+00  0.00000000000E+00  0.27458286232E+03  0.27458286232E+03  0.00000000000E+00 0.  1.
         21   -1    0    0  501  503 -0.00000000000E+00 -0.00000000000E+00 -0.36968489006E+01  0.36968489006E+01  0.00000000000E+00 0. -1.
          2    1    1    2  501    0  0.63870326945E+00  0.28770587677E+02  0.75733117548E+02  0.81016416551E+02  0.00000000000E+00 0. -1.
         -2    1    1    2    0  502 -0.63870326945E+00 -0.28770587677E+02  0.19515289587E+03  0.19726329467E+03  0.00000000000E+00 0.  1.
</event>
<event>
 4    1  0.1772365E+004  0.2226476E+02  0.7546771E-02  0.1501943E+00
         21   -1    0    0  503  502  0.00000000000E+00  0.00000000000E+00  0.50634479552E+02  0.50634479552E+02  0.00000000000E+00 0. -1.
         21   -1    0    0  501  503 -0.00000000000E+00 -0.00000000000E+00 -0.10212221767E+02  0.10212221767E+02  0.00000000000E+00 0.  1.
          2    1    1    2  501    0  0.21341482025E+02 -0.63451200197E+01  0.14026160224E+02  0.26314493605E+02  0.00000000000E+00 0. -1.
         -2    1    1    2    0  502 -0.21341482025E+02  0.63451200197E+01  0.26396097562E+02  0.34532207714E+02  0.00000000000E+00 0.  1.
</event>
<event>
 4    1  0.1772365E+004  0.3736868E+02  0.7546771E-02  0.1364636E+00
         21   -1    0    0  503  502  0.00000000000E+00  0.00000000000E+00  0.27755310650E+02  0.27755310650E+02  0.00000000000E+00 0.  1.
         21   -1    0    0  501  503 -0.00000000000E+00 -0.00000000000E+00 -0.16106630641E+03  0.16106630641E+03  0.00000000000E+00 0. -1.
          2    1    1    2  501    0  0.28775460697E+02  0.23840958918E+02 -0.14494439109E+03  0.14968398367E+03  0.00000000000E+00 0. -1.
         -2    1    1    2    0  502 -0.28775460697E+02 -0.23840958918E+02  0.11633395325E+02  0.39137633389E+02  0.00000000000E+00 0.  1.
</event>
<event>
 4    1  0.1772365E+004  0.8692477E+02  0.7546771E-02  0.1188624E+00
         21   -1    0    0  503  502  0.00000000000E+00  0.00000000000E+00  0.98995201325E+02  0.98995201325E+02  0.00000000000E+00 0. -1.
         21   -1    0    0  501  503 -0.00000000000E+00 -0.00000000000E+00 -0.79279346680E+02  0.79279346680E+02  0.00000000000E+00 0.  1.
          2    1    1    2  501    0 -0.12778267798E+02  0.85980416697E+02 -0.73461053285E+01  0.87234634445E+02  0.00000000000E+00 0.  1.
         -2    1    1    2    0  502  0.12778267798E+02 -0.85980416697E+02  0.27061959974E+02  0.91039913559E+02  0.00000000000E+00 0. -1.
</event>
<event>
 4    1  0.1772365E+004  0.2259378E+02  0.7546771E-02  0.1497663E+00
         21   -1    0    0  501  502  0.00000000000E+00  0.00000000000E+00  0.17164794494E+03  0.17164794494E+03  0.00000000000E+00 0.  1.
         21   -1    0    0  502  503 -0.00000000000E+00 -0.00000000000E+00 -0.98372092926E+01  0.98372092926E+01  0.00000000000E+00 0. -1.
          2    1    1    2  501    0  0.48823207268E+01  0.22059955617E+02  0.15670013045E+03  0.15832059115E+03  0.00000000000E+00 0.  1.
         -2    1    1    2    0  503 -0.48823207268E+01 -0.22059955617E+02  0.51106051962E+01  0.23164563086E+02  0.00000000000E+00 0. -1.
</event>
<event>
 4    1  0.1772365E+004  0.2152211E+02  0.7546771E-02  0.1511939E+00
         21   -1    0    0  501  502  0.00000000000E+00  0.00000000000E+00  0.70064634551E+01  0.70064634551E+01  0.00000000000E+00 0.  1.
         21   -1    0    0  502  503 -0.00000000000E+00 -0.00000000000E+00 -0.94496368195E+02  0.94496368195E+02  0.00000000000E+00 0. -1.
          2    1    1    2  501    0 -0.20821442497E+02  0.54468944571E+01 -0.15929166135E+02  0.26775725212E+02  0.00000000000E+00 0.  1.
         -2    1    1    2    0  503  0.20821442497E+02 -0.54468944571E+01 -0.71560738605E+02  0.74727106438E+02  0.00000000000E+00 0. -1.
</event>
<event>
 4    1  0.1772365E+004  0.2216819E+02  0.7546771E-02  0.1503216E+00
         21   -1    0    0  501  502  0.00000000000E+00  0.00000000000E+00  0.30184041789E+03  0.30184041789E+03  0.00000000000E+00 0.  1.
         21   -1    0    0  502  503 -0.00000000000E+00 -0.00000000000E+00 -0.16627863668E+01  0.16627863668E+01  0.00000000000E+00 0. -1.
          2    1    1    2  501    0 -0.14853503708E+02  0.16456071107E+02  0.17200391019E+03  0.17342656651E+03  0.00000000000E+00 0.  1.
         -2    1    1    2    0  503  0.14853503708E+02 -0.16456071107E+02  0.12817372133E+03  0.13007663775E+03  0.00000000000E+00 0. -1.
</event>
<event>
 4    1  0.1772365E+004  0.2093604E+02  0.7546771E-02  0.1520180E+00
         21   -1    0    0  503  502  0.00000000000E+00  0.00000000000E+00  0.88758133457E+01  0.88758133457E+01  0.00000000000E+00 0. -1.
         21   -1    0    0  501  503 -0.00000000000E+00 -0.00000000000E+00 -0.18293900478E+03  0.18293900478E+03  0.00000000000E+00 0.  1.
          2    1    1    2  501    0 -0.16355148680E+02 -0.13070082159E+02 -0.16897802687E+03  0.17027005462E+03  0.00000000000E+00 0.  1.
         -2    1    1    2    0  502  0.16355148680E+02  0.13070082159E+02 -0.50851645697E+01  0.21544763509E+02  0.00000000000E+00 0. -1.
</event>
<event>
 4    1  0.1772365E+004  0.2136752E+02  0.7546771E-02  0.1514082E+00
         21   -1    0    0  501  502  0.00000000000E+00  0.00000000000E+00  0.16032574434E+02  0.16032574434E+02  0.00000000000E+00 0.  1.
         21   -1    0    0  502  503 -0.00000000000E+00 -0.00000000000E+00 -0.58460173962E+02  0.58460173962E+02  0.00000000000E+00 0. -1.
          2    1    1    2  501    0  0.16370242652E+02 -0.13732671220E+02  0.54601645811E+01  0.22054126611E+02  0.00000000000E+00 0.  1.
         -2    1    1    2    0  503 -0.16370242652E+02  0.13732671220E+02 -0.47887764109E+02  0.52438621785E+02  0.00000000000E+00 0. -1.
</event>
<event>
 4    1  0.1772365E+004  0.2485412E+02  0.7546771E-02  0.1470442E+00
         21   -1    0    0  501  502  0.00000000000E+00  0.00000000000E+00  0.38777534350E+01  0.38777534350E+01  0.00000000000E+00 0. -1.
         21   -1    0    0  502  503 -0.00000000000E+00 -0.00000000000E+00 -0.29090206456E+03  0.29090206456E+03  0.00000000000E+00 0.  1.
          2    1    1    2  501    0 -0.14849225542E+02 -0.19930571025E+02 -0.44377555612E+02  0.50863489879E+02  0.00000000000E+00 0. -1.
         -2    1    1    2    0  503  0.14849225542E+02  0.19930571025E+02 -0.24264675552E+03  0.24391632812E+03  0.00000000000E+00 0.  1.
</event>
<event>
 4    1  0.1772365E+004  0.2209824E+02  0.7546771E-02  0.1504143E+00
         21   -1    0    0  503  502  0.00000000000E+00  0.00000000000E+00  0.19537174828E+02  0.19537174828E+02  0.00000000000E+00 0.  1.
         21   -1    0    0  501  503 -0.00000000000E+00 -0.00000000000E+00 -0.43062654200E+02  0.43062654200E+02  0.00000000000E+00 0. -1.
          2    1    1    2  501    0 -0.38377319742E+00 -0.22094906648E+02 -0.32036921348E+02  0.38919102136E+02  0.00000000000E+00 0. -1.
         -2    1    1    2    0  502  0.38377319742E+00  0.22094906648E+02  0.85114419759E+01  0.23680726892E+02  0.00000000000E+00 0.  1.
</event>
<event>
 4    1  0.1772365E+004  0.2057931E+02  0.7546771E-02  0.1525357E+00
         21   -1    0    0  503  502  0.00000000000E+00  0.00000000000E+00  0.32898468735E+03  0.32898468735E+03  0.00000000000E+00 0. -1.
         21   -1    0    0  501  503 -0.00000000000E+00 -0.00000000000E+00 -0.10794180464E+02  0.10794180464E+02  0.00000000000E+00 0.  1.
          2    1    1    2  501    0 -0.81176122235E+01 -0.18910640160E+02 -0.34212152024E+00  0.20582152138E+02  0.00000000000E+00 0.  1.
         -2    1    1    2    0  502  0.81176122235E+01  0.18910640160E+02  0.31853262840E+03  0.31919671567E+03  0.00000000000E+00 0. -1.
</event>
<event>
 4    1  0.1772365E+004  0.2113407E+02  0.7546771E-02  0.1517359E+00
         21   -1    0    0  503  502  0.00000000000E+00  0.00000000000E+00  0.93095858920E+00  0.93095858920E+00  0.00000000000E+00 0.  1.
         21   -1    0    0  501  503 -0.00000000000E+00 -0.00000000000E+00 -0.67213061389E+03  0.67213061389E+03  0.00000000000E+00 0. -1.
          2    1    1    2  501    0  0.16725360945E+02  0.12919410284E+02 -0.51563301598E+03  0.51606594155E+03  0.00000000000E+00 0. -1.
         -2    1    1    2    0  502 -0.16725360945E+02 -0.12919410284E+02 -0.15556663932E+03  0.15699563092E+03  0.00000000000E+00 0.  1.
</event>
<event>
 4    1  0.1772365E+004  0.3165805E+02  0.7546771E-02  0.1405715E+00
         21   -1    0    0  501  502  0.00000000000E+00  0.00000000000E+00  0.44491911190E+01  0.44491911190E+01  0.00000000000E+00 0. -1.
         21   -1    0    0  502  503 -0.00000000000E+00 -0.00000000000E+00 -0.32662167348E+03  0.32662167348E+03  0.00000000000E+00 0.  1.
          2    1    1    2  501    0  0.27080880306E+01  0.31542009288E+02 -0.68871184201E+02  0.75798892498E+02  0.00000000000E+00 0. -1.
         -2    1    1    2    0  503 -0.27080880306E+01 -0.31542009288E+02 -0.25330129816E+03  0.25527197210E+03  0.00000000000E+00 0.  1.
</event>
<event>
 4    1  0.1772365E+004  0.2711903E+02  0.7546771E-02  0.1446416E+00
         21   -1    0    0  503  502  0.00000000000E+00  0.00000000000E+00  0.10411889354E+01  0.10411889354E+01  0.00000000000E+00 0.  1.
         21   -1    0    0  501  503 -0.00000000000E+00 -0.00000000000E+00 -0.74472298546E+03  0.74472298546E+03  0.00000000000E+00 0. -1.
          2    1    1    2  501    0 -0.10785246830E+02 -0.24882127794E+02 -0.28719661095E+03  0.28847414992E+03  0.00000000000E+00 0. -1.
         -2    1    1    2    0  502  0.10785246830E+02  0.24882127794E+02 -0.45648518557E+03  0.45729002447E+03  0.00000000000E+00 0.  1.
</event>
<event>
 4    1  0.1772365E+004  0.2272382E+02  0.7546771E-02  0.1495996E+00
         21   -1    0    0  503  502  0.00000000000E+00  0.00000000000E+00  0.25039416852E+02  0.25039416852E+02  0.00000000000E+00 0.  1.
         21   -1    0    0  501  503 -0.00000000000E+00 -0.00000000000E+00 -0.21515284065E+02  0.21515284065E+02  0.00000000000E+00 0. -1.
          2    1    1    2  501    0  0.20023650439E+02  0.10743615583E+02  0.65041304999E+01  0.23636318797E+02  0.00000000000E+00 0.  1.
         -2    1    1    2    0  502 -0.20023650439E+02 -0.10743615583E+02 -0.29799977129E+01  0.22918382121E+02  0.00000000000E+00 0. -1.
</event>
<event>
 4    1  0.1772365E+004  0.3833290E+02  0.7546771E-02  0.1358542E+00
         21   -1    0    0  501  502  0.00000000000E+00  0.00000000000E+00  0.13113751404E+03  0.13113751404E+03  0.00000000000E+00 0.  1.
         21   -1    0    0  502  503 -0.00000000000E+00 -0.00000000000E+00 -0.25280784351E+02  0.25280784351E+02  0.00000000000E+00 0. -1.
          2    1    1    2  501    0  0.76979576313E+01  0.37551994939E+02  0.11128588429E+03  0.11770284159E+03  0.00000000000E+00 0.  1.
         -2    1    1    2    0  503 -0.76979576313E+01 -0.37551994939E+02 -0.54291546046E+01  0.38715456801E+02  0.00000000000E+00 0. -1.
</event>
<event>
 4    1  0.1772365E+004  0.2037375E+02  0.7546771E-02  0.1528397E+00
         21   -1    0    0  503  502  0.00000000000E+00  0.00000000000E+00  0.17849205813E+02  0.17849205813E+02  0.00000000000E+00 0. -1.
         21   -1    0    0  501  503 -0.00000000000E+00 -0.00000000000E+00 -0.54437820339E+02  0.54437820339E+02  0.00000000000E+00 0.  1.
          2    1    1    2  501    0 -0.13892727952E+02  0.14902414620E+02 -0.45649207280E+02  0.49989398643E+02  0.00000000000E+00 0. -1.
         -2    1    1    2    0  502  0.13892727952E+02 -0.14902414620E+02  0.90605927540E+01  0.22297627509E+02  0.00000000000E+00 0.  1.
</event>
<event>
 4    1  0.1772365E+004  0.2701287E+02  0.7546771E-02  0.1447479E+00
         21   -1    0    0  501  502  0.00000000000E+00  0.00000000000E+00  0.10249943108E+02  0.10249943108E+02  0.00000000000E+00 0.  1.
         21   -1    0    0  502  503 -0.00000000000E+00 -0.00000000000E+00 -0.30441548847E+03  0.30441548847E+03  0.00000000000E+00 0. -1.
          2    1    1    2  501    0 -0.26758924115E+02 -0.36952800431E+01 -0.93702223705E+01  0.28591890138E+02  0.00000000000E+00 0.  1.
         -2    1    1    2    0  503  0.26758924115E+02  0.36952800431E+01 -0.28479532300E+03  0.28607354144E+03  0.00000000000E+00 0. -1.
</event>
<event>
 4    1  0.1772365E+004  0.2506224E+02  0.7546771E-02  0.1468108E+00
         21   -1    0    0  501  502  0.00000000000E+00  0.00000000000E+00  0.35982878469E+01  0.35982878469E+01  0.00000000000E+00 0. -1.
         21   -1    0    0  502  503 -0.00000000000E+00 -0.00000000000E+00 -0.17516766985E+03  0.17516766985E+03  0.00000000000E+00 0.  1.
          2    1    1    2  501    0 -0.14214138906E+02  0.20641558796E+02 -0.91050970163E+02  0.94437253571E+02  0.00000000000E+00 0.  1.
         -2    1    1    2    0  503  0.14214138906E+02 -0.20641558796E+02 -0.80518411843E+02  0.84328704130E+02  0.00000000000E+00 0. -1.
</event>
<event>
 4    1  0.1772365E+004  0.2078292E+02  0.7546771E-02  0.1522387E+00
         21   -1    0    0  503  502  0.00000000000E+00  0.00000000000E+00  0.11333246713E+01  0.11333246713E+01  0.00000000000E+00 0.  1.
         21   -1    0    0  501  503 -0.00000000000E+00 -0.00000000000E+00 -0.40381415844E+03  0.40381415844E+03  0.00000000000E+00 0. -1.
          2    1    1    2  501    0 -0.39537343197E+01 -0.20403378374E+02 -0.15333846369E+03  0.15474047406E+03  0.00000000000E+00 0.  1.
         -2    1    1    2    0  502  0.39537343197E+01  0.20403378374E+02 -0.24934237007E+03  0.25020700905E+03  0.00000000000E+00 0. -1.
</event>
<event>
 4    1  0.1772365E+004  0.2053139E+02  0.7546771E-02  0.1526062E+00
         21   -1    0    0  503  502  0.00000000000E+00  0.00000000000E+00  0.22547346145E+02  0.22547346145E+02  0.00000000000E+00 0. -1.
         21   -1    0    0  501  503 -0.00000000000E+00 -0.00000000000E+00 -0.20592098782E+02  0.20592098782E+02  0.00000000000E+00 0.  1.
          2    1    1    2  501    0 -0.90922441557E+01  0.18408395135E+02 -0.55681599291E+01  0.21273042101E+02  0.00000000000E+00 0.  1.
         -2    1    1    2    0  502  0.90922441557E+01 -0.18408395135E+02  0.75234072920E+01  0.21866402825E+02  0.00000000000E+00 0. -1.
</event>
<event>
 4    1  0.1772365E+004  0.3213977E+02  0.7546771E-02  0.1401870E+00
         21   -1    0    0  501  502  0.00000000000E+00  0.00000000000E+00  0.15786423526E+03  0.15786423526E+03  0.00000000000E+00 0.  1.
         21   -1    0    0  502  503 -0.00000000000E+00 -0.00000000000E+00 -0.65441491604E+01  0.65441491604E+01  0.00000000000E+00 0. -1.
          2    1    1    2  501    0 -0.31483571674E+02  0.64614088977E+01  0.76553404739E+02  0.83026434751E+02  0.00000000000E+00 0. -1.
         -2    1    1    2    0  503  0.31483571674E+02 -0.64614088977E+01  0.74766681357E+02  0.81381949666E+02  0.00000000000E+00 0.  1.
</event>
<event>
 4    1  0.1772365E+004  0.2215687E+02  0.7546771E-02  0.1503366E+00
         21   -1    0    0  501  502  0.00000000000E+00  0.00000000000E+00  0.84634681658E+00  0.84634681658E+00  0.00000000000E+00 0.  1.
         21   -1    0    0  502  503 -0.00000000000E+00 -0.00000000000E+00 -0.58887166522E+03  0.58887166522E+03  0.00000000000E+00 0. -1.
          2    1    1    2  501    0  0.15196910255E+02 -0.16123922433E+02 -0.25793170836E+03  0.25888161993E+03  0.00000000000E+00 0. -1.
         -2    1    1    2    0  503 -0.15196910255E+02  0.16123922433E+02 -0.33009361004E+03  0.33083639211E+03  0.00000000000E+00 0.  1.
</event>
<event>
 4    1  0.1772365E+004  0.2032381E+02  0.7546771E-02  0.1529142E+00
         21   -1    0    0  503  502  0.00000000000E+00  0.00000000000E+00  0.92982626580E+00  0.92982626580E+00  0.00000000000E+00 0.  1.
         21   -1    0    0  501  503 -0.00000000000E+00 -0.00000000000E+00 -0.54548566897E+03  0.54548566897E+03  0.00000000000E+00 0. -1.
          2    1    1    2  501    0  0.40722013233E+01 -0.19911665295E+02 -0.38998696222E+03  0.39051618141E+03  0.00000000000E+00 0. -1.
         -2    1    1    2    0  502 -0.40722013233E+01  0.19911665295E+02 -0.15456888049E+03  0.15589931383E+03  0.00000000000E+00 0.  1.
</event>
<event>
 4    1  0.1772365E+004  0.2226776E+02  0.7546771E-02  0.1501903E+00
         21   -1    0    0  503  502  0.00000000000E+00  0.00000000000E+00  0.62269481570E+01  0.62269481570E+01  0.00000000000E+00 0.  1.
         21   -1    0    0  501  503 -0.00000000000E+00 -0.00000000000E+00 -0.20301537010E+03  0.20301537010E+03  0.00000000000E+00 0. -1.
          2    1    1    2  501    0  0.21537228966E+02 -0.56569343463E+01 -0.17995596311E+03  0.18132843626E+03  0.00000000000E+00 0. -1.
         -2    1    1    2    0  502 -0.21537228966E+02  0.56569343463E+01 -0.16832458831E+02  0.27913881994E+02  0.00000000000E+00 0.  1.
</event>
<event>
 4    1  0.1772365E+004  0.5063094E+02  0.7546771E-02  0.1295460E+00
         21   -1    0    0  503  502  0.00000000000E+00  0.00000000000E+00  0.16733426936E+02  0.16733426936E+02  0.00000000000E+00 0. -1.
         21   -1    0    0  501  503 -0.00000000000E+00 -0.00000000000E+00 -0.15482138951E+03  0.15482138951E+03  0.00000000000E+00 0.  1.
          2    1    1    2  501    0 -0.38803289083E+02 -0.32523795002E+02 -0.77833171078E+02  0.92852005929E+02  0.00000000000E+00 0.  1.
         -2    1    1    2    0  502  0.38803289083E+02  0.32523795002E+02 -0.60254791492E+02  0.78702810514E+02  0.00000000000E+00 0. -1.
</event>
<event>
 4    1  0.1772365E+004  0.2044446E+02  0.7546771E-02  0.1527346E+00
         21   -1    0    0  501  502  0.00000000000E+00  0.00000000000E+00  0.15813240360E+02  0.15813240360E+02  0.00000000000E+00 0.  1.
         21   -1    0    0  502  503 -0.00000000000E+00 -0.00000000000E+00 -0.50366672445E+02  0.50366672445E+02  0.00000000000E+00 0. -1.
          2    1    1    2  501    0 -0.17172390926E+02  0.11094357741E+02  0.55339615540E+01  0.21180191555E+02  0.00000000000E+00 0.  1.
         -2    1    1    2    0  503  0.17172390926E+02 -0.11094357741E+02 -0.40087393639E+02  0.44999721251E+02  0.00000000000E+00 0. -1.
</event>
<event>
 4    1  0.1772365E+004  0.2511614E+02  0.7546771E-02  0.1467508E+00
         21   -1    0    0  501  502  0.00000000000E+00  0.00000000000E+00  0.32495870228E+02  0.32495870228E+02  0.00000000000E+00 0.  1.
         21   -1    0    0  502  503 -0.00000000000E+00 -0.00000000000E+00 -0.38973606395E+02  0.38973606395E+02  0.00000000000E+00 0. -1.
          2    1    1    2  501    0 -0.21739066885E+02  0.12579085920E+02  0.22077648340E+02  0.33440140368E+02  0.00000000000E+00 0.  1.
         -2    1    1    2    0  503  0.21739066885E+02 -0.12579085920E+02 -0.28555384507E+02  0.38029336255E+02  0.00000000000E+00 0. -1.
</event>
<event>
 4    1  0.1772365E+004  0.3175722E+02  0.7546771E-02  0.1404917E+00
         21   -1    0    0  503  502  0.00000000000E+00  0.00000000000E+00  0.70829686374E+03  0.70829686374E+03  0.00000000000E+00 0. -1.
         21   -1    0    0  501  503 -0.00000000000E+00 -0.00000000000E+00 -0.14260215322E+01  0.14260215322E+01  0.00000000000E+00 0.  1.
          2    1    1    2  501    0  0.71630749406E+01 -0.30938832047E+02  0.36722685971E+03  0.36859745992E+03  0.00000000000E+00 0. -1.
         -2    1    1    2    0  502 -0.71630749406E+01  0.30938832047E+02  0.33964398250E+03  0.34112542535E+03  0.00000000000E+00 0.  1.
</event>
<event>
 4    1  0.1772365E+004  0.2104981E+02  0.7546771E-02  0.1518555E+00
         21   -1    0    0  501  502  0.00000000000E+00  0.00000000000E+00  0.41380419567E+02  0.41380419567E+02  0.00000000000E+00 0. -1.
         21   -1    0    0  502  503 -0.00000000000E+00 -0.00000000000E+00 -0.23753159264E+02  0.23753159264E+02  0.00000000000E+00 0.  1.
          2    1    1    2  501    0 -0.99240867861E+01  0.18563594377E+02  0.32948322293E+02  0.39098420386E+02  0.00000000000E+00 0. -1.
         -2    1    1    2    0  503  0.99240867861E+01 -0.18563594377E+02 -0.15321061990E+02  0.26035158445E+02  0.00000000000E+00 0.  1.
</event>
<event>
 4    1  0.1772365E+004  0.2738769E+02  0.7546771E-02  0.1443752E+00
         21   -1    0    0  501  502  0.00000000000E+00  0.00000000000E+00  0.12801306813E+03  0.12801306813E+03  0.00000000000E+00 0. -1.
         21   -1    0    0  502  503 -0.00000000000E+00 -0.00000000000E+00 -0.59347711440E+01  0.59347711440E+01  0.00000000000E+00 0.  1.
          2    1    1    2  501    0  0.26911848463E+02  0.50831065319E+01  0.68584439138E+02  0.73850598180E+02  0.00000000000E+00 0. -1.
         -2    1    1    2    0  503 -0.26911848463E+02 -0.50831065319E+01  0.53493857852E+02  0.60097241098E+02  0.00000000000E+00 0.  1.
</event>
<event>
 4    1  0.1772365E+004  0.2183850E+02  0.7546771E-02  0.1507622E+00
         21   -1    0    0  503  502  0.00000000000E+00  0.00000000000E+00  0.11656150203E+04  0.11656150203E+04  0.00000000000E+00 0. -1.
         21   -1    0    0  501  503 -0.00000000000E+00 -0.00000000000E+00 -0.20134431682E+01  0.20134431682E+01  0.00000000000E+00 0.  1.
          2    1    1    2  501    0 -0.20690496982E+02  0.69873719158E+01  0.60671055130E+02  0.64481756817E+02  0.00000000000E+00 0.  1.
         -2    1    1    2    0  502  0.20690496982E+02 -0.69873719158E+01  0.11029305220E+04  0.11031467067E+04  0.00000000000E+00 0. -1.
</event>
<event>
 4    1  0.1772365E+004  0.2220514E+02  0.7546771E-02  0.1502728E+00
         21   -1    0    0  501  502  0.00000000000E+00  0.00000000000E+00  0.63574732288E+03  0.63574732288E+03  0.00000000000E+00 0.  1.
         21   -1    0    0  502  503 -0.00000000000E+00 -0.00000000000E+00 -0.16071370311E+01  0.16071370311E+01  0.00000000000E+00 0. -1.
          2    1    1    2  501    0  0.18328373590E+02 -0.12535507745E+02  0.54630065539E+03  0.54675174834E+03  0.00000000000E+00 0.  1.
         -2    1    1    2    0  503 -0.18328373590E+02  0.12535507745E+02  0.87839530459E+02  0.90602711572E+02  0.00000000000E+00 0. -1.
</event>
<event>
 4    1  0.1772365E+004  0.2307737E+02  0.7546771E-02  0.1491529E+00
         21   -1    0    0  501  502  0.00000000000E+00  0.00000000000E+00  0.10991419944E+02  0.10991419944E+02  0.00000000000E+00 0.  1.
         21   -1    0    0  502  503 -0.00000000000E+00 -0.00000000000E+00 -0.69037616778E+02  0.69037616778E+02  0.00000000000E+00 0. -1.
          2    1    1    2  501    0 -0.14815882912E+02  0.17693351805E+02 -0.71732620195E+01  0.24166521731E+02  0.00000000000E+00 0.  1.
         -2    1    1    2    0  503  0.14815882912E+02 -0.17693351805E+02 -0.50872934814E+02  0.55862514991E+02  0.00000000000E+00 0. -1.
</event>
<event>
 4    1  0.1772365E+004  0.2427713E+02  0.7546771E-02  0.1477055E+00
         21   -1    0    0  503  502  0.00000000000E+00  0.00000000000E+00  0.18771562159E+02  0.18771562159E+02  0.00000000000E+00 0.  1.
         21   -1    0    0  501  503 -0.00000000000E+00 -0.00000000000E+00 -0.31898067662E+02  0.31898067662E+02  0.00000000000E+00 0. -1.
          2    1    1    2  501    0  0.12811383704E+02  0.20621531947E+02 -0.97371278683E+01  0.26157040952E+02  0.00000000000E+00 0. -1.
         -2    1    1    2    0  502 -0.12811383704E+02 -0.20621531947E+02 -0.33893776346E+01  0.24512588868E+02  0.00000000000E+00 0.  1.
</event>
<event>
 4    1  0.1772365E+004  0.2887821E+02  0.7546771E-02  0.1429602E+00
         21   -1    0    0  503  502  0.00000000000E+00  0.00000000000E+00  0.18309139639E+03  0.18309139639E+03  0.00000000000E+00 0. -1.
         21   -1    0    0  501  503 -0.00000000000E+00 -0.00000000000E+00 -0.82052251245E+01  0.82052251245E+01  0.00000000000E+00 0.  1.
          2    1    1    2  501    0 -0.10761315802E+02 -0.26798227547E+02  0.23645865755E+02  0.37323958589E+02  0.00000000000E+00 0.  1.
         -2    1    1    2    0  502  0.10761315802E+02  0.26798227547E+02  0.15124030551E+03  0.15397266292E+03  0.00000000000E+00 0. -1.
</event>
<event>
 4    1  0.1772365E+004  0.2154513E+02  0.7546771E-02  0.1511622E+00
         21   -1    0    0  503  502  0.00000000000E+00  0.00000000000E+00  0.45765409374E+03  0.45765409374E+03  0.00000000000E+00 0.  1.
         21   -1    0    0  501  503 -0.00000000000E+00 -0.00000000000E+00 -0.16074295914E+01  0.16074295914E+01  0.00000000000E+00 0. -1.
          2    1    1    2  501    0  0.98948132441E+01  0.19138578106E+02  0.88533124899E+02  0.91116994603E+02  0.00000000000E+00 0. -1.
         -2    1    1    2    0  502 -0.98948132441E+01 -0.19138578106E+02  0.36751353925E+03  0.36814452873E+03  0.00000000000E+00 0.  1.
</event>
<event>
 4    1  0.1772365E+004  0.2140252E+02  0.7546771E-02  0.1513595E+00
         21   -1    0    0  501  502  0.00000000000E+00  0.00000000000E+00  0.35767967450E+01  0.35767967450E+01  0.00000000000E+00 0.  1.
         21   -1    0    0  502  503 -0.00000000000E+00 -0.00000000000E+00 -0.20796901421E+03  0.20796901421E+03  0.00000000000E+00 0. -1.
          2    1    1    2  501    0  0.18895094265E+02  0.10052031998E+02 -0.36633644524E+02  0.42427489269E+02  0.00000000000E+00 0.  1.
         -2    1    1    2    0  503 -0.18895094265E+02 -0.10052031998E+02 -0.16775857294E+03  0.16911832169E+03  0.00000000000E+00 0. -1.
</event>
<event>
 4    1  0.1772365E+004  0.2256578E+02  0.7546771E-02  0.1498024E+00
         21   -1    0    0  503  502  0.00000000000E+00  0.00000000000E+00  0.88890331823E+01  0.88890331823E+01  0.00000000000E+00 0.  1.
         21   -1    0    0  501  503 -0.00000000000E+00 -0.00000000000E+00 -0.84578424134E+02  0.84578424134E+02  0.00000000000E+00 0. -1.
          2    1    1    2  501    0  0.22544198497E+02  0.98676797404E+00 -0.64392217118E+02  0.68231753769E+02  0.00000000000E+00 0. -1.
         -2    1    1    2    0  502 -0.22544198497E+02 -0.98676797404E+00 -0.11297173833E+02  0.25235703547E+02  0.00000000000E+00 0.  1.
</event>
<event>
 4    1  0.1772365E+004  0.3005076E+02  0.7546771E-02  0.1419156E+00
         21   -1    0    0  503  502  0.00000000000E+00  0.00000000000E+00  0.54026872127E+03  0.54026872127E+03  0.00000000000E+00 0. -1.
         21   -1    0    0  501  503 -0.00000000000E+00 -0.00000000000E+00 -0.33293895345E+01  0.33293895345E+01  0.00000000000E+00 0.  1.
          2    1    1    2  501    0  0.10046323755E+02  0.28321710257E+02  0.76670741878E+02  0.82349563162E+02  0.00000000000E+00 0.  1.
         -2    1    1    2    0  502 -0.10046323755E+02 -0.28321710257E+02  0.46026858986E+03  0.46124854764E+03  0.00000000000E+00 0. -1.
</event>
<event>
 4    1  0.1772365E+004  0.2344159E+02  0.7546771E-02  0.1487026E+00
         21   -1    0    0  503  502  0.00000000000E+00  0.00000000000E+00  0.24116347498E+02  0.24116347498E+02  0.00000000000E+00 0.  1.
         21   -1    0    0  501  503 -0.00000000000E+00 -0.00000000000E+00 -0.37883868640E+02  0.37883868640E+02  0.00000000000E+00 0. -1.
          2    1    1    2  501    0 -0.20136526704E+02  0.12001194235E+02  0.12686557207E+02  0.26654401223E+02  0.00000000000E+00 0.  1.
         -2    1    1    2    0  502  0.20136526704E+02 -0.12001194235E+02 -0.26454078348E+02  0.35345814916E+02  0.00000000000E+00 0. -1.
</event>
<event>
 4    1  0.1772365E+004  0.2172916E+02  0.7546771E-02  0.1509104E+00
         21   -1    0    0  501  502  0.00000000000E+00  0.00000000000E+00  0.32719209867E+03  0.32719209867E+03  0.00000000000E+00 0.  1.
         21   -1    0    0  502  503 -0.00000000000E+00 -0.00000000000E+00 -0.78709007296E+01  0.78709007296E+01  0.00000000000E+00 0. -1.
          2    1    1    2  501    0  0.21563936821E+02 -0.26745124642E+01  0.31105749148E+03  0.31181552141E+03  0.00000000000E+00 0.  1.
         -2    1    1    2    0  503 -0.21563936821E+02  0.26745124642E+01  0.82637064562E+01  0.23247477982E+02  0.00000000000E+00 0. -1.
</event>
<event>
 4    1  0.1772365E+004  0.4506812E+02  0.7546771E-02  0.1321099E+00
         21   -1    0    0  503  502  0.00000000000E+00  0.00000000000E+00  0.79533010506E+02  0.79533010506E+02  0.00000000000E+00 0.  1.
         21   -1    0    0  501  503 -0.00000000000E+00 -0.00000000000E+00 -0.25608651466E+02  0.25608651466E+02  0.00000000000E+00 0. -1.
          2    1    1    2  501    0 -0.34837872588E+01  0.44933269860E+02  0.24206174833E+02  0.51157349560E+02  0.00000000000E+00 0.  1.
         -2    1    1    2    0  502  0.34837872588E+01 -0.44933269860E+02  0.29718184207E+02  0.53984312411E+02  0.00000000000E+00 0. -1.
</event>
<event>
 4    1  0.1772365E+004  0.3709858E+02  0.7546771E-02  0.1366381E+00
         21   -1    0    0  503  502  0.00000000000E+00  0.00000000000E+00  0.23815247279E+03  0.23815247279E+03  0.00000000000E+00 0. -1.
         21   -1    0    0  501  503 -0.00000000000E+00 -0.00000000000E+00 -0.74969278825E+01  0.74969278825E+01  0.00000000000E+00 0.  1.
          2    1    1    2  501    0 -0.27122783011E+02  0.25311242140E+02  0.56533467538E+02  0.67619060100E+02  0.00000000000E+00 0. -1.
         -2    1    1    2    0  502  0.27122783011E+02 -0.25311242140E+02  0.17412207737E+03  0.17803034057E+03  0.00000000000E+00 0.  1.
</event>
<event>
 4    1  0.1772365E+004  0.2318100E+02  0.7546771E-02  0.1490238E+00
         21   -1    0    0  501  502  0.00000000000E+00  0.00000000000E+00  0.58021471997E+02  0.58021471997E+02  0.00000000000E+00 0. -1.
         21   -1    0    0  502  503 -0.00000000000E+00 -0.00000000000E+00 -0.10332186485E+02  0.10332186485E+02  0.00000000000E+00 0.  1.
          2    1    1    2  501    0 -0.22461279387E+02 -0.57314789980E+01  0.12842150623E+02  0.26500561425E+02  0.00000000000E+00 0.  1.
         -2    1    1    2    0  503  0.22461279387E+02  0.57314789980E+01  0.34847134890E+02  0.41853097057E+02  0.00000000000E+00 0. -1.
</event>
<event>
 4    1  0.1772365E+004  0.2490344E+02  0.7546771E-02  0.1469887E+00
         21   -1    0    0  501  502  0.00000000000E+00  0.00000000000E+00  0.14416970849E+03  0.14416970849E+03  0.00000000000E+00 0. -1.
         21   -1    0    0  502  503 -0.00000000000E+00 -0.00000000000E+00 -0.72235850914E+01  0.72235850914E+01  0.00000000000E+00 0.  1.
          2    1    1    2  501    0  0.24174158115E+02  0.59825883894E+01  0.11661554481E+03  0.11924498554E+03  0.00000000000E+00 0. -1.
         -2    1    1    2    0  503 -0.24174158115E+02 -0.59825883894E+01  0.20330578591E+02  0.32148308047E+02  0.00000000000E+00 0.  1.
</event>
<event>
 4    1  0.1772365E+004  0.2119987E+02  0.7546771E-02  0.1516430E+00
         21   -1    0    0  503  502  0.00000000000E+00  0.00000000000E+00  0.29407471554E+02  0.29407471554E+02  0.00000000000E+00 0. -1.
         21   -1    0    0  501  503 -0.00000000000E+00 -0.00000000000E+00 -0.15589551112E+02  0.15589551112E+02  0.00000000000E+00 0.  1.
          2    1    1    2  501    0 -0.68535397959E+01  0.20061494299E+02  0.37540700376E+01  0.21529691199E+02  0.00000000000E+00 0.  1.
         -2    1    1    2    0  502  0.68535397959E+01 -0.20061494299E+02  0.10063850404E+02  0.23467331467E+02  0.00000000000E+00 0. -1.
</event>
<event>
 4    1  0.1772365E+004  0.2246667E+02  0.7546771E-02  0.1499306E+00
         21   -1    0    0  501  502  0.00000000000E+00  0.00000000000E+00  0.45272379668E+02  0.45272379668E+02  0.00000000000E+00 0. -1.
         21   -1    0    0  502  503 -0.00000000000E+00 -0.00000000000E+00 -0.20996129200E+02  0.20996129200E+02  0.00000000000E+00 0.  1.
          2    1    1    2  501    0  0.21392853858E+02 -0.68627334254E+01  0.34829340355E+02  0.41446764118E+02  0.00000000000E+00 0. -1.
         -2    1    1    2    0  503 -0.21392853858E+02  0.68627334254E+01 -0.10553089887E+02  0.24821744750E+02  0.00000000000E+00 0.  1.
</event>
<event>
 4    1  0.1772365E+004  0.2380370E+02  0.7546771E-02  0.1482645E+00
         21   -1    0    0  501  502  0.00000000000E+00  0.00000000000E+00  0.28528718322E+02  0.28528718322E+02  0.00000000000E+00 0. -1.
         21   -1    0    0  502  503 -0.00000000000E+00 -0.00000000000E+00 -0.27047354754E+02  0.27047354754E+02  0.00000000000E+00 0.  1.
          2    1    1    2  501    0  0.21531864596E+01  0.23706114935E+02  0.15063950467E+02  0.28169818971E+02  0.00000000000E+00 0. -1.
         -2    1    1    2    0  503 -0.21531864596E+01 -0.23706114935E+02 -0.13582586899E+02  0.27406254105E+02  0.00000000000E+00 0.  1.
</event>
<event>
 4    1  0.1772365E+004  0.2787222E+02  0.7546771E-02  0.1439038E+00
         21   -1    0    0  501  502  0.00000000000E+00  0.00000000000E+00  0.11042136746E+02  0.11042136746E+02  0.00000000000E+00 0.  1.
         21   -1    0    0  502  503 -0.00000000000E+00 -0.00000000000E+00 -0.10257901774E+04  0.10257901774E+04  0.00000000000E+00 0. -1.
          2    1    1    2  501    0  0.15941865791E+02  0.22863014974E+02 -0.70514914843E+01  0.28750375142E+02  0.00000000000E+00 0.  1.
         -2    1    1    2    0  503 -0.15941865791E+02 -0.22863014974E+02 -0.10076965492E+04  0.10080819390E+04  0.00000000000E+00 0. -1.
</event>
<event>
 4    1  0.1772365E+004  0.2161709E+02  0.7546771E-02  0.1510634E+00
         21   -1    0    0  501  502  0.00000000000E+00  0.00000000000E+00  0.21914199443E+01  0.21914199443E+01  0.00000000000E+00 0.  1.
         21   -1    0    0  502  503 -0.00000000000E+00 -0.00000000000E+00 -0.21438333638E+03  0.21438333638E+03  0.00000000000E+00 0. -1.
          2    1    1    2  501    0 -0.15845342736E+02  0.14704548195E+02 -0.11400363591E+03  0.11603502757E+03  0.00000000000E+00 0. -1.
         -2    1    1    2    0  503  0.15845342736E+02 -0.14704548195E+02 -0.98188280530E+02  0.10053972875E+03  0.00000000000E+00 0.  1.
</event>
<event>
 4    1  0.1772365E+004  0.2583929E+02  0.7546771E-02  0.1459629E+00
         21   -1    0    0  503  502  0.00000000000E+00  0.00000000000E+00  0.40578053896E+02  0.40578053896E+02  0.00000000000E+00 0.  1.
         21   -1    0    0  501  503 -0.00000000000E+00 -0.00000000000E+00 -0.18423394543E+02  0.18423394543E+02  0.00000000000E+00 0. -1.
          2    1    1    2  501    0  0.25662032889E+02 -0.30214300779E+01  0.14319230831E+01  0.25878936907E+02  0.00000000000E+00 0. -1.
         -2    1    1    2    0  502 -0.25662032889E+02  0.30214300779E+01  0.20722736270E+02  0.33122511532E+02  0.00000000000E+00 0.  1.
</event>
<event>
 4    1  0.1772365E+004  0.2808901E+02  0.7546771E-02  0.1436965E+00
         21   -1    0    0  501  502  0.00000000000E+00  0.00000000000E+00  0.23738512449E+01  0.23738512449E+01  0.00000000000E+00 0.  1.
         21   -1    0    0  502  503 -0.00000000000E+00 -0.00000000000E+00 -0.85587742086E+03  0.85587742086E+03  0.00000000000E+00 0. -1.
          2    1    1    2  501    0 -0.25546840220E+02  0.11676962404E+02 -0.91137163578E+02  0.95367578774E+02  0.00000000000E+00 0.  1.
         -2    1    1    2    0  503  0.25546840220E+02 -0.11676962404E+02 -0.76236640604E+03  0.76288369333E+03  0.00000000000E+00 0. -1.
</event>
<event>
 4    1  0.1772365E+004  0.2083113E+02  0.7546771E-02  0.1521690E+00
         21   -1    0    0  503  502  0.00000000000E+00  0.00000000000E+00  0.15024364293E+02  0.15024364293E+02  0.00000000000E+00 0.  1.
         21   -1    0    0  501  503 -0.00000000000E+00 -0.00000000000E+00 -0.34450716607E+02  0.34450716607E+02  0.00000000000E+00 0. -1.
          2    1    1    2  501    0  0.19287166621E+02 -0.78702637888E+01 -0.19658738470E+02  0.28642657813E+02  0.00000000000E+00 0. -1.
         -2    1    1    2    0  502 -0.19287166621E+02  0.78702637888E+01  0.23238615616E+00  0.20832423087E+02  0.00000000000E+00 0.  1.
</event>
<event>
 4    1  0.1772365E+004  0.2085297E+02  0.7546771E-02  0.1521374E+00
         21   -1    0    0  503  502  0.00000000000E+00  0.00000000000E+00  0.26727559360E+01  0.26727559360E+01  0.00000000000E+00 0. -1.
         21   -1    0    0  501  503 -0.00000000000E+00 -0.00000000000E+00 -0.19957609677E+03  0.19957609677E+03  0.00000000000E+00 0.  1.
          2    1    1    2  501    0  0.10573540516E+02 -0.17973495155E+02 -0.14192258163E+03  0.14344638533E+03  0.00000000000E+00 0. -1.
         -2    1    1    2    0  502 -0.10573540516E+02  0.17973495155E+02 -0.54980759207E+02  0.58802467381E+02  0.00000000000E+00 0.  1.
</event>
<event>
 4    1  0.1772365E+004  0.4117936E+02  0.7546771E-02  0.1341710E+00
         21   -1    0    0  503  502  0.00000000000E+00  0.00000000000E+00  0.12798346461E+03  0.12798346461E+03  0.00000000000E+00 0. -1.
         21   -1    0    0  501  503 -0.00000000000E+00 -0.00000000000E+00 -0.81232890499E+02  0.81232890499E+02  0.00000000000E+00 0.  1.
          2    1    1    2  501    0  0.24026590137E+02  0.33443420788E+02 -0.72322199356E+02  0.83224034674E+02  0.00000000000E+00 0.  1.
         -2    1    1    2    0  502 -0.24026590137E+02 -0.33443420788E+02  0.11907277346E+03  0.12599232043E+03  0.00000000000E+00 0. -1.
</event>
<event>
 4    1  0.1772365E+004  0.3211498E+02  0.7546771E-02  0.1402066E+00
         21   -1    0    0  501  502  0.00000000000E+00  0.00000000000E+00  0.11245029917E+03  0.11245029917E+03  0.00000000000E+00 0. -1.
         21   -1    0    0  502  503 -0.00000000000E+00 -0.00000000000E+00 -0.12868890582E+02  0.12868890582E+02  0.00000000000E+00 0.  1.
          2    1    1    2  501    0 -0.25329583912E+02 -0.19742943673E+02  0.83375837745E+02  0.89347087058E+02  0.00000000000E+00 0. -1.
         -2    1    1    2    0  503  0.25329583912E+02  0.19742943673E+02  0.16205570845E+02  0.35972102697E+02  0.00000000000E+00 0.  1.
</event>
<event>
 4    1  0.1772365E+004  0.2173399E+02  0.7546771E-02  0.1509038E+00
         21   -1    0    0  503  502  0.00000000000E+00  0.00000000000E+00  0.19704269876E+01  0.19704269876E+01  0.00000000000E+00 0.  1.
         21   -1    0    0  501  503 -0.00000000000E+00 -0.00000000000E+00 -0.25579177995E+03  0.25579177995E+03  0.00000000000E+00 0. -1.
          2    1    1    2  501    0 -0.12801687993E+02 -0.17563683123E+02 -0.15920841864E+03  0.16068505452E+03  0.00000000000E+00 0. -1.
         -2    1    1    2    0  502  0.12801687993E+02  0.17563683123E+02 -0.94612934320E+02  0.97077152415E+02  0.00000000000E+00 0.  1.
</event>
<event>
 4    1  0.1772365E+004  0.2563078E+02  0.7546771E-02  0.1461869E+00
         21   -1    0    0  503  502  0.00000000000E+00  0.00000000000E+00  0.53657556770E+02  0.53657556770E+02  0.00000000000E+00 0.  1.
         21   -1    0    0  501  503 -0.00000000000E+00 -0.00000000000E+00 -0.22809334090E+02  0.22809334090E+02  0.00000000000E+00 0. -1.
          2    1    1    2  501    0 -0.21913321843E+02  0.13294478307E+02 -0.10598236841E+02  0.27735526888E+02  0.00000000000E+00 0. -1.
         -2    1    1    2    0  502  0.21913321843E+02 -0.13294478307E+02  0.41446459521E+02  0.48731363971E+02  0.00000000000E+00 0.  1.
</event>
<event>
 4    1  0.1772365E+004  0.2031826E+02  0.7546771E-02  0.1529225E+00
         21   -1    0    0  503  502  0.00000000000E+00  0.00000000000E+00  0.16108055161E+03  0.16108055161E+03  0.00000000000E+00 0. -1.
         21   -1    0    0  501  503 -0.00000000000E+00 -0.00000000000E+00 -0.26128915965E+01  0.26128915965E+01  0.00000000000E+00 0.  1.
          2    1    1    2  501    0 -0.20025212653E+02  0.34384135027E+01  0.67911651828E+02  0.70885994972E+02  0.00000000000E+00 0.  1.
         -2    1    1    2    0  502  0.20025212653E+02 -0.34384135027E+01  0.90556008187E+02  0.92807448236E+02  0.00000000000E+00 0. -1.
</event>
<event>
 4    1  0.1772365E+004  0.2193800E+02  0.7546771E-02  0.1506282E+00
         21   -1    0    0  501  502  0.00000000000E+00  0.00000000000E+00  0.93476837858E+01  0.93476837858E+01  0.00000000000E+00 0. -1.
         21   -1    0    0  502  503 -0.00000000000E+00 -0.00000000000E+00 -0.13429682549E+03  0.13429682549E+03  0.00000000000E+00 0.  1.
          2    1    1    2  501    0  0.18678840751E+02 -0.11505500358E+02 -0.60758183018E+01  0.22763813352E+02  0.00000000000E+00 0. -1.
         -2    1    1    2    0  503 -0.18678840751E+02  0.11505500358E+02 -0.11887332340E+03  0.12088069593E+03  0.00000000000E+00 0.  1.
</event>
<event>
 4    1  0.1772365E+004  0.2356187E+02  0.7546771E-02  0.1485561E+00
         21   -1    0    0  501  502  0.00000000000E+00  0.00000000000E+00  0.91397458668E+02  0.91397458668E+02  0.00000000000E+00 0. -1.
         21   -1    0    0  502  503 -0.00000000000E+00 -0.00000000000E+00 -0.15404194242E+02  0.15404194242E+02  0.00000000000E+00 0.  1.
          2    1    1    2  501    0  0.23194826731E+02  0.41426543699E+01  0.79556141744E+02  0.82971930564E+02  0.00000000000E+00 0. -1.
         -2    1    1    2    0  503 -0.23194826731E+02 -0.41426543699E+01 -0.35628773173E+01  0.23829722346E+02  0.00000000000E+00 0.  1.
</event>
<event>
 4    1  0.1772365E+004  0.3007833E+02  0.7546771E-02  0.1418917E+00
         21   -1    0    0  501  502  0.00000000000E+00  0.00000000000E+00  0.22767940930E+01  0.22767940930E+01  0.00000000000E+00 0. -1.
         21   -1    0    0  502  503 -0.00000000000E+00 -0.00000000000E+00 -0.94744273307E+03  0.94744273307E+03  0.00000000000E+00 0.  1.
          2    1    1    2  501    0  0.14729392075E+02  0.26225009353E+02 -0.11075425307E+03  0.11476589511E+03  0.00000000000E+00 0. -1.
         -2    1    1    2    0  503 -0.14729392075E+02 -0.26225009353E+02 -0.83441168590E+03  0.83495363205E+03  0.00000000000E+00 0.  1.
</event>
<event>
 4    1  0.1772365E+004  0.2289326E+02  0.7546771E-02  0.1493843E+00
         21   -1    0    0  503  502  0.00000000000E+00  0.00000000000E+00  0.89048216874E+01  0.89048216874E+01  0.00000000000E+00 0. -1.
         21   -1    0    0  501  503 -0.00000000000E+00 -0.00000000000E+00 -0.59603933277E+02  0.59603933277E+02  0.00000000000E+00 0.  1.
          2    1    1    2  501    0 -0.78374544882E+00 -0.22879836926E+02 -0.29187002350E+02  0.37094235413E+02  0.00000000000E+00 0. -1.
         -2    1    1    2    0  502  0.78374544882E+00  0.22879836926E+02 -0.21512109239E+02  0.31414519551E+02  0.00000000000E+00 0.  1.
</event>
<event>
 4    1  0.1772365E+004  0.2047505E+02  0.7546771E-02  0.1526893E+00
         21   -1    0    0  503  502  0.00000000000E+00  0.00000000000E+00  0.28704897122E+02  0.28704897122E+02  0.00000000000E+00 0.  1.
         21   -1    0    0  501  503 -0.00000000000E+00 -0.00000000000E+00 -0.25354910395E+02  0.25354910395E+02  0.00000000000E+00 0. -1.
          2    1    1    2  501    0  0.20417064751E+02 -0.15397910218E+01 -0.15925351699E+02  0.25939242783E+02  0.00000000000E+00 0. -1.
         -2    1    1    2    0  502 -0.20417064751E+02  0.15397910218E+01  0.19275338426E+02  0.28120564733E+02  0.00000000000E+00 0.  1.
</event>
<event>
 4    1  0.1772365E+004  0.2189158E+02  0.7546771E-02  0.1506906E+00
         21   -1    0    0  501  502  0.00000000000E+00  0.00000000000E+00  0.17594344428E+03  0.17594344428E+03  0.00000000000E+00 0. -1.
         21   -1    0    0  502  503 -0.00000000000E+00 -0.00000000000E+00 -0.83725736169E+01  0.83725736169E+01  0.00000000000E+00 0.  1.
          2    1    1    2  501    0 -0.91198721212E+01 -0.19901487666E+02  0.15948253769E+03  0.16097801436E+03  0.00000000000E+00 0. -1.
         -2    1    1    2    0  503  0.91198721212E+01  0.19901487666E+02  0.80883329723E+01  0.23338003537E+02  0.00000000000E+00 0.  1.
</event>
<event>
 4    1  0.1772365E+004  0.3248279E+02  0.7546771E-02  0.1399180E+00
         21   -1    0    0  503  502  0.00000000000E+00  0.00000000000E+00  0.28248025984E+03  0.28248025984E+03  0.00000000000E+00 0. -1.
         21   -1    0    0  501  503 -0.00000000000E+00 -0.00000000000E+00 -0.50080942383E+01  0.50080942383E+01  0.00000000000E+00 0.  1.
          2    1    1    2  501    0 -0.21967244888E+02  0.23928475116E+02  0.66268591325E+02  0.73801476716E+02  0.00000000000E+00 0.  1.
         -2    1    1    2    0  502  0.21967244888E+02 -0.23928475116E+02  0.21120357428E+03  0.21368687737E+03  0.00000000000E+00 0. -1.
</event>
<event>
 4    1  0.1772365E+004  0.2049547E+02  0.7546771E-02  0.1526592E+00
         21   -1    0    0  501  502  0.00000000000E+00  0.00000000000E+00  0.35634030052E+02  0.35634030052E+02  0.00000000000E+00 0.  1.
         21   -1    0    0  502  503 -0.00000000000E+00 -0.00000000000E+00 -0.33864349203E+02  0.33864349203E+02  0.00000000000E+00 0. -1.
          2    1    1    2  501    0 -0.18349392852E+02  0.91303857670E+01  0.28941381064E+02  0.35463610930E+02  0.00000000000E+00 0.  1.
         -2    1    1    2    0  503  0.18349392852E+02 -0.91303857670E+01 -0.27171700216E+02  0.34034768324E+02  0.00000000000E+00 0. -1.
</event>
<event>
 4    1  0.1772365E+004  0.3424865E+02  0.7546771E-02  0.1385924E+00
         21   -1    0    0  503  502  0.00000000000E+00  0.00000000000E+00  0.93060610525E+01  0.93060610525E+01  0.00000000000E+00 0.  1.
         21   -1    0    0  501  503 -0.00000000000E+00 -0.00000000000E+00 -0.88113991030E+03  0.88113991030E+03  0.00000000000E+00 0. -1.
          2    1    1    2  501    0  0.19264474054E+02 -0.28316954694E+02 -0.84806787125E+03  0.84875914377E+03  0.00000000000E+00 0. -1.
         -2    1    1    2    0  502 -0.19264474054E+02  0.28316954694E+02 -0.23765977993E+02  0.41686827579E+02  0.00000000000E+00 0.  1.
</event>
<event>
 4    1  0.1772365E+004  0.3026766E+02  0.7546771E-02  0.1417284E+00
         21   -1    0    0  501  502  0.00000000000E+00  0.00000000000E+00  0.45419568189E+03  0.45419568189E+03  0.00000000000E+00 0.  1.
         21   -1    0    0  502  503 -0.00000000000E+00 -0.00000000000E+00 -0.27087306900E+01  0.27087306900E+01  0.00000000000E+00 0. -1.
          2    1    1    2  501    0 -0.26143448160E+02  0.15252913715E+02  0.11030033558E+03  0.11437786188E+03  0.00000000000E+00 0. -1.
         -2    1    1    2    0  503  0.26143448160E+02 -0.15252913715E+02  0.34118661562E+03  0.34252655070E+03  0.00000000000E+00 0.  1.
</event>
<event>
 4    1  0.1772365E+004  0.3077862E+02  0.7546771E-02  0.1412948E+00
         21   -1    0    0  501  502  0.00000000000E+00  0.00000000000E+00  0.65504848417E+02  0.65504848417E+02  0.00000000000E+00 0.  1.
         21   -1    0    0  502  503 -0.00000000000E+00 -0.00000000000E+00 -0.15787745170E+02  0.15787745170E+02  0.00000000000E+00 0. -1.
          2    1    1    2  501    0 -0.18805087607E+02 -0.24365801243E+02  0.36637588426E+02  0.47850146038E+02  0.00000000000E+00 0.  1.
         -2    1    1    2    0  503  0.18805087607E+02  0.24365801243E+02  0.13079514821E+02  0.33442447549E+02  0.00000000000E+00 0. -1.
</event>
<event>
 4    1  0.1772365E+004  0.2121360E+02  0.7546771E-02  0.1516237E+00
         21   -1    0    0  501  502  0.00000000000E+00  0.00000000000E+00  0.50752567951E+01  0.50752567951E+01  0.00000000000E+00 0. -1.
         21   -1    0    0  502  503 -0.00000000000E+00 -0.00000000000E+00 -0.15776622164E+03  0.15776622164E+03  0.00000000000E+00 0.  1.
          2    1    1    2  501    0 -0.21197046923E+02  0.83781906079E+00 -0.22461576680E+02  0.30895617262E+02  0.00000000000E+00 0. -1.
         -2    1    1    2    0  503  0.21197046923E+02 -0.83781906079E+00 -0.13022938817E+03  0.13194586118E+03  0.00000000000E+00 0.  1.
</event>
<event>
 4    1  0.1772365E+004  0.2040794E+02  0.7546771E-02  0.1527888E+00
         21   -1    0    0  503  502  0.00000000000E+00  0.00000000000E+00  0.17764810843E+02  0.17764810843E+02  0.00000000000E+00 0. -1.
         21   -1    0    0  501  503 -0.00000000000E+00 -0.00000000000E+00 -0.49543590664E+02  0.49543590664E+02  0.00000000000E+00 0.  1.
          2    1    1    2  501    0 -0.17163609109E+02 -0.11040582973E+02 -0.40315803628E+02  0.45186811928E+02  0.00000000000E+00 0.  1.
         -2    1    1    2    0  502  0.17163609109E+02  0.11040582973E+02  0.85370238071E+01  0.22121589580E+02  0.00000000000E+00 0. -1.
</event>
<event>
 4    1  0.1772365E+004  0.2047144E+02  0.7546771E-02  0.1526947E+00
         21   -1    0    0  501  502  0.00000000000E+00  0.00000000000E+00  0.33729880400E+03  0.33729880400E+03  0.00000000000E+00 0. -1.
         21   -1    0    0  502  503 -0.00000000000E+00 -0.00000000000E+00 -0.15336997832E+01  0.15336997832E+01  0.00000000000E+00 0.  1.
          2    1    1    2  501    0  0.19769040442E+02  0.53164687155E+01  0.24170888303E+03  0.24257424417E+03  0.00000000000E+00 0. -1.
         -2    1    1    2    0  503 -0.19769040442E+02 -0.53164687155E+01  0.94056221188E+02  0.96258259614E+02  0.00000000000E+00 0.  1.
</event>
<event>
 4    1  0.1772365E+004  0.2722475E+02  0.7546771E-02  0.1445363E+00
         21   -1    0    0  501  502  0.00000000000E+00  0.00000000000E+00  0.79099419117E+01  0.79099419117E+01  0.00000000000E+00 0.  1.
         21   -1    0    0  502  503 -0.00000000000E+00 -0.00000000000E+00 -0.97322853759E+02  0.97322853759E+02  0.00000000000E+00 0. -1.
          2    1    1    2  501    0  0.74797265470E+01 -0.26177106464E+02 -0.54853618243E+02  0.61238114327E+02  0.00000000000E+00 0.  1.
         -2    1    1    2    0  503 -0.74797265470E+01  0.26177106464E+02 -0.34559293605E+02  0.43994681343E+02  0.00000000000E+00 0. -1.
</event>
<event>
 4    1  0.1772365E+004  0.2072614E+02  0.7546771E-02  0.1523211E+00
         21   -1    0    0  503  502  0.00000000000E+00  0.00000000000E+00  0.65822582569E+02  0.65822582569E+02  0.00000000000E+00 0. -1.
         21   -1    0    0  501  503 -0.00000000000E+00 -0.00000000000E+00 -0.75129033921E+01  0.75129033921E+01  0.00000000000E+00 0.  1.
          2    1    1    2  501    0 -0.31031641147E+01  0.20492515811E+02  0.15866564999E+02  0.26102120922E+02  0.00000000000E+00 0.  1.
         -2    1    1    2    0  502  0.31031641147E+01 -0.20492515811E+02  0.42443114177E+02  0.47233365038E+02  0.00000000000E+00 0. -1.
</event>
<event>
 4    1  0.1772365E+004  0.6226466E+02  0.7546771E-02  0.1252326E+00
         21   -1    0    0  503  502  0.00000000000E+00  0.00000000000E+00  0.12062609784E+04  0.12062609784E+04  0.00000000000E+00 0. -1.
         21   -1    0    0  501  503 -0.00000000000E+00 -0.00000000000E+00 -0.32506395525E+01  0.32506395525E+01  0.00000000000E+00 0.  1.
          2    1    1    2  501    0  0.11105567784E+01  0.62254754050E+02  0.53727444176E+03  0.54087032966E+03  0.00000000000E+00 0. -1.
         -2    1    1    2    0  502 -0.11105567784E+01 -0.62254754050E+02  0.66573589708E+03  0.66864128828E+03  0.00000000000E+00 0.  1.
</event>
<event>
 4    1  0.1772365E+004  0.2781337E+02  0.7546771E-02  0.1439604E+00
         21   -1    0    0  501  502  0.00000000000E+00  0.00000000000E+00  0.59274258207E+02  0.59274258207E+02  0.00000000000E+00 0.  1.
         21   -1    0    0  502  503 -0.00000000000E+00 -0.00000000000E+00 -0.24871047440E+02  0.24871047440E+02  0.00000000000E+00 0. -1.
          2    1    1    2  501    0  0.24697685887E+02 -0.12790933198E+02 -0.11802796901E+02  0.30214064191E+02  0.00000000000E+00 0. -1.
         -2    1    1    2    0  503 -0.24697685887E+02  0.12790933198E+02  0.46206007668E+02  0.53931241455E+02  0.00000000000E+00 0.  1.
</event>
<event>
 4    1  0.1772365E+004  0.2684391E+02  0.7546771E-02  0.1449182E+00
         21   -1    0    0  501  502  0.00000000000E+00  0.00000000000E+00  0.65420187793E+01  0.65420187793E+01  0.00000000000E+00 0.  1.
         21   -1    0    0  502  503 -0.00000000000E+00 -0.00000000000E+00 -0.12862838515E+03  0.12862838515E+03  0.00000000000E+00 0. -1.
          2    1    1    2  501    0 -0.21610095319E+02  0.15924799863E+02 -0.35426116325E+02  0.44447780465E+02  0.00000000000E+00 0.  1.
         -2    1    1    2    0  503  0.21610095319E+02 -0.15924799863E+02 -0.86660250048E+02  0.90722623467E+02  0.00000000000E+00 0. -1.
</event>
<event>
 4    1  0.1772365E+004  0.9743715E+02  0.7546771E-02  0.1168325E+00
         21   -1    0    0  501  502  0.00000000000E+00  0.00000000000E+00  0.11308979647E+03  0.11308979647E+03  0.00000000000E+00 0.  1.
         21   -1    0    0  502  503 -0.00000000000E+00 -0.00000000000E+00 -0.11510791389E+03  0.11510791389E+03  0.00000000000E+00 0. -1.
          2    1    1    2  501    0 -0.83512566189E+02 -0.50196102309E+02  0.58352618813E+02  0.11357387693E+03  0.00000000000E+00 0. -1.
         -2    1    1    2    0  503  0.83512566189E+02  0.50196102309E+02 -0.60370736227E+02  0.11462383343E+03  0.00000000000E+00 0.  1.
</event>
<event>
 4    1  0.1772365E+004  0.2069917E+02  0.7546771E-02  0.1523604E+00
         21   -1    0    0  503  502  0.00000000000E+00  0.00000000000E+00  0.58849116587E+02  0.58849116587E+02  0.00000000000E+00 0. -1.
         21   -1    0    0  501  503 -0.00000000000E+00 -0.00000000000E+00 -0.75997025930E+01  0.75997025930E+01  0.00000000000E+00 0.  1.
          2    1    1    2  501    0 -0.17517726402E+02  0.11026555822E+02  0.18816416275E+02  0.27973437276E+02  0.00000000000E+00 0.  1.
         -2    1    1    2    0  502  0.17517726402E+02 -0.11026555822E+02  0.32432997719E+02  0.38475381904E+02  0.00000000000E+00 0. -1.
</event>
<event>
 4    1  0.1772365E+004  0.2027910E+02  0.7546771E-02  0.1529811E+00
         21   -1    0    0  501  502  0.00000000000E+00  0.00000000000E+00  0.32941456050E+01  0.32941456050E+01  0.00000000000E+00 0.  1.
         21   -1    0    0  502  503 -0.00000000000E+00 -0.00000000000E+00 -0.52557951737E+03  0.52557951737E+03  0.00000000000E+00 0. -1.
          2    1    1    2  501    0  0.17916091317E+02 -0.95002900966E+01 -0.30237493685E+02  0.36408074164E+02  0.00000000000E+00 0.  1.
         -2    1    1    2    0  503 -0.17916091317E+02  0.95002900966E+01 -0.49204787808E+03  0.49246558881E+03  0.00000000000E+00 0. -1.
</event>
<event>
 4    1  0.1772365E+004  0.2833325E+02  0.7546771E-02  0.1434656E+00
         21   -1    0    0  503  502  0.00000000000E+00  0.00000000000E+00  0.55699215708E+02  0.55699215708E+02  0.00000000000E+00 0. -1.
         21   -1    0    0  501  503 -0.00000000000E+00 -0.00000000000E+00 -0.14659498411E+02  0.14659498411E+02  0.00000000000E+00 0.  1.
          2    1    1    2  501    0 -0.22695772899E+02  0.16960984044E+02  0.25084922862E+02  0.37842125234E+02  0.00000000000E+00 0.  1.
         -2    1    1    2    0  502  0.22695772899E+02 -0.16960984044E+02  0.15954794435E+02  0.32516588885E+02  0.00000000000E+00 0. -1.
</event>
<event>
 4    1  0.1772365E+004  0.2206552E+02  0.7546771E-02  0.1504578E+00
         21   -1    0    0  503  502  0.00000000000E+00  0.00000000000E+00  0.58210447153E+01  0.58210447153E+01  0.00000000000E+00 0.  1.
         21   -1    0    0  501  503 -0.00000000000E+00 -0.00000000000E+00 -0.26834257378E+03  0.26834257378E+03  0.00000000000E+00 0. -1.
          2    1    1    2  501    0 -0.98234524593E+01 -0.19758216894E+02 -0.24498903809E+03  0.24598072310E+03  0.00000000000E+00 0. -1.
         -2    1    1    2    0  502  0.98234524593E+01  0.19758216894E+02 -0.17532490975E+02  0.28182895394E+02  0.00000000000E+00 0.  1.
</event>
<event>
 4    1  0.1772365E+004  0.2035013E+02  0.7546771E-02  0.1528749E+00
         21   -1    0    0  503  502  0.00000000000E+00  0.00000000000E+00  0.83687490490E+01  0.83687490490E+01  0.00000000000E+00 0.  1.
         21   -1    0    0  501  503 -0.00000000000E+00 -0.00000000000E+00 -0.50152455454E+02  0.50152455454E+02  0.00000000000E+00 0. -1.
          2    1    1    2  501    0 -0.18716348343E+02 -0.79891301486E+01 -0.24267326920E+02  0.31670665476E+02  0.00000000000E+00 0.  1.
         -2    1    1    2    0  502  0.18716348343E+02  0.79891301486E+01 -0.17516379485E+02  0.26850539028E+02  0.00000000000E+00 0. -1.
</event>
<event>
 4    1  0.1772365E+004  0.2046156E+02  0.7546771E-02  0.1527093E+00
         21   -1    0    0  503  502  0.00000000000E+00  0.00000000000E+00  0.12237729506E+03  0.12237729506E+03  0.00000000000E+00 0. -1.
         21   -1    0    0  501  503 -0.00000000000E+00 -0.00000000000E+00 -0.38631921492E+01  0.38631921492E+01  0.00000000000E+00 0.  1.
          2    1    1    2  501    0  0.18875988501E+02  0.78976230663E+01  0.37906452905E+02  0.43076380580E+02  0.00000000000E+00 0.  1.
         -2    1    1    2    0  502 -0.18875988501E+02 -0.78976230663E+01  0.80607650001E+02  0.83164106625E+02  0.00000000000E+00 0. -1.
</event>
<event>
 4    1  0.1772365E+004  0.2397936E+02  0.7546771E-02  0.1480553E+00
         21   -1    0    0  503  502  0.00000000000E+00  0.00000000000E+00  0.58580369991E+03  0.58580369991E+03  0.00000000000E+00 0.  1.
         21   -1    0    0  501  503 -0.00000000000E+00 -0.00000000000E+00 -0.13046513430E+01  0.13046513430E+01  0.00000000000E+00 0. -1.
          2    1    1    2  501    0 -0.19901783423E+02  0.13376415930E+02  0.14616826507E+03  0.14812214959E+03  0.00000000000E+00 0. -1.
         -2    1    1    2    0  502  0.19901783423E+02 -0.13376415930E+02  0.43833078350E+03  0.43898620166E+03  0.00000000000E+00 0.  1.
</event>
<event>
 4    1  0.1772365E+004  0.6277277E+02  0.7546771E-02  0.1250692E+00
         21   -1    0    0  503  502  0.00000000000E+00  0.00000000000E+00  0.12281329659E+03  0.12281329659E+03  0.00000000000E+00 0.  1.
         21   -1    0    0  501  503 -0.00000000000E+00 -0.00000000000E+00 -0.91985851434E+02  0.91985851434E+02  0.00000000000E+00 0. -1.
          2    1    1    2  501    0 -0.41334554442E+02  0.47242732233E+02 -0.71254486769E+02  0.94961165876E+02  0.00000000000E+00 0. -1.
         -2    1    1    2    0  502  0.41334554442E+02 -0.47242732233E+02  0.10208193193E+03  0.11983798215E+03  0.00000000000E+00 0.  1.
</event>
<event>
 4    1  0.1772365E+004  0.3434955E+02  0.7546771E-02  0.1385195E+00
         21   -1    0    0  503  502  0.00000000000E+00  0.00000000000E+00  0.91104177807E+01  0.91104177807E+01  0.00000000000E+00 0.  1.
         21   -1    0    0  501  503 -0.00000000000E+00 -0.00000000000E+00 -0.18086092410E+03  0.18086092410E+03  0.00000000000E+00 0. -1.
          2    1    1    2  501    0  0.27026829832E+02  0.21200052633E+02 -0.13648790954E+03  0.14074388517E+03  0.00000000000E+00 0. -1.
         -2    1    1    2    0  502 -0.27026829832E+02 -0.21200052633E+02 -0.35262596775E+02  0.49227456705E+02  0.00000000000E+00 0.  1.
</event>
<event>
 4    1  0.1772365E+004  0.2935881E+02  0.7546771E-02  0.1425251E+00
         21   -1    0    0  501  502  0.00000000000E+00  0.00000000000E+00  0.30861141442E+01  0.30861141442E+01  0.00000000000E+00 0. -1.
         21   -1    0    0  502  503 -0.00000000000E+00 -0.00000000000E+00 -0.30875314236E+03  0.30875314236E+03  0.00000000000E+00 0.  1.
          2    1    1    2  501    0  0.89314942653E+01 -0.27967271861E+02 -0.10467322419E+03  0.10871257401E+03  0.00000000000E+00 0. -1.
         -2    1    1    2    0  503 -0.89314942653E+01  0.27967271861E+02 -0.20099380403E+03  0.20312668250E+03  0.00000000000E+00 0.  1.
</event>
<event>
 4    1  0.1772365E+004  0.3436951E+02  0.7546771E-02  0.1385051E+00
         21   -1    0    0  503  502  0.00000000000E+00  0.00000000000E+00  0.18946402752E+02  0.18946402752E+02  0.00000000000E+00 0.  1.
         21   -1    0    0  501  503 -0.00000000000E+00 -0.00000000000E+00 -0.70027372946E+02  0.70027372946E+02  0.00000000000E+00 0. -1.
          2    1    1    2  501    0  0.20943177315E+02  0.27251538204E+02 -0.10808139620E+02  0.36028861939E+02  0.00000000000E+00 0.  1.
         -2    1    1    2    0  502 -0.20943177315E+02 -0.27251538204E+02 -0.40272830573E+02  0.52944913759E+02  0.00000000000E+00 0. -1.
</event>
<event>
 4    1  0.1772365E+004  0.3178916E+02  0.7546771E-02  0.1404660E+00
         21   -1    0    0  501  502  0.00000000000E+00  0.00000000000E+00  0.74285974330E+02  0.74285974330E+02  0.00000000000E+00 0.  1.
         21   -1    0    0  502  503 -0.00000000000E+00 -0.00000000000E+00 -0.59572538823E+02  0.59572538823E+02  0.00000000000E+00 0. -1.
          2    1    1    2  501    0 -0.45609308823E+01 -0.31460274078E+02  0.66149708247E+02  0.73391653727E+02  0.00000000000E+00 0.  1.
         -2    1    1    2    0  503  0.45609308823E+01  0.31460274078E+02 -0.51436272740E+02  0.60466859427E+02  0.00000000000E+00 0. -1.
</event>
<event>
 4    1  0.1772365E+004  0.2916780E+02  0.7546771E-02  0.1426969E+00
         21   -1    0    0  501  502  0.00000000000E+00  0.00000000000E+00  0.62026620452E+02  0.62026620452E+02  0.00000000000E+00 0. -1.
         21   -1    0    0  502  503 -0.00000000000E+00 -0.00000000000E+00 -0.26198171486E+02  0.26198171486E+02  0.00000000000E+00 0.  1.
          2    1    1    2  501    0 -0.16214707771E+02  0.24245486173E+02  0.48362964475E+02  0.56477753857E+02  0.00000000000E+00 0. -1.
         -2    1    1    2    0  503  0.16214707771E+02 -0.24245486173E+02 -0.12534515509E+02  0.31747038081E+02  0.00000000000E+00 0.  1.
</event>
<event>
 4    1  0.1772365E+004  0.2436911E+02  0.7546771E-02  0.1475986E+00
         21   -1    0    0  503  502  0.00000000000E+00  0.00000000000E+00  0.84858397717E+00  0.84858397717E+00  0.00000000000E+00 0.  1.
         21   -1    0    0  501  503 -0.00000000000E+00 -0.00000000000E+00 -0.74797480950E+03  0.74797480950E+03  0.00000000000E+00 0. -1.
          2    1    1    2  501    0 -0.26800717424E+01 -0.24221283731E+02 -0.46856668547E+03  0.46919994896E+03  0.00000000000E+00 0. -1.
         -2    1    1    2    0  502  0.26800717424E+01  0.24221283731E+02 -0.27855954005E+03  0.27962344452E+03  0.00000000000E+00 0.  1.
</event>
<event>
 4    1  0.1772365E+004  0.2480485E+02  0.7546771E-02  0.1470998E+00
         21   -1    0    0  501  502  0.00000000000E+00  0.00000000000E+00  0.61501493135E+03  0.61501493135E+03  0.00000000000E+00 0. -1.
         21   -1    0    0  502  503 -0.00000000000E+00 -0.00000000000E+00 -0.10142110378E+01  0.10142110378E+01  0.00000000000E+00 0.  1.
          2    1    1    2  501    0  0.20162140723E+02  0.14448834680E+02  0.34290192303E+03  0.34379791965E+03  0.00000000000E+00 0. -1.
         -2    1    1    2    0  503 -0.20162140723E+02 -0.14448834680E+02  0.27109879729E+03  0.27223122274E+03  0.00000000000E+00 0.  1.
</event>
<event>
 4    1  0.1772365E+004  0.2426060E+02  0.7546771E-02  0.1477248E+00
         21   -1    0    0  503  502  0.00000000000E+00  0.00000000000E+00  0.26994714635E+01  0.26994714635E+01  0.00000000000E+00 0.  1.
         21   -1    0    0  501  503 -0.00000000000E+00 -0.00000000000E+00 -0.31496266776E+03  0.31496266776E+03  0.00000000000E+00 0. -1.
          2    1    1    2  501    0  0.23584824325E+02 -0.56861984852E+01 -0.24424294723E+03  0.24544489007E+03  0.00000000000E+00 0. -1.
         -2    1    1    2    0  502 -0.23584824325E+02  0.56861984852E+01 -0.68020249061E+02  0.72217249145E+02  0.00000000000E+00 0.  1.
</event>
<event>
 4    1  0.1772365E+004  0.2145650E+02  0.7546771E-02  0.1512846E+00
         21   -1    0    0  503  502  0.00000000000E+00  0.00000000000E+00  0.63660427149E+02  0.63660427149E+02  0.00000000000E+00 0. -1.
         21   -1    0    0  501  503 -0.00000000000E+00 -0.00000000000E+00 -0.77333246588E+01  0.77333246588E+01  0.00000000000E+00 0.  1.
          2    1    1    2  501    0  0.15569230417E+02  0.14764166132E+02  0.18873230227E+02  0.28575870180E+02  0.00000000000E+00 0.  1.
         -2    1    1    2    0  502 -0.15569230417E+02 -0.14764166132E+02  0.37053872264E+02  0.42817881628E+02  0.00000000000E+00 0. -1.
</event>
<event>
 4    1  0.1772365E+004  0.2418506E+02  0.7546771E-02  0.1478130E+00
         21   -1    0    0  503  502  0.00000000000E+00  0.00000000000E+00  0.20992530645E+02  0.20992530645E+02  0.00000000000E+00 0. -1.
         21   -1    0    0  501  503 -0.00000000000E+00 -0.00000000000E+00 -0.31969744479E+02  0.31969744479E+02  0.00000000000E+00 0.  1.
          2    1    1    2  501    0  0.82770217586E+01 -0.22724617084E+02  0.40023450695E+01  0.24513997570E+02  0.00000000000E+00 0. -1.
         -2    1    1    2    0  502 -0.82770217586E+01  0.22724617084E+02 -0.14979558904E+02  0.28448277553E+02  0.00000000000E+00 0.  1.
</event>
<event>
 4    1  0.1772365E+004  0.2095419E+02  0.7546771E-02  0.1519920E+00
         21   -1    0    0  503  502  0.00000000000E+00  0.00000000000E+00  0.12806000913E+03  0.12806000913E+03  0.00000000000E+00 0.  1.
         21   -1    0    0  501  503 -0.00000000000E+00 -0.00000000000E+00 -0.44399314461E+01  0.44399314461E+01  0.00000000000E+00 0. -1.
          2    1    1    2  501    0 -0.20348926939E+02  0.49999237902E+01  0.93427354719E+02  0.95748361214E+02  0.00000000000E+00 0.  1.
         -2    1    1    2    0  502  0.20348926939E+02 -0.49999237902E+01  0.30192722961E+02  0.36751579358E+02  0.00000000000E+00 0. -1.
</event>
<event>
 4    1  0.1772365E+004  0.3034993E+02  0.7546771E-02  0.1416579E+00
         21   -1    0    0  501  502  0.00000000000E+00  0.00000000000E+00  0.18513032649E+02  0.18513032649E+02  0.00000000000E+00 0. -1.
         21   -1    0    0  502  503 -0.00000000000E+00 -0.00000000000E+00 -0.10672939901E+03  0.10672939901E+03  0.00000000000E+00 0.  1.
          2    1    1    2  501    0  0.16727545255E+02  0.25324044151E+02  0.16447476557E+01  0.30394459647E+02  0.00000000000E+00 0. -1.
         -2    1    1    2    0  503 -0.16727545255E+02 -0.25324044151E+02 -0.89861114018E+02  0.94847972013E+02  0.00000000000E+00 0.  1.
</event>
<event>
 4    1  0.1772365E+004  0.3111935E+02  0.7546771E-02  0.1410112E+00
         21   -1    0    0  503  502  0.00000000000E+00  0.00000000000E+00  0.10335360093E+02  0.10335360093E+02  0.00000000000E+00 0. -1.
         21   -1    0    0  501  503 -0.00000000000E+00 -0.00000000000E+00 -0.11261156384E+03  0.11261156384E+03  0.00000000000E+00 0.  1.
          2    1    1    2  501    0 -0.27234349809E+02  0.15056705354E+02 -0.76330525931E+02  0.82430354691E+02  0.00000000000E+00 0.  1.
         -2    1    1    2    0  502  0.27234349809E+02 -0.15056705354E+02 -0.25945677812E+02  0.40516569237E+02  0.00000000000E+00 0. -1.
</event>
<event>
 4    1  0.1772365E+004  0.3465305E+02  0.7546771E-02  0.1383019E+00
         21   -1    0    0  503  502  0.00000000000E+00  0.00000000000E+00  0.24296360550E+02  0.24296360550E+02  0.00000000000E+00 0.  1.
         21   -1    0    0  501  503 -0.00000000000E+00 -0.00000000000E+00 -0.59496871374E+02  0.59496871374E+02  0.00000000000E+00 0. -1.
          2    1    1    2  501    0 -0.34564694627E+02 -0.24730715795E+01 -0.34838731752E+02  0.49138288816E+02  0.00000000000E+00 0. -1.
         -2    1    1    2    0  502  0.34564694627E+02  0.24730715795E+01 -0.36177907159E+00  0.34654943108E+02  0.00000000000E+00 0.  1.
</event>
<event>
 4    1  0.1772365E+004  0.5299081E+02  0.7546771E-02  0.1285701E+00
         21   -1    0    0  501  502  0.00000000000E+00  0.00000000000E+00  0.14451867107E+04  0.14451867107E+04  0.00000000000E+00 0.  1.
         21   -1    0    0  502  503 -0.00000000000E+00 -0.00000000000E+00 -0.20179873572E+01  0.20179873572E+01  0.00000000000E+00 0. -1.
          2    1    1    2  501    0 -0.28580044831E+02  0.44622942857E+02  0.58211518635E+03  0.58452212633E+03  0.00000000000E+00 0. -1.
         -2    1    1    2    0  503  0.28580044831E+02 -0.44622942857E+02  0.86105353703E+03  0.86268257176E+03  0.00000000000E+00 0.  1.
</event>
<event>
 4    1  0.1772365E+004  0.2501352E+02  0.7546771E-02  0.1468652E+00
         21   -1    0    0  501  502  0.00000000000E+00  0.00000000000E+00  0.23814527205E+03  0.23814527205E+03  0.00000000000E+00 0. -1.
         21   -1    0    0  502  503 -0.00000000000E+00 -0.00000000000E+00 -0.55020338818E+01  0.55020338818E+01  0.00000000000E+00 0.  1.
          2    1    1    2  501    0  0.24789920691E+02 -0.33370386969E+01  0.20437981587E+03  0.20590479628E+03  0.00000000000E+00 0. -1.
         -2    1    1    2    0  503 -0.24789920691E+02  0.33370386969E+01  0.28263422305E+02  0.37742509661E+02  0.00000000000E+00 0.  1.
</event>
<event>
 4    1  0.1772365E+004  0.2135477E+02  0.7546771E-02  0.1514260E+00
         21   -1    0    0  501  502  0.00000000000E+00  0.00000000000E+00  0.12780186812E+03  0.12780186812E+03  0.00000000000E+00 0.  1.
         21   -1    0    0  502  503 -0.00000000000E+00 -0.00000000000E+00 -0.11291902830E+02  0.11291902830E+02  0.00000000000E+00 0. -1.
          2    1    1    2  501    0 -0.20357980208E+02 -0.64481630328E+01  0.11577329290E+03  0.11772629916E+03  0.00000000000E+00 0.  1.
         -2    1    1    2    0  503  0.20357980208E+02  0.64481630328E+01  0.73667239329E+00  0.21367471794E+02  0.00000000000E+00 0. -1.
</event>
<event>
 4    1  0.1772365E+004  0.2083032E+02  0.7546771E-02  0.1521701E+00
         21   -1    0    0  503  502  0.00000000000E+00  0.00000000000E+00  0.20098488042E+03  0.20098488042E+03  0.00000000000E+00 0. -1.
         21   -1    0    0  501  503 -0.00000000000E+00 -0.00000000000E+00 -0.21607095207E+01  0.21607095207E+01  0.00000000000E+00 0.  1.
          2    1    1    2  501    0  0.10862209870E+02  0.17773989233E+02  0.96456703049E+02  0.98680281007E+02  0.00000000000E+00 0. -1.
         -2    1    1    2    0  502 -0.10862209870E+02 -0.17773989233E+02  0.10236746785E+03  0.10446530893E+03  0.00000000000E+00 0.  1.
</event>
<event>
 4    1  0.1772365E+004  0.2238782E+02  0.7546771E-02  0.1500332E+00
         21   -1    0    0  501  502  0.00000000000E+00  0.00000000000E+00  0.47994611469E+02  0.47994611469E+02  0.00000000000E+00 0.  1.
         21   -1    0    0  502  503 -0.00000000000E+00 -0.00000000000E+00 -0.11193708597E+02  0.11193708597E+02  0.00000000000E+00 0. -1.
          2    1    1    2  501    0 -0.19964740602E+02 -0.10130336421E+02  0.26063708455E+02  0.34358863220E+02  0.00000000000E+00 0.  1.
         -2    1    1    2    0  503  0.19964740602E+02  0.10130336421E+02  0.10737194417E+02  0.24829456846E+02  0.00000000000E+00 0. -1.
</event>
<event>
 4    1  0.1772365E+004  0.2081312E+02  0.7546771E-02  0.1521950E+00
         21   -1    0    0  501  502  0.00000000000E+00  0.00000000000E+00  0.51964770347E+00  0.51964770347E+00  0.00000000000E+00 0. -1.
         21   -1    0    0  502  503 -0.00000000000E+00 -0.00000000000E+00 -0.94331759083E+03  0.94331759083E+03  0.00000000000E+00 0.  1.
          2    1    1    2  501    0  0.47158791497E+01 -0.20271813579E+02 -0.31046517098E+03  0.31116202906E+03  0.00000000000E+00 0. -1.
         -2    1    1    2    0  503 -0.47158791497E+01  0.20271813579E+02 -0.63233277215E+03  0.63267520947E+03  0.00000000000E+00 0.  1.
</event>
<event>
 4    1  0.1772365E+004  0.2832191E+02  0.7546771E-02  0.1434763E+00
         21   -1    0    0  503  502  0.00000000000E+00  0.00000000000E+00  0.70390650916E+02  0.70390650916E+02  0.00000000000E+00 0.  1.
         21   -1    0    0  501  503 -0.00000000000E+00 -0.00000000000E+00 -0.17931842070E+02  0.17931842070E+02  0.00000000000E+00 0. -1.
          2    1    1    2  501    0 -0.51904137544E+01  0.27842232606E+02 -0.43299647427E+00  0.28325214869E+02  0.00000000000E+00 0. -1.
         -2    1    1    2    0  502  0.51904137544E+01 -0.27842232606E+02  0.52891805321E+02  0.59997278117E+02  0.00000000000E+00 0.  1.
</event>
<event>
 4    1  0.1772365E+004  0.2486368E+02  0.7546771E-02  0.1470334E+00
         21   -1    0    0  503  502  0.00000000000E+00  0.00000000000E+00  0.69896360218E+02  0.69896360218E+02  0.00000000000E+00 0.  1.
         21   -1    0    0  501  503 -0.00000000000E+00 -0.00000000000E+00 -0.96850598234E+01  0.96850598234E+01  0.00000000000E+00 0. -1.
          2    1    1    2  501    0 -0.21267314674E+02 -0.12880374684E+02  0.18383731469E+02  0.30921906607E+02  0.00000000000E+00 0. -1.
         -2    1    1    2    0  502  0.21267314674E+02  0.12880374684E+02  0.41827568925E+02  0.48659513435E+02  0.00000000000E+00 0.  1.
</event>
<event>
 4    1  0.1772365E+004  0.2207976E+02  0.7546771E-02  0.1504389E+00
         21   -1    0    0  501  502  0.00000000000E+00  0.00000000000E+00  0.50433402201E+00  0.50433402201E+00  0.00000000000E+00 0. -1.
         21   -1    0    0  502  503 -0.00000000000E+00 -0.00000000000E+00 -0.98806759556E+03  0.98806759556E+03  0.00000000000E+00 0.  1.
          2    1    1    2  501    0 -0.17480187622E+02 -0.13489213268E+02 -0.56655008272E+03  0.56698016902E+03  0.00000000000E+00 0. -1.
         -2    1    1    2    0  503  0.17480187622E+02  0.13489213268E+02 -0.42101317883E+03  0.42159176057E+03  0.00000000000E+00 0.  1.
</event>
<event>
 4    1  0.1772365E+004  0.2448652E+02  0.7546771E-02  0.1474630E+00
         21   -1    0    0  501  502  0.00000000000E+00  0.00000000000E+00  0.21472398458E+04  0.21472398458E+04  0.00000000000E+00 0.  1.
         21   -1    0    0  502  503 -0.00000000000E+00 -0.00000000000E+00 -0.34121207666E+00  0.34121207666E+00  0.00000000000E+00 0. -1.
          2    1    1    2  501    0  0.34323084034E+01  0.24244769899E+02  0.15310794468E+04  0.15312752405E+04  0.00000000000E+00 0.  1.
         -2    1    1    2    0  503 -0.34323084034E+01 -0.24244769899E+02  0.61581918697E+03  0.61630581747E+03  0.00000000000E+00 0. -1.
</event>
<event>
 4    1  0.1772365E+004  0.2303659E+02  0.7546771E-02  0.1492039E+00
         21   -1    0    0  501  502  0.00000000000E+00  0.00000000000E+00  0.37471930802E+01  0.37471930802E+01  0.00000000000E+00 0.  1.
         21   -1    0    0  502  503 -0.00000000000E+00 -0.00000000000E+00 -0.17800385387E+03  0.17800385387E+03  0.00000000000E+00 0. -1.
          2    1    1    2  501    0 -0.22656261547E+02 -0.41687057249E+01 -0.46044046210E+02  0.51485323016E+02  0.00000000000E+00 0.  1.
         -2    1    1    2    0  503  0.22656261547E+02  0.41687057249E+01 -0.12821261458E+03  0.13026572393E+03  0.00000000000E+00 0. -1.
</event>
<event>
 4    1  0.1772365E+004  0.2160822E+02  0.7546771E-02  0.1510755E+00
         21   -1    0    0  503  502  0.00000000000E+00  0.00000000000E+00  0.63044106432E+01  0.63044106432E+01  0.00000000000E+00 0.  1.
         21   -1    0    0  501  503 -0.00000000000E+00 -0.00000000000E+00 -0.82820156335E+02  0.82820156335E+02  0.00000000000E+00 0. -1.
          2    1    1    2  501    0 -0.19111462825E+02 -0.10083008484E+02 -0.52749407242E+02  0.57003640549E+02  0.00000000000E+00 0.  1.
         -2    1    1    2    0  502  0.19111462825E+02  0.10083008484E+02 -0.23766338450E+02  0.32120926430E+02  0.00000000000E+00 0. -1.
</event>
<event>
 4    1  0.1772365E+004  0.4300624E+02  0.7546771E-02  0.1331716E+00
         21   -1    0    0  501  502  0.00000000000E+00  0.00000000000E+00  0.74823144824E+02  0.74823144824E+02  0.00000000000E+00 0. -1.
         21   -1    0    0  502  503 -0.00000000000E+00 -0.00000000000E+00 -0.10860642404E+03  0.10860642404E+03  0.00000000000E+00 0.  1.
          2    1    1    2  501    0  0.36727735429E+02 -0.22374323111E+02  0.63713102015E+02  0.76869345339E+02  0.00000000000E+00 0. -1.
         -2    1    1    2    0  503 -0.36727735429E+02  0.22374323111E+02 -0.97496381232E+02  0.10656022353E+03  0.00000000000E+00 0.  1.
</event>
<event>
 4    1  0.1772365E+004  0.3182897E+02  0.7546771E-02  0.1404341E+00
         21   -1    0    0  501  502  0.00000000000E+00  0.00000000000E+00  0.82307334107E+01  0.82307334107E+01  0.00000000000E+00 0.  1.
         21   -1    0    0  502  503 -0.00000000000E+00 -0.00000000000E+00 -0.24391892985E+03  0.24391892985E+03  0.00000000000E+00 0. -1.
          2    1    1    2  501    0  0.10661041645E+02  0.29990426360E+02 -0.29108211241E+02  0.43132023415E+02  0.00000000000E+00 0.  1.
         -2    1    1    2    0  503 -0.10661041645E+02 -0.29990426360E+02 -0.20657998520E+03  0.20901763984E+03  0.00000000000E+00 0. -1.
</event>
<event>
 4    1  0.1772365E+004  0.2373360E+02  0.7546771E-02  0.1483486E+00
         21   -1    0    0  503  502  0.00000000000E+00  0.00000000000E+00  0.18646004542E+03  0.18646004542E+03  0.00000000000E+00 0. -1.
         21   -1    0    0  501  503 -0.00000000000E+00 -0.00000000000E+00 -0.64154928096E+01  0.64154928096E+01  0.00000000000E+00 0.  1.
          2    1    1    2  501    0 -0.25255331870E+01 -0.23598844074E+02  0.19872915130E+02  0.30955072529E+02  0.00000000000E+00 0.  1.
         -2    1    1    2    0  502  0.25255331870E+01  0.23598844074E+02  0.16017163748E+03  0.16192046570E+03  0.00000000000E+00 0. -1.
</event>
<event>
 4    1  0.1772365E+004  0.2619832E+02  0.7546771E-02  0.1455832E+00
         21   -1    0    0  503  502  0.00000000000E+00  0.00000000000E+00  0.68794616033E+02  0.68794616033E+02  0.00000000000E+00 0. -1.
         21   -1    0    0  501  503 -0.00000000000E+00 -0.00000000000E+00 -0.15069150313E+02  0.15069150313E+02  0.00000000000E+00 0.  1.
          2    1    1    2  501    0  0.23538333295E+01 -0.26092366021E+02  0.24869877956E+01  0.26316101615E+02  0.00000000000E+00 0.  1.
         -2    1    1    2    0  502 -0.23538333295E+01  0.26092366021E+02  0.51238477924E+02  0.57547664730E+02  0.00000000000E+00 0. -1.
</event>
<event>
 4    1  0.1772365E+004  0.3401591E+02  0.7546771E-02  0.1387617E+00
         21   -1    0    0  503  502  0.00000000000E+00  0.00000000000E+00  0.16847112496E+02  0.16847112496E+02  0.00000000000E+00 0. -1.
         21   -1    0    0  501  503 -0.00000000000E+00 -0.00000000000E+00 -0.68686552269E+02  0.68686552269E+02  0.00000000000E+00 0.  1.
          2    1    1    2  501    0  0.73599124408E+01 -0.33210145952E+02 -0.25546838947E+02  0.42540840207E+02  0.00000000000E+00 0. -1.
         -2    1    1    2    0  502 -0.73599124408E+01  0.33210145952E+02 -0.26292600826E+02  0.42992824558E+02  0.00000000000E+00 0.  1.
</event>
<event>
 4    1  0.1772365E+004  0.3108275E+02  0.7546771E-02  0.1410415E+00
         21   -1    0    0  501  502  0.00000000000E+00  0.00000000000E+00  0.15389612450E+02  0.15389612450E+02  0.00000000000E+00 0. -1.
         21   -1    0    0  502  503 -0.00000000000E+00 -0.00000000000E+00 -0.99935327879E+02  0.99935327879E+02  0.00000000000E+00 0.  1.
          2    1    1    2  501    0  0.31025636116E+02  0.18833871224E+01 -0.71125341218E+01  0.31886131548E+02  0.00000000000E+00 0. -1.
         -2    1    1    2    0  503 -0.31025636116E+02 -0.18833871224E+01 -0.77433181307E+02  0.83438808781E+02  0.00000000000E+00 0.  1.
</event>
<event>
 4    1  0.1772365E+004  0.3497259E+02  0.7546771E-02  0.1380756E+00
         21   -1    0    0  501  502  0.00000000000E+00  0.00000000000E+00  0.36579346074E+02  0.36579346074E+02  0.00000000000E+00 0.  1.
         21   -1    0    0  502  503 -0.00000000000E+00 -0.00000000000E+00 -0.36437063147E+02  0.36437063147E+02  0.00000000000E+00 0. -1.
          2    1    1    2  501    0 -0.12183252016E+02 -0.32781864475E+02  0.10547881960E+02  0.36528620039E+02  0.00000000000E+00 0.  1.
         -2    1    1    2    0  503  0.12183252016E+02  0.32781864475E+02 -0.10405599033E+02  0.36487789182E+02  0.00000000000E+00 0. -1.
</event>
<event>
 4    1  0.1772365E+004  0.2364984E+02  0.7546771E-02  0.1484495E+00
         21   -1    0    0  501  502  0.00000000000E+00  0.00000000000E+00  0.29508945760E+03  0.29508945760E+03  0.00000000000E+00 0. -1.
         21   -1    0    0  502  503 -0.00000000000E+00 -0.00000000000E+00 -0.59139982059E+01  0.59139982059E+01  0.00000000000E+00 0.  1.
          2    1    1    2  501    0  0.80024906089E+01 -0.22254773713E+02  0.26864944247E+03  0.26968840863E+03  0.00000000000E+00 0. -1.
         -2    1    1    2    0  503 -0.80024906089E+01  0.22254773713E+02  0.20526016924E+02  0.31315047177E+02  0.00000000000E+00 0.  1.
</event>
<event>
 4    1  0.1772365E+004  0.2344907E+02  0.7546771E-02  0.1486935E+00
         21   -1    0    0  503  502  0.00000000000E+00  0.00000000000E+00  0.17394917319E+02  0.17394917319E+02  0.00000000000E+00 0. -1.
         21   -1    0    0  501  503 -0.00000000000E+00 -0.00000000000E+00 -0.15001245483E+03  0.15001245483E+03  0.00000000000E+00 0.  1.
          2    1    1    2  501    0 -0.21287786102E+02  0.98330500747E+01 -0.14067242100E+03  0.14261342412E+03  0.00000000000E+00 0.  1.
         -2    1    1    2    0  502  0.21287786102E+02 -0.98330500747E+01  0.80548834838E+01  0.24793948029E+02  0.00000000000E+00 0. -1.
</event>
<event>
 4    1  0.1772365E+004  0.3333037E+02  0.7546771E-02  0.1392697E+00
         21   -1    0    0  501  502  0.00000000000E+00  0.00000000000E+00  0.19921497141E+02  0.19921497141E+02  0.00000000000E+00 0. -1.
         21   -1    0    0  502  503 -0.00000000000E+00 -0.00000000000E+00 -0.56132646055E+02  0.56132646055E+02  0.00000000000E+00 0.  1.
          2    1    1    2  501    0  0.30466597287E+02 -0.13516644669E+02 -0.15026158378E+02  0.36560889882E+02  0.00000000000E+00 0.  1.
         -2    1    1    2    0  503 -0.30466597287E+02  0.13516644669E+02 -0.21184990536E+02  0.39493253314E+02  0.00000000000E+00 0. -1.
</event>
<event>
 4    1  0.1772365E+004  0.2730869E+02  0.7546771E-02  0.1444532E+00
         21   -1    0    0  503  502  0.00000000000E+00  0.00000000000E+00  0.14652458994E+02  0.14652458994E+02  0.00000000000E+00 0.  1.
         21   -1    0    0  501  503 -0.00000000000E+00 -0.00000000000E+00 -0.58695837945E+02  0.58695837945E+02  0.00000000000E+00 0. -1.
          2    1    1    2  501    0 -0.50218181250E+00  0.27304067822E+02 -0.35389951284E+02  0.44701375349E+02  0.00000000000E+00 0. -1.
         -2    1    1    2    0  502  0.50218181250E+00 -0.27304067822E+02 -0.86534276667E+01  0.28646921590E+02  0.00000000000E+00 0.  1.
</event>
<event>
 4    1  0.1772365E+004  0.2519818E+02  0.7546771E-02  0.1466599E+00
         21   -1    0    0  503  502  0.00000000000E+00  0.00000000000E+00  0.45221358897E+02  0.45221358897E+02  0.00000000000E+00 0. -1.
         21   -1    0    0  501  503 -0.00000000000E+00 -0.00000000000E+00 -0.14217383507E+02  0.14217383507E+02  0.00000000000E+00 0.  1.
          2    1    1    2  501    0  0.15977659142E+02 -0.19484928835E+02  0.18813271387E+02  0.31446577296E+02  0.00000000000E+00 0.  1.
         -2    1    1    2    0  502 -0.15977659142E+02  0.19484928835E+02  0.12190704003E+02  0.27992165108E+02  0.00000000000E+00 0. -1.
</event>
<event>
 4    1  0.1772365E+004  0.2399589E+02  0.7546771E-02  0.1480358E+00
         21   -1    0    0  501  502  0.00000000000E+00  0.00000000000E+00  0.79079598412E+01  0.79079598412E+01  0.00000000000E+00 0.  1.
         21   -1    0    0  502  503 -0.00000000000E+00 -0.00000000000E+00 -0.14577501525E+03  0.14577501525E+03  0.00000000000E+00 0. -1.
          2    1    1    2  501    0 -0.13076265347E+02 -0.20119991807E+02 -0.14570650267E+02  0.28073236987E+02  0.00000000000E+00 0.  1.
         -2    1    1    2    0  503  0.13076265347E+02  0.20119991807E+02 -0.12329640514E+03  0.12560973810E+03  0.00000000000E+00 0. -1.
</event>
<event>
 4    1  0.1772365E+004  0.3366847E+02  0.7546771E-02  0.1390174E+00
         21   -1    0    0  503  502  0.00000000000E+00  0.00000000000E+00  0.58564441379E+03  0.58564441379E+03  0.00000000000E+00 0. -1.
         21   -1    0    0  501  503 -0.00000000000E+00 -0.00000000000E+00 -0.24859676287E+01  0.24859676287E+01  0.00000000000E+00 0.  1.
          2    1    1    2  501    0 -0.29182302113E+02  0.16791630589E+02  0.42994462897E+03  0.43126088345E+03  0.00000000000E+00 0. -1.
         -2    1    1    2    0  502  0.29182302113E+02 -0.16791630589E+02  0.15321381720E+03  0.15686949797E+03  0.00000000000E+00 0.  1.
</event>
<event>
 4    1  0.1772365E+004  0.4794113E+02  0.7546771E-02  0.1307355E+00
         21   -1    0    0  503  502  0.00000000000E+00  0.00000000000E+00  0.10710630257E+03  0.10710630257E+03  0.00000000000E+00 0. -1.
         21   -1    0    0  501  503 -0.00000000000E+00 -0.00000000000E+00 -0.65211622429E+02  0.65211622429E+02  0.00000000000E+00 0.  1.
          2    1    1    2  501    0 -0.47914000765E+02  0.16126137005E+01 -0.49626208595E+02  0.69000815733E+02  0.00000000000E+00 0.  1.
         -2    1    1    2    0  502  0.47914000765E+02 -0.16126137005E+01  0.91520888739E+02  0.10331710927E+03  0.00000000000E+00 0. -1.
</event>
<event>
 4    1  0.1772365E+004  0.2188878E+02  0.7546771E-02  0.1506944E+00
         21   -1    0    0  501  502  0.00000000000E+00  0.00000000000E+00  0.57093536953E+03  0.57093536953E+03  0.00000000000E+00 0. -1.
         21   -1    0    0  502  503 -0.00000000000E+00 -0.00000000000E+00 -0.34073318781E+01  0.34073318781E+01  0.00000000000E+00 0.  1.
          2    1    1    2  501    0  0.21382207682E+02  0.46818503625E+01  0.53307654474E+03  0.53352574547E+03  0.00000000000E+00 0. -1.
         -2    1    1    2    0  503 -0.21382207682E+02 -0.46818503625E+01  0.34451492916E+02  0.40816955941E+02  0.00000000000E+00 0.  1.
</event>
<event>
 4    1  0.1772365E+004  0.4211213E+02  0.7546771E-02  0.1336534E+00
         21   -1    0    0  503  502  0.00000000000E+00  0.00000000000E+00  0.16282718679E+03  0.16282718679E+03  0.00000000000E+00 0.  1.
         21   -1    0    0  501  503 -0.00000000000E+00 -0.00000000000E+00 -0.11090299267E+02  0.11090299267E+02  0.00000000000E+00 0. -1.
          2    1    1    2  501    0 -0.27733001537E+02  0.31690886965E+02  0.64225759246E+02  0.76800910421E+02  0.00000000000E+00 0.  1.
         -2    1    1    2    0  502  0.27733001537E+02 -0.31690886965E+02  0.87511128274E+02  0.97116575633E+02  0.00000000000E+00 0. -1.
</event>
<event>
 4    1  0.1772365E+004  0.2968194E+02  0.7546771E-02  0.1422381E+00
         21   -1    0    0  503  502  0.00000000000E+00  0.00000000000E+00  0.37113407848E+02  0.37113407848E+02  0.00000000000E+00 0.  1.
         21   -1    0    0  501  503 -0.00000000000E+00 -0.00000000000E+00 -0.29815000348E+02  0.29815000348E+02  0.00000000000E+00 0. -1.
          2    1    1    2  501    0 -0.29180150511E+02 -0.54347607065E+01 -0.11458161268E+02  0.31816776509E+02  0.00000000000E+00 0. -1.
         -2    1    1    2    0  502  0.29180150511E+02  0.54347607065E+01  0.18756568767E+02  0.35111631687E+02  0.00000000000E+00 0.  1.
</event>
<event>
 4    1  0.1772365E+004  0.4219051E+02  0.7546771E-02  0.1336106E+00
         21   -1    0    0  503  502  0.00000000000E+00  0.00000000000E+00  0.25849031012E+01  0.25849031012E+01  0.00000000000E+00 0. -1.
         21   -1    0    0  501  503 -0.00000000000E+00 -0.00000000000E+00 -0.14912087701E+04  0.14912087701E+04  0.00000000000E+00 0.  1.
          2    1    1    2  501    0  0.31871311165E+02 -0.27645235940E+02 -0.12922550400E+04  0.12929435904E+04  0.00000000000E+00 0.  1.
         -2    1    1    2    0  502 -0.31871311165E+02  0.27645235940E+02 -0.19636882704E+03  0.20085008284E+03  0.00000000000E+00 0. -1.
</event>
<event>
 4    1  0.1772365E+004  0.2299922E+02  0.7546771E-02  0.1492508E+00
         21   -1    0    0  503  502  0.00000000000E+00  0.00000000000E+00  0.51365203762E+03  0.51365203762E+03  0.00000000000E+00 0.  1.
         21   -1    0    0  501  503 -0.00000000000E+00 -0.00000000000E+00 -0.23847526710E+02  0.23847526710E+02  0.00000000000E+00 0. -1.
          2    1    1    2  501    0  0.22482024423E+02 -0.48500367674E+01 -0.17980764878E+02  0.29193701109E+02  0.00000000000E+00 0. -1.
         -2    1    1    2    0  502 -0.22482024423E+02  0.48500367674E+01  0.50778527579E+03  0.50830586322E+03  0.00000000000E+00 0.  1.
</event>
<event>
 4    1  0.1772365E+004  0.2165979E+02  0.7546771E-02  0.1510050E+00
         21   -1    0    0  503  502  0.00000000000E+00  0.00000000000E+00  0.57372079984E+01  0.57372079984E+01  0.00000000000E+00 0. -1.
         21   -1    0    0  501  503 -0.00000000000E+00 -0.00000000000E+00 -0.12313065057E+03  0.12313065057E+03  0.00000000000E+00 0.  1.
          2    1    1    2  501    0  0.21434605668E+02 -0.31151770831E+01 -0.96039905342E+02  0.98452069895E+02  0.00000000000E+00 0.  1.
         -2    1    1    2    0  502 -0.21434605668E+02  0.31151770831E+01 -0.21353537228E+02  0.30415788673E+02  0.00000000000E+00 0. -1.
</event>
<event>
 4    1  0.1772365E+004  0.2094819E+02  0.7546771E-02  0.1520006E+00
         21   -1    0    0  503  502  0.00000000000E+00  0.00000000000E+00  0.14436577648E+04  0.14436577648E+04  0.00000000000E+00 0.  1.
         21   -1    0    0  501  503 -0.00000000000E+00 -0.00000000000E+00 -0.19982749545E+01  0.19982749545E+01  0.00000000000E+00 0. -1.
          2    1    1    2  501    0 -0.74349735537E+00 -0.20934988451E+02  0.55245036806E+02  0.59083336242E+02  0.00000000000E+00 0. -1.
         -2    1    1    2    0  502  0.74349735537E+00  0.20934988451E+02  0.13864144531E+04  0.13865727036E+04  0.00000000000E+00 0.  1.
</event>
<event>
 4    1  0.1772365E+004  0.3052250E+02  0.7546771E-02  0.1415109E+00
         21   -1    0    0  503  502  0.00000000000E+00  0.00000000000E+00  0.65414843830E+02  0.65414843830E+02  0.00000000000E+00 0.  1.
         21   -1    0    0  501  503 -0.00000000000E+00 -0.00000000000E+00 -0.18146233536E+02  0.18146233536E+02  0.00000000000E+00 0. -1.
          2    1    1    2  501    0 -0.23097923393E+02  0.19952671398E+02  0.42539615546E+01  0.30817516933E+02  0.00000000000E+00 0. -1.
         -2    1    1    2    0  502  0.23097923393E+02 -0.19952671398E+02  0.43014648740E+02  0.52743560433E+02  0.00000000000E+00 0.  1.
</event>
<event>
 4    1  0.1772365E+004  0.7391645E+02  0.7546771E-02  0.1218722E+00
         21   -1    0    0  501  502  0.00000000000E+00  0.00000000000E+00  0.12072476599E+03  0.12072476599E+03  0.00000000000E+00 0. -1.
         21   -1    0    0  502  503 -0.00000000000E+00 -0.00000000000E+00 -0.77599800540E+02  0.77599800540E+02  0.00000000000E+00 0.  1.
          2    1    1    2  501    0  0.19283889034E+02 -0.71356662846E+02  0.85580905860E+02  0.11308285969E+03  0.00000000000E+00 0. -1.
         -2    1    1    2    0  503 -0.19283889034E+02  0.71356662846E+02 -0.42455940407E+02  0.85241706838E+02  0.00000000000E+00 0.  1.
</event>
<event>
 4    1  0.1772365E+004  0.2273875E+02  0.7546771E-02  0.1495805E+00
         21   -1    0    0  503  502  0.00000000000E+00  0.00000000000E+00  0.39536040332E+02  0.39536040332E+02  0.00000000000E+00 0. -1.
         21   -1    0    0  501  503 -0.00000000000E+00 -0.00000000000E+00 -0.32330749911E+02  0.32330749911E+02  0.00000000000E+00 0.  1.
          2    1    1    2  501    0  0.16562021511E+02 -0.15580447254E+02 -0.24126543287E+02  0.33153295223E+02  0.00000000000E+00 0.  1.
         -2    1    1    2    0  502 -0.16562021511E+02  0.15580447254E+02  0.31331833708E+02  0.38713495020E+02  0.00000000000E+00 0. -1.
</event>
<event>
 4    1  0.1772365E+004  0.2860910E+02  0.7546771E-02  0.1432081E+00
         21   -1    0    0  501  502  0.00000000000E+00  0.00000000000E+00  0.73325389193E+02  0.73325389193E+02  0.00000000000E+00 0. -1.
         21   -1    0    0  502  503 -0.00000000000E+00 -0.00000000000E+00 -0.37575535266E+02  0.37575535266E+02  0.00000000000E+00 0.  1.
          2    1    1    2  501    0 -0.10523142140E+02 -0.26603455992E+02  0.64365332854E+02  0.70437039011E+02  0.00000000000E+00 0. -1.
         -2    1    1    2    0  503  0.10523142140E+02  0.26603455992E+02 -0.28615478927E+02  0.40463885447E+02  0.00000000000E+00 0.  1.
</event>
<event>
 4    1  0.1772365E+004  0.2944761E+02  0.7546771E-02  0.1424458E+00
         21   -1    0    0  503  502  0.00000000000E+00  0.00000000000E+00  0.48905265911E+01  0.48905265911E+01  0.00000000000E+00 0.  1.
         21   -1    0    0  501  503 -0.00000000000E+00 -0.00000000000E+00 -0.43347636208E+03  0.43347636208E+03  0.00000000000E+00 0. -1.
          2    1    1    2  501    0 -0.42854066850E+01  0.29134121730E+02 -0.38278604447E+03  0.38391707125E+03  0.00000000000E+00 0. -1.
         -2    1    1    2    0  502  0.42854066850E+01 -0.29134121730E+02 -0.45799791024E+02  0.54449817422E+02  0.00000000000E+00 0.  1.
</event>
<event>
 4    1  0.1772365E+004  0.2502667E+02  0.7546771E-02  0.1468505E+00
         21   -1    0    0  501  502  0.00000000000E+00  0.00000000000E+00  0.19894873516E+01  0.19894873516E+01  0.00000000000E+00 0. -1.
         21   -1    0    0  502  503 -0.00000000000E+00 -0.00000000000E+00 -0.50733707807E+03  0.50733707807E+03  0.00000000000E+00 0.  1.
          2    1    1    2  501    0  0.46270778446E+01 -0.24595205787E+02 -0.95799919294E+02  0.99014940963E+02  0.00000000000E+00 0. -1.
         -2    1    1    2    0  503 -0.46270778446E+01  0.24595205787E+02 -0.40954767142E+03  0.41031162445E+03  0.00000000000E+00 0.  1.
</event>
<event>
 4    1  0.1772365E+004  0.2086334E+02  0.7546771E-02  0.1521225E+00
         21   -1    0    0  503  502  0.00000000000E+00  0.00000000000E+00  0.10396247468E+03  0.10396247468E+03  0.00000000000E+00 0.  1.
         21   -1    0    0  501  503 -0.00000000000E+00 -0.00000000000E+00 -0.45912006573E+01  0.45912006573E+01  0.00000000000E+00 0. -1.
          2    1    1    2  501    0 -0.14214504426E+02 -0.15271769258E+02  0.33578775587E+02  0.39532432790E+02  0.00000000000E+00 0. -1.
         -2    1    1    2    0  502  0.14214504426E+02  0.15271769258E+02  0.65792498433E+02  0.69021242544E+02  0.00000000000E+00 0.  1.
</event>
<event>
 4    1  0.1772365E+004  0.2007601E+02  0.7546771E-02  0.1532877E+00
         21   -1    0    0  501  502  0.00000000000E+00  0.00000000000E+00  0.59140818512E+02  0.59140818512E+02  0.00000000000E+00 0.  1.
         21   -1    0    0  502  503 -0.00000000000E+00 -0.00000000000E+00 -0.35669241778E+02  0.35669241778E+02  0.00000000000E+00 0. -1.
          2    1    1    2  501    0  0.20054210094E+02  0.93539932644E+00  0.54372344010E+02  0.57960314936E+02  0.00000000000E+00 0.  1.
         -2    1    1    2    0  503 -0.20054210094E+02 -0.93539932644E+00 -0.30900767276E+02  0.36849745354E+02  0.00000000000E+00 0. -1.
</event>
<event>
 4    1  0.1772365E+004  0.2164668E+02  0.7546771E-02  0.1510229E+00
         21   -1    0    0  501  502  0.00000000000E+00  0.00000000000E+00  0.39664621085E+02  0.39664621085E+02  0.00000000000E+00 0.  1.
         21   -1    0    0  502  503 -0.00000000000E+00 -0.00000000000E+00 -0.12015358863E+02  0.12015358863E+02  0.00000000000E+00 0. -1.
          2    1    1    2  501    0 -0.20534641604E+02 -0.68488813301E+01  0.10475520936E+02  0.24048185381E+02  0.00000000000E+00 0. -1.
         -2    1    1    2    0  503  0.20534641604E+02  0.68488813301E+01  0.17173741285E+02  0.27631794567E+02  0.00000000000E+00 0.  1.
</event>
<event>
 4    1  0.1772365E+004  0.2910180E+02  0.7546771E-02  0.1427566E+00
         21   -1    0    0  501  502  0.00000000000E+00  0.00000000000E+00  0.30960672864E+02  0.30960672864E+02  0.00000000000E+00 0. -1.
         21   -1    0    0  502  503 -0.00000000000E+00 -0.00000000000E+00 -0.28958917834E+02  0.28958917834E+02  0.00000000000E+00 0.  1.
          2    1    1    2  501    0  0.43579273443E+01 -0.28773658467E+02 -0.60509398668E+01  0.29724212783E+02  0.00000000000E+00 0.  1.
         -2    1    1    2    0  503 -0.43579273443E+01  0.28773658467E+02  0.80526948964E+01  0.30195377915E+02  0.00000000000E+00 0. -1.
</event>
<event>
 4    1  0.1772365E+004  0.3193533E+02  0.7546771E-02  0.1403492E+00
         21   -1    0    0  501  502  0.00000000000E+00  0.00000000000E+00  0.83954982508E+02  0.83954982508E+02  0.00000000000E+00 0. -1.
         21   -1    0    0  502  503 -0.00000000000E+00 -0.00000000000E+00 -0.10634786890E+03  0.10634786890E+03  0.00000000000E+00 0.  1.
          2    1    1    2  501    0  0.27496206847E+02  0.16242653431E+02  0.78355827230E+02  0.84613833634E+02  0.00000000000E+00 0. -1.
         -2    1    1    2    0  503 -0.27496206847E+02 -0.16242653431E+02 -0.10074871362E+03  0.10568901777E+03  0.00000000000E+00 0.  1.
</event>
<event>
 4    1  0.1772365E+004  0.2496913E+02  0.7546771E-02  0.1469149E+00
         21   -1    0    0  501  502  0.00000000000E+00  0.00000000000E+00  0.90612319606E+01  0.90612319606E+01  0.00000000000E+00 0. -1.
         21   -1    0    0  502  503 -0.00000000000E+00 -0.00000000000E+00 -0.24942558351E+03  0.24942558351E+03  0.00000000000E+00 0.  1.
          2    1    1    2  501    0 -0.16417540078E+02  0.18812804222E+02 -0.10200170459E+02  0.26972220938E+02  0.00000000000E+00 0. -1.
         -2    1    1    2    0  503  0.16417540078E+02 -0.18812804222E+02 -0.23016418109E+03  0.23151459454E+03  0.00000000000E+00 0.  1.
</event>
<event>
 4    1  0.1772365E+004  0.2860604E+02  0.7546771E-02  0.1432110E+00
         21   -1    0    0  501  502  0.00000000000E+00  0.00000000000E+00  0.31295472620E+02  0.31295472620E+02  0.00000000000E+00 0.  1.
         21   -1    0    0  502  503 -0.00000000000E+00 -0.00000000000E+00 -0.26290816705E+02  0.26290816705E+02  0.00000000000E+00 0. -1.
          2    1    1    2  501    0 -0.26888724622E+02 -0.97622766248E+01  0.37816777504E+00  0.28608540116E+02  0.00000000000E+00 0.  1.
         -2    1    1    2    0  503  0.26888724622E+02  0.97622766248E+01  0.46264881402E+01  0.28977749209E+02  0.00000000000E+00 0. -1.
</event>
<event>
 4    1  0.1772365E+004  0.2225544E+02  0.7546771E-02  0.1502065E+00
         21   -1    0    0  501  502  0.00000000000E+00  0.00000000000E+00  0.46239372061E+02  0.46239372061E+02  0.00000000000E+00 0.  1.
         21   -1    0    0  502  503 -0.00000000000E+00 -0.00000000000E+00 -0.19579274385E+02  0.19579274385E+02  0.00000000000E+00 0. -1.
          2    1    1    2  501    0 -0.98357262221E+01 -0.19964042144E+02  0.35477405824E+02  0.41880195953E+02  0.00000000000E+00 0.  1.
         -2    1    1    2    0  503  0.98357262221E+01  0.19964042144E+02 -0.88173081478E+01  0.23938450493E+02  0.00000000000E+00 0. -1.
</event>
<event>
 4    1  0.1772365E+004  0.2156505E+02  0.7546771E-02  0.1511348E+00
         21   -1    0    0  501  502  0.00000000000E+00  0.00000000000E+00  0.18406701471E+02  0.18406701471E+02  0.00000000000E+00 0. -1.
         21   -1    0    0  502  503 -0.00000000000E+00 -0.00000000000E+00 -0.25269916137E+02  0.25269916137E+02  0.00000000000E+00 0.  1.
          2    1    1    2  501    0  0.44242296327E+00 -0.21560510496E+02 -0.37258685561E+01  0.21884548143E+02  0.00000000000E+00 0. -1.
         -2    1    1    2    0  503 -0.44242296327E+00  0.21560510496E+02 -0.31373461098E+01  0.21792069464E+02  0.00000000000E+00 0.  1.
</event>
<event>
 4    1  0.1772365E+004  0.2476272E+02  0.7546771E-02  0.1471475E+00
         21   -1    0    0  501  502  0.00000000000E+00  0.00000000000E+00  0.94721382654E+02  0.94721382654E+02  0.00000000000E+00 0.  1.
         21   -1    0    0  502  503 -0.00000000000E+00 -0.00000000000E+00 -0.67977511942E+01  0.67977511942E+01  0.00000000000E+00 0. -1.
          2    1    1    2  501    0 -0.23244988786E+02  0.85359849954E+01  0.55045378310E+02  0.60358812255E+02  0.00000000000E+00 0.  1.
         -2    1    1    2    0  503  0.23244988786E+02 -0.85359849954E+01  0.32878253149E+02  0.41160321593E+02  0.00000000000E+00 0. -1.
</event>
<event>
 4    1  0.1772365E+004  0.2260661E+02  0.7546771E-02  0.1497498E+00
         21   -1    0    0  501  502  0.00000000000E+00  0.00000000000E+00  0.11082168903E+02  0.11082168903E+02  0.00000000000E+00 0.  1.
         21   -1    0    0  502  503 -0.00000000000E+00 -0.00000000000E+00 -0.35788622995E+03  0.35788622995E+03  0.00000000000E+00 0. -1.
          2    1    1    2  501    0  0.14557465338E+02 -0.17295641873E+02 -0.12134294588E+01  0.22639157138E+02  0.00000000000E+00 0.  1.
         -2    1    1    2    0  503 -0.14557465338E+02  0.17295641873E+02 -0.34559063159E+03  0.34632924172E+03  0.00000000000E+00 0. -1.
</event>
<event>
 4    1  0.1772365E+004  0.2163074E+02  0.7546771E-02  0.1510447E+00
         21   -1    0    0  503  502  0.00000000000E+00  0.00000000000E+00  0.12189217373E+02  0.12189217373E+02  0.00000000000E+00 0. -1.
         21   -1    0    0  501  503 -0.00000000000E+00 -0.00000000000E+00 -0.56476766796E+02  0.56476766796E+02  0.00000000000E+00 0.  1.
          2    1    1    2  501    0 -0.19420635559E+02  0.95251102142E+01 -0.41575511399E+02  0.46865893336E+02  0.00000000000E+00 0.  1.
         -2    1    1    2    0  502  0.19420635559E+02 -0.95251102142E+01 -0.27120380236E+01  0.21800090833E+02  0.00000000000E+00 0. -1.
</event>
<event>
 4    1  0.1772365E+004  0.3058241E+02  0.7546771E-02  0.1414602E+00
         21   -1    0    0  501  502  0.00000000000E+00  0.00000000000E+00  0.97239419680E+01  0.97239419680E+01  0.00000000000E+00 0. -1.
         21   -1    0    0  502  503 -0.00000000000E+00 -0.00000000000E+00 -0.72519717884E+03  0.72519717884E+03  0.00000000000E+00 0.  1.
          2    1    1    2  501    0 -0.30581356665E+02 -0.25430732502E+00 -0.15510871737E+02  0.34290978256E+02  0.00000000000E+00 0. -1.
         -2    1    1    2    0  503  0.30581356665E+02  0.25430732502E+00 -0.69996236514E+03  0.70063014255E+03  0.00000000000E+00 0.  1.
</event>
<event>
 4    1  0.1772365E+004  0.2355415E+02  0.7546771E-02  0.1485654E+00
         21   -1    0    0  501  502  0.00000000000E+00  0.00000000000E+00  0.65441705158E+01  0.65441705158E+01  0.00000000000E+00 0. -1.
         21   -1    0    0  502  503 -0.00000000000E+00 -0.00000000000E+00 -0.34872096306E+03  0.34872096306E+03  0.00000000000E+00 0.  1.
          2    1    1    2  501    0  0.18076208907E+02  0.15101284998E+02 -0.16549055959E+02  0.28786618248E+02  0.00000000000E+00 0. -1.
         -2    1    1    2    0  503 -0.18076208907E+02 -0.15101284998E+02 -0.32562773659E+03  0.32647851533E+03  0.00000000000E+00 0.  1.
</event>
<event>
 4    1  0.1772365E+004  0.2277394E+02  0.7546771E-02  0.1495356E+00
         21   -1    0    0  501  502  0.00000000000E+00  0.00000000000E+00  0.11028717447E+03  0.11028717447E+03  0.00000000000E+00 0. -1.
         21   -1    0    0  502  503 -0.00000000000E+00 -0.00000000000E+00 -0.65191862198E+01  0.65191862198E+01  0.00000000000E+00 0.  1.
          2    1    1    2  501    0 -0.12916813287E+01 -0.22737282272E+02  0.82712359092E+02  0.85790365381E+02  0.00000000000E+00 0. -1.
         -2    1    1    2    0  503  0.12916813287E+01  0.22737282272E+02  0.21055629162E+02  0.31015995312E+02  0.00000000000E+00 0.  1.
</event>
<event>
 4    1  0.1772365E+004  0.3690619E+02  0.7546771E-02  0.1367636E+00
         21   -1    0    0  501  502  0.00000000000E+00  0.00000000000E+00  0.32274509820E+03  0.32274509820E+03  0.00000000000E+00 0. -1.
         21   -1    0    0  502  503 -0.00000000000E+00 -0.00000000000E+00 -0.19434602709E+02  0.19434602709E+02  0.00000000000E+00 0.  1.
          2    1    1    2  501    0  0.36750376317E+02  0.33876805301E+01  0.30303336005E+03  0.30527247475E+03  0.00000000000E+00 0. -1.
         -2    1    1    2    0  503 -0.36750376317E+02 -0.33876805301E+01  0.27713544669E+00  0.36907226161E+02  0.00000000000E+00 0.  1.
</event>
<event>
 4    1  0.1772365E+004  0.2197987E+02  0.7546771E-02  0.1505721E+00
         21   -1    0    0  501  502  0.00000000000E+00  0.00000000000E+00  0.21172393490E+02  0.21172393490E+02  0.00000000000E+00 0.  1.
         21   -1    0    0  502  503 -0.00000000000E+00 -0.00000000000E+00 -0.62257331761E+02  0.62257331761E+02  0.00000000000E+00 0. -1.
          2    1    1    2  501    0 -0.20091357147E+02 -0.89135978956E+01  0.12659168979E+02  0.25364727846E+02  0.00000000000E+00 0.  1.
         -2    1    1    2    0  503  0.20091357147E+02  0.89135978956E+01 -0.53744107250E+02  0.58064997404E+02  0.00000000000E+00 0. -1.
</event>
<event>
 4    1  0.1772365E+004  0.2297900E+02  0.7546771E-02  0.1492762E+00
         21   -1    0    0  501  502  0.00000000000E+00  0.00000000000E+00  0.13322734010E+02  0.13322734010E+02  0.00000000000E+00 0.  1.
         21   -1    0    0  502  503 -0.00000000000E+00 -0.00000000000E+00 -0.50005287093E+02  0.50005287093E+02  0.00000000000E+00 0. -1.
          2    1    1    2  501    0 -0.20333323199E+02  0.10704698608E+02 -0.39210480373E+01  0.23311139447E+02  0.00000000000E+00 0. -1.
         -2    1    1    2    0  503  0.20333323199E+02 -0.10704698608E+02 -0.32761505046E+02  0.40016881656E+02  0.00000000000E+00 0.  1.
</event>
<event>
 4    1  0.1772365E+004  0.2286032E+02  0.7546771E-02  0.1494260E+00
         21   -1    0    0  503  502  0.00000000000E+00  0.00000000000E+00  0.44542587667E+01  0.44542587667E+01  0.00000000000E+00 0.  1.
         21   -1    0    0  501  503 -0.00000000000E+00 -0.00000000000E+00 -0.12605375380E+03  0.12605375380E+03  0.00000000000E+00 0. -1.
          2    1    1    2  501    0 -0.22002109914E+02  0.62049423111E+01 -0.77971524544E+02  0.81253632470E+02  0.00000000000E+00 0. -1.
         -2    1    1    2    0  502  0.22002109914E+02 -0.62049423111E+01 -0.43627970490E+02  0.49254380098E+02  0.00000000000E+00 0.  1.
</event>
<event>
 4    1  0.1772365E+004  0.2117962E+02  0.7546771E-02  0.1516716E+00
         21   -1    0    0  501  502  0.00000000000E+00  0.00000000000E+00  0.20708289411E+02  0.20708289411E+02  0.00000000000E+00 0. -1.
         21   -1    0    0  502  503 -0.00000000000E+00 -0.00000000000E+00 -0.35378932228E+02  0.35378932228E+02  0.00000000000E+00 0.  1.
          2    1    1    2  501    0  0.12365376278E+02 -0.17195163125E+02  0.10126730118E+02  0.23476090566E+02  0.00000000000E+00 0. -1.
         -2    1    1    2    0  503 -0.12365376278E+02  0.17195163125E+02 -0.24797372935E+02  0.32611131073E+02  0.00000000000E+00 0.  1.
</event>
<event>
 4    1  0.1772365E+004  0.2415257E+02  0.7546771E-02  0.1478511E+00
         21   -1    0    0  501  502  0.00000000000E+00  0.00000000000E+00  0.27957465716E+03  0.27957465716E+03  0.00000000000E+00 0. -1.
         21   -1    0    0  502  503 -0.00000000000E+00 -0.00000000000E+00 -0.21159405066E+01  0.21159405066E+01  0.00000000000E+00 0.  1.
          2    1    1    2  501    0  0.21685918343E+02 -0.10633314144E+02  0.12212981287E+03  0.12449513089E+03  0.00000000000E+00 0. -1.
         -2    1    1    2    0  503 -0.21685918343E+02  0.10633314144E+02  0.15532890378E+03  0.15719546677E+03  0.00000000000E+00 0.  1.
</event>
<event>
 4    1  0.1772365E+004  0.2268927E+02  0.7546771E-02  0.1496437E+00
         21   -1    0    0  501  502  0.00000000000E+00  0.00000000000E+00  0.49319614282E+01  0.49319614282E+01  0.00000000000E+00 0. -1.
         21   -1    0    0  502  503 -0.00000000000E+00 -0.00000000000E+00 -0.10499141932E+03  0.10499141932E+03  0.00000000000E+00 0.  1.
          2    1    1    2  501    0 -0.11394630552E+02  0.19620531995E+02 -0.45838796771E+02  0.51146829526E+02  0.00000000000E+00 0. -1.
         -2    1    1    2    0  503  0.11394630552E+02 -0.19620531995E+02 -0.54220661119E+02  0.58776551221E+02  0.00000000000E+00 0.  1.
</event>
<event>
 4    1  0.1772365E+004  0.2552203E+02  0.7546771E-02  0.1463047E+00
         21   -1    0    0  501  502  0.00000000000E+00  0.00000000000E+00  0.48068082732E+00  0.48068082732E+00  0.00000000000E+00 0.  1.
         21   -1    0    0  502  503 -0.00000000000E+00 -0.00000000000E+00 -0.15447401741E+04  0.15447401741E+04  0.00000000000E+00 0. -1.
          2    1    1    2  501    0 -0.21919288933E+02 -0.13073585640E+02 -0.50142853210E+03  0.50207763013E+03  0.00000000000E+00 0. -1.
         -2    1    1    2    0  503  0.21919288933E+02  0.13073585640E+02 -0.10428309611E+04  0.10431432248E+04  0.00000000000E+00 0.  1.
</event>
<event>
 4    1  0.1772365E+004  0.3336487E+02  0.7546771E-02  0.1392438E+00
         21   -1    0    0  503  502  0.00000000000E+00  0.00000000000E+00  0.32336388072E+02  0.32336388072E+02  0.00000000000E+00 0.  1.
         21   -1    0    0  501  503 -0.00000000000E+00 -0.00000000000E+00 -0.51754521275E+02  0.51754521275E+02  0.00000000000E+00 0. -1.
          2    1    1    2  501    0 -0.19507206986E+02  0.27068126403E+02 -0.34038099473E+02  0.47663474560E+02  0.00000000000E+00 0. -1.
         -2    1    1    2    0  502  0.19507206986E+02 -0.27068126403E+02  0.14619966270E+02  0.36427434787E+02  0.00000000000E+00 0.  1.
</event>
<event>
 4    1  0.1772365E+004  0.3144382E+02  0.7546771E-02  0.1407451E+00
         21   -1    0    0  503  502  0.00000000000E+00  0.00000000000E+00  0.18602677875E+03  0.18602677875E+03  0.00000000000E+00 0. -1.
         21   -1    0    0  501  503 -0.00000000000E+00 -0.00000000000E+00 -0.21223473114E+02  0.21223473114E+02  0.00000000000E+00 0.  1.
          2    1    1    2  501    0 -0.23612215742E+02 -0.20764800572E+02 -0.73148758685E+01  0.32283449072E+02  0.00000000000E+00 0.  1.
         -2    1    1    2    0  502  0.23612215742E+02  0.20764800572E+02  0.17211818150E+03  0.17496680279E+03  0.00000000000E+00 0. -1.
</event>
<event>
 4    1  0.1772365E+004  0.2459252E+02  0.7546771E-02  0.1473414E+00
         21   -1    0    0  503  502  0.00000000000E+00  0.00000000000E+00  0.94197998476E+01  0.94197998476E+01  0.00000000000E+00 0. -1.
         21   -1    0    0  501  503 -0.00000000000E+00 -0.00000000000E+00 -0.66398340851E+02  0.66398340851E+02  0.00000000000E+00 0.  1.
          2    1    1    2  501    0 -0.21733593204E+02 -0.11508393601E+02 -0.21598287385E+02  0.32730386720E+02  0.00000000000E+00 0. -1.
         -2    1    1    2    0  502  0.21733593204E+02  0.11508393601E+02 -0.35380253619E+02  0.43087753980E+02  0.00000000000E+00 0.  1.
</event>
<event>
 4    1  0.1772365E+004  0.2077241E+02  0.7546771E-02  0.1522539E+00
         21   -1    0    0  501  502  0.00000000000E+00  0.00000000000E+00  0.52418639720E+02  0.52418639720E+02  0.00000000000E+00 0. -1.
         21   -1    0    0  502  503 -0.00000000000E+00 -0.00000000000E+00 -0.12932266336E+02  0.12932266336E+02  0.00000000000E+00 0.  1.
          2    1    1    2  501    0  0.19960787039E+02 -0.57497759353E+01  0.39442939544E+02  0.44578452445E+02  0.00000000000E+00 0. -1.
         -2    1    1    2    0  503 -0.19960787039E+02  0.57497759353E+01  0.43433839028E-01  0.20772453611E+02  0.00000000000E+00 0.  1.
</event>
<event>
 4    1  0.1772365E+004  0.3873399E+02  0.7546771E-02  0.1356069E+00
         21   -1    0    0  501  502  0.00000000000E+00  0.00000000000E+00  0.30321916946E+02  0.30321916946E+02  0.00000000000E+00 0. -1.
         21   -1    0    0  502  503 -0.00000000000E+00 -0.00000000000E+00 -0.51316567374E+02  0.51316567374E+02  0.00000000000E+00 0.  1.
          2    1    1    2  501    0  0.28503117019E+02 -0.26227745478E+02 -0.18219924543E+02  0.42805232893E+02  0.00000000000E+00 0.  1.
         -2    1    1    2    0  503 -0.28503117019E+02  0.26227745478E+02 -0.27747258843E+01  0.38833251427E+02  0.00000000000E+00 0. -1.
</event>
<event>
 4    1  0.1772365E+004  0.2272256E+02  0.7546771E-02  0.1496012E+00
         21   -1    0    0  503  502  0.00000000000E+00  0.00000000000E+00  0.26942048244E+02  0.26942048244E+02  0.00000000000E+00 0. -1.
         21   -1    0    0  501  503 -0.00000000000E+00 -0.00000000000E+00 -0.20263989547E+02  0.20263989547E+02  0.00000000000E+00 0.  1.
          2    1    1    2  501    0 -0.12806063353E+02 -0.18770170830E+02 -0.21604322271E+01  0.22825030975E+02  0.00000000000E+00 0. -1.
         -2    1    1    2    0  502  0.12806063353E+02  0.18770170830E+02  0.88384909242E+01  0.24381006817E+02  0.00000000000E+00 0.  1.
</event>
<event>
 4    1  0.1772365E+004  0.3088284E+02  0.7546771E-02  0.1412076E+00
         21   -1    0    0  503  502  0.00000000000E+00  0.00000000000E+00  0.71575203699E+02  0.71575203699E+02  0.00000000000E+00 0.  1.
         21   -1    0    0  501  503 -0.00000000000E+00 -0.00000000000E+00 -0.62951105601E+02  0.62951105601E+02  0.00000000000E+00 0. -1.
          2    1    1    2  501    0  0.14029412653E+02  0.27512273447E+02 -0.55409358658E+02  0.63434585492E+02  0.00000000000E+00 0. -1.
         -2    1    1    2    0  502 -0.14029412653E+02 -0.27512273447E+02  0.64033456757E+02  0.71091723807E+02  0.00000000000E+00 0.  1.
</event>
<event>
 4    1  0.1772365E+004  0.3292932E+02  0.7546771E-02  0.1395736E+00
         21   -1    0    0  501  502  0.00000000000E+00  0.00000000000E+00  0.64793208942E+01  0.64793208942E+01  0.00000000000E+00 0. -1.
         21   -1    0    0  502  503 -0.00000000000E+00 -0.00000000000E+00 -0.10770847244E+04  0.10770847244E+04  0.00000000000E+00 0.  1.
          2    1    1    2  501    0 -0.26693277056E+02 -0.19282357856E+02 -0.37386698870E+02  0.49820734808E+02  0.00000000000E+00 0. -1.
         -2    1    1    2    0  503  0.26693277056E+02  0.19282357856E+02 -0.10332187046E+04  0.10337433105E+04  0.00000000000E+00 0.  1.
</event>
<event>
 4    1  0.1772365E+004  0.2004788E+02  0.7546771E-02  0.1533305E+00
         21   -1    0    0  503  502  0.00000000000E+00  0.00000000000E+00  0.48290384927E+01  0.48290384927E+01  0.00000000000E+00 0. -1.
         21   -1    0    0  501  503 -0.00000000000E+00 -0.00000000000E+00 -0.83646471894E+02  0.83646471894E+02  0.00000000000E+00 0.  1.
          2    1    1    2  501    0 -0.19905250238E+02  0.23871589850E+01 -0.36284620083E+02  0.41454688150E+02  0.00000000000E+00 0.  1.
         -2    1    1    2    0  502  0.19905250238E+02 -0.23871589850E+01 -0.42532813318E+02  0.47020822237E+02  0.00000000000E+00 0. -1.
</event>
<event>
 4    1  0.1772365E+004  0.2987061E+02  0.7546771E-02  0.1420724E+00
         21   -1    0    0  501  502  0.00000000000E+00  0.00000000000E+00  0.45190905563E+01  0.45190905563E+01  0.00000000000E+00 0. -1.
         21   -1    0    0  502  503 -0.00000000000E+00 -0.00000000000E+00 -0.21772356963E+03  0.21772356963E+03  0.00000000000E+00 0.  1.
          2    1    1    2  501    0 -0.28420934518E+02 -0.91926078592E+01 -0.72686079907E+02  0.78584475378E+02  0.00000000000E+00 0. -1.
         -2    1    1    2    0  503  0.28420934518E+02  0.91926078592E+01 -0.14051839917E+03  0.14365818481E+03  0.00000000000E+00 0.  1.
</event>
<event>
 4    1  0.1772365E+004  0.2390815E+02  0.7546771E-02  0.1481399E+00
         21   -1    0    0  501  502  0.00000000000E+00  0.00000000000E+00  0.29162327738E+01  0.29162327738E+01  0.00000000000E+00 0. -1.
         21   -1    0    0  502  503 -0.00000000000E+00 -0.00000000000E+00 -0.22988825711E+03  0.22988825711E+03  0.00000000000E+00 0.  1.
          2    1    1    2  501    0 -0.17385578948E+02  0.16411615058E+02 -0.68798273854E+02  0.72834071350E+02  0.00000000000E+00 0.  1.
         -2    1    1    2    0  503  0.17385578948E+02 -0.16411615058E+02 -0.15817375049E+03  0.15997041854E+03  0.00000000000E+00 0. -1.
</event>
<event>
 4    1  0.1772365E+004  0.2683882E+02  0.7546771E-02  0.1449234E+00
         21   -1    0    0  503  502  0.00000000000E+00  0.00000000000E+00  0.22754949706E+04  0.22754949706E+04  0.00000000000E+00 0. -1.
         21   -1    0    0  501  503 -0.00000000000E+00 -0.00000000000E+00 -0.41939825896E+00  0.41939825896E+00  0.00000000000E+00 0.  1.
          2    1    1    2  501    0  0.14552974766E+02 -0.22550684143E+02  0.57403297156E+03  0.57466005156E+03  0.00000000000E+00 0.  1.
         -2    1    1    2    0  502 -0.14552974766E+02  0.22550684143E+02  0.17010426007E+04  0.17012543173E+04  0.00000000000E+00 0. -1.
</event>
<event>
 4    1  0.1772365E+004  0.2221217E+02  0.7546771E-02  0.1502635E+00
         21   -1    0    0  503  502  0.00000000000E+00  0.00000000000E+00  0.93104019683E+02  0.93104019683E+02  0.00000000000E+00 0.  1.
         21   -1    0    0  501  503 -0.00000000000E+00 -0.00000000000E+00 -0.73485908635E+01  0.73485908635E+01  0.00000000000E+00 0. -1.
          2    1    1    2  501    0  0.21613276615E+02 -0.51231655959E+01  0.16353816365E+02  0.27583108263E+02  0.00000000000E+00 0. -1.
         -2    1    1    2    0  502 -0.21613276615E+02  0.51231655959E+01  0.69401612454E+02  0.72869502283E+02  0.00000000000E+00 0.  1.
</event>
<event>
 4    1  0.1772365E+004  0.6205157E+02  0.7546771E-02  0.1253017E+00
         21   -1    0    0  501  502  0.00000000000E+00  0.00000000000E+00  0.33361100526E+02  0.33361100526E+02  0.00000000000E+00 0. -1.
         21   -1    0    0  502  503 -0.00000000000E+00 -0.00000000000E+00 -0.24377851839E+03  0.24377851839E+03  0.00000000000E+00 0.  1.
          2    1    1    2  501    0  0.30645961155E+02  0.53955743903E+02 -0.46567814028E+01  0.62226062452E+02  0.00000000000E+00 0. -1.
         -2    1    1    2    0  503 -0.30645961155E+02 -0.53955743903E+02 -0.20576063646E+03  0.21491355647E+03  0.00000000000E+00 0.  1.
</event>
<event>
 4    1  0.1772365E+004  0.2182968E+02  0.7546771E-02  0.1507741E+00
         21   -1    0    0  501  502  0.00000000000E+00  0.00000000000E+00  0.91166573575E+03  0.91166573575E+03  0.00000000000E+00 0.  1.
         21   -1    0    0  502  503 -0.00000000000E+00 -0.00000000000E+00 -0.56074803938E+02  0.56074803938E+02  0.00000000000E+00 0. -1.
          2    1    1    2  501    0  0.86965608824E+01 -0.20022600975E+02  0.90940522938E+03  0.90966719516E+03  0.00000000000E+00 0.  1.
         -2    1    1    2    0  503 -0.86965608824E+01  0.20022600975E+02 -0.53814297573E+02  0.58073344525E+02  0.00000000000E+00 0. -1.
</event>
<event>
 4    1  0.1772365E+004  0.2261997E+02  0.7546771E-02  0.1497326E+00
         21   -1    0    0  501  502  0.00000000000E+00  0.00000000000E+00  0.32949555659E+02  0.32949555659E+02  0.00000000000E+00 0.  1.
         21   -1    0    0  502  503 -0.00000000000E+00 -0.00000000000E+00 -0.20551898454E+02  0.20551898454E+02  0.00000000000E+00 0. -1.
          2    1    1    2  501    0  0.22425637138E+02 -0.29586772708E+01  0.19423985276E+02  0.29815334582E+02  0.00000000000E+00 0.  1.
         -2    1    1    2    0  503 -0.22425637138E+02  0.29586772708E+01 -0.70263280720E+01  0.23686119531E+02  0.00000000000E+00 0. -1.
</event>
<event>
 4    1  0.1772365E+004  0.3798221E+02  0.7546771E-02  0.1360734E+00
         21   -1    0    0  503  502  0.00000000000E+00  0.00000000000E+00  0.15952477475E+03  0.15952477475E+03  0.00000000000E+00 0.  1.
         21   -1    0    0  501  503 -0.00000000000E+00 -0.00000000000E+00 -0.13279107332E+02  0.13279107332E+02  0.00000000000E+00 0. -1.
          2    1    1    2  501    0  0.35317452407E+02  0.13975897406E+02  0.24324897962E+02  0.45103756093E+02  0.00000000000E+00 0. -1.
         -2    1    1    2    0  502 -0.35317452407E+02 -0.13975897406E+02  0.12192076946E+03  0.12770012599E+03  0.00000000000E+00 0.  1.
</event>
<event>
 4    1  0.1772365E+004  0.3375213E+02  0.7546771E-02  0.1389555E+00
         21   -1    0    0  501  502  0.00000000000E+00  0.00000000000E+00  0.20055491269E+03  0.20055491269E+03  0.00000000000E+00 0. -1.
         21   -1    0    0  502  503 -0.00000000000E+00 -0.00000000000E+00 -0.15403661256E+02  0.15403661256E+02  0.00000000000E+00 0.  1.
          2    1    1    2  501    0  0.21337667850E+02  0.26151675992E+02  0.17836575794E+03  0.18153112634E+03  0.00000000000E+00 0. -1.
         -2    1    1    2    0  503 -0.21337667850E+02 -0.26151675992E+02  0.67854934964E+01  0.34427447603E+02  0.00000000000E+00 0.  1.
</event>
<event>
 4    1  0.1772365E+004  0.3938099E+02  0.7546771E-02  0.1352152E+00
         21   -1    0    0  503  502  0.00000000000E+00  0.00000000000E+00  0.59903656383E+02  0.59903656383E+02  0.00000000000E+00 0.  1.
         21   -1    0    0  501  503 -0.00000000000E+00 -0.00000000000E+00 -0.47069707792E+02  0.47069707792E+02  0.00000000000E+00 0. -1.
          2    1    1    2  501    0  0.20828399752E+02 -0.33422146572E+02 -0.29462191924E+02  0.49182139753E+02  0.00000000000E+00 0. -1.
         -2    1    1    2    0  502 -0.20828399752E+02  0.33422146572E+02  0.42296140515E+02  0.57791224422E+02  0.00000000000E+00 0.  1.
</event>
<event>
 4    1  0.1772365E+004  0.2611115E+02  0.7546771E-02  0.1456747E+00
         21   -1    0    0  503  502  0.00000000000E+00  0.00000000000E+00  0.32187331673E+02  0.32187331673E+02  0.00000000000E+00 0. -1.
         21   -1    0    0  501  503 -0.00000000000E+00 -0.00000000000E+00 -0.33856423704E+02  0.33856423704E+02  0.00000000000E+00 0.  1.
          2    1    1    2  501    0 -0.36075343005E+01  0.25860735452E+02 -0.21038919929E+02  0.33532493102E+02  0.00000000000E+00 0.  1.
         -2    1    1    2    0  502  0.36075343005E+01 -0.25860735452E+02  0.19369827898E+02  0.32511262274E+02  0.00000000000E+00 0. -1.
</event>
<event>
 4    1  0.1772365E+004  0.2188423E+02  0.7546771E-02  0.1507005E+00
         21   -1    0    0  501  502  0.00000000000E+00  0.00000000000E+00  0.66654810200E+02  0.66654810200E+02  0.00000000000E+00 0.  1.
         21   -1    0    0  502  503 -0.00000000000E+00 -0.00000000000E+00 -0.31983233908E+02  0.31983233908E+02  0.00000000000E+00 0. -1.
          2    1    1    2  501    0 -0.11067875186E+01  0.21856229091E+02  0.60763105190E+02  0.64583857743E+02  0.00000000000E+00 0.  1.
         -2    1    1    2    0  503  0.11067875186E+01 -0.21856229091E+02 -0.26091528898E+02  0.34054186364E+02  0.00000000000E+00 0. -1.
</event>
<event>
 4    1  0.1772365E+004  0.3722026E+02  0.7546771E-02  0.1365593E+00
         21   -1    0    0  503  502  0.00000000000E+00  0.00000000000E+00  0.58887293121E+01  0.58887293121E+01  0.00000000000E+00 0.  1.
         21   -1    0    0  501  503 -0.00000000000E+00 -0.00000000000E+00 -0.41433999565E+03  0.41433999565E+03  0.00000000000E+00 0. -1.
          2    1    1    2  501    0  0.21864887329E+02  0.30120995659E+02 -0.34236199403E+03  0.34437927150E+03  0.00000000000E+00 0. -1.
         -2    1    1    2    0  502 -0.21864887329E+02 -0.30120995659E+02 -0.66089272306E+02  0.75849453468E+02  0.00000000000E+00 0.  1.
</event>
<event>
 4    1  0.1772365E+004  0.2753244E+02  0.7546771E-02  0.1442332E+00
         21   -1    0    0  503  502  0.00000000000E+00  0.00000000000E+00  0.20933134450E+03  0.20933134450E+03  0.00000000000E+00 0.  1.
         21   -1    0    0  501  503 -0.00000000000E+00 -0.00000000000E+00 -0.70337655323E+02  0.70337655323E+02  0.00000000000E+00 0. -1.
          2    1    1    2  501    0 -0.27532164949E+02 -0.12198034265E+00 -0.66690516557E+02  0.72150259768E+02  0.00000000000E+00 0. -1.
         -2    1    1    2    0  502  0.27532164949E+02  0.12198034265E+00  0.20568420573E+03  0.20751874006E+03  0.00000000000E+00 0.  1.
</event>
<event>
 4    1  0.1772365E+004  0.2772581E+02  0.7546771E-02  0.1440450E+00
         21   -1    0    0  501  502  0.00000000000E+00  0.00000000000E+00  0.66151900478E+00  0.66151900478E+00  0.00000000000E+00 0. -1.
         21   -1    0    0  502  503 -0.00000000000E+00 -0.00000000000E+00 -0.15363762602E+04  0.15363762602E+04  0.00000000000E+00 0.  1.
          2    1    1    2  501    0 -0.24677955142E+02  0.12638005886E+02 -0.38851731359E+03  0.38950535763E+03  0.00000000000E+00 0. -1.
         -2    1    1    2    0  503  0.24677955142E+02 -0.12638005886E+02 -0.11471974276E+04  0.11475324216E+04  0.00000000000E+00 0.  1.
</event>
<event>
 4    1  0.1772365E+004  0.3014754E+02  0.7546771E-02  0.1418319E+00
         21   -1    0    0  501  502  0.00000000000E+00  0.00000000000E+00  0.56487589546E+01  0.56487589546E+01  0.00000000000E+00 0.  1.
         21   -1    0    0  502  503 -0.00000000000E+00 -0.00000000000E+00 -0.19126508078E+03  0.19126508078E+03  0.00000000000E+00 0. -1.
          2    1    1    2  501    0 -0.26508087568E+02  0.14359509766E+02 -0.53577135580E+02  0.61476692203E+02  0.00000000000E+00 0.  1.
         -2    1    1    2    0  503  0.26508087568E+02 -0.14359509766E+02 -0.13203918624E+03  0.13543714753E+03  0.00000000000E+00 0. -1.
</event>
<event>
 4    1  0.1772365E+004  0.2401491E+02  0.7546771E-02  0.1480132E+00
         21   -1    0    0  501  502  0.00000000000E+00  0.00000000000E+00  0.45601426521E+02  0.45601426521E+02  0.00000000000E+00 0.  1.
         21   -1    0    0  502  503 -0.00000000000E+00 -0.00000000000E+00 -0.33087388637E+02  0.33087388637E+02  0.00000000000E+00 0. -1.
          2    1    1    2  501    0  0.89907541862E+01  0.22268415297E+02  0.37181154191E+02  0.44262333961E+02  0.00000000000E+00 0.  1.
         -2    1    1    2    0  503 -0.89907541862E+01 -0.22268415297E+02 -0.24667116308E+02  0.34426481197E+02  0.00000000000E+00 0. -1.
</event>
<event>
 4    1  0.1772365E+004  0.2161221E+02  0.7546771E-02  0.1510701E+00
         21   -1    0    0  501  502  0.00000000000E+00  0.00000000000E+00  0.37178442217E+02  0.37178442217E+02  0.00000000000E+00 0. -1.
         21   -1    0    0  502  503 -0.00000000000E+00 -0.00000000000E+00 -0.42015504815E+02  0.42015504815E+02  0.00000000000E+00 0.  1.
          2    1    1    2  501    0  0.21569750816E+02 -0.13540582778E+01  0.30733899116E+02  0.37572066472E+02  0.00000000000E+00 0. -1.
         -2    1    1    2    0  503 -0.21569750816E+02  0.13540582778E+01 -0.35570961715E+02  0.41621880561E+02  0.00000000000E+00 0.  1.
</event>
<event>
 4    1  0.1772365E+004  0.3020671E+02  0.7546771E-02  0.1417808E+00
         21   -1    0    0  503  502  0.00000000000E+00  0.00000000000E+00  0.12249554222E+03  0.12249554222E+03  0.00000000000E+00 0.  1.
         21   -1    0    0  501  503 -0.00000000000E+00 -0.00000000000E+00 -0.90851240678E+01  0.90851240678E+01  0.00000000000E+00 0. -1.
          2    1    1    2  501    0 -0.23411858553E+02 -0.19087440074E+02  0.28784235286E+02  0.41725024751E+02  0.00000000000E+00 0.  1.
         -2    1    1    2    0  502  0.23411858553E+02  0.19087440074E+02  0.84626182865E+02  0.89855641536E+02  0.00000000000E+00 0. -1.
</event>
<event>
 4    1  0.1772365E+004  0.2313831E+02  0.7546771E-02  0.1490769E+00
         21   -1    0    0  503  502  0.00000000000E+00  0.00000000000E+00  0.29080013118E+01  0.29080013118E+01  0.00000000000E+00 0. -1.
         21   -1    0    0  501  503 -0.00000000000E+00 -0.00000000000E+00 -0.32828129234E+03  0.32828129234E+03  0.00000000000E+00 0.  1.
          2    1    1    2  501    0  0.14861639305E+02  0.17734512031E+02 -0.27242747987E+03  0.27340832655E+03  0.00000000000E+00 0.  1.
         -2    1    1    2    0  502 -0.14861639305E+02 -0.17734512031E+02 -0.52945811162E+02  0.57780967103E+02  0.00000000000E+00 0. -1.
</event>
<event>
 4    1  0.1772365E+004  0.2039115E+02  0.7546771E-02  0.1528138E+00
         21   -1    0    0  501  502  0.00000000000E+00  0.00000000000E+00  0.19009177518E+03  0.19009177518E+03  0.00000000000E+00 0. -1.
         21   -1    0    0  502  503 -0.00000000000E+00 -0.00000000000E+00 -0.23297238347E+01  0.23297238347E+01  0.00000000000E+00 0.  1.
          2    1    1    2  501    0 -0.10848613724E+02 -0.17265766809E+02  0.11766428619E+03  0.11941810318E+03  0.00000000000E+00 0. -1.
         -2    1    1    2    0  503  0.10848613724E+02  0.17265766809E+02  0.70097765163E+02  0.73003395839E+02  0.00000000000E+00 0.  1.
</event>
<event>
 4    1  0.1772365E+004  0.2302234E+02  0.7546771E-02  0.1492218E+00
         21   -1    0    0  501  502  0.00000000000E+00  0.00000000000E+00  0.30676427236E+02  0.30676427236E+02  0.00000000000E+00 0.  1.
         21   -1    0    0  502  503 -0.00000000000E+00 -0.00000000000E+00 -0.52001116108E+03  0.52001116108E+03  0.00000000000E+00 0. -1.
          2    1    1    2  501    0 -0.21393363384E+02 -0.85060156509E+01  0.26063461743E+02  0.34775455959E+02  0.00000000000E+00 0.  1.
         -2    1    1    2    0  503  0.21393363384E+02  0.85060156509E+01 -0.51539819559E+03  0.51591213236E+03  0.00000000000E+00 0. -1.
</event>
<event>
 4    1  0.1772365E+004  0.3336575E+02  0.7546771E-02  0.1392431E+00
         21   -1    0    0  501  502  0.00000000000E+00  0.00000000000E+00  0.23719294299E+03  0.23719294299E+03  0.00000000000E+00 0. -1.
         21   -1    0    0  502  503 -0.00000000000E+00 -0.00000000000E+00 -0.14024522118E+02  0.14024522118E+02  0.00000000000E+00 0.  1.
          2    1    1    2  501    0 -0.30052438710E+02 -0.14495653101E+02  0.21404073656E+03  0.21662573702E+03  0.00000000000E+00 0. -1.
         -2    1    1    2    0  503  0.30052438710E+02  0.14495653101E+02  0.91276843097E+01  0.34591728088E+02  0.00000000000E+00 0.  1.
</event>
<event>
 4    1  0.1772365E+004  0.3174105E+02  0.7546771E-02  0.1405047E+00
         21   -1    0    0  501  502  0.00000000000E+00  0.00000000000E+00  0.10089867785E+03  0.10089867785E+03  0.00000000000E+00 0. -1.
         21   -1    0    0  502  503 -0.00000000000E+00 -0.00000000000E+00 -0.10087602189E+02  0.10087602189E+02  0.00000000000E+00 0.  1.
          2    1    1    2  501    0  0.14372301392E+02 -0.28300732751E+02  0.50996390076E+02  0.60067681180E+02  0.00000000000E+00 0.  1.
         -2    1    1    2    0  503 -0.14372301392E+02  0.28300732751E+02  0.39814685584E+02  0.50918598858E+02  0.00000000000E+00 0. -1.
</event>
<event>
 4    1  0.1772365E+004  0.2854752E+02  0.7546771E-02  0.1432653E+00
         21   -1    0    0  501  502  0.00000000000E+00  0.00000000000E+00  0.17324249374E+02  0.17324249374E+02  0.00000000000E+00 0.  1.
         21   -1    0    0  502  503 -0.00000000000E+00 -0.00000000000E+00 -0.78581804069E+02  0.78581804069E+02  0.00000000000E+00 0. -1.
          2    1    1    2  501    0 -0.28489532216E+02  0.18186100800E+01 -0.24882238848E+00  0.28548602437E+02  0.00000000000E+00 0. -1.
         -2    1    1    2    0  503  0.28489532216E+02 -0.18186100800E+01 -0.61008732306E+02  0.67357451007E+02  0.00000000000E+00 0.  1.
</event>
<event>
 4    1  0.1772365E+004  0.2014825E+02  0.7546771E-02  0.1531781E+00
         21   -1    0    0  503  502  0.00000000000E+00  0.00000000000E+00  0.62864797028E+00  0.62864797028E+00  0.00000000000E+00 0. -1.
         21   -1    0    0  501  503 -0.00000000000E+00 -0.00000000000E+00 -0.66970877146E+03  0.66970877146E+03  0.00000000000E+00 0.  1.
          2    1    1    2  501    0  0.57639427639E+01 -0.19306187217E+02 -0.27115059887E+03  0.27189814116E+03  0.00000000000E+00 0. -1.
         -2    1    1    2    0  502 -0.57639427639E+01  0.19306187217E+02 -0.39792952463E+03  0.39843927827E+03  0.00000000000E+00 0.  1.
</event>
<event>
 4    1  0.1772365E+004  0.2598589E+02  0.7546771E-02  0.1458070E+00
         21   -1    0    0  501  502  0.00000000000E+00  0.00000000000E+00  0.39722958646E+03  0.39722958646E+03  0.00000000000E+00 0. -1.
         21   -1    0    0  502  503 -0.00000000000E+00 -0.00000000000E+00 -0.25366385717E+01  0.25366385717E+01  0.00000000000E+00 0.  1.
          2    1    1    2  501    0  0.25432185935E+02  0.53357437971E+01  0.31214371879E+03  0.31322351033E+03  0.00000000000E+00 0. -1.
         -2    1    1    2    0  503 -0.25432185935E+02 -0.53357437971E+01  0.82549229104E+02  0.86542714707E+02  0.00000000000E+00 0.  1.
</event>
<event>
 4    1  0.1772365E+004  0.4607708E+02  0.7546771E-02  0.1316140E+00
         21   -1    0    0  501  502  0.00000000000E+00  0.00000000000E+00  0.56236136952E+02  0.56236136952E+02  0.00000000000E+00 0. -1.
         21   -1    0    0  502  503 -0.00000000000E+00 -0.00000000000E+00 -0.61575014665E+02  0.61575014665E+02  0.00000000000E+00 0.  1.
          2    1    1    2  501    0  0.35919349843E+02  0.28859966849E+02  0.33969343915E+02  0.57245206836E+02  0.00000000000E+00 0. -1.
         -2    1    1    2    0  503 -0.35919349843E+02 -0.28859966849E+02 -0.39308221628E+02  0.60565944781E+02  0.00000000000E+00 0.  1.
</event>
<event>
 4    1  0.1772365E+004  0.2087702E+02  0.7546771E-02  0.1521028E+00
         21   -1    0    0  501  502  0.00000000000E+00  0.00000000000E+00  0.11387678927E+02  0.11387678927E+02  0.00000000000E+00 0. -1.
         21   -1    0    0  502  503 -0.00000000000E+00 -0.00000000000E+00 -0.44902134555E+02  0.44902134555E+02  0.00000000000E+00 0.  1.
          2    1    1    2  501    0  0.15584892238E+01 -0.20818772329E+02 -0.59437022728E+01  0.21706629556E+02  0.00000000000E+00 0. -1.
         -2    1    1    2    0  503 -0.15584892238E+01  0.20818772329E+02 -0.27570753355E+02  0.34583183927E+02  0.00000000000E+00 0.  1.
</event>
<event>
 4    1  0.1772365E+004  0.3977609E+02  0.7546771E-02  0.1349803E+00
         21   -1    0    0  501  502  0.00000000000E+00  0.00000000000E+00  0.25191605644E+02  0.25191605644E+02  0.00000000000E+00 0. -1.
         21   -1    0    0  502  503 -0.00000000000E+00 -0.00000000000E+00 -0.62804792290E+02  0.62804792290E+02  0.00000000000E+00 0.  1.
          2    1    1    2  501    0  0.22156108715E+02 -0.33033990026E+02 -0.18667072588E+02  0.43938562214E+02  0.00000000000E+00 0. -1.
         -2    1    1    2    0  503 -0.22156108715E+02  0.33033990026E+02 -0.18946114058E+02  0.44057835720E+02  0.00000000000E+00 0.  1.
</event>
<event>
 4    1  0.1772365E+004  0.2042141E+02  0.7546771E-02  0.1527688E+00
         21   -1    0    0  503  502  0.00000000000E+00  0.00000000000E+00  0.60668732403E+02  0.60668732403E+02  0.00000000000E+00 0.  1.
         21   -1    0    0  501  503 -0.00000000000E+00 -0.00000000000E+00 -0.74279024171E+01  0.74279024171E+01  0.00000000000E+00 0. -1.
          2    1    1    2  501    0 -0.13134039625E+02  0.15637482084E+02  0.17322218316E+02  0.26778593881E+02  0.00000000000E+00 0.  1.
         -2    1    1    2    0  502  0.13134039625E+02 -0.15637482084E+02  0.35918611670E+02  0.41318040940E+02  0.00000000000E+00 0. -1.
</event>
<event>
 4    1  0.1772365E+004  0.2834796E+02  0.7546771E-02  0.1434518E+00
         21   -1    0    0  501  502  0.00000000000E+00  0.00000000000E+00  0.67624292847E+01  0.67624292847E+01  0.00000000000E+00 0. -1.
         21   -1    0    0  502  503 -0.00000000000E+00 -0.00000000000E+00 -0.19056580112E+03  0.19056580112E+03  0.00000000000E+00 0.  1.
          2    1    1    2  501    0  0.21645991805E+02  0.18304582055E+02 -0.31368638573E+02  0.42279997296E+02  0.00000000000E+00 0. -1.
         -2    1    1    2    0  503 -0.21645991805E+02 -0.18304582055E+02 -0.15243473326E+03  0.15504823311E+03  0.00000000000E+00 0.  1.
</event>
<event>
 4    1  0.1772365E+004  0.2139378E+02  0.7546771E-02  0.1513716E+00
         21   -1    0    0  503  502  0.00000000000E+00  0.00000000000E+00  0.83165181954E+03  0.83165181954E+03  0.00000000000E+00 0. -1.
         21   -1    0    0  501  503 -0.00000000000E+00 -0.00000000000E+00 -0.13307296623E+01  0.13307296623E+01  0.00000000000E+00 0.  1.
          2    1    1    2  501    0 -0.51016160229E+01  0.20776608285E+02  0.96215508845E+02  0.98565298560E+02  0.00000000000E+00 0.  1.
         -2    1    1    2    0  502  0.51016160229E+01 -0.20776608285E+02  0.73410558104E+03  0.73441725064E+03  0.00000000000E+00 0. -1.
</event>
<event>
 4    1  0.1772365E+004  0.2173202E+02  0.7546771E-02  0.1509065E+00
         21   -1    0    0  501  502  0.00000000000E+00  0.00000000000E+00  0.22808299440E+01  0.22808299440E+01  0.00000000000E+00 0.  1.
         21   -1    0    0  502  503 -0.00000000000E+00 -0.00000000000E+00 -0.72744441817E+03  0.72744441817E+03  0.00000000000E+00 0. -1.
          2    1    1    2  501    0  0.19144513387E+02 -0.10284366182E+02 -0.53986408183E+02  0.58196330203E+02  0.00000000000E+00 0.  1.
         -2    1    1    2    0  503 -0.19144513387E+02  0.10284366182E+02 -0.67117718005E+03  0.67152891791E+03  0.00000000000E+00 0. -1.
</event>
<event>
 4    1  0.1772365E+004  0.2669706E+02  0.7546771E-02  0.1450675E+00
         21   -1    0    0  501  502  0.00000000000E+00  0.00000000000E+00  0.65179066202E+02  0.65179066202E+02  0.00000000000E+00 0. -1.
         21   -1    0    0  502  503 -0.00000000000E+00 -0.00000000000E+00 -0.14555125811E+02  0.14555125811E+02  0.00000000000E+00 0.  1.
          2    1    1    2  501    0 -0.93208286867E+01  0.25017096638E+02  0.54295814912E+01  0.27243592398E+02  0.00000000000E+00 0.  1.
         -2    1    1    2    0  503  0.93208286867E+01 -0.25017096638E+02  0.45194358900E+02  0.52490599615E+02  0.00000000000E+00 0. -1.
</event>
<event>
 4    1  0.1772365E+004  0.2004072E+02  0.7546771E-02  0.1533414E+00
         21   -1    0    0  501  502  0.00000000000E+00  0.00000000000E+00  0.25057821882E+01  0.25057821882E+01  0.00000000000E+00 0.  1.
         21   -1    0    0  502  503 -0.00000000000E+00 -0.00000000000E+00 -0.21816122123E+03  0.21816122123E+03  0.00000000000E+00 0. -1.
          2    1    1    2  501    0  0.11632848888E+01  0.20006926879E+02 -0.50997138253E+02  0.54793598758E+02  0.00000000000E+00 0.  1.
         -2    1    1    2    0  503 -0.11632848888E+01 -0.20006926879E+02 -0.16465830079E+03  0.16587340466E+03  0.00000000000E+00 0. -1.
</event>
<event>
 4    1  0.1772365E+004  0.3095912E+02  0.7546771E-02  0.1411441E+00
         21   -1    0    0  501  502  0.00000000000E+00  0.00000000000E+00  0.99149135556E+03  0.99149135556E+03  0.00000000000E+00 0.  1.
         21   -1    0    0  502  503 -0.00000000000E+00 -0.00000000000E+00 -0.40960057099E+01  0.40960057099E+01  0.00000000000E+00 0. -1.
          2    1    1    2  501    0  0.28731112332E+02 -0.11532149711E+02  0.92880221665E+03  0.92931804295E+03  0.00000000000E+00 0.  1.
         -2    1    1    2    0  503 -0.28731112332E+02  0.11532149711E+02  0.58593133201E+02  0.66269318324E+02  0.00000000000E+00 0. -1.
</event>
<event>
 4    1  0.1772365E+004  0.3067987E+02  0.7546771E-02  0.1413779E+00
         21   -1    0    0  503  502  0.00000000000E+00  0.00000000000E+00  0.30948691826E+02  0.30948691826E+02  0.00000000000E+00 0. -1.
         21   -1    0    0  501  503 -0.00000000000E+00 -0.00000000000E+00 -0.35284914220E+02  0.35284914220E+02  0.00000000000E+00 0.  1.
          2    1    1    2  501    0  0.25184897495E+02  0.17520714540E+02 -0.14473249488E+02  0.33922403373E+02  0.00000000000E+00 0. -1.
         -2    1    1    2    0  502 -0.25184897495E+02 -0.17520714540E+02  0.10137027095E+02  0.32311202673E+02  0.00000000000E+00 0.  1.
</event>
<event>
 4    1  0.1772365E+004  0.2694919E+02  0.7546771E-02  0.1448119E+00
         21   -1    0    0  501  502  0.00000000000E+00  0.00000000000E+00  0.49727483574E+01  0.49727483574E+01  0.00000000000E+00 0.  1.
         21   -1    0    0  502  503 -0.00000000000E+00 -0.00000000000E+00 -0.15743357510E+03  0.15743357510E+03  0.00000000000E+00 0. -1.
          2    1    1    2  501    0 -0.68574323022E+01 -0.26062130583E+02 -0.54392794130E+02  0.60702842450E+02  0.00000000000E+00 0.  1.
         -2    1    1    2    0  503  0.68574323022E+01  0.26062130583E+02 -0.98068032609E+02  0.10170348100E+03  0.00000000000E+00 0. -1.
</event>
<event>
 4    1  0.1772365E+004  0.2248666E+02  0.7546771E-02  0.1499047E+00
         21   -1    0    0  501  502  0.00000000000E+00  0.00000000000E+00  0.19136272854E+03  0.19136272854E+03  0.00000000000E+00 0.  1.
         21   -1    0    0  502  503 -0.00000000000E+00 -0.00000000000E+00 -0.27876879995E+02  0.27876879995E+02  0.00000000000E+00 0. -1.
          2    1    1    2  501    0 -0.21399457989E+02  0.69074520064E+01  0.18603815331E+03  0.18739222017E+03  0.00000000000E+00 0.  1.
         -2    1    1    2    0  503  0.21399457989E+02 -0.69074520064E+01 -0.22552304762E+02  0.31847388363E+02  0.00000000000E+00 0. -1.
</event>
<event>
 4    1  0.1772365E+004  0.2492124E+02  0.7546771E-02  0.1469686E+00
         21   -1    0    0  503  502  0.00000000000E+00  0.00000000000E+00  0.38019429788E+01  0.38019429788E+01  0.00000000000E+00 0. -1.
         21   -1    0    0  501  503 -0.00000000000E+00 -0.00000000000E+00 -0.16891167017E+03  0.16891167017E+03  0.00000000000E+00 0.  1.
          2    1    1    2  501    0  0.21727309142E+02  0.12206235112E+02 -0.66892541882E+02  0.71384033913E+02  0.00000000000E+00 0.  1.
         -2    1    1    2    0  502 -0.21727309142E+02 -0.12206235112E+02 -0.98217185305E+02  0.10132957923E+03  0.00000000000E+00 0. -1.
</event>
<event>
 4    1  0.1772365E+004  0.2265548E+02  0.7546771E-02  0.1496870E+00
         21   -1    0    0  503  502  0.00000000000E+00  0.00000000000E+00  0.84314900025E+01  0.84314900025E+01  0.00000000000E+00 0. -1.
         21   -1    0    0  501  503 -0.00000000000E+00 -0.00000000000E+00 -0.75427088833E+02  0.75427088833E+02  0.00000000000E+00 0.  1.
          2    1    1    2  501    0 -0.63750556629E+01  0.21740043406E+02 -0.15081191079E+02  0.27216045751E+02  0.00000000000E+00 0. -1.
         -2    1    1    2    0  502  0.63750556629E+01 -0.21740043406E+02 -0.51914407751E+02  0.56642533084E+02  0.00000000000E+00 0.  1.
</event>
<event>
 4    1  0.1772365E+004  0.2145497E+02  0.7546771E-02  0.1512867E+00
         21   -1    0    0  501  502  0.00000000000E+00  0.00000000000E+00  0.17724822560E+01  0.17724822560E+01  0.00000000000E+00 0. -1.
         21   -1    0    0  502  503 -0.00000000000E+00 -0.00000000000E+00 -0.54312209966E+03  0.54312209966E+03  0.00000000000E+00 0.  1.
          2    1    1    2  501    0  0.12267917922E+02 -0.17601527566E+02 -0.73863625090E+02  0.76916517695E+02  0.00000000000E+00 0. -1.
         -2    1    1    2    0  503 -0.12267917922E+02  0.17601527566E+02 -0.46748599231E+03  0.46797806422E+03  0.00000000000E+00 0.  1.
</event>
<event>
 4    1  0.1772365E+004  0.2087162E+02  0.7546771E-02  0.1521106E+00
         21   -1    0    0  503  502  0.00000000000E+00  0.00000000000E+00  0.80738642912E+01  0.80738642912E+01  0.00000000000E+00 0.  1.
         21   -1    0    0  501  503 -0.00000000000E+00 -0.00000000000E+00 -0.14440756853E+03  0.14440756853E+03  0.00000000000E+00 0. -1.
          2    1    1    2  501    0 -0.10023233929E+02 -0.18307354673E+02 -0.12850649126E+03  0.13019040959E+03  0.00000000000E+00 0. -1.
         -2    1    1    2    0  502  0.10023233929E+02  0.18307354673E+02 -0.78272129745E+01  0.22291023226E+02  0.00000000000E+00 0.  1.
</event>
<event>
 4    1  0.1772365E+004  0.2523762E+02  0.7546771E-02  0.1466163E+00
         21   -1    0    0  503  502  0.00000000000E+00  0.00000000000E+00  0.10184256985E+02  0.10184256985E+02  0.00000000000E+00 0.  1.
         21   -1    0    0  501  503 -0.00000000000E+00 -0.00000000000E+00 -0.13238173449E+03  0.13238173449E+03  0.00000000000E+00 0. -1.
          2    1    1    2  501    0 -0.16400044867E+02  0.19182706475E+02 -0.11287432941E+03  0.11566136753E+03  0.00000000000E+00 0. -1.
         -2    1    1    2    0  502  0.16400044867E+02 -0.19182706475E+02 -0.93231480986E+01  0.26904623948E+02  0.00000000000E+00 0.  1.
</event>
<event>
 4    1  0.1772365E+004  0.2169949E+02  0.7546771E-02  0.1509508E+00
         21   -1    0    0  501  502  0.00000000000E+00  0.00000000000E+00  0.56989538010E+02  0.56989538010E+02  0.00000000000E+00 0. -1.
         21   -1    0    0  502  503 -0.00000000000E+00 -0.00000000000E+00 -0.28656852624E+02  0.28656852624E+02  0.00000000000E+00 0.  1.
          2    1    1    2  501    0  0.36667769167E+01  0.21387440640E+02  0.50292462375E+02  0.54774078193E+02  0.00000000000E+00 0. -1.
         -2    1    1    2    0  503 -0.36667769167E+01 -0.21387440640E+02 -0.21959776989E+02  0.30872312442E+02  0.00000000000E+00 0.  1.
</event>
<event>
 4    1  0.1772365E+004  0.2575260E+02  0.7546771E-02  0.1460557E+00
         21   -1    0    0  501  502  0.00000000000E+00  0.00000000000E+00  0.88168975675E+01  0.88168975675E+01  0.00000000000E+00 0. -1.
         21   -1    0    0  502  503 -0.00000000000E+00 -0.00000000000E+00 -0.80850221967E+02  0.80850221967E+02  0.00000000000E+00 0.  1.
          2    1    1    2  501    0 -0.34882601084E+01  0.25515261727E+02 -0.24184304803E+02  0.35328135223E+02  0.00000000000E+00 0.  1.
         -2    1    1    2    0  503  0.34882601084E+01 -0.25515261727E+02 -0.47849019597E+02  0.54338984311E+02  0.00000000000E+00 0. -1.
</event>
<event>
 4    1  0.1772365E+004  0.2664428E+02  0.7546771E-02  0.1451214E+00
         21   -1    0    0  501  502  0.00000000000E+00  0.00000000000E+00  0.82647407273E+02  0.82647407273E+02  0.00000000000E+00 0. -1.
         21   -1    0    0  502  503 -0.00000000000E+00 -0.00000000000E+00 -0.92297005986E+01  0.92297005986E+01  0.00000000000E+00 0.  1.
          2    1    1    2  501    0  0.81989442192E+01  0.25351426714E+02  0.48805618092E+02  0.55604908777E+02  0.00000000000E+00 0. -1.
         -2    1    1    2    0  503 -0.81989442192E+01 -0.25351426714E+02  0.24612088583E+02  0.36272199095E+02  0.00000000000E+00 0.  1.
</event>
<event>
 4    1  0.1772365E+004  0.2418708E+02  0.7546771E-02  0.1478107E+00
         21   -1    0    0  501  502  0.00000000000E+00  0.00000000000E+00  0.27741647400E+02  0.27741647400E+02  0.00000000000E+00 0.  1.
         21   -1    0    0  502  503 -0.00000000000E+00 -0.00000000000E+00 -0.26198453259E+02  0.26198453259E+02  0.00000000000E+00 0. -1.
          2    1    1    2  501    0 -0.68268407225E+01  0.23203643587E+02  0.12683337459E+02  0.27310838124E+02  0.00000000000E+00 0.  1.
         -2    1    1    2    0  503  0.68268407225E+01 -0.23203643587E+02 -0.11140143319E+02  0.26629262534E+02  0.00000000000E+00 0. -1.
</event>
<event>
 4    1  0.1772365E+004  0.2708224E+02  0.7546771E-02  0.1446784E+00
         21   -1    0    0  501  502  0.00000000000E+00  0.00000000000E+00  0.44889466310E+02  0.44889466310E+02  0.00000000000E+00 0.  1.
         21   -1    0    0  502  503 -0.00000000000E+00 -0.00000000000E+00 -0.28049681261E+02  0.28049681261E+02  0.00000000000E+00 0. -1.
          2    1    1    2  501    0  0.12793269218E+01 -0.27052009429E+02  0.31984394012E+02  0.41910014935E+02  0.00000000000E+00 0.  1.
         -2    1    1    2    0  503 -0.12793269218E+01  0.27052009429E+02 -0.15144608963E+02  0.31029132636E+02  0.00000000000E+00 0. -1.
</event>
<event>
 4    1  0.1772365E+004  0.3546155E+02  0.7546771E-02  0.1377347E+00
         21   -1    0    0  501  502  0.00000000000E+00  0.00000000000E+00  0.10895706287E+02  0.10895706287E+02  0.00000000000E+00 0.  1.
         21   -1    0    0  502  503 -0.00000000000E+00 -0.00000000000E+00 -0.47110828168E+03  0.47110828168E+03  0.00000000000E+00 0. -1.
          2    1    1    2  501    0 -0.85064646246E+01  0.34426172249E+02 -0.20695779367E+02  0.41058940071E+02  0.00000000000E+00 0.  1.
         -2    1    1    2    0  503  0.85064646246E+01 -0.34426172249E+02 -0.43951679603E+03  0.44094504790E+03  0.00000000000E+00 0. -1.
</event>
<event>
 4    1  0.1772365E+004  0.2311061E+02  0.7546771E-02  0.1491114E+00
         21   -1    0    0  503  502  0.00000000000E+00  0.00000000000E+00  0.65347904215E+01  0.65347904215E+01  0.00000000000E+00 0. -1.
         21   -1    0    0  501  503 -0.00000000000E+00 -0.00000000000E+00 -0.89008393589E+02  0.89008393589E+02  0.00000000000E+00 0.  1.
          2    1    1    2  501    0 -0.15004298860E+02 -0.17577584845E+02 -0.54895740747E+02  0.59562092185E+02  0.00000000000E+00 0. -1.
         -2    1    1    2    0  502  0.15004298860E+02  0.17577584845E+02 -0.27577862420E+02  0.35981091825E+02  0.00000000000E+00 0.  1.
</event>
<event>
 4    1  0.1772365E+004  0.2196756E+02  0.7546771E-02  0.1505886E+00
         21   -1    0    0  501  502  0.00000000000E+00  0.00000000000E+00  0.43487162711E+01  0.43487162711E+01  0.00000000000E+00 0.  1.
         21   -1    0    0  502  503 -0.00000000000E+00 -0.00000000000E+00 -0.25744324798E+03  0.25744324798E+03  0.00000000000E+00 0. -1.
          2    1    1    2  501    0  0.17059467722E+02 -0.13840094270E+02 -0.27813460257E+02  0.35442378868E+02  0.00000000000E+00 0.  1.
         -2    1    1    2    0  503 -0.17059467722E+02  0.13840094270E+02 -0.22528107146E+03  0.22634958539E+03  0.00000000000E+00 0. -1.
</event>
<event>
 4    1  0.1772365E+004  0.2486193E+02  0.7546771E-02  0.1470354E+00
         21   -1    0    0  501  502  0.00000000000E+00  0.00000000000E+00  0.14785515701E+02  0.14785515701E+02  0.00000000000E+00 0.  1.
         21   -1    0    0  502  503 -0.00000000000E+00 -0.00000000000E+00 -0.15027892745E+03  0.15027892745E+03  0.00000000000E+00 0. -1.
          2    1    1    2  501    0  0.12976234220E+02 -0.21206904774E+02  0.23723773503E+01  0.24974860138E+02  0.00000000000E+00 0.  1.
         -2    1    1    2    0  503 -0.12976234220E+02  0.21206904774E+02 -0.13786578909E+03  0.14008958301E+03  0.00000000000E+00 0. -1.
</event>
<event>
 4    1  0.1772365E+004  0.2005895E+02  0.7546771E-02  0.1533136E+00
         21   -1    0    0  501  502  0.00000000000E+00  0.00000000000E+00  0.16811365918E+02  0.16811365918E+02  0.00000000000E+00 0.  1.
         21   -1    0    0  502  503 -0.00000000000E+00 -0.00000000000E+00 -0.33993896087E+02  0.33993896087E+02  0.00000000000E+00 0. -1.
          2    1    1    2  501    0  0.10966505464E+02 -0.16795754599E+02  0.52277487720E+01  0.20728988684E+02  0.00000000000E+00 0.  1.
         -2    1    1    2    0  503 -0.10966505464E+02  0.16795754599E+02 -0.22410278941E+02  0.30076273321E+02  0.00000000000E+00 0. -1.
</event>
<event>
 4    1  0.1772365E+004  0.4015953E+02  0.7546771E-02  0.1347553E+00
         21   -1    0    0  503  502  0.00000000000E+00  0.00000000000E+00  0.34896318984E+02  0.34896318984E+02  0.00000000000E+00 0.  1.
         21   -1    0    0  501  503 -0.00000000000E+00 -0.00000000000E+00 -0.47001685277E+02  0.47001685277E+02  0.00000000000E+00 0. -1.
          2    1    1    2  501    0  0.14970747443E+02  0.37264791112E+02 -0.11345113753E+02  0.41731277738E+02  0.00000000000E+00 0.  1.
         -2    1    1    2    0  502 -0.14970747443E+02 -0.37264791112E+02 -0.76025253959E+00  0.40166726522E+02  0.00000000000E+00 0. -1.
</event>
<event>
 4    1  0.1772365E+004  0.2738993E+02  0.7546771E-02  0.1443730E+00
         21   -1    0    0  501  502  0.00000000000E+00  0.00000000000E+00  0.45309183295E+02  0.45309183295E+02  0.00000000000E+00 0. -1.
         21   -1    0    0  502  503 -0.00000000000E+00 -0.00000000000E+00 -0.16748905362E+02  0.16748905362E+02  0.00000000000E+00 0.  1.
          2    1    1    2  501    0 -0.13837187876E+02  0.23637689474E+02  0.17596936352E+02  0.32555495710E+02  0.00000000000E+00 0. -1.
         -2    1    1    2    0  503  0.13837187876E+02 -0.23637689474E+02  0.10963341581E+02  0.29502592947E+02  0.00000000000E+00 0.  1.
</event>
<event>
 4    1  0.1772365E+004  0.2011559E+02  0.7546771E-02  0.1532276E+00
         21   -1    0    0  501  502  0.00000000000E+00  0.00000000000E+00  0.78893755060E+01  0.78893755060E+01  0.00000000000E+00 0. -1.
         21   -1    0    0  502  503 -0.00000000000E+00 -0.00000000000E+00 -0.51945399685E+02  0.51945399685E+02  0.00000000000E+00 0.  1.
          2    1    1    2  501    0  0.72330876195E+01 -0.18770168242E+02 -0.25391526829E+02  0.32393925465E+02  0.00000000000E+00 0.  1.
         -2    1    1    2    0  503 -0.72330876195E+01  0.18770168242E+02 -0.18664497350E+02  0.27440849726E+02  0.00000000000E+00 0. -1.
</event>
<event>
 4    1  0.1772365E+004  0.2037088E+02  0.7546771E-02  0.1528440E+00
         21   -1    0    0  503  502  0.00000000000E+00  0.00000000000E+00  0.40350253413E+02  0.40350253413E+02  0.00000000000E+00 0.  1.
         21   -1    0    0  501  503 -0.00000000000E+00 -0.00000000000E+00 -0.49017070176E+02  0.49017070176E+02  0.00000000000E+00 0. -1.
          2    1    1    2  501    0  0.13079822513E+02  0.15617011217E+02 -0.44053893456E+02  0.48535742757E+02  0.00000000000E+00 0. -1.
         -2    1    1    2    0  502 -0.13079822513E+02 -0.15617011217E+02  0.35387076694E+02  0.40831580832E+02  0.00000000000E+00 0.  1.
</event>
<event>
 4    1  0.1772365E+004  0.4944423E+02  0.7546771E-02  0.1300600E+00
         21   -1    0    0  503  502  0.00000000000E+00  0.00000000000E+00  0.15412492053E+02  0.15412492053E+02  0.00000000000E+00 0. -1.
         21   -1    0    0  501  503 -0.00000000000E+00 -0.00000000000E+00 -0.55003993083E+03  0.55003993083E+03  0.00000000000E+00 0.  1.
          2    1    1    2  501    0 -0.19273931750E+02  0.45532930103E+02 -0.50581479156E+03  0.50822567382E+03  0.00000000000E+00 0.  1.
         -2    1    1    2    0  502  0.19273931750E+02 -0.45532930103E+02 -0.28812647219E+02  0.57226749065E+02  0.00000000000E+00 0. -1.
</event>
<event>
 4    1  0.1772365E+004  0.2008055E+02  0.7546771E-02  0.1532808E+00
         21   -1    0    0  503  502  0.00000000000E+00  0.00000000000E+00  0.29340693933E+03  0.29340693933E+03  0.00000000000E+00 0. -1.
         21   -1    0    0  501  503 -0.00000000000E+00 -0.00000000000E+00 -0.13746249273E+01  0.13746249273E+01  0.00000000000E+00 0.  1.
          2    1    1    2  501    0  0.19683674746E+02  0.39725671563E+01  0.14829188709E+03  0.14964528766E+03  0.00000000000E+00 0. -1.
         -2    1    1    2    0  502 -0.19683674746E+02 -0.39725671563E+01  0.14374042732E+03  0.14513627660E+03  0.00000000000E+00 0.  1.
</event>
<event>
 4    1  0.1772365E+004  0.2267341E+02  0.7546771E-02  0.1496640E+00
         21   -1    0    0  503  502  0.00000000000E+00  0.00000000000E+00  0.40798249598E+01  0.40798249598E+01  0.00000000000E+00 0. -1.
         21   -1    0    0  501  503 -0.00000000000E+00 -0.00000000000E+00 -0.14257159836E+03  0.14257159836E+03  0.00000000000E+00 0.  1.
          2    1    1    2  501    0  0.15243315958E+02  0.16784655255E+02 -0.94240154505E+02  0.96929304416E+02  0.00000000000E+00 0.  1.
         -2    1    1    2    0  502 -0.15243315958E+02 -0.16784655255E+02 -0.44251618893E+02  0.49722118902E+02  0.00000000000E+00 0. -1.
</event>
<event>
 4    1  0.1772365E+004  0.2423174E+02  0.7546771E-02  0.1477584E+00
         21   -1    0    0  501  502  0.00000000000E+00  0.00000000000E+00  0.11105109906E+02  0.11105109906E+02  0.00000000000E+00 0.  1.
         21   -1    0    0  502  503 -0.00000000000E+00 -0.00000000000E+00 -0.55798777312E+02  0.55798777312E+02  0.00000000000E+00 0. -1.
          2    1    1    2  501    0  0.24162879549E+02  0.18255493646E+01 -0.14688810904E+02  0.28336170248E+02  0.00000000000E+00 0.  1.
         -2    1    1    2    0  503 -0.24162879549E+02 -0.18255493646E+01 -0.30004856502E+02  0.38567716970E+02  0.00000000000E+00 0. -1.
</event>
<event>
 4    1  0.1772365E+004  0.2644313E+02  0.7546771E-02  0.1453284E+00
         21   -1    0    0  501  502  0.00000000000E+00  0.00000000000E+00  0.21193660752E+02  0.21193660752E+02  0.00000000000E+00 0. -1.
         21   -1    0    0  502  503 -0.00000000000E+00 -0.00000000000E+00 -0.45619908103E+02  0.45619908103E+02  0.00000000000E+00 0.  1.
          2    1    1    2  501    0 -0.93386394786E+01 -0.24739216591E+02  0.53624196685E+01  0.26981374493E+02  0.00000000000E+00 0. -1.
         -2    1    1    2    0  503  0.93386394786E+01  0.24739216591E+02 -0.29788667020E+02  0.39832194362E+02  0.00000000000E+00 0.  1.
</event>
<event>
 4    1  0.1772365E+004  0.5256731E+02  0.7546771E-02  0.1287409E+00
         21   -1    0    0  501  502  0.00000000000E+00  0.00000000000E+00  0.50565140922E+02  0.50565140922E+02  0.00000000000E+00 0.  1.
         21   -1    0    0  502  503 -0.00000000000E+00 -0.00000000000E+00 -0.35689976055E+03  0.35689976055E+03  0.00000000000E+00 0. -1.
          2    1    1    2  501    0 -0.50568510331E+01 -0.52323515182E+02  0.34319603239E+02  0.62778636094E+02  0.00000000000E+00 0.  1.
         -2    1    1    2    0  503  0.50568510331E+01  0.52323515182E+02 -0.34065422287E+03  0.34468626538E+03  0.00000000000E+00 0. -1.
</event>
<event>
 4    1  0.1772365E+004  0.3294035E+02  0.7546771E-02  0.1395652E+00
         21   -1    0    0  501  502  0.00000000000E+00  0.00000000000E+00  0.58212264703E+01  0.58212264703E+01  0.00000000000E+00 0.  1.
         21   -1    0    0  502  503 -0.00000000000E+00 -0.00000000000E+00 -0.45581729374E+03  0.45581729374E+03  0.00000000000E+00 0. -1.
          2    1    1    2  501    0 -0.23775752647E+02  0.22798686736E+02 -0.47541997583E+02  0.57838638167E+02  0.00000000000E+00 0.  1.
         -2    1    1    2    0  503  0.23775752647E+02 -0.22798686736E+02 -0.40245406969E+03  0.40379988205E+03  0.00000000000E+00 0. -1.
</event>
<event>
 4    1  0.1772365E+004  0.2221884E+02  0.7546771E-02  0.1502547E+00
         21   -1    0    0  501  502  0.00000000000E+00  0.00000000000E+00  0.54623292530E+01  0.54623292530E+01  0.00000000000E+00 0.  1.
         21   -1    0    0  502  503 -0.00000000000E+00 -0.00000000000E+00 -0.16503089620E+03  0.16503089620E+03  0.00000000000E+00 0. -1.
          2    1    1    2  501    0  0.13004309686E+02  0.18015687038E+02 -0.22449732169E+02  0.31585875393E+02  0.00000000000E+00 0.  1.
         -2    1    1    2    0  503 -0.13004309686E+02 -0.18015687038E+02 -0.13711883478E+03  0.13890735006E+03  0.00000000000E+00 0. -1.
</event>
<event>
 4    1  0.1772365E+004  0.2415800E+02  0.7546771E-02  0.1478447E+00
         21   -1    0    0  501  502  0.00000000000E+00  0.00000000000E+00  0.13762150036E+04  0.13762150036E+04  0.00000000000E+00 0.  1.
         21   -1    0    0  502  503 -0.00000000000E+00 -0.00000000000E+00 -0.47065138589E+00  0.47065138589E+00  0.00000000000E+00 0. -1.
          2    1    1    2  501    0  0.21786523069E+02 -0.10438209496E+02  0.90442828565E+03  0.90475086775E+03  0.00000000000E+00 0.  1.
         -2    1    1    2    0  503 -0.21786523069E+02  0.10438209496E+02  0.47131606659E+03  0.47193478726E+03  0.00000000000E+00 0. -1.
</event>
<event>
 4    1  0.1772365E+004  0.2377795E+02  0.7546771E-02  0.1482954E+00
         21   -1    0    0  501  502  0.00000000000E+00  0.00000000000E+00  0.13178430183E+02  0.13178430183E+02  0.00000000000E+00 0.  1.
         21   -1    0    0  502  503 -0.00000000000E+00 -0.00000000000E+00 -0.44632320287E+02  0.44632320287E+02  0.00000000000E+00 0. -1.
          2    1    1    2  501    0  0.12291334773E+02  0.20354707970E+02 -0.10036823501E+02  0.25809472544E+02  0.00000000000E+00 0.  1.
         -2    1    1    2    0  503 -0.12291334773E+02 -0.20354707970E+02 -0.21417066602E+02  0.32001277926E+02  0.00000000000E+00 0. -1.
</event>
<event>
 4    1  0.1772365E+004  0.2325473E+02  0.7546771E-02  0.1489324E+00
         21   -1    0    0  501  502  0.00000000000E+00  0.00000000000E+00  0.73275871755E+01  0.73275871755E+01  0.00000000000E+00 0. -1.
         21   -1    0    0  502  503 -0.00000000000E+00 -0.00000000000E+00 -0.74101803340E+02  0.74101803340E+02  0.00000000000E+00 0.  1.
          2    1    1    2  501    0  0.15131534867E+02  0.17658405608E+02 -0.30792691580E+02  0.38587206310E+02  0.00000000000E+00 0. -1.
         -2    1    1    2    0  503 -0.15131534867E+02 -0.17658405608E+02 -0.35981524584E+02  0.42842184205E+02  0.00000000000E+00 0.  1.
</event>
<event>
 4    1  0.1772365E+004  0.2598737E+02  0.7546771E-02  0.1458054E+00
         21   -1    0    0  501  502  0.00000000000E+00  0.00000000000E+00  0.10020384067E+02  0.10020384067E+02  0.00000000000E+00 0. -1.
         21   -1    0    0  502  503 -0.00000000000E+00 -0.00000000000E+00 -0.73326348873E+02  0.73326348873E+02  0.00000000000E+00 0.  1.
          2    1    1    2  501    0  0.15519017987E+02  0.20844742525E+02 -0.19802547099E+02  0.32672374903E+02  0.00000000000E+00 0. -1.
         -2    1    1    2    0  503 -0.15519017987E+02 -0.20844742525E+02 -0.43503417707E+02  0.50674358036E+02  0.00000000000E+00 0.  1.
</event>
<event>
 4    1  0.1772365E+004  0.2550264E+02  0.7546771E-02  0.1463258E+00
         21   -1    0    0  501  502  0.00000000000E+00  0.00000000000E+00  0.99449225592E+01  0.99449225592E+01  0.00000000000E+00 0. -1.
         21   -1    0    0  502  503 -0.00000000000E+00 -0.00000000000E+00 -0.84365197223E+02  0.84365197223E+02  0.00000000000E+00 0.  1.
          2    1    1    2  501    0  0.80990420902E+01 -0.24182436777E+02 -0.14851747657E+02  0.29512016870E+02  0.00000000000E+00 0. -1.
         -2    1    1    2    0  503 -0.80990420902E+01  0.24182436777E+02 -0.59568527007E+02  0.64798102912E+02  0.00000000000E+00 0.  1.
</event>
<event>
 4    1  0.1772365E+004  0.4164575E+02  0.7546771E-02  0.1339103E+00
         21   -1    0    0  501  502  0.00000000000E+00  0.00000000000E+00  0.18682479873E+02  0.18682479873E+02  0.00000000000E+00 0. -1.
         21   -1    0    0  502  503 -0.00000000000E+00 -0.00000000000E+00 -0.94707274500E+02  0.94707274500E+02  0.00000000000E+00 0.  1.
          2    1    1    2  501    0 -0.28805994219E+02 -0.30076293884E+02 -0.45986034254E+02  0.62040987284E+02  0.00000000000E+00 0. -1.
         -2    1    1    2    0  503  0.28805994219E+02  0.30076293884E+02 -0.30038760373E+02  0.51348767089E+02  0.00000000000E+00 0.  1.
</event>
<event>
 4    1  0.1772365E+004  0.2196153E+02  0.7546771E-02  0.1505967E+00
         21   -1    0    0  501  502  0.00000000000E+00  0.00000000000E+00  0.51582044469E+00  0.51582044469E+00  0.00000000000E+00 0.  1.
         21   -1    0    0  502  503 -0.00000000000E+00 -0.00000000000E+00 -0.97601496511E+03  0.97601496511E+03  0.00000000000E+00 0. -1.
          2    1    1    2  501    0 -0.21961162075E+02 -0.12753857708E+00 -0.38769741010E+03  0.38831892911E+03  0.00000000000E+00 0.  1.
         -2    1    1    2    0  503  0.21961162075E+02  0.12753857708E+00 -0.58780173457E+03  0.58821185645E+03  0.00000000000E+00 0. -1.
</event>
<event>
 4    1  0.1772365E+004  0.2419084E+02  0.7546771E-02  0.1478063E+00
         21   -1    0    0  503  502  0.00000000000E+00  0.00000000000E+00  0.13567754605E+03  0.13567754605E+03  0.00000000000E+00 0.  1.
         21   -1    0    0  501  503 -0.00000000000E+00 -0.00000000000E+00 -0.54828977881E+01  0.54828977881E+01  0.00000000000E+00 0. -1.
          2    1    1    2  501    0  0.40879806116E+01 -0.23842924839E+02  0.32496740821E+02  0.40512156378E+02  0.00000000000E+00 0. -1.
         -2    1    1    2    0  502 -0.40879806116E+01  0.23842924839E+02  0.97697907438E+02  0.10064828746E+03  0.00000000000E+00 0.  1.
</event>
<event>
 4    1  0.1772365E+004  0.2155062E+02  0.7546771E-02  0.1511547E+00
         21   -1    0    0  503  502  0.00000000000E+00  0.00000000000E+00  0.84980926181E+03  0.84980926181E+03  0.00000000000E+00 0.  1.
         21   -1    0    0  501  503 -0.00000000000E+00 -0.00000000000E+00 -0.10109265104E+01  0.10109265104E+01  0.00000000000E+00 0. -1.
          2    1    1    2  501    0  0.41969271288E+00 -0.21546534292E+02  0.13606121458E+03  0.13775733517E+03  0.00000000000E+00 0. -1.
         -2    1    1    2    0  502 -0.41969271288E+00  0.21546534292E+02  0.71273712072E+03  0.71306285315E+03  0.00000000000E+00 0.  1.
</event>
<event>
 4    1  0.1772365E+004  0.2209824E+02  0.7546771E-02  0.1504143E+00
         21   -1    0    0  501  502  0.00000000000E+00  0.00000000000E+00  0.30743886433E+02  0.30743886433E+02  0.00000000000E+00 0.  1.
         21   -1    0    0  502  503 -0.00000000000E+00 -0.00000000000E+00 -0.26289664704E+02  0.26289664704E+02  0.00000000000E+00 0. -1.
          2    1    1    2  501    0  0.15626609638E+01 -0.22042919618E+02  0.20168055423E+02  0.29917932317E+02  0.00000000000E+00 0.  1.
         -2    1    1    2    0  503 -0.15626609638E+01  0.22042919618E+02 -0.15713833695E+02  0.27115618820E+02  0.00000000000E+00 0. -1.
</event>
<event>
 4    1  0.1772365E+004  0.2174137E+02  0.7546771E-02  0.1508938E+00
         21   -1    0    0  503  502  0.00000000000E+00  0.00000000000E+00  0.70185932089E+02  0.70185932089E+02  0.00000000000E+00 0.  1.
         21   -1    0    0  501  503 -0.00000000000E+00 -0.00000000000E+00 -0.67960975429E+01  0.67960975429E+01  0.00000000000E+00 0. -1.
          2    1    1    2  501    0 -0.13245294402E+02 -0.17240921818E+02  0.35350881079E+02  0.41501469877E+02  0.00000000000E+00 0.  1.
         -2    1    1    2    0  502  0.13245294402E+02  0.17240921818E+02  0.28038953468E+02  0.35480559755E+02  0.00000000000E+00 0. -1.
</event>
<event>
 4    1  0.1772365E+004  0.2390189E+02  0.7546771E-02  0.1481473E+00
         21   -1    0    0  503  502  0.00000000000E+00  0.00000000000E+00  0.30199405216E+02  0.30199405216E+02  0.00000000000E+00 0. -1.
         21   -1    0    0  501  503 -0.00000000000E+00 -0.00000000000E+00 -0.19923590208E+02  0.19923590208E+02  0.00000000000E+00 0.  1.
          2    1    1    2  501    0 -0.23812521622E+02  0.20650245814E+01 -0.49351810037E+00  0.23906987946E+02  0.00000000000E+00 0. -1.
         -2    1    1    2    0  502  0.23812521622E+02 -0.20650245814E+01  0.10769333108E+02  0.26216007479E+02  0.00000000000E+00 0.  1.
</event>
<event>
 4    1  0.1772365E+004  0.2228835E+02  0.7546771E-02  0.1501633E+00
         21   -1    0    0  501  502  0.00000000000E+00  0.00000000000E+00  0.97572838173E+00  0.97572838173E+00  0.00000000000E+00 0.  1.
         21   -1    0    0  502  503 -0.00000000000E+00 -0.00000000000E+00 -0.14056396175E+04  0.14056396175E+04  0.00000000000E+00 0. -1.
          2    1    1    2  501    0 -0.10261003826E+02 -0.19785907224E+02 -0.14065525532E+03  0.14241022145E+03  0.00000000000E+00 0.  1.
         -2    1    1    2    0  503  0.10261003826E+02  0.19785907224E+02 -0.12640086338E+04  0.12642051244E+04  0.00000000000E+00 0. -1.
</event>
<event>
 4    1  0.1772365E+004  0.2212700E+02  0.7546771E-02  0.1503761E+00
         21   -1    0    0  503  502  0.00000000000E+00  0.00000000000E+00  0.70708452213E+03  0.70708452213E+03  0.00000000000E+00 0. -1.
         21   -1    0    0  501  503 -0.00000000000E+00 -0.00000000000E+00 -0.27669980018E+01  0.27669980018E+01  0.00000000000E+00 0.  1.
          2    1    1    2  501    0  0.21779729367E+02  0.39048062941E+01  0.44834184819E+02  0.49997082434E+02  0.00000000000E+00 0.  1.
         -2    1    1    2    0  502 -0.21779729367E+02 -0.39048062941E+01  0.65948333931E+03  0.65985443770E+03  0.00000000000E+00 0. -1.
</event>
<event>
 4    1  0.1772365E+004  0.3314353E+02  0.7546771E-02  0.1394106E+00
         21   -1    0    0  503  502  0.00000000000E+00  0.00000000000E+00  0.12190538881E+03  0.12190538881E+03  0.00000000000E+00 0. -1.
         21   -1    0    0  501  503 -0.00000000000E+00 -0.00000000000E+00 -0.10278719907E+02  0.10278719907E+02  0.00000000000E+00 0.  1.
          2    1    1    2  501    0 -0.15531254933E+02 -0.29279242135E+02  0.32602799503E+02  0.46491251168E+02  0.00000000000E+00 0.  1.
         -2    1    1    2    0  502  0.15531254933E+02  0.29279242135E+02  0.79023869405E+02  0.85692857552E+02  0.00000000000E+00 0. -1.
</event>
<event>
 4    1  0.1772365E+004  0.2086775E+02  0.7546771E-02  0.1521161E+00
         21   -1    0    0  501  502  0.00000000000E+00  0.00000000000E+00  0.36485779701E+02  0.36485779701E+02  0.00000000000E+00 0. -1.
         21   -1    0    0  502  503 -0.00000000000E+00 -0.00000000000E+00 -0.14906754108E+02  0.14906754108E+02  0.00000000000E+00 0.  1.
          2    1    1    2  501    0  0.11200418048E+02 -0.17607200485E+02 -0.68342733268E+00  0.20878935469E+02  0.00000000000E+00 0.  1.
         -2    1    1    2    0  503 -0.11200418048E+02  0.17607200485E+02  0.22262452926E+02  0.30513598340E+02  0.00000000000E+00 0. -1.
</event>
<event>
 4    1  0.1772365E+004  0.2508597E+02  0.7546771E-02  0.1467844E+00
         21   -1    0    0  503  502  0.00000000000E+00  0.00000000000E+00  0.70312832048E+01  0.70312832048E+01  0.00000000000E+00 0. -1.
         21   -1    0    0  501  503 -0.00000000000E+00 -0.00000000000E+00 -0.13018457764E+03  0.13018457764E+03  0.00000000000E+00 0.  1.
          2    1    1    2  501    0 -0.25044004798E+02  0.14504056537E+01 -0.99930137872E+02  0.10303076389E+03  0.00000000000E+00 0.  1.
         -2    1    1    2    0  502  0.25044004798E+02 -0.14504056537E+01 -0.23223156558E+02  0.34185096949E+02  0.00000000000E+00 0. -1.
</event>
<event>
 4    1  0.1772365E+004  0.3182494E+02  0.7546771E-02  0.1404374E+00
         21   -1    0    0  503  502  0.00000000000E+00  0.00000000000E+00  0.72397061586E+02  0.72397061586E+02  0.00000000000E+00 0.  1.
         21   -1    0    0  501  503 -0.00000000000E+00 -0.00000000000E+00 -0.13746669843E+03  0.13746669843E+03  0.00000000000E+00 0. -1.
          2    1    1    2  501    0  0.15994957947E+02 -0.27513411875E+02 -0.13198404517E+03  0.13576676578E+03  0.00000000000E+00 0. -1.
         -2    1    1    2    0  502 -0.15994957947E+02  0.27513411875E+02  0.66914408324E+02  0.74096994232E+02  0.00000000000E+00 0.  1.
</event>
<event>
 4    1  0.1772365E+004  0.2446077E+02  0.7546771E-02  0.1474927E+00
         21   -1    0    0  503  502  0.00000000000E+00  0.00000000000E+00  0.21447957306E+02  0.21447957306E+02  0.00000000000E+00 0.  1.
         21   -1    0    0  501  503 -0.00000000000E+00 -0.00000000000E+00 -0.13793304518E+03  0.13793304518E+03  0.00000000000E+00 0. -1.
          2    1    1    2  501    0  0.17841308053E+02 -0.16733706525E+02 -0.12941964453E+03  0.13171094714E+03  0.00000000000E+00 0. -1.
         -2    1    1    2    0  502 -0.17841308053E+02  0.16733706525E+02  0.12934556652E+02  0.27670055346E+02  0.00000000000E+00 0.  1.
</event>
<event>
 4    1  0.1772365E+004  0.2045864E+02  0.7546771E-02  0.1527136E+00
         21   -1    0    0  503  502  0.00000000000E+00  0.00000000000E+00  0.84972662575E+00  0.84972662575E+00  0.00000000000E+00 0. -1.
         21   -1    0    0  501  503 -0.00000000000E+00 -0.00000000000E+00 -0.15804125789E+04  0.15804125789E+04  0.00000000000E+00 0.  1.
          2    1    1    2  501    0  0.19481621026E+02 -0.62467761294E+01 -0.14457307947E+04  0.14458755433E+04  0.00000000000E+00 0.  1.
         -2    1    1    2    0  502 -0.19481621026E+02  0.62467761294E+01 -0.13383205749E+03  0.13538676221E+03  0.00000000000E+00 0. -1.
</event>
<event>
 4    1  0.1772365E+004  0.2638439E+02  0.7546771E-02  0.1453892E+00
         21   -1    0    0  503  502  0.00000000000E+00  0.00000000000E+00  0.33654203257E+03  0.33654203257E+03  0.00000000000E+00 0.  1.
         21   -1    0    0  501  503 -0.00000000000E+00 -0.00000000000E+00 -0.31035786535E+01  0.31035786535E+01  0.00000000000E+00 0. -1.
          2    1    1    2  501    0 -0.86762772974E+01  0.24917030097E+02  0.68645666099E+02  0.73541577701E+02  0.00000000000E+00 0. -1.
         -2    1    1    2    0  502  0.86762772974E+01 -0.24917030097E+02  0.26479278781E+03  0.26610403352E+03  0.00000000000E+00 0.  1.
</event>
<event>
 4    1  0.1772365E+004  0.2026955E+02  0.7546771E-02  0.1529954E+00
         21   -1    0    0  503  502  0.00000000000E+00  0.00000000000E+00  0.46191524465E+02  0.46191524465E+02  0.00000000000E+00 0.  1.
         21   -1    0    0  501  503 -0.00000000000E+00 -0.00000000000E+00 -0.94868078994E+01  0.94868078994E+01  0.00000000000E+00 0. -1.
          2    1    1    2  501    0  0.14249089975E+02  0.14415901477E+02  0.25307981850E+02  0.32424508105E+02  0.00000000000E+00 0.  1.
         -2    1    1    2    0  502 -0.14249089975E+02 -0.14415901477E+02  0.11396734716E+02  0.23253824260E+02  0.00000000000E+00 0. -1.
</event>
<event>
 4    1  0.1772365E+004  0.2283509E+02  0.7546771E-02  0.1494579E+00
         21   -1    0    0  503  502  0.00000000000E+00  0.00000000000E+00  0.16552790078E+02  0.16552790078E+02  0.00000000000E+00 0. -1.
         21   -1    0    0  501  503 -0.00000000000E+00 -0.00000000000E+00 -0.36582498944E+02  0.36582498944E+02  0.00000000000E+00 0.  1.
          2    1    1    2  501    0 -0.21537291962E+02  0.75885625873E+01 -0.19915918154E+02  0.30299917873E+02  0.00000000000E+00 0.  1.
         -2    1    1    2    0  502  0.21537291962E+02 -0.75885625873E+01 -0.11379071188E+00  0.22835371149E+02  0.00000000000E+00 0. -1.
</event>
<event>
 4    1  0.1772365E+004  0.2422011E+02  0.7546771E-02  0.1477720E+00
         21   -1    0    0  503  502  0.00000000000E+00  0.00000000000E+00  0.29226627119E+03  0.29226627119E+03  0.00000000000E+00 0.  1.
         21   -1    0    0  501  503 -0.00000000000E+00 -0.00000000000E+00 -0.15261254932E+02  0.15261254932E+02  0.00000000000E+00 0. -1.
          2    1    1    2  501    0  0.18633465176E+02 -0.15472809307E+02 -0.47936504594E+01  0.24689935947E+02  0.00000000000E+00 0. -1.
         -2    1    1    2    0  502 -0.18633465176E+02  0.15472809307E+02  0.28179866672E+03  0.28283759018E+03  0.00000000000E+00 0.  1.
</event>
<event>
 4    1  0.1772365E+004  0.3770041E+02  0.7546771E-02  0.1362515E+00
         21   -1    0    0  503  502  0.00000000000E+00  0.00000000000E+00  0.23714910550E+02  0.23714910550E+02  0.00000000000E+00 0.  1.
         21   -1    0    0  501  503 -0.00000000000E+00 -0.00000000000E+00 -0.10244128401E+03  0.10244128401E+03  0.00000000000E+00 0. -1.
          2    1    1    2  501    0 -0.33669612893E+02 -0.16961082650E+02 -0.79995780136E+02  0.88434416358E+02  0.00000000000E+00 0. -1.
         -2    1    1    2    0  502  0.33669612893E+02  0.16961082650E+02  0.12694066803E+01  0.37721778197E+02  0.00000000000E+00 0.  1.
</event>
<event>
 4    1  0.1772365E+004  0.2167614E+02  0.7546771E-02  0.1509826E+00
         21   -1    0    0  501  502  0.00000000000E+00  0.00000000000E+00  0.48157249621E+01  0.48157249621E+01  0.00000000000E+00 0.  1.
         21   -1    0    0  502  503 -0.00000000000E+00 -0.00000000000E+00 -0.12938722696E+03  0.12938722696E+03  0.00000000000E+00 0. -1.
          2    1    1    2  501    0  0.15611770833E+02  0.15037536381E+02 -0.29009120003E+02  0.36213035392E+02  0.00000000000E+00 0.  1.
         -2    1    1    2    0  503 -0.15611770833E+02 -0.15037536381E+02 -0.95562381997E+02  0.97989916532E+02  0.00000000000E+00 0. -1.
</event>
<event>
 4    1  0.1772365E+004  0.2342304E+02  0.7546771E-02  0.1487253E+00
         21   -1    0    0  501  502  0.00000000000E+00  0.00000000000E+00  0.63258644875E+03  0.63258644875E+03  0.00000000000E+00 0. -1.
         21   -1    0    0  502  503 -0.00000000000E+00 -0.00000000000E+00 -0.95189780488E+00  0.95189780488E+00  0.00000000000E+00 0.  1.
          2    1    1    2  501    0 -0.23352593969E+02  0.18152222029E+01  0.22138038017E+03  0.22261606276E+03  0.00000000000E+00 0.  1.
         -2    1    1    2    0  503  0.23352593969E+02 -0.18152222029E+01  0.41025417078E+03  0.41092228379E+03  0.00000000000E+00 0. -1.
</event>
<event>
 4    1  0.1772365E+004  0.2071711E+02  0.7546771E-02  0.1523342E+00
         21   -1    0    0  501  502  0.00000000000E+00  0.00000000000E+00  0.44760661121E+01  0.44760661121E+01  0.00000000000E+00 0. -1.
         21   -1    0    0  502  503 -0.00000000000E+00 -0.00000000000E+00 -0.11744135224E+03  0.11744135224E+03  0.00000000000E+00 0.  1.
          2    1    1    2  501    0 -0.11961803441E+02 -0.16914901017E+02 -0.30367760525E+02  0.36761385954E+02  0.00000000000E+00 0.  1.
         -2    1    1    2    0  503  0.11961803441E+02  0.16914901017E+02 -0.82597525605E+02  0.85156032400E+02  0.00000000000E+00 0. -1.
</event>
<event>
 4    1  0.1772365E+004  0.2097819E+02  0.7546771E-02  0.1519576E+00
         21   -1    0    0  501  502  0.00000000000E+00  0.00000000000E+00  0.13663432442E+03  0.13663432442E+03  0.00000000000E+00 0. -1.
         21   -1    0    0  502  503 -0.00000000000E+00 -0.00000000000E+00 -0.32899305635E+01  0.32899305635E+01  0.00000000000E+00 0.  1.
          2    1    1    2  501    0  0.20525867787E+02  0.43328230241E+01  0.56537497342E+02  0.60304006579E+02  0.00000000000E+00 0.  1.
         -2    1    1    2    0  503 -0.20525867787E+02 -0.43328230241E+01  0.76806896512E+02  0.79620248402E+02  0.00000000000E+00 0. -1.
</event>
<event>
 4    1  0.1772365E+004  0.2262396E+02  0.7546771E-02  0.1497275E+00
         21   -1    0    0  501  502  0.00000000000E+00  0.00000000000E+00  0.21064107263E+03  0.21064107263E+03  0.00000000000E+00 0. -1.
         21   -1    0    0  502  503 -0.00000000000E+00 -0.00000000000E+00 -0.24805282912E+01  0.24805282912E+01  0.00000000000E+00 0.  1.
          2    1    1    2  501    0  0.22341115334E+02 -0.35662779250E+01  0.11929901647E+03  0.12142528197E+03  0.00000000000E+00 0. -1.
         -2    1    1    2    0  503 -0.22341115334E+02  0.35662779250E+01  0.88861527873E+02  0.91696318947E+02  0.00000000000E+00 0.  1.
</event>
<event>
 4    1  0.1772365E+004  0.3022427E+02  0.7546771E-02  0.1417657E+00
         21   -1    0    0  503  502  0.00000000000E+00  0.00000000000E+00  0.11239074355E+03  0.11239074355E+03  0.00000000000E+00 0.  1.
         21   -1    0    0  501  503 -0.00000000000E+00 -0.00000000000E+00 -0.96231721431E+01  0.96231721431E+01  0.00000000000E+00 0. -1.
          2    1    1    2  501    0 -0.30192425976E+02 -0.13870655924E+01  0.27336124092E+02  0.40752548603E+02  0.00000000000E+00 0. -1.
         -2    1    1    2    0  502  0.30192425976E+02  0.13870655924E+01  0.75431447311E+02  0.81261367086E+02  0.00000000000E+00 0.  1.
</event>
<event>
 4    1  0.1772365E+004  0.2116705E+02  0.7546771E-02  0.1516893E+00
         21   -1    0    0  501  502  0.00000000000E+00  0.00000000000E+00  0.38194425716E+02  0.38194425716E+02  0.00000000000E+00 0.  1.
         21   -1    0    0  502  503 -0.00000000000E+00 -0.00000000000E+00 -0.20218848274E+02  0.20218848274E+02  0.00000000000E+00 0. -1.
          2    1    1    2  501    0 -0.16086957030E+02  0.13756951347E+02  0.27911753789E+02  0.35030128410E+02  0.00000000000E+00 0.  1.
         -2    1    1    2    0  503  0.16086957030E+02 -0.13756951347E+02 -0.99361763469E+01  0.23383145580E+02  0.00000000000E+00 0. -1.
</event>
<event>
 4    1  0.1772365E+004  0.6550262E+02  0.7546771E-02  0.1242202E+00
         21   -1    0    0  503  502  0.00000000000E+00  0.00000000000E+00  0.66426133372E+02  0.66426133372E+02  0.00000000000E+00 0. -1.
         21   -1    0    0  501  503 -0.00000000000E+00 -0.00000000000E+00 -0.65510286753E+02  0.65510286753E+02  0.00000000000E+00 0.  1.
          2    1    1    2  501    0  0.45566223893E+02  0.47056481324E+02  0.82684796432E+01  0.66022427629E+02  0.00000000000E+00 0. -1.
         -2    1    1    2    0  502 -0.45566223893E+02 -0.47056481324E+02 -0.73526330237E+01  0.65913992496E+02  0.00000000000E+00 0.  1.
</event>
<event>
 4    1  0.1772365E+004  0.2110585E+02  0.7546771E-02  0.1517759E+00
         21   -1    0    0  503  502  0.00000000000E+00  0.00000000000E+00  0.11423092874E+03  0.11423092874E+03  0.00000000000E+00 0.  1.
         21   -1    0    0  501  503 -0.00000000000E+00 -0.00000000000E+00 -0.10620127119E+02  0.10620127119E+02  0.00000000000E+00 0. -1.
          2    1    1    2  501    0 -0.16169923867E+02 -0.13564305358E+02  0.21463400437E+01  0.21214702291E+02  0.00000000000E+00 0. -1.
         -2    1    1    2    0  502  0.16169923867E+02  0.13564305358E+02  0.10146446157E+03  0.10363635356E+03  0.00000000000E+00 0.  1.
</event>
<event>
 4    1  0.1772365E+004  0.2183975E+02  0.7546771E-02  0.1507605E+00
         21   -1    0    0  501  502  0.00000000000E+00  0.00000000000E+00  0.31995012498E+03  0.31995012498E+03  0.00000000000E+00 0.  1.
         21   -1    0    0  502  503 -0.00000000000E+00 -0.00000000000E+00 -0.37519903556E+01  0.37519903556E+01  0.00000000000E+00 0. -1.
          2    1    1    2  501    0  0.16997629780E+02 -0.13713319208E+02  0.28374700933E+03  0.28458626082E+03  0.00000000000E+00 0.  1.
         -2    1    1    2    0  503 -0.16997629780E+02  0.13713319208E+02  0.32451125289E+02  0.39115854514E+02  0.00000000000E+00 0. -1.
</event>
<event>
 4    1  0.1772365E+004  0.3208168E+02  0.7546771E-02  0.1402329E+00
         21   -1    0    0  501  502  0.00000000000E+00  0.00000000000E+00  0.81454386509E+02  0.81454386509E+02  0.00000000000E+00 0.  1.
         21   -1    0    0  502  503 -0.00000000000E+00 -0.00000000000E+00 -0.13784194692E+02  0.13784194692E+02  0.00000000000E+00 0. -1.
          2    1    1    2  501    0  0.17205443469E+02  0.27077790335E+02  0.47580414433E+02  0.57385798348E+02  0.00000000000E+00 0.  1.
         -2    1    1    2    0  503 -0.17205443469E+02 -0.27077790335E+02  0.20089777384E+02  0.37852782853E+02  0.00000000000E+00 0. -1.
</event>
<event>
 4    1  0.1772365E+004  0.4521708E+02  0.7546771E-02  0.1320357E+00
         21   -1    0    0  501  502  0.00000000000E+00  0.00000000000E+00  0.36381386934E+03  0.36381386934E+03  0.00000000000E+00 0. -1.
         21   -1    0    0  502  503 -0.00000000000E+00 -0.00000000000E+00 -0.18334208656E+02  0.18334208656E+02  0.00000000000E+00 0.  1.
          2    1    1    2  501    0  0.44608542077E+02 -0.73934038435E+01  0.33185719971E+03  0.33492355164E+03  0.00000000000E+00 0. -1.
         -2    1    1    2    0  503 -0.44608542077E+02  0.73934038435E+01  0.13622460980E+02  0.47224526359E+02  0.00000000000E+00 0.  1.
</event>
<event>
 4    1  0.1772365E+004  0.2030292E+02  0.7546771E-02  0.1529454E+00
         21   -1    0    0  501  502  0.00000000000E+00  0.00000000000E+00  0.27388603229E+02  0.27388603229E+02  0.00000000000E+00 0. -1.
         21   -1    0    0  502  503 -0.00000000000E+00 -0.00000000000E+00 -0.15146089678E+02  0.15146089678E+02  0.00000000000E+00 0.  1.
          2    1    1    2  501    0 -0.19679434948E+02 -0.49928482295E+01  0.44305941391E+01  0.20780732849E+02  0.00000000000E+00 0. -1.
         -2    1    1    2    0  503  0.19679434948E+02  0.49928482295E+01  0.78119194116E+01  0.21753960058E+02  0.00000000000E+00 0.  1.
</event>
<event>
 4    1  0.1772365E+004  0.2026171E+02  0.7546771E-02  0.1530072E+00
         21   -1    0    0  501  502  0.00000000000E+00  0.00000000000E+00  0.21384253028E+02  0.21384253028E+02  0.00000000000E+00 0. -1.
         21   -1    0    0  502  503 -0.00000000000E+00 -0.00000000000E+00 -0.78399868917E+02  0.78399868917E+02  0.00000000000E+00 0.  1.
          2    1    1    2  501    0  0.17339781936E+02 -0.10481827331E+02  0.14847389356E+02  0.25119349364E+02  0.00000000000E+00 0. -1.
         -2    1    1    2    0  503 -0.17339781936E+02  0.10481827331E+02 -0.71863005244E+02  0.74664772581E+02  0.00000000000E+00 0.  1.
</event>
<event>
 4    1  0.1772365E+004  0.2045686E+02  0.7546771E-02  0.1527163E+00
         21   -1    0    0  501  502  0.00000000000E+00  0.00000000000E+00  0.26069054279E+03  0.26069054279E+03  0.00000000000E+00 0. -1.
         21   -1    0    0  502  503 -0.00000000000E+00 -0.00000000000E+00 -0.22098558530E+01  0.22098558530E+01  0.00000000000E+00 0.  1.
          2    1    1    2  501    0  0.11375679499E+02  0.17002266549E+02  0.19799500416E+03  0.19904900107E+03  0.00000000000E+00 0. -1.
         -2    1    1    2    0  503 -0.11375679499E+02 -0.17002266549E+02  0.60485682770E+02  0.63851397573E+02  0.00000000000E+00 0.  1.
</event>
<event>
 4    1  0.1772365E+004  0.2189620E+02  0.7546771E-02  0.1506844E+00
         21   -1    0    0  503  502  0.00000000000E+00  0.00000000000E+00  0.75284219208E+02  0.75284219208E+02  0.00000000000E+00 0.  1.
         21   -1    0    0  501  503 -0.00000000000E+00 -0.00000000000E+00 -0.63729652121E+01  0.63729652121E+01  0.00000000000E+00 0. -1.
          2    1    1    2  501    0  0.10976837835E+02  0.18946044291E+02  0.35542740583E+02  0.41746017430E+02  0.00000000000E+00 0.  1.
         -2    1    1    2    0  502 -0.10976837835E+02 -0.18946044291E+02  0.33368513414E+02  0.39911166991E+02  0.00000000000E+00 0. -1.
</event>
<event>
 4    1  0.1772365E+004  0.2334090E+02  0.7546771E-02  0.1488261E+00
         21   -1    0    0  503  502  0.00000000000E+00  0.00000000000E+00  0.11289166195E+03  0.11289166195E+03  0.00000000000E+00 0. -1.
         21   -1    0    0  501  503 -0.00000000000E+00 -0.00000000000E+00 -0.48589970346E+01  0.48589970346E+01  0.00000000000E+00 0.  1.
          2    1    1    2  501    0 -0.20595938388E+02  0.10982027666E+02  0.49153176683E+02  0.54413531293E+02  0.00000000000E+00 0.  1.
         -2    1    1    2    0  502  0.20595938388E+02 -0.10982027666E+02  0.58879488233E+02  0.63337127693E+02  0.00000000000E+00 0. -1.
</event>
<event>
 4    1  0.1772365E+004  0.2324216E+02  0.7546771E-02  0.1489479E+00
         21   -1    0    0  503  502  0.00000000000E+00  0.00000000000E+00  0.11171068901E+02  0.11171068901E+02  0.00000000000E+00 0.  1.
         21   -1    0    0  501  503 -0.00000000000E+00 -0.00000000000E+00 -0.50224467951E+02  0.50224467951E+02  0.00000000000E+00 0. -1.
          2    1    1    2  501    0  0.20047720737E+02 -0.11759549150E+02 -0.25446253599E+02  0.34463167660E+02  0.00000000000E+00 0. -1.
         -2    1    1    2    0  502 -0.20047720737E+02  0.11759549150E+02 -0.13607145451E+02  0.26932369191E+02  0.00000000000E+00 0.  1.
</event>
<event>
 4    1  0.1772365E+004  0.2108099E+02  0.7546771E-02  0.1518112E+00
         21   -1    0    0  501  502  0.00000000000E+00  0.00000000000E+00  0.24059247633E+01  0.24059247633E+01  0.00000000000E+00 0.  1.
         21   -1    0    0  502  503 -0.00000000000E+00 -0.00000000000E+00 -0.20986171800E+03  0.20986171800E+03  0.00000000000E+00 0. -1.
          2    1    1    2  501    0  0.12621996228E+02  0.16884712264E+02 -0.66988216835E+02  0.70226985495E+02  0.00000000000E+00 0.  1.
         -2    1    1    2    0  503 -0.12621996228E+02 -0.16884712264E+02 -0.14046757640E+03  0.14204065727E+03  0.00000000000E+00 0. -1.
</event>
<event>
 4    1  0.1772365E+004  0.2326422E+02  0.7546771E-02  0.1489207E+00
         21   -1    0    0  501  502  0.00000000000E+00  0.00000000000E+00  0.52884220669E+02  0.52884220669E+02  0.00000000000E+00 0.  1.
         21   -1    0    0  502  503 -0.00000000000E+00 -0.00000000000E+00 -0.11988748960E+02  0.11988748960E+02  0.00000000000E+00 0. -1.
          2    1    1    2  501    0  0.21995200953E+02 -0.75786016076E+01  0.32856772760E+02  0.40259055919E+02  0.00000000000E+00 0.  1.
         -2    1    1    2    0  503 -0.21995200953E+02  0.75786016076E+01  0.80386989486E+01  0.24613913709E+02  0.00000000000E+00 0. -1.
</event>
<event>
 4    1  0.1772365E+004  0.3792162E+02  0.7546771E-02  0.1361115E+00
         21   -1    0    0  501  502  0.00000000000E+00  0.00000000000E+00  0.75985675240E+01  0.75985675240E+01  0.00000000000E+00 0. -1.
         21   -1    0    0  502  503 -0.00000000000E+00 -0.00000000000E+00 -0.40282399256E+03  0.40282399256E+03  0.00000000000E+00 0.  1.
          2    1    1    2  501    0  0.14766249548E+02 -0.34928598984E+02 -0.48190542808E+02  0.61321917524E+02  0.00000000000E+00 0. -1.
         -2    1    1    2    0  503 -0.14766249548E+02  0.34928598984E+02 -0.34703488223E+03  0.34910064256E+03  0.00000000000E+00 0.  1.
</event>
<event>
 4    1  0.1772365E+004  0.2667051E+02  0.7546771E-02  0.1450946E+00
         21   -1    0    0  503  502  0.00000000000E+00  0.00000000000E+00  0.19333000550E+04  0.19333000550E+04  0.00000000000E+00 0. -1.
         21   -1    0    0  501  503 -0.00000000000E+00 -0.00000000000E+00 -0.41653406132E+00  0.41653406132E+00  0.00000000000E+00 0.  1.
          2    1    1    2  501    0 -0.14703690303E+02  0.22251234784E+02  0.63616266766E+03  0.63672148988E+03  0.00000000000E+00 0.  1.
         -2    1    1    2    0  502  0.14703690303E+02 -0.22251234784E+02  0.12967208532E+04  0.12969950991E+04  0.00000000000E+00 0. -1.
</event>
<event>
 4    1  0.1772365E+004  0.2538028E+02  0.7546771E-02  0.1464594E+00
         21   -1    0    0  503  502  0.00000000000E+00  0.00000000000E+00  0.23303806563E+01  0.23303806563E+01  0.00000000000E+00 0.  1.
         21   -1    0    0  501  503 -0.00000000000E+00 -0.00000000000E+00 -0.78225298523E+03  0.78225298523E+03  0.00000000000E+00 0. -1.
          2    1    1    2  501    0 -0.21329404059E+02 -0.13755546850E+02 -0.70541820198E+03  0.70587463351E+03  0.00000000000E+00 0. -1.
         -2    1    1    2    0  502  0.21329404059E+02  0.13755546850E+02 -0.74504402596E+02  0.78708732380E+02  0.00000000000E+00 0.  1.
</event>
<event>
 4    1  0.1772365E+004  0.2798510E+02  0.7546771E-02  0.1437956E+00
         21   -1    0    0  501  502  0.00000000000E+00  0.00000000000E+00  0.20074330448E+03  0.20074330448E+03  0.00000000000E+00 0. -1.
         21   -1    0    0  502  503 -0.00000000000E+00 -0.00000000000E+00 -0.59273018266E+01  0.59273018266E+01  0.00000000000E+00 0.  1.
          2    1    1    2  501    0  0.45659039722E+01  0.27610117199E+02  0.15782189183E+03  0.16028385942E+03  0.00000000000E+00 0. -1.
         -2    1    1    2    0  503 -0.45659039722E+01 -0.27610117199E+02  0.36994110826E+02  0.46386746885E+02  0.00000000000E+00 0.  1.
</event>
<event>
 4    1  0.1772365E+004  0.2037788E+02  0.7546771E-02  0.1528335E+00
         21   -1    0    0  501  502  0.00000000000E+00  0.00000000000E+00  0.17676259515E+03  0.17676259515E+03  0.00000000000E+00 0. -1.
         21   -1    0    0  502  503 -0.00000000000E+00 -0.00000000000E+00 -0.21687316600E+02  0.21687316600E+02  0.00000000000E+00 0.  1.
          2    1    1    2  501    0  0.29207621961E+01 -0.20167477384E+02  0.17123441100E+03  0.17244269050E+03  0.00000000000E+00 0. -1.
         -2    1    1    2    0  503 -0.29207621961E+01  0.20167477384E+02 -0.16159132449E+02  0.26007221254E+02  0.00000000000E+00 0.  1.
</event>
<event>
 4    1  0.1772365E+004  0.2978920E+02  0.7546771E-02  0.1421437E+00
         21   -1    0    0  501  502  0.00000000000E+00  0.00000000000E+00  0.13756327895E+03  0.13756327895E+03  0.00000000000E+00 0. -1.
         21   -1    0    0  502  503 -0.00000000000E+00 -0.00000000000E+00 -0.68519456423E+01  0.68519456423E+01  0.00000000000E+00 0.  1.
          2    1    1    2  501    0 -0.19105968698E+02  0.22855161980E+02  0.82826523468E+02  0.88020619510E+02  0.00000000000E+00 0. -1.
         -2    1    1    2    0  503  0.19105968698E+02 -0.22855161980E+02  0.47884809838E+02  0.56394605081E+02  0.00000000000E+00 0.  1.
</event>
<event>
 4    1  0.1772365E+004  0.2156333E+02  0.7546771E-02  0.1511372E+00
         21   -1    0    0  503  502  0.00000000000E+00  0.00000000000E+00  0.32535992304E+02  0.32535992304E+02  0.00000000000E+00 0.  1.
         21   -1    0    0  501  503 -0.00000000000E+00 -0.00000000000E+00 -0.55047631187E+02  0.55047631187E+02  0.00000000000E+00 0. -1.
          2    1    1    2  501    0  0.96867387995E+01 -0.19265101055E+02 -0.48936773478E+02  0.53476956025E+02  0.00000000000E+00 0. -1.
         -2    1    1    2    0  502 -0.96867387995E+01  0.19265101055E+02  0.26425134595E+02  0.34106667466E+02  0.00000000000E+00 0.  1.
</event>
<event>
 4    1  0.1772365E+004  0.2256855E+02  0.7546771E-02  0.1497988E+00
         21   -1    0    0  501  502  0.00000000000E+00  0.00000000000E+00  0.19845354985E+02  0.19845354985E+02  0.00000000000E+00 0. -1.
         21   -1    0    0  502  503 -0.00000000000E+00 -0.00000000000E+00 -0.40369098335E+02  0.40369098335E+02  0.00000000000E+00 0.  1.
          2    1    1    2  501    0  0.18775314942E+02 -0.12523055055E+02  0.79083084581E+01  0.23914027301E+02  0.00000000000E+00 0. -1.
         -2    1    1    2    0  503 -0.18775314942E+02  0.12523055055E+02 -0.28432051808E+02  0.36300426019E+02  0.00000000000E+00 0.  1.
</event>
<event>
 4    1  0.1772365E+004  0.2068209E+02  0.7546771E-02  0.1523853E+00
         21   -1    0    0  503  502  0.00000000000E+00  0.00000000000E+00  0.65192562166E+01  0.65192562166E+01  0.00000000000E+00 0.  1.
         21   -1    0    0  501  503 -0.00000000000E+00 -0.00000000000E+00 -0.71114430963E+02  0.71114430963E+02  0.00000000000E+00 0. -1.
          2    1    1    2  501    0 -0.22541057747E+01  0.20558886297E+02 -0.21501308529E+02  0.29833790692E+02  0.00000000000E+00 0.  1.
         -2    1    1    2    0  502  0.22541057747E+01 -0.20558886297E+02 -0.43093866218E+02  0.47799896487E+02  0.00000000000E+00 0. -1.
</event>
<event>
 4    1  0.1772365E+004  0.2617495E+02  0.7546771E-02  0.1456077E+00
         21   -1    0    0  501  502  0.00000000000E+00  0.00000000000E+00  0.10980422960E+03  0.10980422960E+03  0.00000000000E+00 0. -1.
         21   -1    0    0  502  503 -0.00000000000E+00 -0.00000000000E+00 -0.10367110493E+02  0.10367110493E+02  0.00000000000E+00 0.  1.
          2    1    1    2  501    0 -0.23630228578E+02 -0.11257888197E+02  0.87631664970E+02  0.91457293064E+02  0.00000000000E+00 0.  1.
         -2    1    1    2    0  503  0.23630228578E+02  0.11257888197E+02  0.11805454136E+02  0.28714047027E+02  0.00000000000E+00 0. -1.
</event>
<event>
 4    1  0.1772365E+004  0.3082356E+02  0.7546771E-02  0.1412572E+00
         21   -1    0    0  503  502  0.00000000000E+00  0.00000000000E+00  0.19540229197E+02  0.19540229197E+02  0.00000000000E+00 0. -1.
         21   -1    0    0  501  503 -0.00000000000E+00 -0.00000000000E+00 -0.15937868264E+03  0.15937868264E+03  0.00000000000E+00 0.  1.
          2    1    1    2  501    0  0.17156783296E+01  0.30775772385E+02 -0.14449459971E+03  0.14774566343E+03  0.00000000000E+00 0.  1.
         -2    1    1    2    0  502 -0.17156783296E+01 -0.30775772385E+02  0.46561462673E+01  0.31173248404E+02  0.00000000000E+00 0. -1.
</event>
<event>
 4    1  0.1772365E+004  0.3461416E+02  0.7546771E-02  0.1383296E+00
         21   -1    0    0  501  502  0.00000000000E+00  0.00000000000E+00  0.86222868354E+00  0.86222868354E+00  0.00000000000E+00 0. -1.
         21   -1    0    0  502  503 -0.00000000000E+00 -0.00000000000E+00 -0.27514508695E+04  0.27514508695E+04  0.00000000000E+00 0.  1.
          2    1    1    2  501    0 -0.25227795510E+02 -0.23700181558E+02 -0.40711882579E+03  0.40858766328E+03  0.00000000000E+00 0. -1.
         -2    1    1    2    0  503  0.25227795510E+02  0.23700181558E+02 -0.23434698151E+04  0.23437254349E+04  0.00000000000E+00 0.  1.
</event>
<event>
 4    1  0.1772365E+004  0.2411224E+02  0.7546771E-02  0.1478985E+00
         21   -1    0    0  503  502  0.00000000000E+00  0.00000000000E+00  0.22163187040E+01  0.22163187040E+01  0.00000000000E+00 0. -1.
         21   -1    0    0  501  503 -0.00000000000E+00 -0.00000000000E+00 -0.45409605166E+03  0.45409605166E+03  0.00000000000E+00 0.  1.
          2    1    1    2  501    0 -0.23903208000E+02  0.31680701053E+01 -0.37420797745E+03  0.37498401353E+03  0.00000000000E+00 0.  1.
         -2    1    1    2    0  502  0.23903208000E+02 -0.31680701053E+01 -0.77671755511E+02  0.81328356832E+02  0.00000000000E+00 0. -1.
</event>
<event>
 4    1  0.1772365E+004  0.2354319E+02  0.7546771E-02  0.1485788E+00
         21   -1    0    0  501  502  0.00000000000E+00  0.00000000000E+00  0.34576369805E+03  0.34576369805E+03  0.00000000000E+00 0. -1.
         21   -1    0    0  502  503 -0.00000000000E+00 -0.00000000000E+00 -0.17194454079E+01  0.17194454079E+01  0.00000000000E+00 0.  1.
          2    1    1    2  501    0  0.23283521673E+02  0.34870286465E+01  0.21722323868E+03  0.21849534817E+03  0.00000000000E+00 0. -1.
         -2    1    1    2    0  503 -0.23283521673E+02 -0.34870286465E+01  0.12682101397E+03  0.12898779529E+03  0.00000000000E+00 0.  1.
</event>
<event>
 4    1  0.1772365E+004  0.2050849E+02  0.7546771E-02  0.1526399E+00
         21   -1    0    0  501  502  0.00000000000E+00  0.00000000000E+00  0.11394453072E+03  0.11394453072E+03  0.00000000000E+00 0.  1.
         21   -1    0    0  502  503 -0.00000000000E+00 -0.00000000000E+00 -0.23903082745E+02  0.23903082745E+02  0.00000000000E+00 0. -1.
          2    1    1    2  501    0  0.15409773070E+02 -0.13532819478E+02  0.10839968181E+03  0.11032266008E+03  0.00000000000E+00 0.  1.
         -2    1    1    2    0  503 -0.15409773070E+02  0.13532819478E+02 -0.18358233841E+02  0.27524953386E+02  0.00000000000E+00 0. -1.
</event>
<event>
 4    1  0.1772365E+004  0.2082212E+02  0.7546771E-02  0.1521820E+00
         21   -1    0    0  503  502  0.00000000000E+00  0.00000000000E+00  0.33496310863E+03  0.33496310863E+03  0.00000000000E+00 0.  1.
         21   -1    0    0  501  503 -0.00000000000E+00 -0.00000000000E+00 -0.14687234961E+01  0.14687234961E+01  0.00000000000E+00 0. -1.
          2    1    1    2  501    0 -0.57305099578E+01  0.20018037857E+02  0.10878653955E+03  0.11076132796E+03  0.00000000000E+00 0. -1.
         -2    1    1    2    0  502  0.57305099578E+01 -0.20018037857E+02  0.22470784558E+03  0.22567050417E+03  0.00000000000E+00 0.  1.
</event>
<event>
 4    1  0.1772365E+004  0.2238361E+02  0.7546771E-02  0.1500387E+00
         21   -1    0    0  501  502  0.00000000000E+00  0.00000000000E+00  0.23255923522E+02  0.23255923522E+02  0.00000000000E+00 0. -1.
         21   -1    0    0  502  503 -0.00000000000E+00 -0.00000000000E+00 -0.49071525682E+02  0.49071525682E+02  0.00000000000E+00 0.  1.
          2    1    1    2  501    0  0.22344265956E+02 -0.13265018077E+01  0.14178012763E+02  0.26496072804E+02  0.00000000000E+00 0. -1.
         -2    1    1    2    0  503 -0.22344265956E+02  0.13265018077E+01 -0.39993614923E+02  0.45831376400E+02  0.00000000000E+00 0.  1.
</event>
<event>
 4    1  0.1772365E+004  0.2855570E+02  0.7546771E-02  0.1432577E+00
         21   -1    0    0  501  502  0.00000000000E+00  0.00000000000E+00  0.26370466384E+01  0.26370466384E+01  0.00000000000E+00 0. -1.
         21   -1    0    0  502  503 -0.00000000000E+00 -0.00000000000E+00 -0.35444139820E+03  0.35444139820E+03  0.00000000000E+00 0.  1.
          2    1    1    2  501    0  0.85997057936E+01  0.27230000676E+02 -0.23967458700E+03  0.24136970715E+03  0.00000000000E+00 0. -1.
         -2    1    1    2    0  503 -0.85997057936E+01 -0.27230000676E+02 -0.11212976456E+03  0.11570873769E+03  0.00000000000E+00 0.  1.
</event>
<event>
 4    1  0.1772365E+004  0.2238537E+02  0.7546771E-02  0.1500364E+00
         21   -1    0    0  501  502  0.00000000000E+00  0.00000000000E+00  0.19222216882E+01  0.19222216882E+01  0.00000000000E+00 0.  1.
         21   -1    0    0  502  503 -0.00000000000E+00 -0.00000000000E+00 -0.28114182831E+03  0.28114182831E+03  0.00000000000E+00 0. -1.
          2    1    1    2  501    0  0.19588985725E+02 -0.10834036263E+02 -0.10143700337E+03  0.10387767016E+03  0.00000000000E+00 0. -1.
         -2    1    1    2    0  503 -0.19588985725E+02  0.10834036263E+02 -0.17778260324E+03  0.17918637984E+03  0.00000000000E+00 0.  1.
</event>
<event>
 4    1  0.1772365E+004  0.3229605E+02  0.7546771E-02  0.1400639E+00
         21   -1    0    0  503  502  0.00000000000E+00  0.00000000000E+00  0.16924185734E+03  0.16924185734E+03  0.00000000000E+00 0. -1.
         21   -1    0    0  501  503 -0.00000000000E+00 -0.00000000000E+00 -0.16601394898E+02  0.16601394898E+02  0.00000000000E+00 0.  1.
          2    1    1    2  501    0 -0.23920236419E+02  0.21699237714E+02  0.26381755537E+01  0.32403620136E+02  0.00000000000E+00 0.  1.
         -2    1    1    2    0  502  0.23920236419E+02 -0.21699237714E+02  0.15000228689E+03  0.15343963210E+03  0.00000000000E+00 0. -1.
</event>
<event>
 4    1  0.1772365E+004  0.2086736E+02  0.7546771E-02  0.1521167E+00
         21   -1    0    0  503  502  0.00000000000E+00  0.00000000000E+00  0.68152494075E+02  0.68152494075E+02  0.00000000000E+00 0.  1.
         21   -1    0    0  501  503 -0.00000000000E+00 -0.00000000000E+00 -0.30105687852E+02  0.30105687852E+02  0.00000000000E+00 0. -1.
          2    1    1    2  501    0  0.17126884419E+02  0.11921255750E+02 -0.24581844112E+02  0.32244589756E+02  0.00000000000E+00 0. -1.
         -2    1    1    2    0  502 -0.17126884419E+02 -0.11921255750E+02  0.62628650336E+02  0.66013592172E+02  0.00000000000E+00 0.  1.
</event>
<event>
 4    1  0.1772365E+004  0.2590626E+02  0.7546771E-02  0.1458915E+00
         21   -1    0    0  503  502  0.00000000000E+00  0.00000000000E+00  0.52606264239E+03  0.52606264239E+03  0.00000000000E+00 0.  1.
         21   -1    0    0  501  503 -0.00000000000E+00 -0.00000000000E+00 -0.16437141397E+01  0.16437141397E+01  0.00000000000E+00 0. -1.
          2    1    1    2  501    0  0.14269143724E+02  0.21622349762E+02  0.13737323215E+03  0.13979463289E+03  0.00000000000E+00 0. -1.
         -2    1    1    2    0  502 -0.14269143724E+02 -0.21622349762E+02  0.38704569610E+03  0.38791172365E+03  0.00000000000E+00 0.  1.
</event>
<event>
 4    1  0.1772365E+004  0.2259986E+02  0.7546771E-02  0.1497585E+00
         21   -1    0    0  501  502  0.00000000000E+00  0.00000000000E+00  0.41131967071E+02  0.41131967071E+02  0.00000000000E+00 0. -1.
         21   -1    0    0  502  503 -0.00000000000E+00 -0.00000000000E+00 -0.15900927788E+02  0.15900927788E+02  0.00000000000E+00 0.  1.
          2    1    1    2  501    0 -0.22331029850E+02  0.34754627828E+01  0.25962755349E+02  0.34421191162E+02  0.00000000000E+00 0. -1.
         -2    1    1    2    0  503  0.22331029850E+02 -0.34754627828E+01 -0.73171606542E+00  0.22611703698E+02  0.00000000000E+00 0.  1.
</event>
<event>
 4    1  0.1772365E+004  0.3618156E+02  0.7546771E-02  0.1372441E+00
         21   -1    0    0  503  502  0.00000000000E+00  0.00000000000E+00  0.21361550136E+02  0.21361550136E+02  0.00000000000E+00 0. -1.
         21   -1    0    0  501  503 -0.00000000000E+00 -0.00000000000E+00 -0.82413602947E+02  0.82413602947E+02  0.00000000000E+00 0.  1.
          2    1    1    2  501    0 -0.24607469914E+02 -0.26525039068E+02 -0.42525654508E+01  0.36430613308E+02  0.00000000000E+00 0. -1.
         -2    1    1    2    0  502  0.24607469914E+02  0.26525039068E+02 -0.56799487361E+02  0.67344539775E+02  0.00000000000E+00 0.  1.
</event>
<event>
 4    1  0.1772365E+004  0.2505969E+02  0.7546771E-02  0.1468137E+00
         21   -1    0    0  503  502  0.00000000000E+00  0.00000000000E+00  0.32864558773E+02  0.32864558773E+02  0.00000000000E+00 0. -1.
         21   -1    0    0  501  503 -0.00000000000E+00 -0.00000000000E+00 -0.10142853155E+03  0.10142853155E+03  0.00000000000E+00 0.  1.
          2    1    1    2  501    0 -0.20480665502E+02  0.14440586699E+02 -0.94773813998E+02  0.98030934013E+02  0.00000000000E+00 0.  1.
         -2    1    1    2    0  502  0.20480665502E+02 -0.14440586699E+02  0.26209841220E+02  0.36262156312E+02  0.00000000000E+00 0. -1.
</event>
<event>
 4    1  0.1772365E+004  0.3123392E+02  0.7546771E-02  0.1409168E+00
         21   -1    0    0  501  502  0.00000000000E+00  0.00000000000E+00  0.60983321055E+01  0.60983321055E+01  0.00000000000E+00 0. -1.
         21   -1    0    0  502  503 -0.00000000000E+00 -0.00000000000E+00 -0.19144216234E+03  0.19144216234E+03  0.00000000000E+00 0.  1.
          2    1    1    2  501    0  0.31197905549E+02  0.14995706132E+01 -0.52625672778E+02  0.61196564102E+02  0.00000000000E+00 0. -1.
         -2    1    1    2    0  503 -0.31197905549E+02 -0.14995706132E+01 -0.13271815746E+03  0.13634393034E+03  0.00000000000E+00 0.  1.
</event>
<event>
 4    1  0.1772365E+004  0.2243933E+02  0.7546771E-02  0.1499661E+00
         21   -1    0    0  501  502  0.00000000000E+00  0.00000000000E+00  0.12452684760E+02  0.12452684760E+02  0.00000000000E+00 0. -1.
         21   -1    0    0  502  503 -0.00000000000E+00 -0.00000000000E+00 -0.14800600799E+03  0.14800600799E+03  0.00000000000E+00 0.  1.
          2    1    1    2  501    0  0.38791552331E+01  0.22101481850E+02  0.62101613461E+00  0.22447917639E+02  0.00000000000E+00 0. -1.
         -2    1    1    2    0  503 -0.38791552331E+01 -0.22101481850E+02 -0.13617433936E+03  0.13801077511E+03  0.00000000000E+00 0.  1.
</event>
<event>
 4    1  0.1772365E+004  0.2139931E+02  0.7546771E-02  0.1513640E+00
         21   -1    0    0  501  502  0.00000000000E+00  0.00000000000E+00  0.19516103084E+03  0.19516103084E+03  0.00000000000E+00 0.  1.
         21   -1    0    0  502  503 -0.00000000000E+00 -0.00000000000E+00 -0.16331171600E+02  0.16331171600E+02  0.00000000000E+00 0. -1.
          2    1    1    2  501    0 -0.19345230361E+02 -0.91483546279E+01  0.18726993047E+03  0.18848861289E+03  0.00000000000E+00 0.  1.
         -2    1    1    2    0  503  0.19345230361E+02  0.91483546279E+01 -0.84400712262E+01  0.23003589555E+02  0.00000000000E+00 0. -1.
</event>
<event>
 4    1  0.1772365E+004  0.2435831E+02  0.7546771E-02  0.1476112E+00
         21   -1    0    0  501  502  0.00000000000E+00  0.00000000000E+00  0.20486447204E+03  0.20486447204E+03  0.00000000000E+00 0.  1.
         21   -1    0    0  502  503 -0.00000000000E+00 -0.00000000000E+00 -0.29917046383E+01  0.29917046383E+01  0.00000000000E+00 0. -1.
          2    1    1    2  501    0  0.23116038981E+02  0.76795742120E+01  0.11950591617E+03  0.12196307276E+03  0.00000000000E+00 0. -1.
         -2    1    1    2    0  503 -0.23116038981E+02 -0.76795742120E+01  0.82366851229E+02  0.85893103912E+02  0.00000000000E+00 0.  1.
</event>
<event>
 4    1  0.1772365E+004  0.2063176E+02  0.7546771E-02  0.1524588E+00
         21   -1    0    0  501  502  0.00000000000E+00  0.00000000000E+00  0.53753883476E+01  0.53753883476E+01  0.00000000000E+00 0. -1.
         21   -1    0    0  502  503 -0.00000000000E+00 -0.00000000000E+00 -0.11915450286E+03  0.11915450286E+03  0.00000000000E+00 0.  1.
          2    1    1    2  501    0  0.18575316985E+02  0.89792616366E+01 -0.20828941844E+02  0.29317475317E+02  0.00000000000E+00 0.  1.
         -2    1    1    2    0  503 -0.18575316985E+02 -0.89792616366E+01 -0.92950172664E+02  0.95212415887E+02  0.00000000000E+00 0. -1.
</event>
<event>
 4    1  0.1772365E+004  0.2522495E+02  0.7546771E-02  0.1466303E+00
         21   -1    0    0  501  502  0.00000000000E+00  0.00000000000E+00  0.40131379922E+02  0.40131379922E+02  0.00000000000E+00 0.  1.
         21   -1    0    0  502  503 -0.00000000000E+00 -0.00000000000E+00 -0.20327431384E+02  0.20327431384E+02  0.00000000000E+00 0. -1.
          2    1    1    2  501    0  0.10487498790E+02  0.22941454336E+02  0.24080861127E+02  0.34873855975E+02  0.00000000000E+00 0.  1.
         -2    1    1    2    0  503 -0.10487498790E+02 -0.22941454336E+02 -0.42769125897E+01  0.25584955330E+02  0.00000000000E+00 0. -1.
</event>
<event>
 4    1  0.1772365E+004  0.2229468E+02  0.7546771E-02  0.1501550E+00
         21   -1    0    0  501  502  0.00000000000E+00  0.00000000000E+00  0.12732170104E+01  0.12732170104E+01  0.00000000000E+00 0. -1.
         21   -1    0    0  502  503 -0.00000000000E+00 -0.00000000000E+00 -0.47003533142E+03  0.47003533142E+03  0.00000000000E+00 0.  1.
          2    1    1    2  501    0 -0.20922319888E+02 -0.77012403310E+01 -0.13737758754E+03  0.13917490481E+03  0.00000000000E+00 0. -1.
         -2    1    1    2    0  503  0.20922319888E+02  0.77012403310E+01 -0.33138452688E+03  0.33213364362E+03  0.00000000000E+00 0.  1.
</event>
<event>
 4    1  0.1772365E+004  0.2250978E+02  0.7546771E-02  0.1498747E+00
         21   -1    0    0  501  502  0.00000000000E+00  0.00000000000E+00  0.78706605885E+01  0.78706605885E+01  0.00000000000E+00 0.  1.
         21   -1    0    0  502  503 -0.00000000000E+00 -0.00000000000E+00 -0.66256481410E+02  0.66256481410E+02  0.00000000000E+00 0. -1.
          2    1    1    2  501    0  0.24324295844E+01  0.22377966145E+02 -0.35435198209E+02  0.41980273398E+02  0.00000000000E+00 0.  1.
         -2    1    1    2    0  503 -0.24324295844E+01 -0.22377966145E+02 -0.22950622613E+02  0.32146868600E+02  0.00000000000E+00 0. -1.
</event>
<event>
 4    1  0.1772365E+004  0.2884414E+02  0.7546771E-02  0.1429914E+00
         21   -1    0    0  501  502  0.00000000000E+00  0.00000000000E+00  0.63603732051E+02  0.63603732051E+02  0.00000000000E+00 0. -1.
         21   -1    0    0  502  503 -0.00000000000E+00 -0.00000000000E+00 -0.36104657808E+02  0.36104657808E+02  0.00000000000E+00 0.  1.
          2    1    1    2  501    0  0.24212137367E+02 -0.15676638346E+02  0.53561134159E+02  0.60834033880E+02  0.00000000000E+00 0. -1.
         -2    1    1    2    0  503 -0.24212137367E+02  0.15676638346E+02 -0.26062059917E+02  0.38874355979E+02  0.00000000000E+00 0.  1.
</event>
<event>
 4    1  0.1772365E+004  0.2085921E+02  0.7546771E-02  0.1521285E+00
         21   -1    0    0  503  502  0.00000000000E+00  0.00000000000E+00  0.65500373549E+00  0.65500373549E+00  0.00000000000E+00 0.  1.
         21   -1    0    0  501  503 -0.00000000000E+00 -0.00000000000E+00 -0.14009671766E+04  0.14009671766E+04  0.00000000000E+00 0. -1.
          2    1    1    2  501    0  0.17790785730E+02 -0.10890107653E+02 -0.12083485986E+04  0.12085286269E+04  0.00000000000E+00 0. -1.
         -2    1    1    2    0  502 -0.17790785730E+02  0.10890107653E+02 -0.19196357433E+03  0.19309355342E+03  0.00000000000E+00 0.  1.
</event>
<event>
 4    1  0.1772365E+004  0.2623781E+02  0.7546771E-02  0.1455418E+00
         21   -1    0    0  501  502  0.00000000000E+00  0.00000000000E+00  0.27507306863E+02  0.27507306863E+02  0.00000000000E+00 0. -1.
         21   -1    0    0  502  503 -0.00000000000E+00 -0.00000000000E+00 -0.40203960187E+02  0.40203960187E+02  0.00000000000E+00 0.  1.
          2    1    1    2  501    0  0.25710050350E+02 -0.52360297389E+01  0.14452965569E+02  0.29955148308E+02  0.00000000000E+00 0. -1.
         -2    1    1    2    0  503 -0.25710050350E+02  0.52360297389E+01 -0.27149618893E+02  0.37756118742E+02  0.00000000000E+00 0.  1.
</event>
<event>
 4    1  0.1772365E+004  0.2589947E+02  0.7546771E-02  0.1458988E+00
         21   -1    0    0  503  502  0.00000000000E+00  0.00000000000E+00  0.91773796006E+02  0.91773796006E+02  0.00000000000E+00 0. -1.
         21   -1    0    0  501  503 -0.00000000000E+00 -0.00000000000E+00 -0.73966222777E+01  0.73966222777E+01  0.00000000000E+00 0.  1.
          2    1    1    2  501    0  0.18253221854E+02 -0.18373961221E+02  0.36794353913E+02  0.44995633554E+02  0.00000000000E+00 0. -1.
         -2    1    1    2    0  502 -0.18253221854E+02  0.18373961221E+02  0.47582819815E+02  0.54174784730E+02  0.00000000000E+00 0.  1.
</event>
<event>
 4    1  0.1772365E+004  0.2785182E+02  0.7546771E-02  0.1439234E+00
         21   -1    0    0  501  502  0.00000000000E+00  0.00000000000E+00  0.45794370706E+02  0.45794370706E+02  0.00000000000E+00 0. -1.
         21   -1    0    0  502  503 -0.00000000000E+00 -0.00000000000E+00 -0.37482684937E+02  0.37482684937E+02  0.00000000000E+00 0.  1.
          2    1    1    2  501    0  0.23625658616E+02  0.14749654153E+02  0.34981769966E+02  0.44715190625E+02  0.00000000000E+00 0. -1.
         -2    1    1    2    0  503 -0.23625658616E+02 -0.14749654153E+02 -0.26670084197E+02  0.38561865019E+02  0.00000000000E+00 0.  1.
</event>
<event>
 4    1  0.1772365E+004  0.3311135E+02  0.7546771E-02  0.1394350E+00
         21   -1    0    0  501  502  0.00000000000E+00  0.00000000000E+00  0.25670380664E+02  0.25670380664E+02  0.00000000000E+00 0.  1.
         21   -1    0    0  502  503 -0.00000000000E+00 -0.00000000000E+00 -0.43803614600E+02  0.43803614600E+02  0.00000000000E+00 0. -1.
          2    1    1    2  501    0 -0.54534930394E+01  0.32659165821E+02 -0.35759373235E+01  0.33303889055E+02  0.00000000000E+00 0.  1.
         -2    1    1    2    0  503  0.54534930394E+01 -0.32659165821E+02 -0.14557296612E+02  0.36170106208E+02  0.00000000000E+00 0. -1.
</event>
<event>
 4    1  0.1772365E+004  0.2904989E+02  0.7546771E-02  0.1428036E+00
         21   -1    0    0  501  502  0.00000000000E+00  0.00000000000E+00  0.79707380152E+02  0.79707380152E+02  0.00000000000E+00 0.  1.
         21   -1    0    0  502  503 -0.00000000000E+00 -0.00000000000E+00 -0.11450160092E+02  0.11450160092E+02  0.00000000000E+00 0. -1.
          2    1    1    2  501    0  0.22702533161E+02  0.18124319440E+02  0.21617513582E+02  0.36210673296E+02  0.00000000000E+00 0.  1.
         -2    1    1    2    0  503 -0.22702533161E+02 -0.18124319440E+02  0.46639706478E+02  0.54946866948E+02  0.00000000000E+00 0. -1.
</event>
<event>
 4    1  0.1772365E+004  0.2977153E+02  0.7546771E-02  0.1421592E+00
         21   -1    0    0  503  502  0.00000000000E+00  0.00000000000E+00  0.29978218911E+01  0.29978218911E+01  0.00000000000E+00 0.  1.
         21   -1    0    0  501  503 -0.00000000000E+00 -0.00000000000E+00 -0.43653721181E+03  0.43653721181E+03  0.00000000000E+00 0. -1.
          2    1    1    2  501    0 -0.24312792504E+02  0.17182324457E+02 -0.34161409256E+03  0.34290892726E+03  0.00000000000E+00 0. -1.
         -2    1    1    2    0  502  0.24312792504E+02 -0.17182324457E+02 -0.91925297354E+02  0.96626106445E+02  0.00000000000E+00 0.  1.
</event>
<event>
 4    1  0.1772365E+004  0.2066641E+02  0.7546771E-02  0.1524081E+00
         21   -1    0    0  501  502  0.00000000000E+00  0.00000000000E+00  0.47766487693E+01  0.47766487693E+01  0.00000000000E+00 0. -1.
         21   -1    0    0  502  503 -0.00000000000E+00 -0.00000000000E+00 -0.11323535977E+03  0.11323535977E+03  0.00000000000E+00 0.  1.
          2    1    1    2  501    0  0.35820109287E+01  0.20353616779E+02 -0.27165723966E+02  0.34133225410E+02  0.00000000000E+00 0. -1.
         -2    1    1    2    0  503 -0.35820109287E+01 -0.20353616779E+02 -0.81292987036E+02  0.83878783131E+02  0.00000000000E+00 0.  1.
</event>
<event>
 4    1  0.1772365E+004  0.4527027E+02  0.7546771E-02  0.1320093E+00
         21   -1    0    0  503  502  0.00000000000E+00  0.00000000000E+00  0.56743207121E+03  0.56743207121E+03  0.00000000000E+00 0. -1.
         21   -1    0    0  501  503 -0.00000000000E+00 -0.00000000000E+00 -0.61418667805E+01  0.61418667805E+01  0.00000000000E+00 0.  1.
          2    1    1    2  501    0 -0.19892990235E+02 -0.40665298681E+02  0.96574974429E+02  0.10665891085E+03  0.00000000000E+00 0.  1.
         -2    1    1    2    0  502  0.19892990235E+02  0.40665298681E+02  0.46471523000E+03  0.46691502714E+03  0.00000000000E+00 0. -1.
</event>
<event>
 4    1  0.1772365E+004  0.3441421E+02  0.7546771E-02  0.1384729E+00
         21   -1    0    0  501  502  0.00000000000E+00  0.00000000000E+00  0.30457520837E+02  0.30457520837E+02  0.00000000000E+00 0. -1.
         21   -1    0    0  502  503 -0.00000000000E+00 -0.00000000000E+00 -0.41177031708E+02  0.41177031708E+02  0.00000000000E+00 0.  1.
          2    1    1    2  501    0  0.16652965327E+02  0.30116711863E+02 -0.13810306358E+02  0.37081830447E+02  0.00000000000E+00 0.  1.
         -2    1    1    2    0  503 -0.16652965327E+02 -0.30116711863E+02  0.30907954871E+01  0.34552722097E+02  0.00000000000E+00 0. -1.
</event>
<event>
 4    1  0.1772365E+004  0.3918703E+02  0.7546771E-02  0.1353317E+00
         21   -1    0    0  501  502  0.00000000000E+00  0.00000000000E+00  0.24631745698E+02  0.24631745698E+02  0.00000000000E+00 0. -1.
         21   -1    0    0  502  503 -0.00000000000E+00 -0.00000000000E+00 -0.73453161524E+02  0.73453161524E+02  0.00000000000E+00 0.  1.
          2    1    1    2  501    0  0.19112607098E+02 -0.34210107247E+02 -0.53375696130E+01  0.39548866448E+02  0.00000000000E+00 0. -1.
         -2    1    1    2    0  503 -0.19112607098E+02  0.34210107247E+02 -0.43483846213E+02  0.58536040773E+02  0.00000000000E+00 0.  1.
</event>
<event>
 4    1  0.1772365E+004  0.2012969E+02  0.7546771E-02  0.1532062E+00
         21   -1    0    0  503  502  0.00000000000E+00  0.00000000000E+00  0.24431149464E+02  0.24431149464E+02  0.00000000000E+00 0.  1.
         21   -1    0    0  501  503 -0.00000000000E+00 -0.00000000000E+00 -0.23530491083E+02  0.23530491083E+02  0.00000000000E+00 0. -1.
          2    1    1    2  501    0  0.19954994991E+02  0.26462397963E+01 -0.12577809162E+02  0.23736168467E+02  0.00000000000E+00 0.  1.
         -2    1    1    2    0  502 -0.19954994991E+02 -0.26462397963E+01  0.13478467544E+02  0.24225472080E+02  0.00000000000E+00 0. -1.
</event>
<event>
 4    1  0.1772365E+004  0.8596559E+02  0.7546771E-02  0.1190636E+00
         21   -1    0    0  501  502  0.00000000000E+00  0.00000000000E+00  0.61025870410E+02  0.61025870410E+02  0.00000000000E+00 0.  1.
         21   -1    0    0  502  503 -0.00000000000E+00 -0.00000000000E+00 -0.24226893087E+03  0.24226893087E+03  0.00000000000E+00 0. -1.
          2    1    1    2  501    0  0.11595985511E+02  0.85179897640E+02  0.16625724296E+02  0.87558532139E+02  0.00000000000E+00 0.  1.
         -2    1    1    2    0  503 -0.11595985511E+02 -0.85179897640E+02 -0.19786878475E+03  0.21573626914E+03  0.00000000000E+00 0. -1.
</event>
<event>
 4    1  0.1772365E+004  0.3480663E+02  0.7546771E-02  0.1381928E+00
         21   -1    0    0  503  502  0.00000000000E+00  0.00000000000E+00  0.68389910548E+03  0.68389910548E+03  0.00000000000E+00 0. -1.
         21   -1    0    0  501  503 -0.00000000000E+00 -0.00000000000E+00 -0.18041959896E+01  0.18041959896E+01  0.00000000000E+00 0.  1.
          2    1    1    2  501    0  0.33370201619E+02 -0.98960313713E+01  0.29486693094E+03  0.29691414374E+03  0.00000000000E+00 0.  1.
         -2    1    1    2    0  502 -0.33370201619E+02  0.98960313713E+01  0.38722797855E+03  0.38878915773E+03  0.00000000000E+00 0. -1.
</event>
<event>
 4    1  0.1772365E+004  0.2113857E+02  0.7546771E-02  0.1517296E+00
         21   -1    0    0  503  502  0.00000000000E+00  0.00000000000E+00  0.30794479602E+02  0.30794479602E+02  0.00000000000E+00 0. -1.
         21   -1    0    0  501  503 -0.00000000000E+00 -0.00000000000E+00 -0.31109384042E+02  0.31109384042E+02  0.00000000000E+00 0.  1.
          2    1    1    2  501    0  0.10842389597E+01  0.21110747143E+02 -0.22766549970E+02  0.31066944114E+02  0.00000000000E+00 0.  1.
         -2    1    1    2    0  502 -0.10842389597E+01 -0.21110747143E+02  0.22451645530E+02  0.30836919529E+02  0.00000000000E+00 0. -1.
</event>
<event>
 4    1  0.1772365E+004  0.2934316E+02  0.7546771E-02  0.1425392E+00
         21   -1    0    0  501  502  0.00000000000E+00  0.00000000000E+00  0.13066594748E+02  0.13066594748E+02  0.00000000000E+00 0.  1.
         21   -1    0    0  502  503 -0.00000000000E+00 -0.00000000000E+00 -0.20906097322E+03  0.20906097322E+03  0.00000000000E+00 0. -1.
          2    1    1    2  501    0 -0.29275064797E+02  0.19978761027E+01 -0.60885877378E+01  0.29968180265E+02  0.00000000000E+00 0.  1.
         -2    1    1    2    0  503  0.29275064797E+02 -0.19978761027E+01 -0.18990579073E+03  0.19215938770E+03  0.00000000000E+00 0. -1.
</event>
<event>
 4    1  0.1772365E+004  0.2108294E+02  0.7546771E-02  0.1518084E+00
         21   -1    0    0  503  502  0.00000000000E+00  0.00000000000E+00  0.52842726419E+03  0.52842726419E+03  0.00000000000E+00 0. -1.
         21   -1    0    0  501  503 -0.00000000000E+00 -0.00000000000E+00 -0.91636453033E+00  0.91636453033E+00  0.00000000000E+00 0.  1.
          2    1    1    2  501    0 -0.12517504069E+02 -0.16964741863E+02  0.33957894032E+03  0.34023278367E+03  0.00000000000E+00 0.  1.
         -2    1    1    2    0  502  0.12517504069E+02  0.16964741863E+02  0.18793195933E+03  0.18911084505E+03  0.00000000000E+00 0. -1.
</event>
<event>
 4    1  0.1772365E+004  0.2757435E+02  0.7546771E-02  0.1441922E+00
         21   -1    0    0  503  502  0.00000000000E+00  0.00000000000E+00  0.39564001483E+02  0.39564001483E+02  0.00000000000E+00 0. -1.
         21   -1    0    0  501  503 -0.00000000000E+00 -0.00000000000E+00 -0.26768117464E+02  0.26768117464E+02  0.00000000000E+00 0.  1.
          2    1    1    2  501    0 -0.23782995101E+02  0.13954001141E+02 -0.11216094408E+02  0.29768200778E+02  0.00000000000E+00 0.  1.
         -2    1    1    2    0  502  0.23782995101E+02 -0.13954001141E+02  0.24011978427E+02  0.36563918168E+02  0.00000000000E+00 0. -1.
</event>
<event>
 4    1  0.1772365E+004  0.2578736E+02  0.7546771E-02  0.1460185E+00
         21   -1    0    0  503  502  0.00000000000E+00  0.00000000000E+00  0.59083132180E+02  0.59083132180E+02  0.00000000000E+00 0.  1.
         21   -1    0    0  501  503 -0.00000000000E+00 -0.00000000000E+00 -0.11472751409E+02  0.11472751409E+02  0.00000000000E+00 0. -1.
          2    1    1    2  501    0 -0.20774393044E+02 -0.15277844564E+02  0.28663966493E+02  0.38556593677E+02  0.00000000000E+00 0. -1.
         -2    1    1    2    0  502  0.20774393044E+02  0.15277844564E+02  0.18946414278E+02  0.31999289912E+02  0.00000000000E+00 0.  1.
</event>
<event>
 4    1  0.1772365E+004  0.5408879E+02  0.7546771E-02  0.1281356E+00
         21   -1    0    0  501  502  0.00000000000E+00  0.00000000000E+00  0.66540783775E+03  0.66540783775E+03  0.00000000000E+00 0. -1.
         21   -1    0    0  502  503 -0.00000000000E+00 -0.00000000000E+00 -0.91611142071E+01  0.91611142071E+01  0.00000000000E+00 0.  1.
          2    1    1    2  501    0 -0.45937894024E+02  0.28553575583E+02  0.57135893253E+03  0.57391343125E+03  0.00000000000E+00 0. -1.
         -2    1    1    2    0  503  0.45937894024E+02 -0.28553575583E+02  0.84887791011E+02  0.10065552071E+03  0.00000000000E+00 0.  1.
</event>
<event>
 4    1  0.1772365E+004  0.2508330E+02  0.7546771E-02  0.1467874E+00
         21   -1    0    0  503  502  0.00000000000E+00  0.00000000000E+00  0.14868220248E+03  0.14868220248E+03  0.00000000000E+00 0.  1.
         21   -1    0    0  501  503 -0.00000000000E+00 -0.00000000000E+00 -0.47205916747E+01  0.47205916747E+01  0.00000000000E+00 0. -1.
          2    1    1    2  501    0  0.24607700577E+02 -0.48613789451E+01  0.47295930916E+02  0.53535754540E+02  0.00000000000E+00 0.  1.
         -2    1    1    2    0  502 -0.24607700577E+02  0.48613789451E+01  0.96665679892E+02  0.99867039617E+02  0.00000000000E+00 0. -1.
</event>
<event>
 4    1  0.1772365E+004  0.3023512E+02  0.7546771E-02  0.1417564E+00
         21   -1    0    0  501  502  0.00000000000E+00  0.00000000000E+00  0.30172727005E+01  0.30172727005E+01  0.00000000000E+00 0.  1.
         21   -1    0    0  502  503 -0.00000000000E+00 -0.00000000000E+00 -0.36891691274E+03  0.36891691274E+03  0.00000000000E+00 0. -1.
          2    1    1    2  501    0 -0.22845246438E+02 -0.19805478333E+02 -0.10432708316E+03  0.10861999143E+03  0.00000000000E+00 0.  1.
         -2    1    1    2    0  503  0.22845246438E+02  0.19805478333E+02 -0.26157255688E+03  0.26331419401E+03  0.00000000000E+00 0. -1.
</event>
<event>
 4    1  0.1772365E+004  0.2763616E+02  0.7546771E-02  0.1441320E+00
         21   -1    0    0  501  502  0.00000000000E+00  0.00000000000E+00  0.45639911684E+02  0.45639911684E+02  0.00000000000E+00 0. -1.
         21   -1    0    0  502  503 -0.00000000000E+00 -0.00000000000E+00 -0.18275137741E+02  0.18275137741E+02  0.00000000000E+00 0.  1.
          2    1    1    2  501    0  0.83862596309E+01 -0.26333023237E+02  0.22961453894E+02  0.35930291237E+02  0.00000000000E+00 0. -1.
         -2    1    1    2    0  503 -0.83862596309E+01  0.26333023237E+02  0.44033200491E+01  0.27984758189E+02  0.00000000000E+00 0.  1.
</event>
<event>
 4    1  0.1772365E+004  0.3471647E+02  0.7546771E-02  0.1382568E+00
         21   -1    0    0  503  502  0.00000000000E+00  0.00000000000E+00  0.24248045943E+03  0.24248045943E+03  0.00000000000E+00 0.  1.
         21   -1    0    0  501  503 -0.00000000000E+00 -0.00000000000E+00 -0.23374570883E+02  0.23374570883E+02  0.00000000000E+00 0. -1.
          2    1    1    2  501    0 -0.32830431984E+01  0.34560884996E+02 -0.83978281458E+01  0.35717735957E+02  0.00000000000E+00 0. -1.
         -2    1    1    2    0  502  0.32830431984E+01 -0.34560884996E+02  0.22750371669E+03  0.23013729435E+03  0.00000000000E+00 0.  1.
</event>
<event>
 4    1  0.1772365E+004  0.2911804E+02  0.7546771E-02  0.1427419E+00
         21   -1    0    0  503  502  0.00000000000E+00  0.00000000000E+00  0.12601798624E+02  0.12601798624E+02  0.00000000000E+00 0.  1.
         21   -1    0    0  501  503 -0.00000000000E+00 -0.00000000000E+00 -0.71765158794E+02  0.71765158794E+02  0.00000000000E+00 0. -1.
          2    1    1    2  501    0 -0.47496531936E+01  0.28728056589E+02 -0.19037069073E+02  0.34788941342E+02  0.00000000000E+00 0.  1.
         -2    1    1    2    0  502  0.47496531936E+01 -0.28728056589E+02 -0.40126291097E+02  0.49578016076E+02  0.00000000000E+00 0. -1.
</event>
<event>
 4    1  0.1772365E+004  0.2708456E+02  0.7546771E-02  0.1446761E+00
         21   -1    0    0  503  502  0.00000000000E+00  0.00000000000E+00  0.14092455802E+04  0.14092455802E+04  0.00000000000E+00 0. -1.
         21   -1    0    0  501  503 -0.00000000000E+00 -0.00000000000E+00 -0.53166060231E+00  0.53166060231E+00  0.00000000000E+00 0.  1.
          2    1    1    2  501    0  0.24006826142E+02 -0.12539761892E+02  0.60242668925E+03  0.60303523052E+03  0.00000000000E+00 0.  1.
         -2    1    1    2    0  502 -0.24006826142E+02  0.12539761892E+02  0.80628723036E+03  0.80674201029E+03  0.00000000000E+00 0. -1.
</event>
<event>
 4    1  0.1772365E+004  0.2202343E+02  0.7546771E-02  0.1505139E+00
         21   -1    0    0  503  502  0.00000000000E+00  0.00000000000E+00  0.78092759265E+03  0.78092759265E+03  0.00000000000E+00 0.  1.
         21   -1    0    0  501  503 -0.00000000000E+00 -0.00000000000E+00 -0.62135303652E+00  0.62135303652E+00  0.00000000000E+00 0. -1.
          2    1    1    2  501    0  0.17538476038E+02 -0.13320402039E+02  0.38221009700E+03  0.38284407989E+03  0.00000000000E+00 0.  1.
         -2    1    1    2    0  502 -0.17538476038E+02  0.13320402039E+02  0.39809614261E+03  0.39870486580E+03  0.00000000000E+00 0. -1.
</event>
<event>
 4    1  0.1772365E+004  0.2049384E+02  0.7546771E-02  0.1526616E+00
         21   -1    0    0  501  502  0.00000000000E+00  0.00000000000E+00  0.74311162241E+02  0.74311162241E+02  0.00000000000E+00 0.  1.
         21   -1    0    0  502  503 -0.00000000000E+00 -0.00000000000E+00 -0.58150033509E+01  0.58150033509E+01  0.00000000000E+00 0. -1.
          2    1    1    2  501    0  0.81610458706E+01  0.18798802024E+02  0.40958195535E+02  0.45799251181E+02  0.00000000000E+00 0.  1.
         -2    1    1    2    0  503 -0.81610458706E+01 -0.18798802024E+02  0.27537963355E+02  0.34326914411E+02  0.00000000000E+00 0. -1.
</event>
<event>
 4    1  0.1772365E+004  0.2242349E+02  0.7546771E-02  0.1499867E+00
         21   -1    0    0  503  502  0.00000000000E+00  0.00000000000E+00  0.39118845990E+01  0.39118845990E+01  0.00000000000E+00 0.  1.
         21   -1    0    0  501  503 -0.00000000000E+00 -0.00000000000E+00 -0.14202598590E+03  0.14202598590E+03  0.00000000000E+00 0. -1.
          2    1    1    2  501    0 -0.21339050884E+02  0.68889782577E+01 -0.46567542890E+02  0.51685096159E+02  0.00000000000E+00 0.  1.
         -2    1    1    2    0  502  0.21339050884E+02 -0.68889782577E+01 -0.91546558413E+02  0.94252774343E+02  0.00000000000E+00 0. -1.
</event>
<event>
 4    1  0.1772365E+004  0.2004019E+02  0.7546771E-02  0.1533422E+00
         21   -1    0    0  503  502  0.00000000000E+00  0.00000000000E+00  0.13431538997E+02  0.13431538997E+02  0.00000000000E+00 0.  1.
         21   -1    0    0  501  503 -0.00000000000E+00 -0.00000000000E+00 -0.30022232117E+02  0.30022232117E+02  0.00000000000E+00 0. -1.
          2    1    1    2  501    0 -0.18283965224E+02 -0.82040015720E+01 -0.96791432086E+01  0.22255220497E+02  0.00000000000E+00 0. -1.
         -2    1    1    2    0  502  0.18283965224E+02  0.82040015720E+01 -0.69115499117E+01  0.21198550617E+02  0.00000000000E+00 0.  1.
</event>
<event>
 4    1  0.1772365E+004  0.2064732E+02  0.7546771E-02  0.1524360E+00
         21   -1    0    0  501  502  0.00000000000E+00  0.00000000000E+00  0.30713536514E+03  0.30713536514E+03  0.00000000000E+00 0.  1.
         21   -1    0    0  502  503 -0.00000000000E+00 -0.00000000000E+00 -0.17099776744E+01  0.17099776744E+01  0.00000000000E+00 0. -1.
          2    1    1    2  501    0 -0.50197644537E+01  0.20027821187E+02  0.21971837987E+03  0.22068637953E+03  0.00000000000E+00 0.  1.
         -2    1    1    2    0  503  0.50197644537E+01 -0.20027821187E+02  0.85707007596E+02  0.88158963287E+02  0.00000000000E+00 0. -1.
</event>
<event>
 4    1  0.1772365E+004  0.2064092E+02  0.7546771E-02  0.1524454E+00
         21   -1    0    0  501  502  0.00000000000E+00  0.00000000000E+00  0.94753694420E+02  0.94753694420E+02  0.00000000000E+00 0.  1.
         21   -1    0    0  502  503 -0.00000000000E+00 -0.00000000000E+00 -0.94493459693E+01  0.94493459693E+01  0.00000000000E+00 0. -1.
          2    1    1    2  501    0  0.17727682032E+02 -0.10572452263E+02  0.80373133490E+02  0.82981251160E+02  0.00000000000E+00 0.  1.
         -2    1    1    2    0  503 -0.17727682032E+02  0.10572452263E+02  0.49312149605E+01  0.21221789229E+02  0.00000000000E+00 0. -1.
</event>
<event>
 4    1  0.1772365E+004  0.2396169E+02  0.7546771E-02  0.1480763E+00
         21   -1    0    0  503  502  0.00000000000E+00  0.00000000000E+00  0.39616341982E+03  0.39616341982E+03  0.00000000000E+00 0. -1.
         21   -1    0    0  501  503 -0.00000000000E+00 -0.00000000000E+00 -0.60228889493E+01  0.60228889493E+01  0.00000000000E+00 0.  1.
          2    1    1    2  501    0  0.16324167465E+02 -0.17540930907E+02  0.19834375927E+02  0.31105709587E+02  0.00000000000E+00 0.  1.
         -2    1    1    2    0  502 -0.16324167465E+02  0.17540930907E+02  0.37030615495E+03  0.37108059919E+03  0.00000000000E+00 0. -1.
</event>
<event>
 4    1  0.1772365E+004  0.5089832E+02  0.7546771E-02  0.1294324E+00
         21   -1    0    0  503  502  0.00000000000E+00  0.00000000000E+00  0.13329868015E+03  0.13329868015E+03  0.00000000000E+00 0.  1.
         21   -1    0    0  501  503 -0.00000000000E+00 -0.00000000000E+00 -0.37719824360E+02  0.37719824360E+02  0.00000000000E+00 0. -1.
          2    1    1    2  501    0 -0.19229589029E+02  0.47126021547E+02 -0.11746007168E+02  0.52236076475E+02  0.00000000000E+00 0. -1.
         -2    1    1    2    0  502  0.19229589029E+02 -0.47126021547E+02  0.10732486296E+03  0.11878242804E+03  0.00000000000E+00 0.  1.
</event>
<event>
 4    1  0.1772365E+004  0.2420310E+02  0.7546771E-02  0.1477919E+00
         21   -1    0    0  501  502  0.00000000000E+00  0.00000000000E+00  0.86114738275E+02  0.86114738275E+02  0.00000000000E+00 0. -1.
         21   -1    0    0  502  503 -0.00000000000E+00 -0.00000000000E+00 -0.74836437638E+01  0.74836437638E+01  0.00000000000E+00 0.  1.
          2    1    1    2  501    0  0.45668368867E+01 -0.23768337777E+02  0.53435134994E+02  0.58660919970E+02  0.00000000000E+00 0.  1.
         -2    1    1    2    0  503 -0.45668368867E+01  0.23768337777E+02  0.25195959517E+02  0.34937462069E+02  0.00000000000E+00 0. -1.
</event>
<event>
 4    1  0.1772365E+004  0.2442861E+02  0.7546771E-02  0.1475298E+00
         21   -1    0    0  503  502  0.00000000000E+00  0.00000000000E+00  0.37300562162E+03  0.37300562162E+03  0.00000000000E+00 0. -1.
         21   -1    0    0  501  503 -0.00000000000E+00 -0.00000000000E+00 -0.15998633578E+01  0.15998633578E+01  0.00000000000E+00 0.  1.
          2    1    1    2  501    0  0.28119956912E+01 -0.24266222350E+02  0.18596394907E+03  0.18756158248E+03  0.00000000000E+00 0. -1.
         -2    1    1    2    0  502 -0.28119956912E+01  0.24266222350E+02  0.18544180919E+03  0.18704390250E+03  0.00000000000E+00 0.  1.
</event>
<event>
 4    1  0.1772365E+004  0.3886809E+02  0.7546771E-02  0.1355249E+00
         21   -1    0    0  501  502  0.00000000000E+00  0.00000000000E+00  0.26095459368E+01  0.26095459368E+01  0.00000000000E+00 0.  1.
         21   -1    0    0  502  503 -0.00000000000E+00 -0.00000000000E+00 -0.70827293937E+03  0.70827293937E+03  0.00000000000E+00 0. -1.
          2    1    1    2  501    0  0.38083967827E+02  0.77678650567E+01 -0.50472870223E+03  0.50622306465E+03  0.00000000000E+00 0. -1.
         -2    1    1    2    0  503 -0.38083967827E+02 -0.77678650567E+01 -0.20093469120E+03  0.20465942065E+03  0.00000000000E+00 0.  1.
</event>
<event>
 4    1  0.1772365E+004  0.2721738E+02  0.7546771E-02  0.1445437E+00
         21   -1    0    0  501  502  0.00000000000E+00  0.00000000000E+00  0.27987518353E+02  0.27987518353E+02  0.00000000000E+00 0.  1.
         21   -1    0    0  502  503 -0.00000000000E+00 -0.00000000000E+00 -0.43265734379E+02  0.43265734379E+02  0.00000000000E+00 0. -1.
          2    1    1    2  501    0  0.27214659442E+02 -0.38473699381E+00  0.14559331022E+02  0.30866807915E+02  0.00000000000E+00 0.  1.
         -2    1    1    2    0  503 -0.27214659442E+02  0.38473699381E+00 -0.29837547048E+02  0.40386444817E+02  0.00000000000E+00 0. -1.
</event>
<event>
 4    1  0.1772365E+004  0.2571386E+02  0.7546771E-02  0.1460974E+00
         21   -1    0    0  501  502  0.00000000000E+00  0.00000000000E+00  0.21449441701E+02  0.21449441701E+02  0.00000000000E+00 0. -1.
         21   -1    0    0  502  503 -0.00000000000E+00 -0.00000000000E+00 -0.87722443845E+02  0.87722443845E+02  0.00000000000E+00 0.  1.
          2    1    1    2  501    0 -0.24393807544E+02 -0.81329571602E+01  0.10824502478E+02  0.27899331399E+02  0.00000000000E+00 0. -1.
         -2    1    1    2    0  503  0.24393807544E+02  0.81329571602E+01 -0.77097504622E+02  0.81272554147E+02  0.00000000000E+00 0.  1.
</event>
<event>
 4    1  0.1772365E+004  0.2238580E+02  0.7546771E-02  0.1500358E+00
         21   -1    0    0  503  502  0.00000000000E+00  0.00000000000E+00  0.12522620926E+01  0.12522620926E+01  0.00000000000E+00 0.  1.
         21   -1    0    0  501  503 -0.00000000000E+00 -0.00000000000E+00 -0.11089622908E+04  0.11089622908E+04  0.00000000000E+00 0. -1.
          2    1    1    2  501    0 -0.21451785770E+02  0.63988151229E+01 -0.99764398060E+03  0.99789510269E+03  0.00000000000E+00 0. -1.
         -2    1    1    2    0  502  0.21451785770E+02 -0.63988151229E+01 -0.11006604814E+03  0.11231945023E+03  0.00000000000E+00 0.  1.
</event>
<event>
 4    1  0.1772365E+004  0.2014469E+02  0.7546771E-02  0.1531835E+00
         21   -1    0    0  503  502  0.00000000000E+00  0.00000000000E+00  0.41972985086E+03  0.41972985086E+03  0.00000000000E+00 0. -1.
         21   -1    0    0  501  503 -0.00000000000E+00 -0.00000000000E+00 -0.28203214858E+01  0.28203214858E+01  0.00000000000E+00 0.  1.
          2    1    1    2  501    0  0.16193522363E+02  0.11982423137E+02  0.37179780159E+02  0.42286459812E+02  0.00000000000E+00 0.  1.
         -2    1    1    2    0  502 -0.16193522363E+02 -0.11982423137E+02  0.37972974922E+03  0.38026371253E+03  0.00000000000E+00 0. -1.
</event>
<event>
 4    1  0.1772365E+004  0.2116898E+02  0.7546771E-02  0.1516866E+00
         21   -1    0    0  501  502  0.00000000000E+00  0.00000000000E+00  0.73386593756E+01  0.73386593756E+01  0.00000000000E+00 0. -1.
         21   -1    0    0  502  503 -0.00000000000E+00 -0.00000000000E+00 -0.87344735341E+02  0.87344735341E+02  0.00000000000E+00 0.  1.
          2    1    1    2  501    0  0.18681161779E+01  0.21086387252E+02 -0.14034540873E+02  0.25398699237E+02  0.00000000000E+00 0. -1.
         -2    1    1    2    0  503 -0.18681161779E+01 -0.21086387252E+02 -0.65971535092E+02  0.69284695480E+02  0.00000000000E+00 0.  1.
</event>
<event>
 4    1  0.1772365E+004  0.2500301E+02  0.7546771E-02  0.1468770E+00
         21   -1    0    0  501  502  0.00000000000E+00  0.00000000000E+00  0.10615236486E+01  0.10615236486E+01  0.00000000000E+00 0.  1.
         21   -1    0    0  502  503 -0.00000000000E+00 -0.00000000000E+00 -0.77371600210E+03  0.77371600210E+03  0.00000000000E+00 0. -1.
          2    1    1    2  501    0 -0.21197272722E+02  0.13259952759E+02 -0.19700375193E+03  0.19858406027E+03  0.00000000000E+00 0.  1.
         -2    1    1    2    0  503  0.21197272722E+02 -0.13259952759E+02 -0.57565072653E+03  0.57619346549E+03  0.00000000000E+00 0. -1.
</event>
<event>
 4    1  0.1772365E+004  0.4498336E+02  0.7546771E-02  0.1321523E+00
         21   -1    0    0  503  502  0.00000000000E+00  0.00000000000E+00  0.44945925476E+02  0.44945925476E+02  0.00000000000E+00 0. -1.
         21   -1    0    0  501  503 -0.00000000000E+00 -0.00000000000E+00 -0.45756653927E+02  0.45756653927E+02  0.00000000000E+00 0.  1.
          2    1    1    2  501    0 -0.44908915504E+02 -0.25868138909E+01 -0.61564947310E+01  0.45402695132E+02  0.00000000000E+00 0. -1.
         -2    1    1    2    0  502  0.44908915504E+02  0.25868138909E+01  0.53457662796E+01  0.45299884271E+02  0.00000000000E+00 0.  1.
</event>
<event>
 4    1  0.1772365E+004  0.2120980E+02  0.7546771E-02  0.1516290E+00
         21   -1    0    0  501  502  0.00000000000E+00  0.00000000000E+00  0.14394825088E+02  0.14394825088E+02  0.00000000000E+00 0.  1.
         21   -1    0    0  502  503 -0.00000000000E+00 -0.00000000000E+00 -0.80656524430E+02  0.80656524430E+02  0.00000000000E+00 0. -1.
          2    1    1    2  501    0 -0.99186864963E+01 -0.18747677944E+02  0.40650744060E+01  0.21595846824E+02  0.00000000000E+00 0.  1.
         -2    1    1    2    0  503  0.99186864963E+01  0.18747677944E+02 -0.70326773749E+02  0.73455502694E+02  0.00000000000E+00 0. -1.
</event>
<event>
 4    1  0.1772365E+004  0.2078196E+02  0.7546771E-02  0.1522401E+00
         21   -1    0    0  501  502  0.00000000000E+00  0.00000000000E+00  0.57199199695E+01  0.57199199695E+01  0.00000000000E+00 0.  1.
         21   -1    0    0  502  503 -0.00000000000E+00 -0.00000000000E+00 -0.63959947605E+03  0.63959947605E+03  0.00000000000E+00 0. -1.
          2    1    1    2  501    0  0.13082472355E+02 -0.16147410991E+02 -0.13923403134E+02  0.25015017878E+02  0.00000000000E+00 0.  1.
         -2    1    1    2    0  503 -0.13082472355E+02  0.16147410991E+02 -0.61995615295E+03  0.62030437814E+03  0.00000000000E+00 0. -1.
</event>
<event>
 4    1  0.1772365E+004  0.2747171E+02  0.7546771E-02  0.1442926E+00
         21   -1    0    0  501  502  0.00000000000E+00  0.00000000000E+00  0.11473246881E+02  0.11473246881E+02  0.00000000000E+00 0.  1.
         21   -1    0    0  502  503 -0.00000000000E+00 -0.00000000000E+00 -0.15373116681E+03  0.15373116681E+03  0.00000000000E+00 0. -1.
          2    1    1    2  501    0  0.23700031939E+02 -0.13892554216E+02 -0.86498478804E+01  0.28801292417E+02  0.00000000000E+00 0.  1.
         -2    1    1    2    0  503 -0.23700031939E+02  0.13892554216E+02 -0.13360807205E+03  0.13640312127E+03  0.00000000000E+00 0. -1.
</event>
<event>
 4    1  0.1772365E+004  0.2043689E+02  0.7546771E-02  0.1527458E+00
         21   -1    0    0  501  502  0.00000000000E+00  0.00000000000E+00  0.85937503414E+02  0.85937503414E+02  0.00000000000E+00 0. -1.
         21   -1    0    0  502  503 -0.00000000000E+00 -0.00000000000E+00 -0.50113897499E+01  0.50113897499E+01  0.00000000000E+00 0.  1.
          2    1    1    2  501    0  0.68516049109E+01  0.19254146440E+02  0.32562398593E+02  0.38444459252E+02  0.00000000000E+00 0.  1.
         -2    1    1    2    0  503 -0.68516049109E+01 -0.19254146440E+02  0.48363715071E+02  0.52504433912E+02  0.00000000000E+00 0. -1.
</event>
<event>
 4    1  0.1772365E+004  0.2223227E+02  0.7546771E-02  0.1502370E+00
         21   -1    0    0  501  502  0.00000000000E+00  0.00000000000E+00  0.33090834699E+01  0.33090834699E+01  0.00000000000E+00 0.  1.
         21   -1    0    0  502  503 -0.00000000000E+00 -0.00000000000E+00 -0.16592052709E+03  0.16592052709E+03  0.00000000000E+00 0. -1.
          2    1    1    2  501    0  0.22062862295E+02 -0.27393223887E+01 -0.54580695246E+02  0.58934930842E+02  0.00000000000E+00 0.  1.
         -2    1    1    2    0  503 -0.22062862295E+02  0.27393223887E+01 -0.10803074837E+03  0.11029467972E+03  0.00000000000E+00 0. -1.
</event>
<event>
 4    1  0.1772365E+004  0.4121630E+02  0.7546771E-02  0.1341502E+00
         21   -1    0    0  501  502  0.00000000000E+00  0.00000000000E+00  0.93525294811E+02  0.93525294811E+02  0.00000000000E+00 0. -1.
         21   -1    0    0  502  503 -0.00000000000E+00 -0.00000000000E+00 -0.18408739620E+02  0.18408739620E+02  0.00000000000E+00 0.  1.
          2    1    1    2  501    0 -0.39874459980E+02 -0.10431262050E+02  0.31103757203E+02  0.51635525550E+02  0.00000000000E+00 0.  1.
         -2    1    1    2    0  503  0.39874459980E+02  0.10431262050E+02  0.44012797988E+02  0.60298508882E+02  0.00000000000E+00 0. -1.
</event>
<event>
 4    1  0.1772365E+004  0.2623833E+02  0.7546771E-02  0.1455413E+00
         21   -1    0    0  501  502  0.00000000000E+00  0.00000000000E+00  0.15431226202E+02  0.15431226202E+02  0.00000000000E+00 0. -1.
         21   -1    0    0  502  503 -0.00000000000E+00 -0.00000000000E+00 -0.45201432734E+02  0.45201432734E+02  0.00000000000E+00 0.  1.
          2    1    1    2  501    0  0.12895640775E+02  0.22850652466E+02 -0.11429274632E+02  0.28619542060E+02  0.00000000000E+00 0. -1.
         -2    1    1    2    0  503 -0.12895640775E+02 -0.22850652466E+02 -0.18340931900E+02  0.32013116876E+02  0.00000000000E+00 0.  1.
</event>
<event>
 4    1  0.1772365E+004  0.3785543E+02  0.7546771E-02  0.1361533E+00
         21   -1    0    0  501  502  0.00000000000E+00  0.00000000000E+00  0.15145788033E+02  0.15145788033E+02  0.00000000000E+00 0.  1.
         21   -1    0    0  502  503 -0.00000000000E+00 -0.00000000000E+00 -0.94745891440E+02  0.94745891440E+02  0.00000000000E+00 0. -1.
          2    1    1    2  501    0 -0.40882127104E+00 -0.37853221201E+02 -0.41834693577E+02  0.56419633788E+02  0.00000000000E+00 0. -1.
         -2    1    1    2    0  503  0.40882127104E+00  0.37853221201E+02 -0.37765409831E+02  0.53472045685E+02  0.00000000000E+00 0.  1.
</event>
<event>
 4    1  0.1772365E+004  0.2267871E+02  0.7546771E-02  0.1496572E+00
         21   -1    0    0  503  502  0.00000000000E+00  0.00000000000E+00  0.35817720211E+03  0.35817720211E+03  0.00000000000E+00 0. -1.
         21   -1    0    0  501  503 -0.00000000000E+00 -0.00000000000E+00 -0.34220185758E+02  0.34220185758E+02  0.00000000000E+00 0.  1.
          2    1    1    2  501    0  0.52589724872E+01 -0.22060532061E+02 -0.30059624983E+02  0.37655078284E+02  0.00000000000E+00 0.  1.
         -2    1    1    2    0  502 -0.52589724872E+01  0.22060532061E+02  0.35401664134E+03  0.35474230958E+03  0.00000000000E+00 0. -1.
</event>
<event>
 4    1  0.1772365E+004  0.2380516E+02  0.7546771E-02  0.1482628E+00
         21   -1    0    0  501  502  0.00000000000E+00  0.00000000000E+00  0.40746022961E+01  0.40746022961E+01  0.00000000000E+00 0.  1.
         21   -1    0    0  502  503 -0.00000000000E+00 -0.00000000000E+00 -0.17361519256E+03  0.17361519256E+03  0.00000000000E+00 0. -1.
          2    1    1    2  501    0  0.35087584156E+01 -0.23545154419E+02 -0.45143859752E+02  0.51035808561E+02  0.00000000000E+00 0. -1.
         -2    1    1    2    0  503 -0.35087584156E+01  0.23545154419E+02 -0.12439673051E+03  0.12665398630E+03  0.00000000000E+00 0.  1.
</event>
<event>
 4    1  0.1772365E+004  0.2545273E+02  0.7546771E-02  0.1463802E+00
         21   -1    0    0  501  502  0.00000000000E+00  0.00000000000E+00  0.49461370941E+03  0.49461370941E+03  0.00000000000E+00 0.  1.
         21   -1    0    0  502  503 -0.00000000000E+00 -0.00000000000E+00 -0.21632961661E+01  0.21632961661E+01  0.00000000000E+00 0. -1.
          2    1    1    2  501    0 -0.12538839702E+02  0.22149921795E+02  0.40224370261E+03  0.40304818301E+03  0.00000000000E+00 0.  1.
         -2    1    1    2    0  503  0.12538839702E+02 -0.22149921795E+02  0.90206710628E+02  0.93728822562E+02  0.00000000000E+00 0. -1.
</event>
<event>
 4    1  0.1772365E+004  0.3972853E+02  0.7546771E-02  0.1350084E+00
         21   -1    0    0  501  502  0.00000000000E+00  0.00000000000E+00  0.19052046016E+02  0.19052046016E+02  0.00000000000E+00 0. -1.
         21   -1    0    0  502  503 -0.00000000000E+00 -0.00000000000E+00 -0.11372314069E+03  0.11372314069E+03  0.00000000000E+00 0.  1.
          2    1    1    2  501    0  0.38508183465E+02 -0.97711638260E+01 -0.12742238622E+02  0.41721942445E+02  0.00000000000E+00 0. -1.
         -2    1    1    2    0  503 -0.38508183465E+02  0.97711638260E+01 -0.81928856054E+02  0.91053244262E+02  0.00000000000E+00 0.  1.
</event>
<event>
 4    1  0.1772365E+004  0.2109085E+02  0.7546771E-02  0.1517972E+00
         21   -1    0    0  503  502  0.00000000000E+00  0.00000000000E+00  0.12763985158E+02  0.12763985158E+02  0.00000000000E+00 0.  1.
         21   -1    0    0  501  503 -0.00000000000E+00 -0.00000000000E+00 -0.35963227502E+02  0.35963227502E+02  0.00000000000E+00 0. -1.
          2    1    1    2  501    0 -0.18779861501E+02 -0.95990007090E+01 -0.15886266023E+02  0.26404496980E+02  0.00000000000E+00 0. -1.
         -2    1    1    2    0  502  0.18779861501E+02  0.95990007090E+01 -0.73129763210E+01  0.22322715679E+02  0.00000000000E+00 0.  1.
</event>
<event>
 4    1  0.1772365E+004  0.3835019E+02  0.7546771E-02  0.1358435E+00
         21   -1    0    0  501  502  0.00000000000E+00  0.00000000000E+00  0.29628695131E+02  0.29628695131E+02  0.00000000000E+00 0.  1.
         21   -1    0    0  502  503 -0.00000000000E+00 -0.00000000000E+00 -0.24232332974E+03  0.24232332974E+03  0.00000000000E+00 0. -1.
          2    1    1    2  501    0  0.15492639313E+02  0.35081545439E+02  0.14904418657E+02  0.41144603519E+02  0.00000000000E+00 0.  1.
         -2    1    1    2    0  503 -0.15492639313E+02 -0.35081545439E+02 -0.22759905327E+03  0.23080742135E+03  0.00000000000E+00 0. -1.
</event>
<event>
 4    1  0.1772365E+004  0.2131452E+02  0.7546771E-02  0.1514821E+00
         21   -1    0    0  501  502  0.00000000000E+00  0.00000000000E+00  0.68911521026E+01  0.68911521026E+01  0.00000000000E+00 0.  1.
         21   -1    0    0  502  503 -0.00000000000E+00 -0.00000000000E+00 -0.17081645545E+03  0.17081645545E+03  0.00000000000E+00 0. -1.
          2    1    1    2  501    0  0.31636557274E+01 -0.21078424161E+02 -0.12335540080E+02  0.24626697541E+02  0.00000000000E+00 0.  1.
         -2    1    1    2    0  503 -0.31636557274E+01  0.21078424161E+02 -0.15158976327E+03  0.15308091001E+03  0.00000000000E+00 0. -1.
</event>
<event>
 4    1  0.1772365E+004  0.2140497E+02  0.7546771E-02  0.1513561E+00
         21   -1    0    0  503  502  0.00000000000E+00  0.00000000000E+00  0.22621722072E+01  0.22621722072E+01  0.00000000000E+00 0.  1.
         21   -1    0    0  501  503 -0.00000000000E+00 -0.00000000000E+00 -0.21809010856E+03  0.21809010856E+03  0.00000000000E+00 0. -1.
          2    1    1    2  501    0 -0.20718382146E+02  0.53778785342E+01 -0.13733663929E+03  0.13899469569E+03  0.00000000000E+00 0. -1.
         -2    1    1    2    0  502  0.20718382146E+02 -0.53778785342E+01 -0.78491297056E+02  0.81357585079E+02  0.00000000000E+00 0.  1.
</event>
<event>
 4    1  0.1772365E+004  0.2293048E+02  0.7546771E-02  0.1493373E+00
         21   -1    0    0  503  502  0.00000000000E+00  0.00000000000E+00  0.16955233841E+03  0.16955233841E+03  0.00000000000E+00 0. -1.
         21   -1    0    0  501  503 -0.00000000000E+00 -0.00000000000E+00 -0.59042005376E+01  0.59042005376E+01  0.00000000000E+00 0.  1.
          2    1    1    2  501    0  0.10173736593E+02 -0.20549991928E+02  0.21377097694E+02  0.31349440032E+02  0.00000000000E+00 0.  1.
         -2    1    1    2    0  502 -0.10173736593E+02  0.20549991928E+02  0.14227104018E+03  0.14410709892E+03  0.00000000000E+00 0. -1.
</event>
<event>
 4    1  0.1772365E+004  0.2485046E+02  0.7546771E-02  0.1470483E+00
         21   -1    0    0  501  502  0.00000000000E+00  0.00000000000E+00  0.26859591505E+02  0.26859591505E+02  0.00000000000E+00 0.  1.
         21   -1    0    0  502  503 -0.00000000000E+00 -0.00000000000E+00 -0.10794092293E+03  0.10794092293E+03  0.00000000000E+00 0. -1.
          2    1    1    2  501    0 -0.53947239134E+01 -0.24257833150E+02  0.19252066756E+02  0.31435451160E+02  0.00000000000E+00 0.  1.
         -2    1    1    2    0  503  0.53947239134E+01  0.24257833150E+02 -0.10033339818E+03  0.10336506327E+03  0.00000000000E+00 0. -1.
</event>
<event>
 4    1  0.1772365E+004  0.2722097E+02  0.7546771E-02  0.1445401E+00
         21   -1    0    0  503  502  0.00000000000E+00  0.00000000000E+00  0.40344504213E+01  0.40344504213E+01  0.00000000000E+00 0. -1.
         21   -1    0    0  501  503 -0.00000000000E+00 -0.00000000000E+00 -0.20226407732E+03  0.20226407732E+03  0.00000000000E+00 0.  1.
          2    1    1    2  501    0  0.26974440372E+02  0.36552547930E+01 -0.13039503798E+03  0.13320603309E+03  0.00000000000E+00 0.  1.
         -2    1    1    2    0  502 -0.26974440372E+02 -0.36552547930E+01 -0.67834588920E+02  0.73092494656E+02  0.00000000000E+00 0. -1.
</event>
<event>
 4    1  0.1772365E+004  0.3097045E+02  0.7546771E-02  0.1411346E+00
         21   -1    0    0  503  502  0.00000000000E+00  0.00000000000E+00  0.24791706994E+02  0.24791706994E+02  0.00000000000E+00 0.  1.
         21   -1    0    0  501  503 -0.00000000000E+00 -0.00000000000E+00 -0.23757624205E+03  0.23757624205E+03  0.00000000000E+00 0. -1.
          2    1    1    2  501    0 -0.16888890230E+00  0.30969989752E+02 -0.22642028585E+03  0.22852858604E+03  0.00000000000E+00 0. -1.
         -2    1    1    2    0  502  0.16888890230E+00 -0.30969989752E+02  0.13635750802E+02  0.33839363005E+02  0.00000000000E+00 0.  1.
</event>
<event>
 4    1  0.1772365E+004  0.2148396E+02  0.7546771E-02  0.1512466E+00
         21   -1    0    0  503  502  0.00000000000E+00  0.00000000000E+00  0.57163253293E+02  0.57163253293E+02  0.00000000000E+00 0.  1.
         21   -1    0    0  501  503 -0.00000000000E+00 -0.00000000000E+00 -0.48939655832E+02  0.48939655832E+02  0.00000000000E+00 0. -1.
          2    1    1    2  501    0  0.56117250276E+01  0.20738104251E+02 -0.44366103269E+02  0.49294132967E+02  0.00000000000E+00 0. -1.
         -2    1    1    2    0  502 -0.56117250276E+01 -0.20738104251E+02  0.52589700730E+02  0.56808776158E+02  0.00000000000E+00 0.  1.
</event>
<event>
 4    1  0.1772365E+004  0.2175350E+02  0.7546771E-02  0.1508773E+00
         21   -1    0    0  501  502  0.00000000000E+00  0.00000000000E+00  0.53443150054E+03  0.53443150054E+03  0.00000000000E+00 0. -1.
         21   -1    0    0  502  503 -0.00000000000E+00 -0.00000000000E+00 -0.98190653248E+00  0.98190653248E+00  0.00000000000E+00 0.  1.
          2    1    1    2  501    0 -0.12589238873E+02 -0.17740508162E+02  0.35062842806E+03  0.35130258913E+03  0.00000000000E+00 0. -1.
         -2    1    1    2    0  503  0.12589238873E+02  0.17740508162E+02  0.18282116595E+03  0.18411081795E+03  0.00000000000E+00 0.  1.
</event>
<event>
 4    1  0.1772365E+004  0.2420372E+02  0.7546771E-02  0.1477912E+00
         21   -1    0    0  501  502  0.00000000000E+00  0.00000000000E+00  0.59201269115E+01  0.59201269115E+01  0.00000000000E+00 0. -1.
         21   -1    0    0  502  503 -0.00000000000E+00 -0.00000000000E+00 -0.27555896008E+03  0.27555896008E+03  0.00000000000E+00 0.  1.
          2    1    1    2  501    0 -0.24034680828E+02 -0.28555381201E+01 -0.22148877701E+02  0.32808425196E+02  0.00000000000E+00 0. -1.
         -2    1    1    2    0  503  0.24034680828E+02  0.28555381201E+01 -0.24748995546E+03  0.24867066179E+03  0.00000000000E+00 0.  1.
</event>
<event>
 4    1  0.1772365E+004  0.2171251E+02  0.7546771E-02  0.1509330E+00
         21   -1    0    0  501  502  0.00000000000E+00  0.00000000000E+00  0.35820891030E+03  0.35820891030E+03  0.00000000000E+00 0. -1.
         21   -1    0    0  502  503 -0.00000000000E+00 -0.00000000000E+00 -0.16904548507E+01  0.16904548507E+01  0.00000000000E+00 0.  1.
          2    1    1    2  501    0 -0.21104215806E+02  0.51034526556E+01  0.26294297866E+03  0.26383791081E+03  0.00000000000E+00 0.  1.
         -2    1    1    2    0  503  0.21104215806E+02 -0.51034526556E+01  0.93575476791E+02  0.96061454343E+02  0.00000000000E+00 0. -1.
</event>
<event>
 4    1  0.1772365E+004  0.2586035E+02  0.7546771E-02  0.1459405E+00
         21   -1    0    0  501  502  0.00000000000E+00  0.00000000000E+00  0.66898219065E+02  0.66898219065E+02  0.00000000000E+00 0.  1.
         21   -1    0    0  502  503 -0.00000000000E+00 -0.00000000000E+00 -0.46488976276E+02  0.46488976276E+02  0.00000000000E+00 0. -1.
          2    1    1    2  501    0  0.25372946367E+02 -0.49971335944E+01  0.60434234147E+02  0.65734727569E+02  0.00000000000E+00 0.  1.
         -2    1    1    2    0  503 -0.25372946367E+02  0.49971335944E+01 -0.40024991358E+02  0.47652467772E+02  0.00000000000E+00 0. -1.
</event>
<event>
 4    1  0.1772365E+004  0.3076873E+02  0.7546771E-02  0.1413031E+00
         21   -1    0    0  503  502  0.00000000000E+00  0.00000000000E+00  0.20482618343E+03  0.20482618343E+03  0.00000000000E+00 0. -1.
         21   -1    0    0  501  503 -0.00000000000E+00 -0.00000000000E+00 -0.46329929776E+01  0.46329929776E+01  0.00000000000E+00 0.  1.
          2    1    1    2  501    0 -0.20247294091E+02  0.23168122627E+02  0.95004417058E+02  0.99862676133E+02  0.00000000000E+00 0. -1.
         -2    1    1    2    0  502  0.20247294091E+02 -0.23168122627E+02  0.10518877339E+03  0.10959650027E+03  0.00000000000E+00 0.  1.
</event>
<event>
 4    1  0.1772365E+004  0.2548807E+02  0.7546771E-02  0.1463417E+00
         21   -1    0    0  501  502  0.00000000000E+00  0.00000000000E+00  0.10456912623E+03  0.10456912623E+03  0.00000000000E+00 0.  1.
         21   -1    0    0  502  503 -0.00000000000E+00 -0.00000000000E+00 -0.67789722131E+02  0.67789722131E+02  0.00000000000E+00 0. -1.
          2    1    1    2  501    0 -0.18843278913E+02  0.17163119485E+02  0.10052531468E+03  0.10370622316E+03  0.00000000000E+00 0.  1.
         -2    1    1    2    0  503  0.18843278913E+02 -0.17163119485E+02 -0.63745910583E+02  0.68652625199E+02  0.00000000000E+00 0. -1.
</event>
<event>
 4    1  0.1772365E+004  0.2801402E+02  0.7546771E-02  0.1437680E+00
         21   -1    0    0  501  502  0.00000000000E+00  0.00000000000E+00  0.29130516046E+02  0.29130516046E+02  0.00000000000E+00 0.  1.
         21   -1    0    0  502  503 -0.00000000000E+00 -0.00000000000E+00 -0.34827642990E+02  0.34827642990E+02  0.00000000000E+00 0. -1.
          2    1    1    2  501    0  0.36076762492E+01 -0.27780747776E+02  0.12369832178E+02  0.30623488094E+02  0.00000000000E+00 0. -1.
         -2    1    1    2    0  503 -0.36076762492E+01  0.27780747776E+02 -0.18066959121E+02  0.33334670942E+02  0.00000000000E+00 0.  1.
</event>
<event>
 4    1  0.1772365E+004  0.2064800E+02  0.7546771E-02  0.1524350E+00
         21   -1    0    0  501  502  0.00000000000E+00  0.00000000000E+00  0.40002338041E+03  0.40002338041E+03  0.00000000000E+00 0. -1.
         21   -1    0    0  502  503 -0.00000000000E+00 -0.00000000000E+00 -0.33177820705E+01  0.33177820705E+01  0.00000000000E+00 0.  1.
          2    1    1    2  501    0  0.16366721565E+02  0.12588503305E+02  0.36450353704E+03  0.36508789148E+03  0.00000000000E+00 0. -1.
         -2    1    1    2    0  503 -0.16366721565E+02 -0.12588503305E+02  0.32202061294E+02  0.38253270996E+02  0.00000000000E+00 0.  1.
</event>
<event>
 4    1  0.1772365E+004  0.2089042E+02  0.7546771E-02  0.1520835E+00
         21   -1    0    0  501  502  0.00000000000E+00  0.00000000000E+00  0.89542369392E+01  0.89542369392E+01  0.00000000000E+00 0. -1.
         21   -1    0    0  502  503 -0.00000000000E+00 -0.00000000000E+00 -0.64902868943E+02  0.64902868943E+02  0.00000000000E+00 0.  1.
          2    1    1    2  501    0  0.18135214605E+02  0.10369355796E+02 -0.95445630177E+01  0.22967547357E+02  0.00000000000E+00 0. -1.
         -2    1    1    2    0  503 -0.18135214605E+02 -0.10369355796E+02 -0.46404068986E+02  0.50889558525E+02  0.00000000000E+00 0.  1.
</event>
<event>
 4    1  0.1772365E+004  0.2637954E+02  0.7546771E-02  0.1453942E+00
         21   -1    0    0  503  502  0.00000000000E+00  0.00000000000E+00  0.21474538461E+02  0.21474538461E+02  0.00000000000E+00 0. -1.
         21   -1    0    0  501  503 -0.00000000000E+00 -0.00000000000E+00 -0.45753133827E+02  0.45753133827E+02  0.00000000000E+00 0.  1.
          2    1    1    2  501    0 -0.26144835277E+02  0.35110836715E+01 -0.30295276737E+02  0.40170684744E+02  0.00000000000E+00 0.  1.
         -2    1    1    2    0  502  0.26144835277E+02 -0.35110836715E+01  0.60166813709E+01  0.27056987544E+02  0.00000000000E+00 0. -1.
</event>
<event>
 4    1  0.1772365E+004  0.2040403E+02  0.7546771E-02  0.1527946E+00
         21   -1    0    0  501  502  0.00000000000E+00  0.00000000000E+00  0.16304562380E+02  0.16304562380E+02  0.00000000000E+00 0. -1.
         21   -1    0    0  502  503 -0.00000000000E+00 -0.00000000000E+00 -0.50958116956E+02  0.50958116956E+02  0.00000000000E+00 0.  1.
          2    1    1    2  501    0  0.20307259153E+02  0.19849082926E+01  0.64284044270E+01  0.21392732848E+02  0.00000000000E+00 0. -1.
         -2    1    1    2    0  503 -0.20307259153E+02 -0.19849082926E+01 -0.41081959003E+02  0.45869946487E+02  0.00000000000E+00 0.  1.
</event>
<event>
 4    1  0.1772365E+004  0.2772161E+02  0.7546771E-02  0.1440491E+00
         21   -1    0    0  501  502  0.00000000000E+00  0.00000000000E+00  0.94305518421E+02  0.94305518421E+02  0.00000000000E+00 0.  1.
         21   -1    0    0  502  503 -0.00000000000E+00 -0.00000000000E+00 -0.30261455479E+02  0.30261455479E+02  0.00000000000E+00 0. -1.
          2    1    1    2  501    0 -0.14815149382E+02  0.23430730813E+02 -0.21219105083E+02  0.34910431366E+02  0.00000000000E+00 0. -1.
         -2    1    1    2    0  503  0.14815149382E+02 -0.23430730813E+02  0.85263168025E+02  0.89656542534E+02  0.00000000000E+00 0.  1.
</event>
<event>
 4    1  0.1772365E+004  0.2014066E+02  0.7546771E-02  0.1531896E+00
         21   -1    0    0  501  502  0.00000000000E+00  0.00000000000E+00  0.58153943407E+02  0.58153943407E+02  0.00000000000E+00 0. -1.
         21   -1    0    0  502  503 -0.00000000000E+00 -0.00000000000E+00 -0.78738813021E+01  0.78738813021E+01  0.00000000000E+00 0.  1.
          2    1    1    2  501    0  0.12426375030E+02  0.15850280177E+02  0.36292231577E+02  0.41506291703E+02  0.00000000000E+00 0. -1.
         -2    1    1    2    0  503 -0.12426375030E+02 -0.15850280177E+02  0.13987830528E+02  0.24521533006E+02  0.00000000000E+00 0.  1.
</event>
<event>
 4    1  0.1772365E+004  0.2024040E+02  0.7546771E-02  0.1530392E+00
         21   -1    0    0  501  502  0.00000000000E+00  0.00000000000E+00  0.96002633211E+00  0.96002633211E+00  0.00000000000E+00 0.  1.
         21   -1    0    0  502  503 -0.00000000000E+00 -0.00000000000E+00 -0.49189797536E+03  0.49189797536E+03  0.00000000000E+00 0. -1.
          2    1    1    2  501    0 -0.14376573270E+02 -0.14247390045E+02 -0.33516323648E+03  0.33577383619E+03  0.00000000000E+00 0. -1.
         -2    1    1    2    0  503  0.14376573270E+02  0.14247390045E+02 -0.15577471255E+03  0.15708416550E+03  0.00000000000E+00 0.  1.
</event>
<event>
 4    1  0.1772365E+004  0.2311403E+02  0.7546771E-02  0.1491071E+00
         21   -1    0    0  501  502  0.00000000000E+00  0.00000000000E+00  0.71588608464E+01  0.71588608464E+01  0.00000000000E+00 0. -1.
         21   -1    0    0  502  503 -0.00000000000E+00 -0.00000000000E+00 -0.36566539006E+03  0.36566539006E+03  0.00000000000E+00 0.  1.
          2    1    1    2  501    0  0.19785114109E+02  0.11950215488E+02 -0.12948036629E+02  0.26493584941E+02  0.00000000000E+00 0. -1.
         -2    1    1    2    0  503 -0.19785114109E+02 -0.11950215488E+02 -0.34555849258E+03  0.34633066596E+03  0.00000000000E+00 0.  1.
</event>
<event>
 4    1  0.1772365E+004  0.2081860E+02  0.7546771E-02  0.1521871E+00
         21   -1    0    0  501  502  0.00000000000E+00  0.00000000000E+00  0.10936939081E+01  0.10936939081E+01  0.00000000000E+00 0.  1.
         21   -1    0    0  502  503 -0.00000000000E+00 -0.00000000000E+00 -0.57167467918E+03  0.57167467918E+03  0.00000000000E+00 0. -1.
          2    1    1    2  501    0 -0.15166043934E+02 -0.14262021473E+02 -0.12666354665E+03  0.12836303282E+03  0.00000000000E+00 0.  1.
         -2    1    1    2    0  503  0.15166043934E+02  0.14262021473E+02 -0.44391743862E+03  0.44440534027E+03  0.00000000000E+00 0. -1.
</event>
<event>
 4    1  0.1772365E+004  0.5696744E+02  0.7546771E-02  0.1270499E+00
         21   -1    0    0  501  502  0.00000000000E+00  0.00000000000E+00  0.92916873734E+02  0.92916873734E+02  0.00000000000E+00 0. -1.
         21   -1    0    0  502  503 -0.00000000000E+00 -0.00000000000E+00 -0.39822484535E+02  0.39822484535E+02  0.00000000000E+00 0.  1.
          2    1    1    2  501    0 -0.56966342270E+02  0.35351641117E+00  0.49818043480E+02  0.75677781295E+02  0.00000000000E+00 0. -1.
         -2    1    1    2    0  503  0.56966342270E+02 -0.35351641117E+00  0.32763457184E+01  0.57061576974E+02  0.00000000000E+00 0.  1.
</event>
<event>
 4    1  0.1772365E+004  0.2752929E+02  0.7546771E-02  0.1442363E+00
         21   -1    0    0  501  502  0.00000000000E+00  0.00000000000E+00  0.80433530579E+01  0.80433530579E+01  0.00000000000E+00 0. -1.
         21   -1    0    0  502  503 -0.00000000000E+00 -0.00000000000E+00 -0.10826085414E+03  0.10826085414E+03  0.00000000000E+00 0.  1.
          2    1    1    2  501    0  0.94862439540E+01 -0.25843233487E+02 -0.71049592193E+02  0.76196496588E+02  0.00000000000E+00 0.  1.
         -2    1    1    2    0  503 -0.94862439540E+01  0.25843233487E+02 -0.29167908889E+02  0.40107710610E+02  0.00000000000E+00 0. -1.
</event>
<event>
 4    1  0.1772365E+004  0.2252921E+02  0.7546771E-02  0.1498496E+00
         21   -1    0    0  501  502  0.00000000000E+00  0.00000000000E+00  0.28451499471E+03  0.28451499471E+03  0.00000000000E+00 0.  1.
         21   -1    0    0  502  503 -0.00000000000E+00 -0.00000000000E+00 -0.36488195152E+01  0.36488195152E+01  0.00000000000E+00 0. -1.
          2    1    1    2  501    0  0.98925867553E+00  0.22507477211E+02  0.24343744186E+03  0.24447771526E+03  0.00000000000E+00 0.  1.
         -2    1    1    2    0  503 -0.98925867553E+00 -0.22507477211E+02  0.37428733338E+02  0.43686098961E+02  0.00000000000E+00 0. -1.
</event>
<event>
 4    1  0.1772365E+004  0.3650765E+02  0.7546771E-02  0.1370263E+00
         21   -1    0    0  503  502  0.00000000000E+00  0.00000000000E+00  0.17035099659E+03  0.17035099659E+03  0.00000000000E+00 0. -1.
         21   -1    0    0  501  503 -0.00000000000E+00 -0.00000000000E+00 -0.10867767753E+02  0.10867767753E+02  0.00000000000E+00 0.  1.
          2    1    1    2  501    0  0.20694566446E+02 -0.30075631124E+02  0.31788580279E+02  0.48407876467E+02  0.00000000000E+00 0.  1.
         -2    1    1    2    0  502 -0.20694566446E+02  0.30075631124E+02  0.12769464856E+03  0.13281088788E+03  0.00000000000E+00 0. -1.
</event>
<event>
 4    1  0.1772365E+004  0.2728362E+02  0.7546771E-02  0.1444780E+00
         21   -1    0    0  503  502  0.00000000000E+00  0.00000000000E+00  0.40170028538E+01  0.40170028538E+01  0.00000000000E+00 0. -1.
         21   -1    0    0  501  503 -0.00000000000E+00 -0.00000000000E+00 -0.37401664806E+03  0.37401664806E+03  0.00000000000E+00 0.  1.
          2    1    1    2  501    0 -0.14403697482E+02  0.23171740487E+02 -0.31925996134E+03  0.32042365545E+03  0.00000000000E+00 0. -1.
         -2    1    1    2    0  502  0.14403697482E+02 -0.23171740487E+02 -0.50739683872E+02  0.57609995467E+02  0.00000000000E+00 0.  1.
</event>
<event>
 4    1  0.1772365E+004  0.2225617E+02  0.7546771E-02  0.1502056E+00
         21   -1    0    0  501  502  0.00000000000E+00  0.00000000000E+00  0.66731781566E+03  0.66731781566E+03  0.00000000000E+00 0. -1.
         21   -1    0    0  502  503 -0.00000000000E+00 -0.00000000000E+00 -0.11589553630E+01  0.11589553630E+01  0.00000000000E+00 0.  1.
          2    1    1    2  501    0  0.61211725951E+01  0.21397855385E+02  0.53349047230E+03  0.53395451211E+03  0.00000000000E+00 0. -1.
         -2    1    1    2    0  503 -0.61211725951E+01 -0.21397855385E+02  0.13266838800E+03  0.13452225891E+03  0.00000000000E+00 0.  1.
</event>
<event>
 4    1  0.1772365E+004  0.2928099E+02  0.7546771E-02  0.1425949E+00
         21   -1    0    0  503  502  0.00000000000E+00  0.00000000000E+00  0.10103427679E+04  0.10103427679E+04  0.00000000000E+00 0. -1.
         21   -1    0    0  501  503 -0.00000000000E+00 -0.00000000000E+00 -0.27629291108E+01  0.27629291108E+01  0.00000000000E+00 0.  1.
          2    1    1    2  501    0  0.98285055305E+01 -0.27582181837E+02  0.82143652514E+02  0.87206398413E+02  0.00000000000E+00 0.  1.
         -2    1    1    2    0  502 -0.98285055305E+01  0.27582181837E+02  0.92543618629E+03  0.92589929861E+03  0.00000000000E+00 0. -1.
</event>
<event>
 4    1  0.1772365E+004  0.2270878E+02  0.7546771E-02  0.1496188E+00
         21   -1    0    0  503  502  0.00000000000E+00  0.00000000000E+00  0.83876961703E+01  0.83876961703E+01  0.00000000000E+00 0. -1.
         21   -1    0    0  501  503 -0.00000000000E+00 -0.00000000000E+00 -0.91929226928E+02  0.91929226928E+02  0.00000000000E+00 0.  1.
          2    1    1    2  501    0  0.15968857028E+02  0.16145724804E+02 -0.70637274127E+02  0.74197798622E+02  0.00000000000E+00 0.  1.
         -2    1    1    2    0  502 -0.15968857028E+02 -0.16145724804E+02 -0.12904256630E+02  0.26119124476E+02  0.00000000000E+00 0. -1.
</event>
<event>
 4    1  0.1772365E+004  0.2700332E+02  0.7546771E-02  0.1447575E+00
         21   -1    0    0  503  502  0.00000000000E+00  0.00000000000E+00  0.41879661082E+01  0.41879661082E+01  0.00000000000E+00 0.  1.
         21   -1    0    0  501  503 -0.00000000000E+00 -0.00000000000E+00 -0.26816368104E+03  0.26816368104E+03  0.00000000000E+00 0. -1.
          2    1    1    2  501    0 -0.26351279780E+02  0.58982591218E+01 -0.21263351152E+03  0.21434129240E+03  0.00000000000E+00 0. -1.
         -2    1    1    2    0  502  0.26351279780E+02 -0.58982591218E+01 -0.51342203411E+02  0.58010354746E+02  0.00000000000E+00 0.  1.
</event>
<event>
 4    1  0.1772365E+004  0.2994040E+02  0.7546771E-02  0.1420115E+00
         21   -1    0    0  501  502  0.00000000000E+00  0.00000000000E+00  0.11809850629E+03  0.11809850629E+03  0.00000000000E+00 0. -1.
         21   -1    0    0  502  503 -0.00000000000E+00 -0.00000000000E+00 -0.88814438175E+01  0.88814438175E+01  0.00000000000E+00 0.  1.
          2    1    1    2  501    0 -0.29744729654E+02 -0.34174361560E+01  0.78814110165E+02  0.84309499899E+02  0.00000000000E+00 0. -1.
         -2    1    1    2    0  503  0.29744729654E+02  0.34174361560E+01  0.30402952311E+02  0.42670450213E+02  0.00000000000E+00 0.  1.
</event>
<event>
 4    1  0.1772365E+004  0.3145953E+02  0.7546771E-02  0.1407323E+00
         21   -1    0    0  503  502  0.00000000000E+00  0.00000000000E+00  0.16959286572E+03  0.16959286572E+03  0.00000000000E+00 0. -1.
         21   -1    0    0  501  503 -0.00000000000E+00 -0.00000000000E+00 -0.13653809295E+03  0.13653809295E+03  0.00000000000E+00 0.  1.
          2    1    1    2  501    0 -0.14310560392E+02  0.28016248784E+02 -0.13323129875E+03  0.13689514711E+03  0.00000000000E+00 0.  1.
         -2    1    1    2    0  502  0.14310560392E+02 -0.28016248784E+02  0.16628607151E+03  0.16923581156E+03  0.00000000000E+00 0. -1.
</event>
<event>
 4    1  0.1772365E+004  0.8031498E+02  0.7546771E-02  0.1203118E+00
         21   -1    0    0  501  502  0.00000000000E+00  0.00000000000E+00  0.15889774455E+03  0.15889774455E+03  0.00000000000E+00 0.  1.
         21   -1    0    0  502  503 -0.00000000000E+00 -0.00000000000E+00 -0.61783407378E+02  0.61783407378E+02  0.00000000000E+00 0. -1.
          2    1    1    2  501    0 -0.27570717510E+02 -0.75434416498E+02  0.11317401892E+03  0.13877627397E+03  0.00000000000E+00 0.  1.
         -2    1    1    2    0  503  0.27570717510E+02  0.75434416498E+02 -0.16059681749E+02  0.81904877964E+02  0.00000000000E+00 0. -1.
</event>
<event>
 4    1  0.1772365E+004  0.2004645E+02  0.7546771E-02  0.1533327E+00
         21   -1    0    0  503  502  0.00000000000E+00  0.00000000000E+00  0.19644345153E+03  0.19644345153E+03  0.00000000000E+00 0.  1.
         21   -1    0    0  501  503 -0.00000000000E+00 -0.00000000000E+00 -0.61584411829E+01  0.61584411829E+01  0.00000000000E+00 0. -1.
          2    1    1    2  501    0  0.12217397520E+01 -0.20009189353E+02  0.12358795227E+02  0.23549949598E+02  0.00000000000E+00 0. -1.
         -2    1    1    2    0  502 -0.12217397520E+01  0.20009189353E+02  0.17792621512E+03  0.17905194312E+03  0.00000000000E+00 0.  1.
</event>
<event>
 4    1  0.1772365E+004  0.2118789E+02  0.7546771E-02  0.1516599E+00
         21   -1    0    0  503  502  0.00000000000E+00  0.00000000000E+00  0.61059791079E+03  0.61059791079E+03  0.00000000000E+00 0.  1.
         21   -1    0    0  501  503 -0.00000000000E+00 -0.00000000000E+00 -0.11386333452E+01  0.11386333452E+01  0.00000000000E+00 0. -1.
          2    1    1    2  501    0  0.19949802551E+02  0.71366666832E+01  0.12266939915E+03  0.12448577477E+03  0.00000000000E+00 0. -1.
         -2    1    1    2    0  502 -0.19949802551E+02 -0.71366666832E+01  0.48678987829E+03  0.48725076936E+03  0.00000000000E+00 0.  1.
</event>
<event>
 4    1  0.1772365E+004  0.2054912E+02  0.7546771E-02  0.1525801E+00
         21   -1    0    0  501  502  0.00000000000E+00  0.00000000000E+00  0.20732920259E+02  0.20732920259E+02  0.00000000000E+00 0. -1.
         21   -1    0    0  502  503 -0.00000000000E+00 -0.00000000000E+00 -0.20695784450E+02  0.20695784450E+02  0.00000000000E+00 0.  1.
          2    1    1    2  501    0  0.13218768531E+02  0.15733106620E+02 -0.25924795441E+01  0.20712011867E+02  0.00000000000E+00 0.  1.
         -2    1    1    2    0  503 -0.13218768531E+02 -0.15733106620E+02  0.26296153533E+01  0.20716692842E+02  0.00000000000E+00 0. -1.
</event>
<event>
 4    1  0.1772365E+004  0.3237074E+02  0.7546771E-02  0.1400054E+00
         21   -1    0    0  501  502  0.00000000000E+00  0.00000000000E+00  0.56614930294E+02  0.56614930294E+02  0.00000000000E+00 0.  1.
         21   -1    0    0  502  503 -0.00000000000E+00 -0.00000000000E+00 -0.21878731844E+02  0.21878731844E+02  0.00000000000E+00 0. -1.
          2    1    1    2  501    0 -0.31032466812E+02 -0.92114541334E+01  0.32771440497E+02  0.46063349813E+02  0.00000000000E+00 0.  1.
         -2    1    1    2    0  503  0.31032466812E+02  0.92114541334E+01  0.19647579530E+01  0.32430312325E+02  0.00000000000E+00 0. -1.
</event>
<event>
 4    1  0.1772365E+004  0.2444031E+02  0.7546771E-02  0.1475163E+00
         21   -1    0    0  503  502  0.00000000000E+00  0.00000000000E+00  0.14695252196E+03  0.14695252196E+03  0.00000000000E+00 0. -1.
         21   -1    0    0  501  503 -0.00000000000E+00 -0.00000000000E+00 -0.27696348793E+02  0.27696348793E+02  0.00000000000E+00 0.  1.
          2    1    1    2  501    0 -0.23969609652E+02  0.47735378560E+01 -0.21034260432E+02  0.32245448709E+02  0.00000000000E+00 0.  1.
         -2    1    1    2    0  502  0.23969609652E+02 -0.47735378560E+01  0.14029043360E+03  0.14240342205E+03  0.00000000000E+00 0. -1.
</event>
<event>
 4    1  0.1772365E+004  0.4589300E+02  0.7546771E-02  0.1317034E+00
         21   -1    0    0  501  502  0.00000000000E+00  0.00000000000E+00  0.19570995461E+02  0.19570995461E+02  0.00000000000E+00 0. -1.
         21   -1    0    0  502  503 -0.00000000000E+00 -0.00000000000E+00 -0.11010733313E+03  0.11010733313E+03  0.00000000000E+00 0.  1.
          2    1    1    2  501    0  0.33992298284E+02  0.30833275372E+02 -0.35516509329E+02  0.58030936988E+02  0.00000000000E+00 0.  1.
         -2    1    1    2    0  503 -0.33992298284E+02 -0.30833275372E+02 -0.55019828339E+02  0.71647391601E+02  0.00000000000E+00 0. -1.
</event>
<event>
 4    1  0.1772365E+004  0.3481434E+02  0.7546771E-02  0.1381873E+00
         21   -1    0    0  503  502  0.00000000000E+00  0.00000000000E+00  0.82253038888E+02  0.82253038888E+02  0.00000000000E+00 0. -1.
         21   -1    0    0  501  503 -0.00000000000E+00 -0.00000000000E+00 -0.18778389692E+02  0.18778389692E+02  0.00000000000E+00 0.  1.
          2    1    1    2  501    0  0.50382515236E+01 -0.34447850949E+02  0.82980546365E+01  0.35789609165E+02  0.00000000000E+00 0.  1.
         -2    1    1    2    0  502 -0.50382515236E+01  0.34447850949E+02  0.55176594559E+02  0.65241819415E+02  0.00000000000E+00 0. -1.
</event>
<event>
 4    1  0.1772365E+004  0.2100115E+02  0.7546771E-02  0.1519248E+00
         21   -1    0    0  503  502  0.00000000000E+00  0.00000000000E+00  0.41255381261E+02  0.41255381261E+02  0.00000000000E+00 0. -1.
         21   -1    0    0  501  503 -0.00000000000E+00 -0.00000000000E+00 -0.12137547778E+02  0.12137547778E+02  0.00000000000E+00 0.  1.
          2    1    1    2  501    0  0.20799885992E+02  0.29005238680E+01  0.23776178236E+02  0.31723098012E+02  0.00000000000E+00 0. -1.
         -2    1    1    2    0  502 -0.20799885992E+02 -0.29005238680E+01  0.53416552472E+01  0.21669831028E+02  0.00000000000E+00 0.  1.
</event>
<event>
 4    1  0.1772365E+004  0.2578914E+02  0.7546771E-02  0.1460166E+00
         21   -1    0    0  503  502  0.00000000000E+00  0.00000000000E+00  0.30784071244E+01  0.30784071244E+01  0.00000000000E+00 0.  1.
         21   -1    0    0  501  503 -0.00000000000E+00 -0.00000000000E+00 -0.23490315925E+03  0.23490315925E+03  0.00000000000E+00 0. -1.
          2    1    1    2  501    0 -0.17928913790E+01  0.25726740574E+02 -0.82199236861E+02  0.86149835639E+02  0.00000000000E+00 0.  1.
         -2    1    1    2    0  502  0.17928913790E+01 -0.25726740574E+02 -0.14962551527E+03  0.15183173074E+03  0.00000000000E+00 0. -1.
</event>
<event>
 4    1  0.1772365E+004  0.2402013E+02  0.7546771E-02  0.1480071E+00
         21   -1    0    0  501  502  0.00000000000E+00  0.00000000000E+00  0.73900831331E+02  0.73900831331E+02  0.00000000000E+00 0. -1.
         21   -1    0    0  502  503 -0.00000000000E+00 -0.00000000000E+00 -0.93695552479E+01  0.93695552479E+01  0.00000000000E+00 0.  1.
          2    1    1    2  501    0 -0.14554028776E+02 -0.19108822012E+02  0.49266676636E+02  0.54810329857E+02  0.00000000000E+00 0. -1.
         -2    1    1    2    0  503  0.14554028776E+02  0.19108822012E+02  0.15264599447E+02  0.28460056721E+02  0.00000000000E+00 0.  1.
</event>
<event>
 4    1  0.1772365E+004  0.3256087E+02  0.7546771E-02  0.1398573E+00
         21   -1    0    0  503  502  0.00000000000E+00  0.00000000000E+00  0.19609727697E+03  0.19609727697E+03  0.00000000000E+00 0.  1.
         21   -1    0    0  501  503 -0.00000000000E+00 -0.00000000000E+00 -0.10425249609E+02  0.10425249609E+02  0.00000000000E+00 0. -1.
          2    1    1    2  501    0 -0.11541531842E+02 -0.30446732339E+02  0.21190394253E+02  0.38848980373E+02  0.00000000000E+00 0. -1.
         -2    1    1    2    0  502  0.11541531842E+02  0.30446732339E+02  0.16448163310E+03  0.16767354620E+03  0.00000000000E+00 0.  1.
</event>
<event>
 4    1  0.1772365E+004  0.2109410E+02  0.7546771E-02  0.1517925E+00
         21   -1    0    0  503  502  0.00000000000E+00  0.00000000000E+00  0.94026402024E+01  0.94026402024E+01  0.00000000000E+00 0.  1.
         21   -1    0    0  501  503 -0.00000000000E+00 -0.00000000000E+00 -0.51184479530E+02  0.51184479530E+02  0.00000000000E+00 0. -1.
          2    1    1    2  501    0  0.12789955155E+02  0.16774331432E+02 -0.29211583966E+02  0.36031622024E+02  0.00000000000E+00 0.  1.
         -2    1    1    2    0  502 -0.12789955155E+02 -0.16774331432E+02 -0.12570255361E+02  0.24555497708E+02  0.00000000000E+00 0. -1.
</event>
<event>
 4    1  0.1772365E+004  0.2014697E+02  0.7546771E-02  0.1531801E+00
         21   -1    0    0  501  502  0.00000000000E+00  0.00000000000E+00  0.11146779404E+02  0.11146779404E+02  0.00000000000E+00 0. -1.
         21   -1    0    0  502  503 -0.00000000000E+00 -0.00000000000E+00 -0.41615116379E+02  0.41615116379E+02  0.00000000000E+00 0.  1.
          2    1    1    2  501    0  0.16532291467E+02 -0.11514502563E+02 -0.24560419770E+02  0.31766564966E+02  0.00000000000E+00 0. -1.
         -2    1    1    2    0  503 -0.16532291467E+02  0.11514502563E+02 -0.59079172051E+01  0.20995330817E+02  0.00000000000E+00 0.  1.
</event>
<event>
 4    1  0.1772365E+004  0.2532734E+02  0.7546771E-02  0.1465175E+00
         21   -1    0    0  503  502  0.00000000000E+00  0.00000000000E+00  0.17112064983E+03  0.17112064983E+03  0.00000000000E+00 0.  1.
         21   -1    0    0  501  503 -0.00000000000E+00 -0.00000000000E+00 -0.11128212534E+02  0.11128212534E+02  0.00000000000E+00 0. -1.
          2    1    1    2  501    0 -0.16164098090E+01  0.25275703716E+02  0.57905651790E+01  0.25980851104E+02  0.00000000000E+00 0. -1.
         -2    1    1    2    0  502  0.16164098090E+01 -0.25275703716E+02  0.15420187212E+03  0.15626801126E+03  0.00000000000E+00 0.  1.
</event>
<event>
 4    1  0.1772365E+004  0.2794082E+02  0.7546771E-02  0.1438380E+00
         21   -1    0    0  501  502  0.00000000000E+00  0.00000000000E+00  0.40512080086E+02  0.40512080086E+02  0.00000000000E+00 0.  1.
         21   -1    0    0  502  503 -0.00000000000E+00 -0.00000000000E+00 -0.39016005643E+02  0.39016005643E+02  0.00000000000E+00 0. -1.
          2    1    1    2  501    0  0.15177987415E+02  0.23458863344E+02  0.29036076380E+02  0.40296194645E+02  0.00000000000E+00 0.  1.
         -2    1    1    2    0  503 -0.15177987415E+02 -0.23458863344E+02 -0.27540001937E+02  0.39231891084E+02  0.00000000000E+00 0. -1.
</event>
<event>
 4    1  0.1772365E+004  0.2416038E+02  0.7546771E-02  0.1478419E+00
         21   -1    0    0  501  502  0.00000000000E+00  0.00000000000E+00  0.94903837398E+02  0.94903837398E+02  0.00000000000E+00 0. -1.
         21   -1    0    0  502  503 -0.00000000000E+00 -0.00000000000E+00 -0.20974751346E+02  0.20974751346E+02  0.00000000000E+00 0.  1.
          2    1    1    2  501    0 -0.19926609995E+02  0.13662150664E+02  0.85673449905E+02  0.89014965963E+02  0.00000000000E+00 0. -1.
         -2    1    1    2    0  503  0.19926609995E+02 -0.13662150664E+02 -0.11744363853E+02  0.26863622782E+02  0.00000000000E+00 0.  1.
</event>
<event>
 4    1  0.1772365E+004  0.2062864E+02  0.7546771E-02  0.1524633E+00
         21   -1    0    0  501  502  0.00000000000E+00  0.00000000000E+00  0.71123949249E+00  0.71123949249E+00  0.00000000000E+00 0.  1.
         21   -1    0    0  502  503 -0.00000000000E+00 -0.00000000000E+00 -0.62779961135E+03  0.62779961135E+03  0.00000000000E+00 0. -1.
          2    1    1    2  501    0  0.39440287976E+01  0.20248099091E+02 -0.24543349509E+03  0.24629888630E+03  0.00000000000E+00 0.  1.
         -2    1    1    2    0  503 -0.39440287976E+01 -0.20248099091E+02 -0.38165487677E+03  0.38221196454E+03  0.00000000000E+00 0. -1.
</event>
<event>
 4    1  0.1772365E+004  0.2455462E+02  0.7546771E-02  0.1473848E+00
         21   -1    0    0  501  502  0.00000000000E+00  0.00000000000E+00  0.89379555851E+02  0.89379555851E+02  0.00000000000E+00 0. -1.
         21   -1    0    0  502  503 -0.00000000000E+00 -0.00000000000E+00 -0.24625392061E+02  0.24625392061E+02  0.00000000000E+00 0.  1.
          2    1    1    2  501    0 -0.97876563371E+01 -0.22519570734E+02  0.80948627812E+02  0.84590836544E+02  0.00000000000E+00 0. -1.
         -2    1    1    2    0  503  0.97876563371E+01  0.22519570734E+02 -0.16194464021E+02  0.29414111368E+02  0.00000000000E+00 0.  1.
</event>
<event>
 4    1  0.1772365E+004  0.6377125E+02  0.7546771E-02  0.1247531E+00
         21   -1    0    0  501  502  0.00000000000E+00  0.00000000000E+00  0.38800277251E+02  0.38800277251E+02  0.00000000000E+00 0.  1.
         21   -1    0    0  502  503 -0.00000000000E+00 -0.00000000000E+00 -0.12009804491E+03  0.12009804491E+03  0.00000000000E+00 0. -1.
          2    1    1    2  501    0  0.49885820156E+02 -0.39726283060E+02 -0.12305283559E+02  0.64947614443E+02  0.00000000000E+00 0.  1.
         -2    1    1    2    0  503 -0.49885820156E+02  0.39726283060E+02 -0.68992484097E+02  0.93950707715E+02  0.00000000000E+00 0. -1.
</event>
<event>
 4    1  0.1772365E+004  0.4312645E+02  0.7546771E-02  0.1331078E+00
         21   -1    0    0  501  502  0.00000000000E+00  0.00000000000E+00  0.78805299216E+02  0.78805299216E+02  0.00000000000E+00 0. -1.
         21   -1    0    0  502  503 -0.00000000000E+00 -0.00000000000E+00 -0.76928360282E+02  0.76928360282E+02  0.00000000000E+00 0.  1.
          2    1    1    2  501    0 -0.21257006376E+02 -0.37523727588E+02  0.65769654268E+02  0.78648190537E+02  0.00000000000E+00 0. -1.
         -2    1    1    2    0  503  0.21257006376E+02  0.37523727588E+02 -0.63892715335E+02  0.77085468961E+02  0.00000000000E+00 0.  1.
</event>
<event>
 4    1  0.1772365E+004  0.2111908E+02  0.7546771E-02  0.1517571E+00
         21   -1    0    0  503  502  0.00000000000E+00  0.00000000000E+00  0.13702870435E+02  0.13702870435E+02  0.00000000000E+00 0.  1.
         21   -1    0    0  501  503 -0.00000000000E+00 -0.00000000000E+00 -0.65372712004E+02  0.65372712004E+02  0.00000000000E+00 0. -1.
          2    1    1    2  501    0  0.12140501997E+02  0.17280730281E+02 -0.53851019723E+02  0.57844167839E+02  0.00000000000E+00 0. -1.
         -2    1    1    2    0  502 -0.12140501997E+02 -0.17280730281E+02  0.21811781542E+01  0.21231414600E+02  0.00000000000E+00 0.  1.
</event>
<event>
 4    1  0.1772365E+004  0.3709850E+02  0.7546771E-02  0.1366382E+00
         21   -1    0    0  501  502  0.00000000000E+00  0.00000000000E+00  0.12567718071E+03  0.12567718071E+03  0.00000000000E+00 0. -1.
         21   -1    0    0  502  503 -0.00000000000E+00 -0.00000000000E+00 -0.14936877576E+02  0.14936877576E+02  0.00000000000E+00 0.  1.
          2    1    1    2  501    0  0.37055539580E+02  0.17848389314E+01  0.91688610124E+02  0.98909554089E+02  0.00000000000E+00 0. -1.
         -2    1    1    2    0  503 -0.37055539580E+02 -0.17848389314E+01  0.19051693005E+02  0.41704504193E+02  0.00000000000E+00 0.  1.
</event>
<event>
 4    1  0.1772365E+004  0.4299336E+02  0.7546771E-02  0.1331784E+00
         21   -1    0    0  501  502  0.00000000000E+00  0.00000000000E+00  0.16442052237E+02  0.16442052237E+02  0.00000000000E+00 0.  1.
         21   -1    0    0  502  503 -0.00000000000E+00 -0.00000000000E+00 -0.14667167810E+03  0.14667167810E+03  0.00000000000E+00 0. -1.
          2    1    1    2  501    0 -0.39366401983E+02 -0.17283376334E+02 -0.25703288388E+02  0.50090794928E+02  0.00000000000E+00 0.  1.
         -2    1    1    2    0  503  0.39366401983E+02  0.17283376334E+02 -0.10452633747E+03  0.11302293541E+03  0.00000000000E+00 0. -1.
</event>
<event>
 4    1  0.1772365E+004  0.2995784E+02  0.7546771E-02  0.1419963E+00
         21   -1    0    0  501  502  0.00000000000E+00  0.00000000000E+00  0.17027661393E+03  0.17027661393E+03  0.00000000000E+00 0.  1.
         21   -1    0    0  502  503 -0.00000000000E+00 -0.00000000000E+00 -0.78367838002E+01  0.78367838002E+01  0.00000000000E+00 0. -1.
          2    1    1    2  501    0 -0.16786742204E+02  0.24812844725E+02  0.13218063423E+03  0.13553299246E+03  0.00000000000E+00 0.  1.
         -2    1    1    2    0  503  0.16786742204E+02 -0.24812844725E+02  0.30259195896E+02  0.42580405276E+02  0.00000000000E+00 0. -1.
</event>
<event>
 4    1  0.1772365E+004  0.2263972E+02  0.7546771E-02  0.1497072E+00
         21   -1    0    0  503  502  0.00000000000E+00  0.00000000000E+00  0.33610607434E+02  0.33610607434E+02  0.00000000000E+00 0. -1.
         21   -1    0    0  501  503 -0.00000000000E+00 -0.00000000000E+00 -0.15404985803E+02  0.15404985803E+02  0.00000000000E+00 0.  1.
          2    1    1    2  501    0  0.90659690159E+01  0.20745241858E+02  0.11562182290E+02  0.25421268915E+02  0.00000000000E+00 0.  1.
         -2    1    1    2    0  502 -0.90659690159E+01 -0.20745241858E+02  0.66434393405E+01  0.23594324322E+02  0.00000000000E+00 0. -1.
</event>
<event>
 4    1  0.1772365E+004  0.2888809E+02  0.7546771E-02  0.1429511E+00
         21   -1    0    0  503  502  0.00000000000E+00  0.00000000000E+00  0.25296970601E+02  0.25296970601E+02  0.00000000000E+00 0.  1.
         21   -1    0    0  501  503 -0.00000000000E+00 -0.00000000000E+00 -0.56027076513E+02  0.56027076513E+02  0.00000000000E+00 0. -1.
          2    1    1    2  501    0  0.37853587880E+01 -0.28639013141E+02 -0.41439374760E+02  0.50514787887E+02  0.00000000000E+00 0. -1.
         -2    1    1    2    0  502 -0.37853587880E+01  0.28639013141E+02  0.10709268848E+02  0.30809259227E+02  0.00000000000E+00 0.  1.
</event>
<event>
 4    1  0.1772365E+004  0.2969468E+02  0.7546771E-02  0.1422269E+00
         21   -1    0    0  503  502  0.00000000000E+00  0.00000000000E+00  0.23050037388E+02  0.23050037388E+02  0.00000000000E+00 0.  1.
         21   -1    0    0  501  503 -0.00000000000E+00 -0.00000000000E+00 -0.42229171653E+02  0.42229171653E+02  0.00000000000E+00 0. -1.
          2    1    1    2  501    0  0.16328863783E+02 -0.24802055845E+02 -0.19602810000E+02  0.35581511020E+02  0.00000000000E+00 0.  1.
         -2    1    1    2    0  502 -0.16328863783E+02  0.24802055845E+02  0.42367573495E+00  0.29697698021E+02  0.00000000000E+00 0. -1.
</event>
<event>
 4    1  0.1772365E+004  0.2716400E+02  0.7546771E-02  0.1445968E+00
         21   -1    0    0  503  502  0.00000000000E+00  0.00000000000E+00  0.25559185256E+03  0.25559185256E+03  0.00000000000E+00 0. -1.
         21   -1    0    0  501  503 -0.00000000000E+00 -0.00000000000E+00 -0.27872160820E+02  0.27872160820E+02  0.00000000000E+00 0.  1.
          2    1    1    2  501    0 -0.16619787966E+02 -0.21486398257E+02 -0.20331363115E+02  0.33930030772E+02  0.00000000000E+00 0.  1.
         -2    1    1    2    0  502  0.16619787966E+02  0.21486398257E+02  0.24805105485E+03  0.24953398261E+03  0.00000000000E+00 0. -1.
</event>
<event>
 4    1  0.1772365E+004  0.3260181E+02  0.7546771E-02  0.1398255E+00
         21   -1    0    0  503  502  0.00000000000E+00  0.00000000000E+00  0.74624063563E+02  0.74624063563E+02  0.00000000000E+00 0.  1.
         21   -1    0    0  501  503 -0.00000000000E+00 -0.00000000000E+00 -0.20741306162E+02  0.20741306162E+02  0.00000000000E+00 0. -1.
          2    1    1    2  501    0  0.21639343089E+02  0.24384763933E+02  0.25193965646E+00  0.32602781399E+02  0.00000000000E+00 0. -1.
         -2    1    1    2    0  502 -0.21639343089E+02 -0.24384763933E+02  0.53630817744E+02  0.62762588325E+02  0.00000000000E+00 0.  1.
</event>
<event>
 4    1  0.1772365E+004  0.2284859E+02  0.7546771E-02  0.1494408E+00
         21   -1    0    0  503  502  0.00000000000E+00  0.00000000000E+00  0.11488595321E+03  0.11488595321E+03  0.00000000000E+00 0.  1.
         21   -1    0    0  501  503 -0.00000000000E+00 -0.00000000000E+00 -0.13320322257E+02  0.13320322257E+02  0.00000000000E+00 0. -1.
          2    1    1    2  501    0  0.48537736673E+01 -0.22327089857E+02 -0.12496847546E+01  0.22882739615E+02  0.00000000000E+00 0. -1.
         -2    1    1    2    0  502 -0.48537736673E+01  0.22327089857E+02  0.10281531571E+03  0.10532353586E+03  0.00000000000E+00 0.  1.
</event>
<event>
 4    1  0.1772365E+004  0.4422042E+02  0.7546771E-02  0.1325384E+00
         21   -1    0    0  501  502  0.00000000000E+00  0.00000000000E+00  0.24681127447E+04  0.24681127447E+04  0.00000000000E+00 0. -1.
         21   -1    0    0  502  503 -0.00000000000E+00 -0.00000000000E+00 -0.24242897423E+01  0.24242897423E+01  0.00000000000E+00 0.  1.
          2    1    1    2  501    0 -0.20114011920E+02 -0.39381109657E+02  0.22463588158E+04  0.22467940214E+04  0.00000000000E+00 0. -1.
         -2    1    1    2    0  503  0.20114011920E+02  0.39381109657E+02  0.21932963925E+03  0.22374301313E+03  0.00000000000E+00 0.  1.
</event>
<event>
 4    1  0.1772365E+004  0.2950070E+02  0.7546771E-02  0.1423986E+00
         21   -1    0    0  501  502  0.00000000000E+00  0.00000000000E+00  0.29118445531E+02  0.29118445531E+02  0.00000000000E+00 0.  1.
         21   -1    0    0  502  503 -0.00000000000E+00 -0.00000000000E+00 -0.31187362148E+02  0.31187362148E+02  0.00000000000E+00 0. -1.
          2    1    1    2  501    0 -0.29393912775E+02 -0.25078642164E+01  0.51202634042E+01  0.29941753263E+02  0.00000000000E+00 0. -1.
         -2    1    1    2    0  503  0.29393912775E+02  0.25078642164E+01 -0.71891800217E+01  0.30364054415E+02  0.00000000000E+00 0.  1.
</event>
<event>
 4    1  0.1772365E+004  0.3078398E+02  0.7546771E-02  0.1412904E+00
         21   -1    0    0  503  502  0.00000000000E+00  0.00000000000E+00  0.92651470345E+01  0.92651470345E+01  0.00000000000E+00 0. -1.
         21   -1    0    0  501  503 -0.00000000000E+00 -0.00000000000E+00 -0.27556815513E+03  0.27556815513E+03  0.00000000000E+00 0.  1.
          2    1    1    2  501    0 -0.30281430463E+02 -0.55397137636E+01 -0.24608655977E+03  0.24800453294E+03  0.00000000000E+00 0.  1.
         -2    1    1    2    0  502  0.30281430463E+02  0.55397137636E+01 -0.20216448320E+02  0.36828769218E+02  0.00000000000E+00 0. -1.
</event>
<event>
 4    1  0.1772365E+004  0.2739675E+02  0.7546771E-02  0.1443663E+00
         21   -1    0    0  503  502  0.00000000000E+00  0.00000000000E+00  0.63790970375E+01  0.63790970375E+01  0.00000000000E+00 0. -1.
         21   -1    0    0  501  503 -0.00000000000E+00 -0.00000000000E+00 -0.13913161677E+03  0.13913161677E+03  0.00000000000E+00 0.  1.
          2    1    1    2  501    0 -0.11802184051E+02 -0.24724289923E+02 -0.94955895157E+02  0.98829166169E+02  0.00000000000E+00 0.  1.
         -2    1    1    2    0  502  0.11802184051E+02  0.24724289923E+02 -0.37796624572E+02  0.46681547635E+02  0.00000000000E+00 0. -1.
</event>
<event>
 4    1  0.1772365E+004  0.2009470E+02  0.7546771E-02  0.1532593E+00
         21   -1    0    0  501  502  0.00000000000E+00  0.00000000000E+00  0.10589840679E+02  0.10589840679E+02  0.00000000000E+00 0. -1.
         21   -1    0    0  502  503 -0.00000000000E+00 -0.00000000000E+00 -0.20514212476E+03  0.20514212476E+03  0.00000000000E+00 0.  1.
          2    1    1    2  501    0 -0.19182579966E+02  0.59854547313E+01  0.50175694692E-01  0.20094764494E+02  0.00000000000E+00 0. -1.
         -2    1    1    2    0  503  0.19182579966E+02 -0.59854547313E+01 -0.19460245977E+03  0.19563720094E+03  0.00000000000E+00 0.  1.
</event>
<event>
 4    1  0.1772365E+004  0.2264606E+02  0.7546771E-02  0.1496991E+00
         21   -1    0    0  501  502  0.00000000000E+00  0.00000000000E+00  0.23551722682E+02  0.23551722682E+02  0.00000000000E+00 0. -1.
         21   -1    0    0  502  503 -0.00000000000E+00 -0.00000000000E+00 -0.37873495707E+02  0.37873495707E+02  0.00000000000E+00 0.  1.
          2    1    1    2  501    0 -0.18509771630E+02 -0.13047318918E+02  0.12862547645E+02  0.26043987956E+02  0.00000000000E+00 0. -1.
         -2    1    1    2    0  503  0.18509771630E+02  0.13047318918E+02 -0.27184320669E+02  0.35381230433E+02  0.00000000000E+00 0.  1.
</event>
<event>
 4    1  0.1772365E+004  0.3200990E+02  0.7546771E-02  0.1402898E+00
         21   -1    0    0  503  502  0.00000000000E+00  0.00000000000E+00  0.95898207761E+01  0.95898207761E+01  0.00000000000E+00 0. -1.
         21   -1    0    0  501  503 -0.00000000000E+00 -0.00000000000E+00 -0.19755836849E+03  0.19755836849E+03  0.00000000000E+00 0.  1.
          2    1    1    2  501    0 -0.25593611823E+02 -0.19225010184E+02 -0.16416804262E+03  0.16725961916E+03  0.00000000000E+00 0.  1.
         -2    1    1    2    0  502  0.25593611823E+02  0.19225010184E+02 -0.23800505097E+02  0.39888570112E+02  0.00000000000E+00 0. -1.
</event>
<event>
 4    1  0.1772365E+004  0.2677561E+02  0.7546771E-02  0.1449875E+00
         21   -1    0    0  501  502  0.00000000000E+00  0.00000000000E+00  0.12566259238E+03  0.12566259238E+03  0.00000000000E+00 0.  1.
         21   -1    0    0  502  503 -0.00000000000E+00 -0.00000000000E+00 -0.19787601397E+02  0.19787601397E+02  0.00000000000E+00 0. -1.
          2    1    1    2  501    0  0.61093085298E+01 -0.26069322314E+02  0.11428907157E+03  0.11738366623E+03  0.00000000000E+00 0.  1.
         -2    1    1    2    0  503 -0.61093085298E+01  0.26069322314E+02 -0.84140805856E+01  0.28066527550E+02  0.00000000000E+00 0. -1.
</event>
<event>
 4    1  0.1772365E+004  0.2500022E+02  0.7546771E-02  0.1468801E+00
         21   -1    0    0  503  502  0.00000000000E+00  0.00000000000E+00  0.18696404942E+03  0.18696404942E+03  0.00000000000E+00 0.  1.
         21   -1    0    0  501  503 -0.00000000000E+00 -0.00000000000E+00 -0.64869586119E+01  0.64869586119E+01  0.00000000000E+00 0. -1.
          2    1    1    2  501    0  0.52820425828E+01  0.24435858701E+02  0.22900204193E+02  0.33903252298E+02  0.00000000000E+00 0. -1.
         -2    1    1    2    0  502 -0.52820425828E+01 -0.24435858701E+02  0.15757688662E+03  0.15954775574E+03  0.00000000000E+00 0.  1.
</event>
<event>
 4    1  0.1772365E+004  0.4352528E+02  0.7546771E-02  0.1328980E+00
         21   -1    0    0  503  502  0.00000000000E+00  0.00000000000E+00  0.35505228871E+02  0.35505228871E+02  0.00000000000E+00 0.  1.
         21   -1    0    0  501  503 -0.00000000000E+00 -0.00000000000E+00 -0.23785387595E+03  0.23785387595E+03  0.00000000000E+00 0. -1.
          2    1    1    2  501    0  0.43102197391E+02  0.60539524823E+01 -0.22155118905E+03  0.22578613583E+03  0.00000000000E+00 0. -1.
         -2    1    1    2    0  502 -0.43102197391E+02 -0.60539524823E+01  0.19202541975E+02  0.47572968994E+02  0.00000000000E+00 0.  1.
</event>
<event>
 4    1  0.1772365E+004  0.2578533E+02  0.7546771E-02  0.1460207E+00
         21   -1    0    0  503  502  0.00000000000E+00  0.00000000000E+00  0.86905505691E+02  0.86905505691E+02  0.00000000000E+00 0.  1.
         21   -1    0    0  501  503 -0.00000000000E+00 -0.00000000000E+00 -0.15507165906E+02  0.15507165906E+02  0.00000000000E+00 0. -1.
          2    1    1    2  501    0 -0.97108649145E+01  0.23886864407E+02 -0.74873871290E+00  0.25796197361E+02  0.00000000000E+00 0. -1.
         -2    1    1    2    0  502  0.97108649145E+01 -0.23886864407E+02  0.72147078498E+02  0.76616474237E+02  0.00000000000E+00 0.  1.
</event>
<event>
 4    1  0.1772365E+004  0.2271496E+02  0.7546771E-02  0.1496109E+00
         21   -1    0    0  503  502  0.00000000000E+00  0.00000000000E+00  0.85870392696E+01  0.85870392696E+01  0.00000000000E+00 0. -1.
         21   -1    0    0  501  503 -0.00000000000E+00 -0.00000000000E+00 -0.39880095917E+03  0.39880095917E+03  0.00000000000E+00 0.  1.
          2    1    1    2  501    0  0.22331694268E+01  0.22604916463E+02 -0.38282961827E+03  0.38350291513E+03  0.00000000000E+00 0.  1.
         -2    1    1    2    0  502 -0.22331694268E+01 -0.22604916463E+02 -0.73843016367E+01  0.23885083309E+02  0.00000000000E+00 0. -1.
</event>
<event>
 4    1  0.1772365E+004  0.2999946E+02  0.7546771E-02  0.1419601E+00
         21   -1    0    0  503  502  0.00000000000E+00  0.00000000000E+00  0.16806201548E+03  0.16806201548E+03  0.00000000000E+00 0. -1.
         21   -1    0    0  501  503 -0.00000000000E+00 -0.00000000000E+00 -0.10484030650E+02  0.10484030650E+02  0.00000000000E+00 0.  1.
          2    1    1    2  501    0 -0.16344243047E+01  0.29954908270E+02  0.14123070573E+03  0.14438171669E+03  0.00000000000E+00 0. -1.
         -2    1    1    2    0  502  0.16344243047E+01 -0.29954908270E+02  0.16347279096E+02  0.34164329440E+02  0.00000000000E+00 0.  1.
</event>
<event>
 4    1  0.1772365E+004  0.3588610E+02  0.7546771E-02  0.1374438E+00
         21   -1    0    0  501  502  0.00000000000E+00  0.00000000000E+00  0.76196306642E+03  0.76196306642E+03  0.00000000000E+00 0. -1.
         21   -1    0    0  502  503 -0.00000000000E+00 -0.00000000000E+00 -0.28033390312E+01  0.28033390312E+01  0.00000000000E+00 0.  1.
          2    1    1    2  501    0  0.34797456729E+02  0.87720723796E+01  0.62054292862E+03  0.62157971211E+03  0.00000000000E+00 0. -1.
         -2    1    1    2    0  503 -0.34797456729E+02 -0.87720723796E+01  0.13861679877E+03  0.14318669334E+03  0.00000000000E+00 0.  1.
</event>
<event>
 4    1  0.1772365E+004  0.2029859E+02  0.7546771E-02  0.1529519E+00
         21   -1    0    0  503  502  0.00000000000E+00  0.00000000000E+00  0.30593518966E+01  0.30593518966E+01  0.00000000000E+00 0.  1.
         21   -1    0    0  501  503 -0.00000000000E+00 -0.00000000000E+00 -0.16229332407E+03  0.16229332407E+03  0.00000000000E+00 0. -1.
          2    1    1    2  501    0  0.19135826192E+02  0.67714817443E+01 -0.11371994483E+03  0.11551735221E+03  0.00000000000E+00 0. -1.
         -2    1    1    2    0  502 -0.19135826192E+02 -0.67714817443E+01 -0.45514027339E+02  0.49835323754E+02  0.00000000000E+00 0.  1.
</event>
<event>
 4    1  0.1772365E+004  0.2330348E+02  0.7546771E-02  0.1488722E+00
         21   -1    0    0  501  502  0.00000000000E+00  0.00000000000E+00  0.25853248674E+02  0.25853248674E+02  0.00000000000E+00 0. -1.
         21   -1    0    0  502  503 -0.00000000000E+00 -0.00000000000E+00 -0.28331483997E+02  0.28331483997E+02  0.00000000000E+00 0.  1.
          2    1    1    2  501    0  0.22213929983E+02 -0.70422490071E+01  0.12537891846E+02  0.26462250250E+02  0.00000000000E+00 0.  1.
         -2    1    1    2    0  503 -0.22213929983E+02  0.70422490071E+01 -0.15016127169E+02  0.27722482420E+02  0.00000000000E+00 0. -1.
</event>
<event>
 4    1  0.1772365E+004  0.2410382E+02  0.7546771E-02  0.1479084E+00
         21   -1    0    0  501  502  0.00000000000E+00  0.00000000000E+00  0.11507156934E+02  0.11507156934E+02  0.00000000000E+00 0. -1.
         21   -1    0    0  502  503 -0.00000000000E+00 -0.00000000000E+00 -0.14677298835E+03  0.14677298835E+03  0.00000000000E+00 0.  1.
          2    1    1    2  501    0  0.23042827138E+02 -0.70726304022E+01 -0.35343043053E+01  0.24361553527E+02  0.00000000000E+00 0. -1.
         -2    1    1    2    0  503 -0.23042827138E+02  0.70726304022E+01 -0.13173152711E+03  0.13391859175E+03  0.00000000000E+00 0.  1.
</event>
<event>
 4    1  0.1772365E+004  0.2294959E+02  0.7546771E-02  0.1493132E+00
         21   -1    0    0  503  502  0.00000000000E+00  0.00000000000E+00  0.16141353811E+03  0.16141353811E+03  0.00000000000E+00 0.  1.
         21   -1    0    0  501  503 -0.00000000000E+00 -0.00000000000E+00 -0.32634580969E+01  0.32634580969E+01  0.00000000000E+00 0. -1.
          2    1    1    2  501    0 -0.17738927191E+02 -0.14560711518E+02  0.78044853559E+02  0.81349142742E+02  0.00000000000E+00 0.  1.
         -2    1    1    2    0  502  0.17738927191E+02  0.14560711518E+02  0.80105226451E+02  0.83327853462E+02  0.00000000000E+00 0. -1.
</event>
<event>
 4    1  0.1772365E+004  0.3234656E+02  0.7546771E-02  0.1400243E+00
         21   -1    0    0  503  502  0.00000000000E+00  0.00000000000E+00  0.15058207261E+03  0.15058207261E+03  0.00000000000E+00 0.  1.
         21   -1    0    0  501  503 -0.00000000000E+00 -0.00000000000E+00 -0.13718000132E+02  0.13718000132E+02  0.00000000000E+00 0. -1.
          2    1    1    2  501    0  0.31298570380E+01  0.32194777526E+02  0.10722858992E+02  0.34077549941E+02  0.00000000000E+00 0. -1.
         -2    1    1    2    0  502 -0.31298570380E+01 -0.32194777526E+02  0.12614121349E+03  0.13022252280E+03  0.00000000000E+00 0.  1.
</event>
<event>
 4    1  0.1772365E+004  0.2122703E+02  0.7546771E-02  0.1516048E+00
         21   -1    0    0  503  502  0.00000000000E+00  0.00000000000E+00  0.20528628993E+02  0.20528628993E+02  0.00000000000E+00 0.  1.
         21   -1    0    0  501  503 -0.00000000000E+00 -0.00000000000E+00 -0.25303050714E+02  0.25303050714E+02  0.00000000000E+00 0. -1.
          2    1    1    2  501    0  0.40448785403E+01 -0.20838087521E+02 -0.10730193801E+02  0.23784953079E+02  0.00000000000E+00 0. -1.
         -2    1    1    2    0  502 -0.40448785403E+01  0.20838087521E+02  0.59557720805E+01  0.22046726628E+02  0.00000000000E+00 0.  1.
</event>
<event>
 4    1  0.1772365E+004  0.2137638E+02  0.7546771E-02  0.1513958E+00
         21   -1    0    0  501  502  0.00000000000E+00  0.00000000000E+00  0.12688562097E+02  0.12688562097E+02  0.00000000000E+00 0.  1.
         21   -1    0    0  502  503 -0.00000000000E+00 -0.00000000000E+00 -0.72959490999E+02  0.72959490999E+02  0.00000000000E+00 0. -1.
          2    1    1    2  501    0  0.18464309762E+02 -0.10771199247E+02  0.33891866344E+00  0.21379062984E+02  0.00000000000E+00 0.  1.
         -2    1    1    2    0  503 -0.18464309762E+02  0.10771199247E+02 -0.60609847565E+02  0.64268990112E+02  0.00000000000E+00 0. -1.
</event>
<event>
 4    1  0.1772365E+004  0.2736261E+02  0.7546771E-02  0.1443999E+00
         21   -1    0    0  503  502  0.00000000000E+00  0.00000000000E+00  0.10125130265E+03  0.10125130265E+03  0.00000000000E+00 0. -1.
         21   -1    0    0  501  503 -0.00000000000E+00 -0.00000000000E+00 -0.90093455731E+01  0.90093455731E+01  0.00000000000E+00 0.  1.
          2    1    1    2  501    0  0.22221215399E+02  0.15966525370E+02  0.22781202379E+02  0.35604712161E+02  0.00000000000E+00 0.  1.
         -2    1    1    2    0  502 -0.22221215399E+02 -0.15966525370E+02  0.69460754697E+02  0.74655936062E+02  0.00000000000E+00 0. -1.
</event>
<event>
 4    1  0.1772365E+004  0.2167668E+02  0.7546771E-02  0.1509819E+00
         21   -1    0    0  501  502  0.00000000000E+00  0.00000000000E+00  0.24237823227E+03  0.24237823227E+03  0.00000000000E+00 0. -1.
         21   -1    0    0  502  503 -0.00000000000E+00 -0.00000000000E+00 -0.20374379083E+01  0.20374379083E+01  0.00000000000E+00 0.  1.
          2    1    1    2  501    0  0.19831017790E+02  0.87526659465E+01  0.93256134121E+02  0.95742284174E+02  0.00000000000E+00 0.  1.
         -2    1    1    2    0  503 -0.19831017790E+02 -0.87526659465E+01  0.14708466025E+03  0.14867338601E+03  0.00000000000E+00 0. -1.
</event>
<event>
 4    1  0.1772365E+004  0.2232499E+02  0.7546771E-02  0.1501153E+00
         21   -1    0    0  501  502  0.00000000000E+00  0.00000000000E+00  0.10232896383E+03  0.10232896383E+03  0.00000000000E+00 0. -1.
         21   -1    0    0  502  503 -0.00000000000E+00 -0.00000000000E+00 -0.50731489616E+01  0.50731489616E+01  0.00000000000E+00 0.  1.
          2    1    1    2  501    0 -0.67211860321E+00 -0.22314871449E+02  0.59357676712E+02  0.63417182339E+02  0.00000000000E+00 0.  1.
         -2    1    1    2    0  503  0.67211860321E+00  0.22314871449E+02  0.37898138157E+02  0.43984930454E+02  0.00000000000E+00 0. -1.
</event>
<event>
 4    1  0.1772365E+004  0.2162823E+02  0.7546771E-02  0.1510481E+00
         21   -1    0    0  501  502  0.00000000000E+00  0.00000000000E+00  0.20532527671E+03  0.20532527671E+03  0.00000000000E+00 0. -1.
         21   -1    0    0  502  503 -0.00000000000E+00 -0.00000000000E+00 -0.34304397017E+01  0.34304397017E+01  0.00000000000E+00 0.  1.
          2    1    1    2  501    0  0.17385435759E+02  0.12865720851E+02  0.16143935189E+03  0.16288168862E+03  0.00000000000E+00 0. -1.
         -2    1    1    2    0  503 -0.17385435759E+02 -0.12865720851E+02  0.40455485120E+02  0.45874027792E+02  0.00000000000E+00 0.  1.
</event>
<event>
 4    1  0.1772365E+004  0.2757558E+02  0.7546771E-02  0.1441910E+00
         21   -1    0    0  503  502  0.00000000000E+00  0.00000000000E+00  0.32329028554E+02  0.32329028554E+02  0.00000000000E+00 0.  1.
         21   -1    0    0  501  503 -0.00000000000E+00 -0.00000000000E+00 -0.19639200981E+03  0.19639200981E+03  0.00000000000E+00 0. -1.
          2    1    1    2  501    0 -0.26719749710E+02 -0.68166992104E+01 -0.18932544302E+03  0.19132311880E+03  0.00000000000E+00 0. -1.
         -2    1    1    2    0  502  0.26719749710E+02  0.68166992104E+01  0.25262461769E+02  0.37397919558E+02  0.00000000000E+00 0.  1.
</event>
<event>
 4    1  0.1772365E+004  0.3164977E+02  0.7546771E-02  0.1405782E+00
         21   -1    0    0  503  502  0.00000000000E+00  0.00000000000E+00  0.81053398611E+03  0.81053398611E+03  0.00000000000E+00 0.  1.
         21   -1    0    0  501  503 -0.00000000000E+00 -0.00000000000E+00 -0.13093336307E+01  0.13093336307E+01  0.00000000000E+00 0. -1.
          2    1    1    2  501    0  0.19426054113E+02  0.24986722096E+02  0.30845597514E+03  0.31007546897E+03  0.00000000000E+00 0.  1.
         -2    1    1    2    0  502 -0.19426054113E+02 -0.24986722096E+02  0.50076867735E+03  0.50176785077E+03  0.00000000000E+00 0. -1.
</event>
<event>
 4    1  0.1772365E+004  0.2387349E+02  0.7546771E-02  0.1481812E+00
         21   -1    0    0  501  502  0.00000000000E+00  0.00000000000E+00  0.12175319716E+02  0.12175319716E+02  0.00000000000E+00 0. -1.
         21   -1    0    0  502  503 -0.00000000000E+00 -0.00000000000E+00 -0.46818760170E+02  0.46818760170E+02  0.00000000000E+00 0.  1.
          2    1    1    2  501    0  0.19015024266E+02 -0.14435111096E+02 -0.16951507864E+02  0.29279637959E+02  0.00000000000E+00 0.  1.
         -2    1    1    2    0  503 -0.19015024266E+02  0.14435111096E+02 -0.17691932590E+02  0.29714441926E+02  0.00000000000E+00 0. -1.
</event>
<event>
 4    1  0.1772365E+004  0.2520130E+02  0.7546771E-02  0.1466564E+00
         21   -1    0    0  503  502  0.00000000000E+00  0.00000000000E+00  0.32316065455E+02  0.32316065455E+02  0.00000000000E+00 0.  1.
         21   -1    0    0  501  503 -0.00000000000E+00 -0.00000000000E+00 -0.32066911124E+02  0.32066911124E+02  0.00000000000E+00 0. -1.
          2    1    1    2  501    0 -0.20679260944E+02  0.14403940118E+02 -0.19904828285E+02  0.32113976914E+02  0.00000000000E+00 0.  1.
         -2    1    1    2    0  502  0.20679260944E+02 -0.14403940118E+02  0.20153982616E+02  0.32268999665E+02  0.00000000000E+00 0. -1.
</event>
<event>
 4    1  0.1772365E+004  0.3321758E+02  0.7546771E-02  0.1393546E+00
         21   -1    0    0  501  502  0.00000000000E+00  0.00000000000E+00  0.16988773090E+02  0.16988773090E+02  0.00000000000E+00 0. -1.
         21   -1    0    0  502  503 -0.00000000000E+00 -0.00000000000E+00 -0.13076049168E+03  0.13076049168E+03  0.00000000000E+00 0.  1.
          2    1    1    2  501    0  0.25877301078E+02 -0.20827221749E+02 -0.44767063747E+01  0.33517887416E+02  0.00000000000E+00 0. -1.
         -2    1    1    2    0  503 -0.25877301078E+02  0.20827221749E+02 -0.10929501221E+03  0.11423137735E+03  0.00000000000E+00 0.  1.
</event>
<event>
 4    1  0.1772365E+004  0.2091456E+02  0.7546771E-02  0.1520488E+00
         21   -1    0    0  503  502  0.00000000000E+00  0.00000000000E+00  0.30321747784E+02  0.30321747784E+02  0.00000000000E+00 0.  1.
         21   -1    0    0  501  503 -0.00000000000E+00 -0.00000000000E+00 -0.18033016347E+02  0.18033016347E+02  0.00000000000E+00 0. -1.
          2    1    1    2  501    0  0.10862495086E+02  0.17872467310E+02 -0.46688382359E+01  0.21429347580E+02  0.00000000000E+00 0. -1.
         -2    1    1    2    0  502 -0.10862495086E+02 -0.17872467310E+02  0.16957569673E+02  0.26925416551E+02  0.00000000000E+00 0.  1.
</event>
<event>
 4    1  0.1772365E+004  0.2124468E+02  0.7546771E-02  0.1515800E+00
         21   -1    0    0  501  502  0.00000000000E+00  0.00000000000E+00  0.21627488650E+02  0.21627488650E+02  0.00000000000E+00 0. -1.
         21   -1    0    0  502  503 -0.00000000000E+00 -0.00000000000E+00 -0.21065723943E+02  0.21065723943E+02  0.00000000000E+00 0.  1.
          2    1    1    2  501    0  0.21244343751E+02 -0.12036179313E+00 -0.17837762550E+01  0.21319439160E+02  0.00000000000E+00 0.  1.
         -2    1    1    2    0  503 -0.21244343751E+02  0.12036179313E+00  0.23455409627E+01  0.21373773433E+02  0.00000000000E+00 0. -1.
</event>
<event>
 4    1  0.1772365E+004  0.2686810E+02  0.7546771E-02  0.1448938E+00
         21   -1    0    0  503  502  0.00000000000E+00  0.00000000000E+00  0.19046334733E+01  0.19046334733E+01  0.00000000000E+00 0.  1.
         21   -1    0    0  501  503 -0.00000000000E+00 -0.00000000000E+00 -0.39477144836E+03  0.39477144836E+03  0.00000000000E+00 0. -1.
          2    1    1    2  501    0 -0.16983793547E+02 -0.20819358516E+02 -0.23605098773E+03  0.23757517493E+03  0.00000000000E+00 0. -1.
         -2    1    1    2    0  502  0.16983793547E+02  0.20819358516E+02 -0.15681582716E+03  0.15910090691E+03  0.00000000000E+00 0.  1.
</event>
<event>
 4    1  0.1772365E+004  0.5831678E+02  0.7546771E-02  0.1265661E+00
         21   -1    0    0  503  502  0.00000000000E+00  0.00000000000E+00  0.28445497857E+02  0.28445497857E+02  0.00000000000E+00 0.  1.
         21   -1    0    0  501  503 -0.00000000000E+00 -0.00000000000E+00 -0.12097691069E+03  0.12097691069E+03  0.00000000000E+00 0. -1.
          2    1    1    2  501    0 -0.37579382939E+02 -0.44594128133E+02 -0.38170460326E+02  0.69698137189E+02  0.00000000000E+00 0.  1.
         -2    1    1    2    0  502  0.37579382939E+02  0.44594128133E+02 -0.54360952501E+02  0.79724271354E+02  0.00000000000E+00 0. -1.
</event>
<event>
 4    1  0.1772365E+004  0.2110654E+02  0.7546771E-02  0.1517749E+00
         21   -1    0    0  501  502  0.00000000000E+00  0.00000000000E+00  0.72218800486E+02  0.72218800486E+02  0.00000000000E+00 0. -1.
         21   -1    0    0  502  503 -0.00000000000E+00 -0.00000000000E+00 -0.81069272440E+01  0.81069272440E+01  0.00000000000E+00 0.  1.
          2    1    1    2  501    0 -0.21001936031E+02 -0.20987414115E+01  0.51694717391E+02  0.55837530736E+02  0.00000000000E+00 0. -1.
         -2    1    1    2    0  503  0.21001936031E+02  0.20987414115E+01  0.12417155851E+02  0.24488196994E+02  0.00000000000E+00 0.  1.
</event>
<event>
 4    1  0.1772365E+004  0.2535869E+02  0.7546771E-02  0.1464830E+00
         21   -1    0    0  503  502  0.00000000000E+00  0.00000000000E+00  0.74240733543E+02  0.74240733543E+02  0.00000000000E+00 0. -1.
         21   -1    0    0  501  503 -0.00000000000E+00 -0.00000000000E+00 -0.88536925298E+01  0.88536925298E+01  0.00000000000E+00 0.  1.
          2    1    1    2  501    0  0.68768206960E+01 -0.24408454119E+02  0.26577993810E+02  0.36734902345E+02  0.00000000000E+00 0.  1.
         -2    1    1    2    0  502 -0.68768206960E+01  0.24408454119E+02  0.38809047204E+02  0.46359523728E+02  0.00000000000E+00 0. -1.
</event>
<event>
 4    1  0.1772365E+004  0.2353479E+02  0.7546771E-02  0.1485890E+00
         21   -1    0    0  501  502  0.00000000000E+00  0.00000000000E+00  0.14607591469E+02  0.14607591469E+02  0.00000000000E+00 0. -1.
         21   -1    0    0  502  503 -0.00000000000E+00 -0.00000000000E+00 -0.89617449226E+02  0.89617449226E+02  0.00000000000E+00 0.  1.
          2    1    1    2  501    0 -0.52400499078E+01 -0.22944022581E+02 -0.77086223937E+02  0.80598835079E+02  0.00000000000E+00 0.  1.
         -2    1    1    2    0  503  0.52400499078E+01  0.22944022581E+02  0.20763661806E+01  0.23626205615E+02  0.00000000000E+00 0. -1.
</event>
<event>
 4    1  0.1772365E+004  0.2703732E+02  0.7546771E-02  0.1447234E+00
         21   -1    0    0  501  502  0.00000000000E+00  0.00000000000E+00  0.94278897322E+02  0.94278897322E+02  0.00000000000E+00 0. -1.
         21   -1    0    0  502  503 -0.00000000000E+00 -0.00000000000E+00 -0.12884159444E+02  0.12884159444E+02  0.00000000000E+00 0.  1.
          2    1    1    2  501    0 -0.42436285644E+01 -0.26702214448E+02  0.74508704753E+02  0.79262625012E+02  0.00000000000E+00 0. -1.
         -2    1    1    2    0  503  0.42436285644E+01  0.26702214448E+02  0.68860331249E+01  0.27900431753E+02  0.00000000000E+00 0.  1.
</event>
<event>
 4    1  0.1772365E+004  0.2456338E+02  0.7546771E-02  0.1473748E+00
         21   -1    0    0  501  502  0.00000000000E+00  0.00000000000E+00  0.10034215690E+01  0.10034215690E+01  0.00000000000E+00 0.  1.
         21   -1    0    0  502  503 -0.00000000000E+00 -0.00000000000E+00 -0.17721994873E+04  0.17721994873E+04  0.00000000000E+00 0. -1.
          2    1    1    2  501    0  0.17273596099E+02  0.17463742469E+02 -0.16493612324E+03  0.16675516236E+03  0.00000000000E+00 0.  1.
         -2    1    1    2    0  503 -0.17273596099E+02 -0.17463742469E+02 -0.16062599425E+04  0.16064477465E+04  0.00000000000E+00 0. -1.
</event>
<event>
 4    1  0.1772365E+004  0.2457913E+02  0.7546771E-02  0.1473567E+00
         21   -1    0    0  503  502  0.00000000000E+00  0.00000000000E+00  0.18192594909E+02  0.18192594909E+02  0.00000000000E+00 0. -1.
         21   -1    0    0  501  503 -0.00000000000E+00 -0.00000000000E+00 -0.50455168561E+02  0.50455168561E+02  0.00000000000E+00 0.  1.
          2    1    1    2  501    0 -0.12947837302E+02 -0.20892273178E+02 -0.36199407651E+02  0.43755350343E+02  0.00000000000E+00 0.  1.
         -2    1    1    2    0  502  0.12947837302E+02  0.20892273178E+02  0.39368339990E+01  0.24892413127E+02  0.00000000000E+00 0. -1.
</event>
<event>
 4    1  0.1772365E+004  0.2540151E+02  0.7546771E-02  0.1464361E+00
         21   -1    0    0  503  502  0.00000000000E+00  0.00000000000E+00  0.12586286462E+03  0.12586286462E+03  0.00000000000E+00 0.  1.
         21   -1    0    0  501  503 -0.00000000000E+00 -0.00000000000E+00 -0.53972508278E+01  0.53972508278E+01  0.00000000000E+00 0. -1.
          2    1    1    2  501    0 -0.20074259776E+02  0.15564730720E+02  0.74932100322E+02  0.79120518240E+02  0.00000000000E+00 0.  1.
         -2    1    1    2    0  502  0.20074259776E+02 -0.15564730720E+02  0.45533513467E+02  0.52139597204E+02  0.00000000000E+00 0. -1.
</event>
<event>
 4    1  0.1772365E+004  0.3333240E+02  0.7546771E-02  0.1392682E+00
         21   -1    0    0  501  502  0.00000000000E+00  0.00000000000E+00  0.78303890779E+02  0.78303890779E+02  0.00000000000E+00 0. -1.
         21   -1    0    0  502  503 -0.00000000000E+00 -0.00000000000E+00 -0.19640509785E+02  0.19640509785E+02  0.00000000000E+00 0.  1.
          2    1    1    2  501    0 -0.58797842346E+01 -0.32809709193E+02  0.55132551181E+02  0.64425515750E+02  0.00000000000E+00 0. -1.
         -2    1    1    2    0  503  0.58797842346E+01  0.32809709193E+02  0.35308298137E+01  0.33518884814E+02  0.00000000000E+00 0.  1.
</event>
<event>
 4    1  0.1772365E+004  0.2068940E+02  0.7546771E-02  0.1523746E+00
         21   -1    0    0  501  502  0.00000000000E+00  0.00000000000E+00  0.11823572409E+03  0.11823572409E+03  0.00000000000E+00 0.  1.
         21   -1    0    0  502  503 -0.00000000000E+00 -0.00000000000E+00 -0.63607456522E+01  0.63607456522E+01  0.00000000000E+00 0. -1.
          2    1    1    2  501    0 -0.20535832093E+02  0.25161598162E+01  0.96828753252E+02  0.99014437919E+02  0.00000000000E+00 0.  1.
         -2    1    1    2    0  503  0.20535832093E+02 -0.25161598162E+01  0.15046225190E+02  0.25582031828E+02  0.00000000000E+00 0. -1.
</event>
<event>
 4    1  0.1772365E+004  0.2888921E+02  0.7546771E-02  0.1429501E+00
         21   -1    0    0  503  502  0.00000000000E+00  0.00000000000E+00  0.12188908449E+04  0.12188908449E+04  0.00000000000E+00 0. -1.
         21   -1    0    0  501  503 -0.00000000000E+00 -0.00000000000E+00 -0.68964621752E+00  0.68964621752E+00  0.00000000000E+00 0.  1.
          2    1    1    2  501    0 -0.24772884177E+02  0.14862398859E+02  0.55751047084E+03  0.55825846325E+03  0.00000000000E+00 0. -1.
         -2    1    1    2    0  502  0.24772884177E+02 -0.14862398859E+02  0.66069072789E+03  0.66132202792E+03  0.00000000000E+00 0.  1.
</event>
<event>
 4    1  0.1772365E+004  0.2469695E+02  0.7546771E-02  0.1472222E+00
         21   -1    0    0  501  502  0.00000000000E+00  0.00000000000E+00  0.51214569539E+01  0.51214569539E+01  0.00000000000E+00 0. -1.
         21   -1    0    0  502  503 -0.00000000000E+00 -0.00000000000E+00 -0.17721544339E+03  0.17721544339E+03  0.00000000000E+00 0.  1.
          2    1    1    2  501    0  0.93035772785E+01 -0.22877556545E+02 -0.33836377849E+02  0.41890805788E+02  0.00000000000E+00 0. -1.
         -2    1    1    2    0  503 -0.93035772785E+01  0.22877556545E+02 -0.13825760859E+03  0.14044609456E+03  0.00000000000E+00 0.  1.
</event>
<event>
 4    1  0.1772365E+004  0.2197133E+02  0.7546771E-02  0.1505836E+00
         21   -1    0    0  503  502  0.00000000000E+00  0.00000000000E+00  0.19082989336E+02  0.19082989336E+02  0.00000000000E+00 0. -1.
         21   -1    0    0  501  503 -0.00000000000E+00 -0.00000000000E+00 -0.52696588295E+02  0.52696588295E+02  0.00000000000E+00 0.  1.
          2    1    1    2  501    0 -0.21938764140E+02  0.11958239214E+01 -0.42686123245E+02  0.48008795908E+02  0.00000000000E+00 0.  1.
         -2    1    1    2    0  502  0.21938764140E+02 -0.11958239214E+01  0.90725242851E+01  0.23770781724E+02  0.00000000000E+00 0. -1.
</event>
<event>
 4    1  0.1772365E+004  0.2192768E+02  0.7546771E-02  0.1506421E+00
         21   -1    0    0  501  502  0.00000000000E+00  0.00000000000E+00  0.43851445935E+02  0.43851445935E+02  0.00000000000E+00 0. -1.
         21   -1    0    0  502  503 -0.00000000000E+00 -0.00000000000E+00 -0.12487091307E+02  0.12487091307E+02  0.00000000000E+00 0.  1.
          2    1    1    2  501    0 -0.55329421732E+01  0.21218148100E+02  0.25517549687E+02  0.33644741044E+02  0.00000000000E+00 0. -1.
         -2    1    1    2    0  503  0.55329421732E+01 -0.21218148100E+02  0.58468049421E+01  0.22693796199E+02  0.00000000000E+00 0.  1.
</event>
<event>
 4    1  0.1772365E+004  0.2143330E+02  0.7546771E-02  0.1513168E+00
         21   -1    0    0  503  502  0.00000000000E+00  0.00000000000E+00  0.39947888333E+02  0.39947888333E+02  0.00000000000E+00 0. -1.
         21   -1    0    0  501  503 -0.00000000000E+00 -0.00000000000E+00 -0.14540545924E+02  0.14540545924E+02  0.00000000000E+00 0.  1.
          2    1    1    2  501    0 -0.20561762556E+02  0.60498122291E+01  0.24460431127E+00  0.21434694742E+02  0.00000000000E+00 0.  1.
         -2    1    1    2    0  502  0.20561762556E+02 -0.60498122291E+01  0.25162738097E+02  0.33053739516E+02  0.00000000000E+00 0. -1.
</event>
<event>
 4    1  0.1772365E+004  0.2999427E+02  0.7546771E-02  0.1419646E+00
         21   -1    0    0  503  502  0.00000000000E+00  0.00000000000E+00  0.45793272981E+01  0.45793272981E+01  0.00000000000E+00 0. -1.
         21   -1    0    0  501  503 -0.00000000000E+00 -0.00000000000E+00 -0.31174800980E+03  0.31174800980E+03  0.00000000000E+00 0.  1.
          2    1    1    2  501    0 -0.68067163242E+01 -0.29211727438E+02 -0.24976687854E+03  0.25156142396E+03  0.00000000000E+00 0.  1.
         -2    1    1    2    0  502  0.68067163242E+01  0.29211727438E+02 -0.57401803959E+02  0.64765913140E+02  0.00000000000E+00 0. -1.
</event>
<event>
 4    1  0.1772365E+004  0.2067713E+02  0.7546771E-02  0.1523925E+00
         21   -1    0    0  501  502  0.00000000000E+00  0.00000000000E+00  0.16903655755E+02  0.16903655755E+02  0.00000000000E+00 0.  1.
         21   -1    0    0  502  503 -0.00000000000E+00 -0.00000000000E+00 -0.26067098105E+02  0.26067098105E+02  0.00000000000E+00 0. -1.
          2    1    1    2  501    0  0.18409853138E+02 -0.94138749773E+01 -0.82842783815E+01  0.22274941144E+02  0.00000000000E+00 0. -1.
         -2    1    1    2    0  503 -0.18409853138E+02  0.94138749773E+01 -0.87916396826E+00  0.20695812715E+02  0.00000000000E+00 0.  1.
</event>
<event>
 4    1  0.1772365E+004  0.2377469E+02  0.7546771E-02  0.1482993E+00
         21   -1    0    0  503  502  0.00000000000E+00  0.00000000000E+00  0.90167238741E+01  0.90167238741E+01  0.00000000000E+00 0.  1.
         21   -1    0    0  501  503 -0.00000000000E+00 -0.00000000000E+00 -0.19911403224E+03  0.19911403224E+03  0.00000000000E+00 0. -1.
          2    1    1    2  501    0 -0.13680553628E+02 -0.19444235467E+02 -0.18118863274E+03  0.18274177539E+03  0.00000000000E+00 0. -1.
         -2    1    1    2    0  502  0.13680553628E+02  0.19444235467E+02 -0.89086756249E+01  0.25388980718E+02  0.00000000000E+00 0.  1.
</event>
<event>
 4    1  0.1772365E+004  0.4753243E+02  0.7546771E-02  0.1309241E+00
         21   -1    0    0  501  502  0.00000000000E+00  0.00000000000E+00  0.70499721357E+02  0.70499721357E+02  0.00000000000E+00 0. -1.
         21   -1    0    0  502  503 -0.00000000000E+00 -0.00000000000E+00 -0.48709452891E+02  0.48709452891E+02  0.00000000000E+00 0.  1.
          2    1    1    2  501    0 -0.44450080957E+02 -0.16838110916E+02  0.45755947521E+02  0.65976802059E+02  0.00000000000E+00 0. -1.
         -2    1    1    2    0  503  0.44450080957E+02  0.16838110916E+02 -0.23965679055E+02  0.53232372189E+02  0.00000000000E+00 0.  1.
</event>
<event>
 4    1  0.1772365E+004  0.2020520E+02  0.7546771E-02  0.1530922E+00
         21   -1    0    0  503  502  0.00000000000E+00  0.00000000000E+00  0.32238789130E+02  0.32238789130E+02  0.00000000000E+00 0.  1.
         21   -1    0    0  501  503 -0.00000000000E+00 -0.00000000000E+00 -0.12744010759E+02  0.12744010759E+02  0.00000000000E+00 0. -1.
          2    1    1    2  501    0 -0.96555999248E+01  0.17748793368E+02  0.79577688560E+01  0.21715809013E+02  0.00000000000E+00 0.  1.
         -2    1    1    2    0  502  0.96555999248E+01 -0.17748793368E+02  0.11537009515E+02  0.23266990877E+02  0.00000000000E+00 0. -1.
</event>
<event>
 4    1  0.1772365E+004  0.2496442E+02  0.7546771E-02  0.1469202E+00
         21   -1    0    0  501  502  0.00000000000E+00  0.00000000000E+00  0.33848974730E+02  0.33848974730E+02  0.00000000000E+00 0. -1.
         21   -1    0    0  502  503 -0.00000000000E+00 -0.00000000000E+00 -0.22626306981E+02  0.22626306981E+02  0.00000000000E+00 0.  1.
          2    1    1    2  501    0 -0.19052786235E+02  0.16131138340E+02  0.17798207882E+02  0.30659394829E+02  0.00000000000E+00 0. -1.
         -2    1    1    2    0  503  0.19052786235E+02 -0.16131138340E+02 -0.65755401329E+01  0.25815886882E+02  0.00000000000E+00 0.  1.
</event>
<event>
 4    1  0.1772365E+004  0.3091790E+02  0.7546771E-02  0.1411784E+00
         21   -1    0    0  503  502  0.00000000000E+00  0.00000000000E+00  0.11600471486E+02  0.11600471486E+02  0.00000000000E+00 0. -1.
         21   -1    0    0  501  503 -0.00000000000E+00 -0.00000000000E+00 -0.13279250795E+03  0.13279250795E+03  0.00000000000E+00 0.  1.
          2    1    1    2  501    0 -0.24206332331E+02  0.19234600943E+02 -0.10506921358E+03  0.10952376929E+03  0.00000000000E+00 0.  1.
         -2    1    1    2    0  502  0.24206332331E+02 -0.19234600943E+02 -0.16122822889E+02  0.34869210147E+02  0.00000000000E+00 0. -1.
</event>
<event>
 4    1  0.1772365E+004  0.3237713E+02  0.7546771E-02  0.1400004E+00
         21   -1    0    0  501  502  0.00000000000E+00  0.00000000000E+00  0.71252797788E+01  0.71252797788E+01  0.00000000000E+00 0. -1.
         21   -1    0    0  502  503 -0.00000000000E+00 -0.00000000000E+00 -0.16793040988E+03  0.16793040988E+03  0.00000000000E+00 0.  1.
          2    1    1    2  501    0 -0.80000244694E+01  0.31373202554E+02 -0.49591158399E+02  0.59224667339E+02  0.00000000000E+00 0. -1.
         -2    1    1    2    0  503  0.80000244694E+01 -0.31373202554E+02 -0.11121397170E+03  0.11583102232E+03  0.00000000000E+00 0.  1.
</event>
<event>
 4    1  0.1772365E+004  0.3408163E+02  0.7546771E-02  0.1387137E+00
         21   -1    0    0  503  502  0.00000000000E+00  0.00000000000E+00  0.20918679355E+02  0.20918679355E+02  0.00000000000E+00 0.  1.
         21   -1    0    0  501  503 -0.00000000000E+00 -0.00000000000E+00 -0.12175276232E+03  0.12175276232E+03  0.00000000000E+00 0. -1.
          2    1    1    2  501    0 -0.32089465676E+02 -0.11481441435E+02 -0.10302848490E+03  0.10851924256E+03  0.00000000000E+00 0. -1.
         -2    1    1    2    0  502  0.32089465676E+02  0.11481441435E+02  0.21944019328E+01  0.34152199119E+02  0.00000000000E+00 0.  1.
</event>
<event>
 4    1  0.1772365E+004  0.2199671E+02  0.7546771E-02  0.1505496E+00
         21   -1    0    0  501  502  0.00000000000E+00  0.00000000000E+00  0.10234254340E+03  0.10234254340E+03  0.00000000000E+00 0.  1.
         21   -1    0    0  502  503 -0.00000000000E+00 -0.00000000000E+00 -0.64183051188E+01  0.64183051188E+01  0.00000000000E+00 0. -1.
          2    1    1    2  501    0 -0.10325274990E+02 -0.19422771126E+02  0.75870865210E+02  0.78995212067E+02  0.00000000000E+00 0.  1.
         -2    1    1    2    0  503  0.10325274990E+02  0.19422771126E+02  0.20053373072E+02  0.29765636452E+02  0.00000000000E+00 0. -1.
</event>
<event>
 4    1  0.1772365E+004  0.2164881E+02  0.7546771E-02  0.1510200E+00
         21   -1    0    0  501  502  0.00000000000E+00  0.00000000000E+00  0.31760021268E+01  0.31760021268E+01  0.00000000000E+00 0.  1.
         21   -1    0    0  502  503 -0.00000000000E+00 -0.00000000000E+00 -0.40252504717E+03  0.40252504717E+03  0.00000000000E+00 0. -1.
          2    1    1    2  501    0  0.21005290907E+02  0.52391508504E+01 -0.38233231737E+02  0.43936897441E+02  0.00000000000E+00 0.  1.
         -2    1    1    2    0  503 -0.21005290907E+02 -0.52391508504E+01 -0.36111581330E+03  0.36176415185E+03  0.00000000000E+00 0. -1.
</event>
<event>
 4    1  0.1772365E+004  0.2249070E+02  0.7546771E-02  0.1498994E+00
         21   -1    0    0  501  502  0.00000000000E+00  0.00000000000E+00  0.15042159190E+02  0.15042159190E+02  0.00000000000E+00 0. -1.
         21   -1    0    0  502  503 -0.00000000000E+00 -0.00000000000E+00 -0.54400845821E+02  0.54400845821E+02  0.00000000000E+00 0.  1.
          2    1    1    2  501    0  0.21107528710E+02  0.77655458207E+01  0.17766207224E+01  0.22560759104E+02  0.00000000000E+00 0. -1.
         -2    1    1    2    0  503 -0.21107528710E+02 -0.77655458207E+01 -0.41135307354E+02  0.46882245907E+02  0.00000000000E+00 0.  1.
</event>
<event>
 4    1  0.1772365E+004  0.5013228E+02  0.7546771E-02  0.1297600E+00
         21   -1    0    0  501  502  0.00000000000E+00  0.00000000000E+00  0.20540136988E+02  0.20540136988E+02  0.00000000000E+00 0.  1.
         21   -1    0    0  502  503 -0.00000000000E+00 -0.00000000000E+00 -0.22129842467E+03  0.22129842467E+03  0.00000000000E+00 0. -1.
          2    1    1    2  501    0  0.42125851774E+02  0.27178261117E+02 -0.19526580360E+02  0.53800860640E+02  0.00000000000E+00 0.  1.
         -2    1    1    2    0  503 -0.42125851774E+02 -0.27178261117E+02 -0.18123170732E+03  0.18803770102E+03  0.00000000000E+00 0. -1.
</event>
<event>
 4    1  0.1772365E+004  0.2884206E+02  0.7546771E-02  0.1429933E+00
         21   -1    0    0  501  502  0.00000000000E+00  0.00000000000E+00  0.52682735834E+00  0.52682735834E+00  0.00000000000E+00 0.  1.
         21   -1    0    0  502  503 -0.00000000000E+00 -0.00000000000E+00 -0.21345657158E+04  0.21345657158E+04  0.00000000000E+00 0. -1.
          2    1    1    2  501    0 -0.24641677810E+02 -0.14988408254E+02 -0.52239579591E+03  0.52319139161E+03  0.00000000000E+00 0.  1.
         -2    1    1    2    0  503  0.24641677810E+02  0.14988408254E+02 -0.16116430926E+04  0.16119011516E+04  0.00000000000E+00 0. -1.
</event>
<event>
 4    1  0.1772365E+004  0.2328593E+02  0.7546771E-02  0.1488939E+00
         21   -1    0    0  501  502  0.00000000000E+00  0.00000000000E+00  0.48361348582E+02  0.48361348582E+02  0.00000000000E+00 0. -1.
         21   -1    0    0  502  503 -0.00000000000E+00 -0.00000000000E+00 -0.11773615591E+02  0.11773615591E+02  0.00000000000E+00 0.  1.
          2    1    1    2  501    0  0.23283169475E+02 -0.35863856312E+00  0.24859920409E+02  0.34062446259E+02  0.00000000000E+00 0.  1.
         -2    1    1    2    0  503 -0.23283169475E+02  0.35863856312E+00  0.11727812582E+02  0.26072517914E+02  0.00000000000E+00 0. -1.
</event>
<event>
 4    1  0.1772365E+004  0.2066073E+02  0.7546771E-02  0.1524164E+00
         21   -1    0    0  503  502  0.00000000000E+00  0.00000000000E+00  0.52323075171E+01  0.52323075171E+01  0.00000000000E+00 0.  1.
         21   -1    0    0  501  503 -0.00000000000E+00 -0.00000000000E+00 -0.10542201032E+03  0.10542201032E+03  0.00000000000E+00 0. -1.
          2    1    1    2  501    0 -0.20654189207E+02 -0.51975306181E+00 -0.76404784225E+02  0.79148952788E+02  0.00000000000E+00 0. -1.
         -2    1    1    2    0  502  0.20654189207E+02  0.51975306181E+00 -0.23784918577E+02  0.31505365047E+02  0.00000000000E+00 0.  1.
</event>
<event>
 4    1  0.1772365E+004  0.2242498E+02  0.7546771E-02  0.1499848E+00
         21   -1    0    0  501  502  0.00000000000E+00  0.00000000000E+00  0.65700919056E+02  0.65700919056E+02  0.00000000000E+00 0. -1.
         21   -1    0    0  502  503 -0.00000000000E+00 -0.00000000000E+00 -0.18614395295E+02  0.18614395295E+02  0.00000000000E+00 0.  1.
          2    1    1    2  501    0  0.22424553295E+02 -0.13896565243E+00  0.55892464667E+02  0.60223313662E+02  0.00000000000E+00 0. -1.
         -2    1    1    2    0  503 -0.22424553295E+02  0.13896565243E+00 -0.88059409062E+01  0.24092000689E+02  0.00000000000E+00 0.  1.
</event>
<event>
 4    1  0.1772365E+004  0.2170179E+02  0.7546771E-02  0.1509477E+00
         21   -1    0    0  501  502  0.00000000000E+00  0.00000000000E+00  0.35937679575E+02  0.35937679575E+02  0.00000000000E+00 0.  1.
         21   -1    0    0  502  503 -0.00000000000E+00 -0.00000000000E+00 -0.18735796120E+02  0.18735796120E+02  0.00000000000E+00 0. -1.
          2    1    1    2  501    0 -0.99383355742E+00  0.21679020492E+02  0.23587118536E+02  0.32051829830E+02  0.00000000000E+00 0.  1.
         -2    1    1    2    0  503  0.99383355742E+00 -0.21679020492E+02 -0.63852350810E+01  0.22621645865E+02  0.00000000000E+00 0. -1.
</event>
<event>
 4    1  0.1772365E+004  0.2377521E+02  0.7546771E-02  0.1482987E+00
         21   -1    0    0  503  502  0.00000000000E+00  0.00000000000E+00  0.19655871918E+02  0.19655871918E+02  0.00000000000E+00 0. -1.
         21   -1    0    0  501  503 -0.00000000000E+00 -0.00000000000E+00 -0.53550578731E+02  0.53550578731E+02  0.00000000000E+00 0.  1.
          2    1    1    2  501    0 -0.20258563275E+02  0.12443923015E+02 -0.41853092822E+02  0.48134623555E+02  0.00000000000E+00 0.  1.
         -2    1    1    2    0  502  0.20258563275E+02 -0.12443923015E+02  0.79583860092E+01  0.25071827094E+02  0.00000000000E+00 0. -1.
</event>
<event>
 4    1  0.1772365E+004  0.2050199E+02  0.7546771E-02  0.1526495E+00
         21   -1    0    0  501  502  0.00000000000E+00  0.00000000000E+00  0.10774241621E+02  0.10774241621E+02  0.00000000000E+00 0. -1.
         21   -1    0    0  502  503 -0.00000000000E+00 -0.00000000000E+00 -0.61080728538E+02  0.61080728538E+02  0.00000000000E+00 0.  1.
          2    1    1    2  501    0  0.32957235621E+00  0.20499338029E+02 -0.35580453288E+01  0.20808439734E+02  0.00000000000E+00 0. -1.
         -2    1    1    2    0  503 -0.32957235621E+00 -0.20499338029E+02 -0.46748441588E+02  0.51046530426E+02  0.00000000000E+00 0.  1.
</event>
<event>
 4    1  0.1772365E+004  0.2653819E+02  0.7546771E-02  0.1452303E+00
         21   -1    0    0  501  502  0.00000000000E+00  0.00000000000E+00  0.80750273258E+01  0.80750273258E+01  0.00000000000E+00 0. -1.
         21   -1    0    0  502  503 -0.00000000000E+00 -0.00000000000E+00 -0.88625295559E+02  0.88625295559E+02  0.00000000000E+00 0.  1.
          2    1    1    2  501    0  0.25918504597E+02 -0.57014565114E+01 -0.46371143437E+02  0.53428067816E+02  0.00000000000E+00 0.  1.
         -2    1    1    2    0  503 -0.25918504597E+02  0.57014565114E+01 -0.34179124796E+02  0.43272255069E+02  0.00000000000E+00 0. -1.
</event>
<event>
 4    1  0.1772365E+004  0.2529259E+02  0.7546771E-02  0.1465557E+00
         21   -1    0    0  501  502  0.00000000000E+00  0.00000000000E+00  0.12608386895E+03  0.12608386895E+03  0.00000000000E+00 0. -1.
         21   -1    0    0  502  503 -0.00000000000E+00 -0.00000000000E+00 -0.12846446050E+02  0.12846446050E+02  0.00000000000E+00 0.  1.
          2    1    1    2  501    0 -0.30647630365E+01 -0.25106218099E+02  0.11065208071E+03  0.11350593784E+03  0.00000000000E+00 0. -1.
         -2    1    1    2    0  503  0.30647630365E+01  0.25106218099E+02  0.25853421901E+01  0.25424377160E+02  0.00000000000E+00 0.  1.
</event>
<event>
 4    1  0.1772365E+004  0.4538774E+02  0.7546771E-02  0.1319512E+00
         21   -1    0    0  501  502  0.00000000000E+00  0.00000000000E+00  0.14470508314E+03  0.14470508314E+03  0.00000000000E+00 0. -1.
         21   -1    0    0  502  503 -0.00000000000E+00 -0.00000000000E+00 -0.14938814632E+02  0.14938814632E+02  0.00000000000E+00 0.  1.
          2    1    1    2  501    0 -0.29572046922E+02  0.34431682154E+02  0.82194486312E+02  0.93893451716E+02  0.00000000000E+00 0. -1.
         -2    1    1    2    0  503  0.29572046922E+02 -0.34431682154E+02  0.47571782196E+02  0.65750446055E+02  0.00000000000E+00 0.  1.
</event>
<event>
 4    1  0.1772365E+004  0.2582546E+02  0.7546771E-02  0.1459777E+00
         21   -1    0    0  501  502  0.00000000000E+00  0.00000000000E+00  0.26612363504E+01  0.26612363504E+01  0.00000000000E+00 0. -1.
         21   -1    0    0  502  503 -0.00000000000E+00 -0.00000000000E+00 -0.29366518868E+03  0.29366518868E+03  0.00000000000E+00 0.  1.
          2    1    1    2  501    0 -0.11222291816E+02 -0.23259717178E+02 -0.88775537952E+02  0.92455667298E+02  0.00000000000E+00 0. -1.
         -2    1    1    2    0  503  0.11222291816E+02  0.23259717178E+02 -0.20222841437E+03  0.20387075773E+03  0.00000000000E+00 0.  1.
</event>
<event>
 4    1  0.1772365E+004  0.3494057E+02  0.7546771E-02  0.1380981E+00
         21   -1    0    0  501  502  0.00000000000E+00  0.00000000000E+00  0.26256046579E+01  0.26256046579E+01  0.00000000000E+00 0.  1.
         21   -1    0    0  502  503 -0.00000000000E+00 -0.00000000000E+00 -0.12231646740E+04  0.12231646740E+04  0.00000000000E+00 0. -1.
          2    1    1    2  501    0 -0.31907576225E+02 -0.14239034413E+02 -0.12773064771E+03  0.13242341895E+03  0.00000000000E+00 0.  1.
         -2    1    1    2    0  503  0.31907576225E+02  0.14239034413E+02 -0.10928084216E+04  0.10933668597E+04  0.00000000000E+00 0. -1.
</event>
<event>
 4    1  0.1772365E+004  0.2834709E+02  0.7546771E-02  0.1434526E+00
         21   -1    0    0  503  502  0.00000000000E+00  0.00000000000E+00  0.17505887211E+03  0.17505887211E+03  0.00000000000E+00 0. -1.
         21   -1    0    0  501  503 -0.00000000000E+00 -0.00000000000E+00 -0.77697091991E+01  0.77697091991E+01  0.00000000000E+00 0.  1.
          2    1    1    2  501    0  0.16548086358E+02 -0.23015614697E+02  0.25166811897E+02  0.37906808136E+02  0.00000000000E+00 0.  1.
         -2    1    1    2    0  502 -0.16548086358E+02  0.23015614697E+02  0.14212235101E+03  0.14492177317E+03  0.00000000000E+00 0. -1.
</event>
<event>
 4    1  0.1772365E+004  0.3555130E+02  0.7546771E-02  0.1376728E+00
         21   -1    0    0  503  502  0.00000000000E+00  0.00000000000E+00  0.11137485378E+04  0.11137485378E+04  0.00000000000E+00 0.  1.
         21   -1    0    0  501  503 -0.00000000000E+00 -0.00000000000E+00 -0.90128699992E+01  0.90128699992E+01  0.00000000000E+00 0. -1.
          2    1    1    2  501    0  0.35093976654E+02  0.56839960938E+01  0.27517450165E+02  0.44956702198E+02  0.00000000000E+00 0. -1.
         -2    1    1    2    0  502 -0.35093976654E+02 -0.56839960938E+01  0.10772182177E+04  0.10778047056E+04  0.00000000000E+00 0.  1.
</event>
<event>
 4    1  0.1772365E+004  0.2058929E+02  0.7546771E-02  0.1525210E+00
         21   -1    0    0  503  502  0.00000000000E+00  0.00000000000E+00  0.19511447929E+01  0.19511447929E+01  0.00000000000E+00 0. -1.
         21   -1    0    0  501  503 -0.00000000000E+00 -0.00000000000E+00 -0.32618260357E+03  0.32618260357E+03  0.00000000000E+00 0.  1.
          2    1    1    2  501    0  0.22640093121E+01 -0.20464438596E+02 -0.25692175849E+03  0.25774543444E+03  0.00000000000E+00 0.  1.
         -2    1    1    2    0  502 -0.22640093121E+01  0.20464438596E+02 -0.67309700286E+02  0.70388313929E+02  0.00000000000E+00 0. -1.
</event>
<event>
 4    1  0.1772365E+004  0.2487755E+02  0.7546771E-02  0.1470178E+00
         21   -1    0    0  501  502  0.00000000000E+00  0.00000000000E+00  0.30993106976E+03  0.30993106976E+03  0.00000000000E+00 0.  1.
         21   -1    0    0  502  503 -0.00000000000E+00 -0.00000000000E+00 -0.31799856865E+01  0.31799856865E+01  0.00000000000E+00 0. -1.
          2    1    1    2  501    0  0.24834830713E+02  0.14572701280E+01  0.24886802695E+03  0.25010835110E+03  0.00000000000E+00 0.  1.
         -2    1    1    2    0  503 -0.24834830713E+02 -0.14572701280E+01  0.57883057120E+02  0.63002704341E+02  0.00000000000E+00 0. -1.
</event>
<event>
 4    1  0.1772365E+004  0.2774651E+02  0.7546771E-02  0.1440250E+00
         21   -1    0    0  503  502  0.00000000000E+00  0.00000000000E+00  0.14350141719E+03  0.14350141719E+03  0.00000000000E+00 0.  1.
         21   -1    0    0  501  503 -0.00000000000E+00 -0.00000000000E+00 -0.84953133549E+01  0.84953133549E+01  0.00000000000E+00 0. -1.
          2    1    1    2  501    0 -0.27707712011E+02  0.14667264066E+01  0.21369548328E+02  0.35021795885E+02  0.00000000000E+00 0. -1.
         -2    1    1    2    0  502  0.27707712011E+02 -0.14667264066E+01  0.11363655551E+03  0.11697493466E+03  0.00000000000E+00 0.  1.
</event>
<event>
 4    1  0.1772365E+004  0.2148829E+02  0.7546771E-02  0.1512406E+00
         21   -1    0    0  501  502  0.00000000000E+00  0.00000000000E+00  0.26333349665E+02  0.26333349665E+02  0.00000000000E+00 0.  1.
         21   -1    0    0  502  503 -0.00000000000E+00 -0.00000000000E+00 -0.19647805742E+02  0.19647805742E+02  0.00000000000E+00 0. -1.
          2    1    1    2  501    0 -0.19639633551E+02 -0.87196057620E+01  0.10882506067E+02  0.24086836009E+02  0.00000000000E+00 0.  1.
         -2    1    1    2    0  503  0.19639633551E+02  0.87196057620E+01 -0.41969621441E+01  0.21894319398E+02  0.00000000000E+00 0. -1.
</event>
<event>
 4    1  0.1772365E+004  0.2045377E+02  0.7546771E-02  0.1527208E+00
         21   -1    0    0  503  502  0.00000000000E+00  0.00000000000E+00  0.22772922533E+02  0.22772922533E+02  0.00000000000E+00 0.  1.
         21   -1    0    0  501  503 -0.00000000000E+00 -0.00000000000E+00 -0.19116819512E+02  0.19116819512E+02  0.00000000000E+00 0. -1.
          2    1    1    2  501    0 -0.20417195837E+02  0.12226193455E+01 -0.23095295488E+01  0.20583746273E+02  0.00000000000E+00 0. -1.
         -2    1    1    2    0  502  0.20417195837E+02 -0.12226193455E+01  0.59656325690E+01  0.21305995772E+02  0.00000000000E+00 0.  1.
</event>
<event>
 4    1  0.1772365E+004  0.2241460E+02  0.7546771E-02  0.1499983E+00
         21   -1    0    0  501  502  0.00000000000E+00  0.00000000000E+00  0.39429093876E+02  0.39429093876E+02  0.00000000000E+00 0. -1.
         21   -1    0    0  502  503 -0.00000000000E+00 -0.00000000000E+00 -0.23875613728E+02  0.23875613728E+02  0.00000000000E+00 0.  1.
          2    1    1    2  501    0  0.18684526692E+02 -0.12381548234E+02  0.29391105072E+02  0.36962837171E+02  0.00000000000E+00 0. -1.
         -2    1    1    2    0  503 -0.18684526692E+02  0.12381548234E+02 -0.13837624924E+02  0.26341870433E+02  0.00000000000E+00 0.  1.
</event>
<event>
 4    1  0.1772365E+004  0.3891567E+02  0.7546771E-02  0.1354960E+00
         21   -1    0    0  503  502  0.00000000000E+00  0.00000000000E+00  0.11585764471E+02  0.11585764471E+02  0.00000000000E+00 0.  1.
         21   -1    0    0  501  503 -0.00000000000E+00 -0.00000000000E+00 -0.22794717890E+03  0.22794717890E+03  0.00000000000E+00 0. -1.
          2    1    1    2  501    0  0.38913750340E+02 -0.38675882209E+00 -0.29959618171E+02  0.49112200814E+02  0.00000000000E+00 0.  1.
         -2    1    1    2    0  502 -0.38913750340E+02  0.38675882209E+00 -0.18640179626E+03  0.19042074256E+03  0.00000000000E+00 0. -1.
</event>
<event>
 4    1  0.1772365E+004  0.2448071E+02  0.7546771E-02  0.1474697E+00
         21   -1    0    0  503  502  0.00000000000E+00  0.00000000000E+00  0.51329804091E+01  0.51329804091E+01  0.00000000000E+00 0.  1.
         21   -1    0    0  501  503 -0.00000000000E+00 -0.00000000000E+00 -0.23020046652E+03  0.23020046652E+03  0.00000000000E+00 0. -1.
          2    1    1    2  501    0  0.24388189333E+02 -0.21263637507E+01 -0.19513613320E+03  0.19666574608E+03  0.00000000000E+00 0. -1.
         -2    1    1    2    0  502 -0.24388189333E+02  0.21263637507E+01 -0.29931352912E+02  0.38667700848E+02  0.00000000000E+00 0.  1.
</event>
<event>
 4    1  0.1772365E+004  0.4130675E+02  0.7546771E-02  0.1340994E+00
         21   -1    0    0  503  502  0.00000000000E+00  0.00000000000E+00  0.71402636175E+03  0.71402636175E+03  0.00000000000E+00 0. -1.
         21   -1    0    0  501  503 -0.00000000000E+00 -0.00000000000E+00 -0.10006378093E+02  0.10006378093E+02  0.00000000000E+00 0.  1.
          2    1    1    2  501    0  0.32158710997E+02 -0.25924220203E+02  0.36164278179E+02  0.54900846098E+02  0.00000000000E+00 0.  1.
         -2    1    1    2    0  502 -0.32158710997E+02  0.25924220203E+02  0.66785570548E+03  0.66913189375E+03  0.00000000000E+00 0. -1.
</event>
<event>
 4    1  0.1772365E+004  0.2170860E+02  0.7546771E-02  0.1509384E+00
         21   -1    0    0  501  502  0.00000000000E+00  0.00000000000E+00  0.37121077754E+02  0.37121077754E+02  0.00000000000E+00 0.  1.
         21   -1    0    0  502  503 -0.00000000000E+00 -0.00000000000E+00 -0.54742222617E+02  0.54742222617E+02  0.00000000000E+00 0. -1.
          2    1    1    2  501    0  0.96437652720E+01  0.19448940314E+02  0.31444249111E+02  0.38210002488E+02  0.00000000000E+00 0.  1.
         -2    1    1    2    0  503 -0.96437652720E+01 -0.19448940314E+02 -0.49065393974E+02  0.53653297884E+02  0.00000000000E+00 0. -1.
</event>
<event>
 4    1  0.1772365E+004  0.3087924E+02  0.7546771E-02  0.1412106E+00
         21   -1    0    0  503  502  0.00000000000E+00  0.00000000000E+00  0.15851041900E+04  0.15851041900E+04  0.00000000000E+00 0.  1.
         21   -1    0    0  501  503 -0.00000000000E+00 -0.00000000000E+00 -0.67316291141E+00  0.67316291141E+00  0.00000000000E+00 0. -1.
          2    1    1    2  501    0  0.28148635927E+02  0.12695747590E+02  0.53361347774E+03  0.53450619392E+03  0.00000000000E+00 0. -1.
         -2    1    1    2    0  502 -0.28148635927E+02 -0.12695747590E+02  0.10508175494E+04  0.10512711590E+04  0.00000000000E+00 0.  1.
</event>
<event>
 4    1  0.1772365E+004  0.2461965E+02  0.7546771E-02  0.1473104E+00
         21   -1    0    0  503  502  0.00000000000E+00  0.00000000000E+00  0.43245745214E+01  0.43245745214E+01  0.00000000000E+00 0.  1.
         21   -1    0    0  501  503 -0.00000000000E+00 -0.00000000000E+00 -0.27724910639E+03  0.27724910639E+03  0.00000000000E+00 0. -1.
          2    1    1    2  501    0  0.24092372692E+02  0.50680033563E+01 -0.23546117151E+03  0.23674477897E+03  0.00000000000E+00 0. -1.
         -2    1    1    2    0  502 -0.24092372692E+02 -0.50680033563E+01 -0.37463360352E+02  0.44828901936E+02  0.00000000000E+00 0.  1.
</event>
<event>
 4    1  0.1772365E+004  0.3773875E+02  0.7546771E-02  0.1362272E+00
         21   -1    0    0  501  502  0.00000000000E+00  0.00000000000E+00  0.66120190005E+01  0.66120190005E+01  0.00000000000E+00 0. -1.
         21   -1    0    0  502  503 -0.00000000000E+00 -0.00000000000E+00 -0.22142111122E+03  0.22142111122E+03  0.00000000000E+00 0.  1.
          2    1    1    2  501    0 -0.22478416335E+01 -0.37671747075E+02 -0.12620990772E+03  0.13173137108E+03  0.00000000000E+00 0. -1.
         -2    1    1    2    0  503  0.22478416335E+01  0.37671747075E+02 -0.88599184494E+02  0.96301759136E+02  0.00000000000E+00 0.  1.
</event>
<event>
 4    1  0.1772365E+004  0.2087580E+02  0.7546771E-02  0.1521046E+00
         21   -1    0    0  501  502  0.00000000000E+00  0.00000000000E+00  0.46919145667E+02  0.46919145667E+02  0.00000000000E+00 0. -1.
         21   -1    0    0  502  503 -0.00000000000E+00 -0.00000000000E+00 -0.94827645053E+01  0.94827645053E+01  0.00000000000E+00 0.  1.
          2    1    1    2  501    0 -0.15098058319E+02  0.14416918720E+02  0.22756699400E+02  0.30881487625E+02  0.00000000000E+00 0. -1.
         -2    1    1    2    0  503  0.15098058319E+02 -0.14416918720E+02  0.14679681762E+02  0.25520422547E+02  0.00000000000E+00 0.  1.
</event>
<event>
 4    1  0.1772365E+004  0.2448979E+02  0.7546771E-02  0.1474593E+00
         21   -1    0    0  503  502  0.00000000000E+00  0.00000000000E+00  0.51372450665E+02  0.51372450665E+02  0.00000000000E+00 0. -1.
         21   -1    0    0  501  503 -0.00000000000E+00 -0.00000000000E+00 -0.20586431014E+02  0.20586431014E+02  0.00000000000E+00 0.  1.
          2    1    1    2  501    0  0.17787080194E+02 -0.16833581539E+02 -0.82797467221E+01  0.25851574324E+02  0.00000000000E+00 0.  1.
         -2    1    1    2    0  502 -0.17787080194E+02  0.16833581539E+02  0.39065766373E+02  0.46107307355E+02  0.00000000000E+00 0. -1.
</event>
<event>
 4    1  0.1772365E+004  0.2107579E+02  0.7546771E-02  0.1518185E+00
         21   -1    0    0  503  502  0.00000000000E+00  0.00000000000E+00  0.49766972380E+01  0.49766972380E+01  0.00000000000E+00 0. -1.
         21   -1    0    0  501  503 -0.00000000000E+00 -0.00000000000E+00 -0.26776291794E+03  0.26776291794E+03  0.00000000000E+00 0.  1.
          2    1    1    2  501    0  0.20569308244E+02 -0.45926351415E+01 -0.24273877491E+03  0.24365200920E+03  0.00000000000E+00 0.  1.
         -2    1    1    2    0  502 -0.20569308244E+02  0.45926351415E+01 -0.20047445794E+02  0.29087605986E+02  0.00000000000E+00 0. -1.
</event>
<event>
 4    1  0.1772365E+004  0.2945603E+02  0.7546771E-02  0.1424383E+00
         21   -1    0    0  501  502  0.00000000000E+00  0.00000000000E+00  0.13361978885E+02  0.13361978885E+02  0.00000000000E+00 0.  1.
         21   -1    0    0  502  503 -0.00000000000E+00 -0.00000000000E+00 -0.11576142005E+03  0.11576142005E+03  0.00000000000E+00 0. -1.
          2    1    1    2  501    0  0.10485732110E+02 -0.27526481537E+02 -0.84199414166E+01  0.30635815268E+02  0.00000000000E+00 0.  1.
         -2    1    1    2    0  503 -0.10485732110E+02  0.27526481537E+02 -0.93979499745E+02  0.98487583664E+02  0.00000000000E+00 0. -1.
</event>
<event>
 4    1  0.1772365E+004  0.2185361E+02  0.7546771E-02  0.1507418E+00
         21   -1    0    0  501  502  0.00000000000E+00  0.00000000000E+00  0.35097235892E+01  0.35097235892E+01  0.00000000000E+00 0.  1.
         21   -1    0    0  502  503 -0.00000000000E+00 -0.00000000000E+00 -0.16816008198E+03  0.16816008198E+03  0.00000000000E+00 0. -1.
          2    1    1    2  501    0 -0.11878105694E+02 -0.18343685016E+02 -0.11981942086E+03  0.12179603356E+03  0.00000000000E+00 0. -1.
         -2    1    1    2    0  503  0.11878105694E+02  0.18343685016E+02 -0.44830937525E+02  0.49873772007E+02  0.00000000000E+00 0.  1.
</event>
<event>
 4    1  0.1772365E+004  0.2744915E+02  0.7546771E-02  0.1443148E+00
         21   -1    0    0  503  502  0.00000000000E+00  0.00000000000E+00  0.13181133638E+01  0.13181133638E+01  0.00000000000E+00 0. -1.
         21   -1    0    0  501  503 -0.00000000000E+00 -0.00000000000E+00 -0.10307110750E+04  0.10307110750E+04  0.00000000000E+00 0.  1.
          2    1    1    2  501    0 -0.43825576228E+01  0.27097026212E+02 -0.85908168824E+03  0.85952010024E+03  0.00000000000E+00 0.  1.
         -2    1    1    2    0  502  0.43825576228E+01 -0.27097026212E+02 -0.17031127341E+03  0.17250908814E+03  0.00000000000E+00 0. -1.
</event>
<event>
 4    1  0.1772365E+004  0.2073131E+02  0.7546771E-02  0.1523136E+00
         21   -1    0    0  501  502  0.00000000000E+00  0.00000000000E+00  0.31423571702E+02  0.31423571702E+02  0.00000000000E+00 0. -1.
         21   -1    0    0  502  503 -0.00000000000E+00 -0.00000000000E+00 -0.68650701173E+02  0.68650701173E+02  0.00000000000E+00 0.  1.
          2    1    1    2  501    0  0.57667999068E+01  0.19913087122E+02  0.26162568802E+02  0.33380638493E+02  0.00000000000E+00 0. -1.
         -2    1    1    2    0  503 -0.57667999068E+01 -0.19913087122E+02 -0.63389698274E+02  0.66693634382E+02  0.00000000000E+00 0.  1.
</event>
<event>
 4    1  0.1772365E+004  0.2403208E+02  0.7546771E-02  0.1479930E+00
         21   -1    0    0  501  502  0.00000000000E+00  0.00000000000E+00  0.77363191526E+00  0.77363191526E+00  0.00000000000E+00 0. -1.
         21   -1    0    0  502  503 -0.00000000000E+00 -0.00000000000E+00 -0.74748723314E+03  0.74748723314E+03  0.00000000000E+00 0.  1.
          2    1    1    2  501    0 -0.23440964182E+02  0.52973550876E+01 -0.35998046929E+03  0.36078176096E+03  0.00000000000E+00 0. -1.
         -2    1    1    2    0  503  0.23440964182E+02 -0.52973550876E+01 -0.38673313194E+03  0.38747910409E+03  0.00000000000E+00 0.  1.
</event>
<event>
 4    1  0.1772365E+004  0.2088857E+02  0.7546771E-02  0.1520862E+00
         21   -1    0    0  501  502  0.00000000000E+00  0.00000000000E+00  0.11786600371E+02  0.11786600371E+02  0.00000000000E+00 0. -1.
         21   -1    0    0  502  503 -0.00000000000E+00 -0.00000000000E+00 -0.37075193129E+02  0.37075193129E+02  0.00000000000E+00 0.  1.
          2    1    1    2  501    0 -0.87657526529E+01  0.18960323134E+02 -0.11696126032E+02  0.23940167858E+02  0.00000000000E+00 0. -1.
         -2    1    1    2    0  503  0.87657526529E+01 -0.18960323134E+02 -0.13592466726E+02  0.24921625642E+02  0.00000000000E+00 0.  1.
</event>
<event>
 4    1  0.1772365E+004  0.2289015E+02  0.7546771E-02  0.1493882E+00
         21   -1    0    0  501  502  0.00000000000E+00  0.00000000000E+00  0.49218611518E+01  0.49218611518E+01  0.00000000000E+00 0.  1.
         21   -1    0    0  502  503 -0.00000000000E+00 -0.00000000000E+00 -0.36795340665E+03  0.36795340665E+03  0.00000000000E+00 0. -1.
          2    1    1    2  501    0 -0.16986222757E+02 -0.15343640183E+02 -0.24345177070E+02  0.33416264067E+02  0.00000000000E+00 0.  1.
         -2    1    1    2    0  503  0.16986222757E+02  0.15343640183E+02 -0.33868636843E+03  0.33945900374E+03  0.00000000000E+00 0. -1.
</event>
<event>
 4    1  0.1772365E+004  0.2226037E+02  0.7546771E-02  0.1502001E+00
         21   -1    0    0  501  502  0.00000000000E+00  0.00000000000E+00  0.27592825216E+02  0.27592825216E+02  0.00000000000E+00 0.  1.
         21   -1    0    0  502  503 -0.00000000000E+00 -0.00000000000E+00 -0.22501917607E+02  0.22501917607E+02  0.00000000000E+00 0. -1.
          2    1    1    2  501    0  0.12347829627E+02 -0.18521750249E+02 -0.87095729041E+01  0.23903572723E+02  0.00000000000E+00 0. -1.
         -2    1    1    2    0  503 -0.12347829627E+02  0.18521750249E+02  0.13800480513E+02  0.26191170099E+02  0.00000000000E+00 0.  1.
</event>
<event>
 4    1  0.1772365E+004  0.2060944E+02  0.7546771E-02  0.1524915E+00
         21   -1    0    0  503  502  0.00000000000E+00  0.00000000000E+00  0.93472156987E+02  0.93472156987E+02  0.00000000000E+00 0. -1.
         21   -1    0    0  501  503 -0.00000000000E+00 -0.00000000000E+00 -0.46247270979E+01  0.46247270979E+01  0.00000000000E+00 0.  1.
          2    1    1    2  501    0 -0.19218902030E+02 -0.74419548307E+01  0.37948363274E+02  0.43183644614E+02  0.00000000000E+00 0.  1.
         -2    1    1    2    0  502  0.19218902030E+02  0.74419548307E+01  0.50899066615E+02  0.54913239471E+02  0.00000000000E+00 0. -1.
</event>
<event>
 4    1  0.1772365E+004  0.2323111E+02  0.7546771E-02  0.1489616E+00
         21   -1    0    0  501  502  0.00000000000E+00  0.00000000000E+00  0.18779003736E+02  0.18779003736E+02  0.00000000000E+00 0. -1.
         21   -1    0    0  502  503 -0.00000000000E+00 -0.00000000000E+00 -0.11586590318E+03  0.11586590318E+03  0.00000000000E+00 0.  1.
          2    1    1    2  501    0 -0.84530259334E+01 -0.21638646256E+02  0.98358563923E+01  0.25227539123E+02  0.00000000000E+00 0. -1.
         -2    1    1    2    0  503  0.84530259334E+01  0.21638646256E+02 -0.10692275583E+03  0.10941736779E+03  0.00000000000E+00 0.  1.
</event>
<event>
 4    1  0.1772365E+004  0.2354090E+02  0.7546771E-02  0.1485815E+00
         21   -1    0    0  503  502  0.00000000000E+00  0.00000000000E+00  0.13648236759E+02  0.13648236759E+02  0.00000000000E+00 0.  1.
         21   -1    0    0  501  503 -0.00000000000E+00 -0.00000000000E+00 -0.76299007197E+02  0.76299007197E+02  0.00000000000E+00 0. -1.
          2    1    1    2  501    0 -0.11019305277E+02 -0.20802616890E+02 -0.62086476176E+02  0.66399581943E+02  0.00000000000E+00 0. -1.
         -2    1    1    2    0  502  0.11019305277E+02  0.20802616890E+02 -0.56429426226E+00  0.23547662013E+02  0.00000000000E+00 0.  1.
</event>
<event>
 4    1  0.1772365E+004  0.3454149E+02  0.7546771E-02  0.1383816E+00
         21   -1    0    0  503  502  0.00000000000E+00  0.00000000000E+00  0.10482550612E+02  0.10482550612E+02  0.00000000000E+00 0.  1.
         21   -1    0    0  501  503 -0.00000000000E+00 -0.00000000000E+00 -0.30860662864E+03  0.30860662864E+03  0.00000000000E+00 0. -1.
          2    1    1    2  501    0 -0.33591315183E+02  0.80460152731E+01 -0.27581554879E+03  0.27797001955E+03  0.00000000000E+00 0. -1.
         -2    1    1    2    0  502  0.33591315183E+02 -0.80460152731E+01 -0.22308529240E+02  0.41119159699E+02  0.00000000000E+00 0.  1.
</event>
<event>
 4    1  0.1772365E+004  0.2015682E+02  0.7546771E-02  0.1531652E+00
         21   -1    0    0  501  502  0.00000000000E+00  0.00000000000E+00  0.16701911528E+03  0.16701911528E+03  0.00000000000E+00 0.  1.
         21   -1    0    0  502  503 -0.00000000000E+00 -0.00000000000E+00 -0.35268849766E+02  0.35268849766E+02  0.00000000000E+00 0. -1.
          2    1    1    2  501    0  0.12081419487E+02  0.16134952210E+02  0.16346863707E+03  0.16470668682E+03  0.00000000000E+00 0.  1.
         -2    1    1    2    0  503 -0.12081419487E+02 -0.16134952210E+02 -0.31718371548E+02  0.37581278228E+02  0.00000000000E+00 0. -1.
</event>
<event>
 4    1  0.1772365E+004  0.4667514E+02  0.7546771E-02  0.1313269E+00
         21   -1    0    0  503  502  0.00000000000E+00  0.00000000000E+00  0.93506050370E+02  0.93506050370E+02  0.00000000000E+00 0.  1.
         21   -1    0    0  501  503 -0.00000000000E+00 -0.00000000000E+00 -0.24767618348E+02  0.24767618348E+02  0.00000000000E+00 0. -1.
          2    1    1    2  501    0 -0.11985335307E+02  0.45110090302E+02  0.19967434770E+02  0.50766789940E+02  0.00000000000E+00 0. -1.
         -2    1    1    2    0  502  0.11985335307E+02 -0.45110090302E+02  0.48770997251E+02  0.67506878778E+02  0.00000000000E+00 0.  1.
</event>
<event>
 4    1  0.1772365E+004  0.2260524E+02  0.7546771E-02  0.1497516E+00
         21   -1    0    0  503  502  0.00000000000E+00  0.00000000000E+00  0.50501493850E+00  0.50501493850E+00  0.00000000000E+00 0.  1.
         21   -1    0    0  501  503 -0.00000000000E+00 -0.00000000000E+00 -0.10701200528E+04  0.10701200528E+04  0.00000000000E+00 0. -1.
          2    1    1    2  501    0 -0.20241953992E+02  0.10062811025E+02 -0.65972761281E+03  0.66011477787E+03  0.00000000000E+00 0.  1.
         -2    1    1    2    0  502  0.20241953992E+02 -0.10062811025E+02 -0.40988742509E+03  0.41051028990E+03  0.00000000000E+00 0. -1.
</event>
<event>
 4    1  0.1772365E+004  0.2222791E+02  0.7546771E-02  0.1502428E+00
         21   -1    0    0  503  502  0.00000000000E+00  0.00000000000E+00  0.11705897436E+02  0.11705897436E+02  0.00000000000E+00 0. -1.
         21   -1    0    0  501  503 -0.00000000000E+00 -0.00000000000E+00 -0.81443181124E+02  0.81443181124E+02  0.00000000000E+00 0.  1.
          2    1    1    2  501    0  0.19352403530E+02 -0.10934549051E+02 -0.67195260442E+02  0.70776287775E+02  0.00000000000E+00 0.  1.
         -2    1    1    2    0  502 -0.19352403530E+02  0.10934549051E+02 -0.25420232453E+01  0.22372790785E+02  0.00000000000E+00 0. -1.
</event>
<event>
 4    1  0.1772365E+004  0.2060240E+02  0.7546771E-02  0.1525018E+00
         21   -1    0    0  503  502  0.00000000000E+00  0.00000000000E+00  0.51478541484E+01  0.51478541484E+01  0.00000000000E+00 0. -1.
         21   -1    0    0  501  503 -0.00000000000E+00 -0.00000000000E+00 -0.16306879467E+03  0.16306879467E+03  0.00000000000E+00 0.  1.
          2    1    1    2  501    0  0.14573667528E+02  0.14562530088E+02 -0.13809784274E+03  0.13962619108E+03  0.00000000000E+00 0.  1.
         -2    1    1    2    0  502 -0.14573667528E+02 -0.14562530088E+02 -0.19823097789E+02  0.28590457740E+02  0.00000000000E+00 0. -1.
</event>
<event>
 4    1  0.1772365E+004  0.2035568E+02  0.7546771E-02  0.1528666E+00
         21   -1    0    0  501  502  0.00000000000E+00  0.00000000000E+00  0.32225142435E+02  0.32225142435E+02  0.00000000000E+00 0. -1.
         21   -1    0    0  502  503 -0.00000000000E+00 -0.00000000000E+00 -0.11133528116E+03  0.11133528116E+03  0.00000000000E+00 0.  1.
          2    1    1    2  501    0 -0.15850721332E+01  0.20293871478E+02  0.27953074027E+02  0.34579300467E+02  0.00000000000E+00 0. -1.
         -2    1    1    2    0  503  0.15850721332E+01 -0.20293871478E+02 -0.10706321275E+03  0.10898112312E+03  0.00000000000E+00 0.  1.
</event>
<event>
 4    1  0.1772365E+004  0.2308142E+02  0.7546771E-02  0.1491478E+00
         21   -1    0    0  503  502  0.00000000000E+00  0.00000000000E+00  0.50321668069E+03  0.50321668069E+03  0.00000000000E+00 0. -1.
         21   -1    0    0  501  503 -0.00000000000E+00 -0.00000000000E+00 -0.30920215934E+01  0.30920215934E+01  0.00000000000E+00 0.  1.
          2    1    1    2  501    0 -0.22875199548E+02 -0.30785388673E+01  0.44772287693E+02  0.50371717275E+02  0.00000000000E+00 0.  1.
         -2    1    1    2    0  502  0.22875199548E+02  0.30785388673E+01  0.45535237140E+03  0.45593698501E+03  0.00000000000E+00 0. -1.
</event>
<event>
 4    1  0.1772365E+004  0.3900090E+02  0.7546771E-02  0.1354442E+00
         21   -1    0    0  503  502  0.00000000000E+00  0.00000000000E+00  0.21113632757E+03  0.21113632757E+03  0.00000000000E+00 0.  1.
         21   -1    0    0  501  503 -0.00000000000E+00 -0.00000000000E+00 -0.13529093447E+02  0.13529093447E+02  0.00000000000E+00 0. -1.
          2    1    1    2  501    0  0.30778590850E+02  0.23953047598E+02  0.21997076954E+02  0.44776573546E+02  0.00000000000E+00 0. -1.
         -2    1    1    2    0  502 -0.30778590850E+02 -0.23953047598E+02  0.17561015717E+03  0.17988884747E+03  0.00000000000E+00 0.  1.
</event>
<event>
 4    1  0.1772365E+004  0.2347237E+02  0.7546771E-02  0.1486650E+00
         21   -1    0    0  503  502  0.00000000000E+00  0.00000000000E+00  0.55360911904E+01  0.55360911904E+01  0.00000000000E+00 0. -1.
         21   -1    0    0  501  503 -0.00000000000E+00 -0.00000000000E+00 -0.11540527109E+03  0.11540527109E+03  0.00000000000E+00 0.  1.
          2    1    1    2  501    0  0.19305831065E+02  0.13350553213E+02 -0.77369684229E+02  0.80851842415E+02  0.00000000000E+00 0.  1.
         -2    1    1    2    0  502 -0.19305831065E+02 -0.13350553213E+02 -0.32499495673E+02  0.40089519867E+02  0.00000000000E+00 0. -1.
</event>
<event>
 4    1  0.1772365E+004  0.2749087E+02  0.7546771E-02  0.1442739E+00
         21   -1    0    0  503  502  0.00000000000E+00  0.00000000000E+00  0.22258118021E+01  0.22258118021E+01  0.00000000000E+00 0. -1.
         21   -1    0    0  501  503 -0.00000000000E+00 -0.00000000000E+00 -0.43896318546E+03  0.43896318546E+03  0.00000000000E+00 0.  1.
          2    1    1    2  501    0  0.25000699625E+02 -0.11432968018E+02 -0.32335405659E+03  0.32452055968E+03  0.00000000000E+00 0.  1.
         -2    1    1    2    0  502 -0.25000699625E+02  0.11432968018E+02 -0.11338331707E+03  0.11666843759E+03  0.00000000000E+00 0. -1.
</event>
<event>
 4    1  0.1772365E+004  0.2978864E+02  0.7546771E-02  0.1421442E+00
         21   -1    0    0  501  502  0.00000000000E+00  0.00000000000E+00  0.49233767516E+01  0.49233767516E+01  0.00000000000E+00 0.  1.
         21   -1    0    0  502  503 -0.00000000000E+00 -0.00000000000E+00 -0.20741108726E+03  0.20741108726E+03  0.00000000000E+00 0. -1.
          2    1    1    2  501    0  0.29758782407E+02  0.13333902877E+01 -0.62813817342E+02  0.69519340539E+02  0.00000000000E+00 0.  1.
         -2    1    1    2    0  503 -0.29758782407E+02 -0.13333902877E+01 -0.13967389316E+03  0.14281512347E+03  0.00000000000E+00 0. -1.
</event>
<event>
 4    1  0.1772365E+004  0.2742232E+02  0.7546771E-02  0.1443411E+00
         21   -1    0    0  501  502  0.00000000000E+00  0.00000000000E+00  0.27877861789E+02  0.27877861789E+02  0.00000000000E+00 0. -1.
         21   -1    0    0  502  503 -0.00000000000E+00 -0.00000000000E+00 -0.47312566135E+02  0.47312566135E+02  0.00000000000E+00 0.  1.
          2    1    1    2  501    0 -0.15267676042E+02  0.22778969347E+02  0.14931812313E+02  0.31224067562E+02  0.00000000000E+00 0. -1.
         -2    1    1    2    0  503  0.15267676042E+02 -0.22778969347E+02 -0.34366516659E+02  0.43966360362E+02  0.00000000000E+00 0.  1.
</event>
<event>
 4    1  0.1772365E+004  0.2962521E+02  0.7546771E-02  0.1422882E+00
         21   -1    0    0  503  502  0.00000000000E+00  0.00000000000E+00  0.28335788978E+02  0.28335788978E+02  0.00000000000E+00 0. -1.
         21   -1    0    0  501  503 -0.00000000000E+00 -0.00000000000E+00 -0.10297428712E+03  0.10297428712E+03  0.00000000000E+00 0.  1.
          2    1    1    2  501    0 -0.29394896545E+02  0.36868918345E+01 -0.92219314504E+02  0.96861009089E+02  0.00000000000E+00 0.  1.
         -2    1    1    2    0  502  0.29394896545E+02 -0.36868918345E+01  0.17580816357E+02  0.34449067013E+02  0.00000000000E+00 0. -1.
</event>
<event>
 4    1  0.1772365E+004  0.4689420E+02  0.7546771E-02  0.1312230E+00
         21   -1    0    0  503  502  0.00000000000E+00  0.00000000000E+00  0.81851802061E+02  0.81851802061E+02  0.00000000000E+00 0.  1.
         21   -1    0    0  501  503 -0.00000000000E+00 -0.00000000000E+00 -0.13626606427E+03  0.13626606427E+03  0.00000000000E+00 0. -1.
          2    1    1    2  501    0 -0.27185940481E+02 -0.38209822581E+02 -0.12492529975E+03  0.13343686305E+03  0.00000000000E+00 0. -1.
         -2    1    1    2    0  502  0.27185940481E+02  0.38209822581E+02  0.70511037544E+02  0.84681003283E+02  0.00000000000E+00 0.  1.
</event>
<event>
 4    1  0.1772365E+004  0.2056218E+02  0.7546771E-02  0.1525608E+00
         21   -1    0    0  503  502  0.00000000000E+00  0.00000000000E+00  0.49962831938E+02  0.49962831938E+02  0.00000000000E+00 0. -1.
         21   -1    0    0  501  503 -0.00000000000E+00 -0.00000000000E+00 -0.79880986231E+02  0.79880986231E+02  0.00000000000E+00 0.  1.
          2    1    1    2  501    0  0.20204922977E+02 -0.38163390828E+01 -0.76345923960E+02  0.79066449659E+02  0.00000000000E+00 0.  1.
         -2    1    1    2    0  502 -0.20204922977E+02  0.38163390828E+01  0.46427769667E+02  0.50777368509E+02  0.00000000000E+00 0. -1.
</event>
<event>
 4    1  0.1772365E+004  0.2270815E+02  0.7546771E-02  0.1496196E+00
         21   -1    0    0  503  502  0.00000000000E+00  0.00000000000E+00  0.92277816856E+02  0.92277816856E+02  0.00000000000E+00 0. -1.
         21   -1    0    0  501  503 -0.00000000000E+00 -0.00000000000E+00 -0.15525853088E+02  0.15525853088E+02  0.00000000000E+00 0.  1.
          2    1    1    2  501    0 -0.22417352906E+02 -0.36224698152E+01 -0.47480504602E+01  0.23199223738E+02  0.00000000000E+00 0.  1.
         -2    1    1    2    0  502  0.22417352906E+02  0.36224698152E+01  0.81500014228E+02  0.84604446207E+02  0.00000000000E+00 0. -1.
</event>
<event>
 4    1  0.1772365E+004  0.2072530E+02  0.7546771E-02  0.1523223E+00
         21   -1    0    0  501  502  0.00000000000E+00  0.00000000000E+00  0.22325028153E+03  0.22325028153E+03  0.00000000000E+00 0.  1.
         21   -1    0    0  502  503 -0.00000000000E+00 -0.00000000000E+00 -0.34085136370E+01  0.34085136370E+01  0.00000000000E+00 0. -1.
          2    1    1    2  501    0  0.12234132108E+02 -0.16729141669E+02  0.18471184706E+03  0.18587093537E+03  0.00000000000E+00 0.  1.
         -2    1    1    2    0  503 -0.12234132108E+02  0.16729141669E+02  0.35129920831E+02  0.40787859799E+02  0.00000000000E+00 0. -1.
</event>
<event>
 4    1  0.1772365E+004  0.2183649E+02  0.7546771E-02  0.1507649E+00
         21   -1    0    0  503  502  0.00000000000E+00  0.00000000000E+00  0.89617482574E+01  0.89617482574E+01  0.00000000000E+00 0. -1.
         21   -1    0    0  501  503 -0.00000000000E+00 -0.00000000000E+00 -0.11500266188E+03  0.11500266188E+03  0.00000000000E+00 0.  1.
          2    1    1    2  501    0  0.58383217293E+00  0.21828686207E+02 -0.98455426468E+02  0.10084792215E+03  0.00000000000E+00 0.  1.
         -2    1    1    2    0  502 -0.58383217293E+00 -0.21828686207E+02 -0.75854871593E+01  0.23116487989E+02  0.00000000000E+00 0. -1.
</event>
<event>
 4    1  0.1772365E+004  0.3951192E+02  0.7546771E-02  0.1351370E+00
         21   -1    0    0  501  502  0.00000000000E+00  0.00000000000E+00  0.50324679691E+02  0.50324679691E+02  0.00000000000E+00 0. -1.
         21   -1    0    0  502  503 -0.00000000000E+00 -0.00000000000E+00 -0.16791156391E+03  0.16791156391E+03  0.00000000000E+00 0.  1.
          2    1    1    2  501    0  0.33293844528E+02 -0.21277030507E+02  0.39730350541E+02  0.56032962306E+02  0.00000000000E+00 0. -1.
         -2    1    1    2    0  503 -0.33293844528E+02  0.21277030507E+02 -0.15731723476E+03  0.16220328130E+03  0.00000000000E+00 0.  1.
</event>
<event>
 4    1  0.1772365E+004  0.2114399E+02  0.7546771E-02  0.1517219E+00
         21   -1    0    0  501  502  0.00000000000E+00  0.00000000000E+00  0.12313422548E+03  0.12313422548E+03  0.00000000000E+00 0.  1.
         21   -1    0    0  502  503 -0.00000000000E+00 -0.00000000000E+00 -0.88276262555E+01  0.88276262555E+01  0.00000000000E+00 0. -1.
          2    1    1    2  501    0  0.21026492718E+02  0.22259449537E+01  0.10777865520E+03  0.10983308584E+03  0.00000000000E+00 0.  1.
         -2    1    1    2    0  503 -0.21026492718E+02 -0.22259449537E+01  0.65279440174E+01  0.22128765895E+02  0.00000000000E+00 0. -1.
</event>
<event>
 4    1  0.1772365E+004  0.2183191E+02  0.7546771E-02  0.1507711E+00
         21   -1    0    0  503  502  0.00000000000E+00  0.00000000000E+00  0.11723972525E+02  0.11723972525E+02  0.00000000000E+00 0. -1.
         21   -1    0    0  501  503 -0.00000000000E+00 -0.00000000000E+00 -0.44014305473E+02  0.44014305473E+02  0.00000000000E+00 0.  1.
          2    1    1    2  501    0 -0.19876465039E+02 -0.90309712443E+01 -0.23845035608E+02  0.32329831847E+02  0.00000000000E+00 0.  1.
         -2    1    1    2    0  502  0.19876465039E+02  0.90309712443E+01 -0.84452973401E+01  0.23408446152E+02  0.00000000000E+00 0. -1.
</event>
<event>
 4    1  0.1772365E+004  0.2678855E+02  0.7546771E-02  0.1449744E+00
         21   -1    0    0  503  502  0.00000000000E+00  0.00000000000E+00  0.26486075252E+02  0.26486075252E+02  0.00000000000E+00 0. -1.
         21   -1    0    0  501  503 -0.00000000000E+00 -0.00000000000E+00 -0.12067445763E+03  0.12067445763E+03  0.00000000000E+00 0.  1.
          2    1    1    2  501    0 -0.23149581018E+02 -0.13480472591E+02 -0.11188973869E+03  0.11505190075E+03  0.00000000000E+00 0.  1.
         -2    1    1    2    0  502  0.23149581018E+02  0.13480472591E+02  0.17701356305E+02  0.32108632136E+02  0.00000000000E+00 0. -1.
</event>
<event>
 4    1  0.1772365E+004  0.2944904E+02  0.7546771E-02  0.1424446E+00
         21   -1    0    0  501  502  0.00000000000E+00  0.00000000000E+00  0.31993609516E+03  0.31993609516E+03  0.00000000000E+00 0.  1.
         21   -1    0    0  502  503 -0.00000000000E+00 -0.00000000000E+00 -0.30433142055E+01  0.30433142055E+01  0.00000000000E+00 0. -1.
          2    1    1    2  501    0  0.12233033339E+01  0.29423618770E+02  0.21183541213E+03  0.21387259676E+03  0.00000000000E+00 0. -1.
         -2    1    1    2    0  503 -0.12233033339E+01 -0.29423618770E+02  0.10505736882E+03  0.10910681260E+03  0.00000000000E+00 0.  1.
</event>
<event>
 4    1  0.1772365E+004  0.2459454E+02  0.7546771E-02  0.1473391E+00
         21   -1    0    0  503  502  0.00000000000E+00  0.00000000000E+00  0.95484594284E+01  0.95484594284E+01  0.00000000000E+00 0. -1.
         21   -1    0    0  501  503 -0.00000000000E+00 -0.00000000000E+00 -0.58006341606E+03  0.58006341606E+03  0.00000000000E+00 0.  1.
          2    1    1    2  501    0  0.18966270976E+02 -0.15657973907E+02 -0.56350000197E+03  0.56403647382E+03  0.00000000000E+00 0.  1.
         -2    1    1    2    0  502 -0.18966270976E+02  0.15657973907E+02 -0.70149546653E+01  0.25575401670E+02  0.00000000000E+00 0. -1.
</event>
<event>
 4    1  0.1772365E+004  0.3706359E+02  0.7546771E-02  0.1366609E+00
         21   -1    0    0  503  502  0.00000000000E+00  0.00000000000E+00  0.15651399940E+03  0.15651399940E+03  0.00000000000E+00 0.  1.
         21   -1    0    0  501  503 -0.00000000000E+00 -0.00000000000E+00 -0.17249390287E+02  0.17249390287E+02  0.00000000000E+00 0. -1.
          2    1    1    2  501    0  0.36172087952E+02 -0.80802056976E+01  0.87422125154E+01  0.38080650606E+02  0.00000000000E+00 0. -1.
         -2    1    1    2    0  502 -0.36172087952E+02  0.80802056976E+01  0.13052239660E+03  0.13568273908E+03  0.00000000000E+00 0.  1.
</event>
<event>
 4    1  0.1772365E+004  0.3305624E+02  0.7546771E-02  0.1394769E+00
         21   -1    0    0  503  502  0.00000000000E+00  0.00000000000E+00  0.27343979989E+02  0.27343979989E+02  0.00000000000E+00 0. -1.
         21   -1    0    0  501  503 -0.00000000000E+00 -0.00000000000E+00 -0.79602793366E+02  0.79602793366E+02  0.00000000000E+00 0.  1.
          2    1    1    2  501    0  0.28067631954E+02 -0.17462038190E+02 -0.63864530967E+02  0.71912398492E+02  0.00000000000E+00 0.  1.
         -2    1    1    2    0  502 -0.28067631954E+02  0.17462038190E+02  0.11605717590E+02  0.35034374863E+02  0.00000000000E+00 0. -1.
</event>
<event>
 4    1  0.1772365E+004  0.2476476E+02  0.7546771E-02  0.1471452E+00
         21   -1    0    0  501  502  0.00000000000E+00  0.00000000000E+00  0.32719614179E+01  0.32719614179E+01  0.00000000000E+00 0.  1.
         21   -1    0    0  502  503 -0.00000000000E+00 -0.00000000000E+00 -0.20590427747E+03  0.20590427747E+03  0.00000000000E+00 0. -1.
          2    1    1    2  501    0  0.10615146706E+02  0.22374359264E+02 -0.13263654882E+03  0.13492867514E+03  0.00000000000E+00 0. -1.
         -2    1    1    2    0  503 -0.10615146706E+02 -0.22374359264E+02 -0.69995767229E+02  0.74247563745E+02  0.00000000000E+00 0.  1.
</event>
<event>
 4    1  0.1772365E+004  0.2183010E+02  0.7546771E-02  0.1507735E+00
         21   -1    0    0  503  502  0.00000000000E+00  0.00000000000E+00  0.41285186843E+01  0.41285186843E+01  0.00000000000E+00 0. -1.
         21   -1    0    0  501  503 -0.00000000000E+00 -0.00000000000E+00 -0.12470823405E+03  0.12470823405E+03  0.00000000000E+00 0.  1.
          2    1    1    2  501    0  0.19864952614E+02  0.90519058069E+01 -0.77861152888E+02  0.80863542280E+02  0.00000000000E+00 0. -1.
         -2    1    1    2    0  502 -0.19864952614E+02 -0.90519058069E+01 -0.42718562478E+02  0.47973210454E+02  0.00000000000E+00 0.  1.
</event>
<event>
 4    1  0.1772365E+004  0.3134447E+02  0.7546771E-02  0.1408262E+00
         21   -1    0    0  503  502  0.00000000000E+00  0.00000000000E+00  0.74672071312E+02  0.74672071312E+02  0.00000000000E+00 0.  1.
         21   -1    0    0  501  503 -0.00000000000E+00 -0.00000000000E+00 -0.17475548657E+02  0.17475548657E+02  0.00000000000E+00 0. -1.
          2    1    1    2  501    0 -0.28963185851E+02 -0.11983715663E+02  0.56949943873E+01  0.31857629177E+02  0.00000000000E+00 0. -1.
         -2    1    1    2    0  502  0.28963185851E+02  0.11983715663E+02  0.51501528268E+02  0.60289990792E+02  0.00000000000E+00 0.  1.
</event>
<event>
 4    1  0.1772365E+004  0.2337533E+02  0.7546771E-02  0.1487838E+00
         21   -1    0    0  503  502  0.00000000000E+00  0.00000000000E+00  0.10596087693E+03  0.10596087693E+03  0.00000000000E+00 0. -1.
         21   -1    0    0  501  503 -0.00000000000E+00 -0.00000000000E+00 -0.14921929577E+02  0.14921929577E+02  0.00000000000E+00 0.  1.
          2    1    1    2  501    0 -0.39852026009E+01  0.23033107653E+02 -0.33754545678E+01  0.23617781045E+02  0.00000000000E+00 0.  1.
         -2    1    1    2    0  502  0.39852026009E+01 -0.23033107653E+02  0.94414401926E+02  0.97265025466E+02  0.00000000000E+00 0. -1.
</event>
<event>
 4    1  0.1772365E+004  0.2556596E+02  0.7546771E-02  0.1462571E+00
         21   -1    0    0  501  502  0.00000000000E+00  0.00000000000E+00  0.15526464554E+01  0.15526464554E+01  0.00000000000E+00 0.  1.
         21   -1    0    0  502  503 -0.00000000000E+00 -0.00000000000E+00 -0.42270198482E+03  0.42270198482E+03  0.00000000000E+00 0. -1.
          2    1    1    2  501    0  0.18130251997E+02  0.18025323723E+02 -0.19699808351E+03  0.19865010254E+03  0.00000000000E+00 0.  1.
         -2    1    1    2    0  503 -0.18130251997E+02 -0.18025323723E+02 -0.22415125486E+03  0.22560452874E+03  0.00000000000E+00 0. -1.
</event>
<event>
 4    1  0.1772365E+004  0.4150248E+02  0.7546771E-02  0.1339899E+00
         21   -1    0    0  503  502  0.00000000000E+00  0.00000000000E+00  0.19336889447E+03  0.19336889447E+03  0.00000000000E+00 0. -1.
         21   -1    0    0  501  503 -0.00000000000E+00 -0.00000000000E+00 -0.14808616676E+02  0.14808616676E+02  0.00000000000E+00 0.  1.
          2    1    1    2  501    0  0.25522377784E+02 -0.32727109919E+02  0.23573466646E+02  0.47730114405E+02  0.00000000000E+00 0.  1.
         -2    1    1    2    0  502 -0.25522377784E+02  0.32727109919E+02  0.15498681114E+03  0.16044739674E+03  0.00000000000E+00 0. -1.
</event>
<event>
 4    1  0.1772365E+004  0.2378983E+02  0.7546771E-02  0.1482811E+00
         21   -1    0    0  501  502  0.00000000000E+00  0.00000000000E+00  0.79894022822E+02  0.79894022822E+02  0.00000000000E+00 0. -1.
         21   -1    0    0  502  503 -0.00000000000E+00 -0.00000000000E+00 -0.14701411561E+02  0.14701411561E+02  0.00000000000E+00 0.  1.
          2    1    1    2  501    0  0.10583647562E+02 -0.21305925444E+02  0.66642539927E+02  0.70761459727E+02  0.00000000000E+00 0. -1.
         -2    1    1    2    0  503 -0.10583647562E+02  0.21305925444E+02 -0.14499286653E+01  0.23833974656E+02  0.00000000000E+00 0.  1.
</event>
<event>
 4    1  0.1772365E+004  0.2452247E+02  0.7546771E-02  0.1474217E+00
         21   -1    0    0  501  502  0.00000000000E+00  0.00000000000E+00  0.57975767911E+02  0.57975767911E+02  0.00000000000E+00 0.  1.
         21   -1    0    0  502  503 -0.00000000000E+00 -0.00000000000E+00 -0.75800851525E+02  0.75800851525E+02  0.00000000000E+00 0. -1.
          2    1    1    2  501    0  0.10811086892E+02  0.22010723258E+02  0.53231041153E+02  0.58607979665E+02  0.00000000000E+00 0.  1.
         -2    1    1    2    0  503 -0.10811086892E+02 -0.22010723258E+02 -0.71056124767E+02  0.75168639771E+02  0.00000000000E+00 0. -1.
</event>
<event>
 4    1  0.1772365E+004  0.3706336E+02  0.7546771E-02  0.1366610E+00
         21   -1    0    0  501  502  0.00000000000E+00  0.00000000000E+00  0.29619260653E+03  0.29619260653E+03  0.00000000000E+00 0. -1.
         21   -1    0    0  502  503 -0.00000000000E+00 -0.00000000000E+00 -0.51297614970E+02  0.51297614970E+02  0.00000000000E+00 0.  1.
          2    1    1    2  501    0  0.32344705273E+02  0.18097316121E+02  0.28815239269E+03  0.29052623672E+03  0.00000000000E+00 0. -1.
         -2    1    1    2    0  503 -0.32344705273E+02 -0.18097316121E+02 -0.43257401127E+02  0.56963984782E+02  0.00000000000E+00 0.  1.
</event>
<event>
 4    1  0.1772365E+004  0.2119628E+02  0.7546771E-02  0.1516481E+00
         21   -1    0    0  501  502  0.00000000000E+00  0.00000000000E+00  0.73016659151E+01  0.73016659151E+01  0.00000000000E+00 0. -1.
         21   -1    0    0  502  503 -0.00000000000E+00 -0.00000000000E+00 -0.61935161117E+02  0.61935161117E+02  0.00000000000E+00 0.  1.
          2    1    1    2  501    0 -0.70752549969E+01 -0.19980565402E+02 -0.24521863066E+02  0.32413022002E+02  0.00000000000E+00 0. -1.
         -2    1    1    2    0  503  0.70752549969E+01  0.19980565402E+02 -0.30111632136E+02  0.36823805031E+02  0.00000000000E+00 0.  1.
</event>
<event>
 4    1  0.1772365E+004  0.2648161E+02  0.7546771E-02  0.1452886E+00
         21   -1    0    0  503  502  0.00000000000E+00  0.00000000000E+00  0.33444064637E+02  0.33444064637E+02  0.00000000000E+00 0. -1.
         21   -1    0    0  501  503 -0.00000000000E+00 -0.00000000000E+00 -0.33115443836E+02  0.33115443836E+02  0.00000000000E+00 0.  1.
          2    1    1    2  501    0  0.17699607343E+02  0.19697702540E+02 -0.19991318133E+02  0.33180240900E+02  0.00000000000E+00 0.  1.
         -2    1    1    2    0  502 -0.17699607343E+02 -0.19697702540E+02  0.20319938934E+02  0.33379267573E+02  0.00000000000E+00 0. -1.
</event>
<event>
 4    1  0.1772365E+004  0.2618498E+02  0.7546771E-02  0.1455971E+00
         21   -1    0    0  501  502  0.00000000000E+00  0.00000000000E+00  0.33278506832E+02  0.33278506832E+02  0.00000000000E+00 0.  1.
         21   -1    0    0  502  503 -0.00000000000E+00 -0.00000000000E+00 -0.13570879928E+03  0.13570879928E+03  0.00000000000E+00 0. -1.
          2    1    1    2  501    0 -0.16893864494E+02 -0.20006260875E+02  0.26600651757E+02  0.37326234818E+02  0.00000000000E+00 0.  1.
         -2    1    1    2    0  503  0.16893864494E+02  0.20006260875E+02 -0.12903094421E+03  0.13166107130E+03  0.00000000000E+00 0. -1.
</event>
<event>
 4    1  0.1772365E+004  0.2580627E+02  0.7546771E-02  0.1459982E+00
         21   -1    0    0  501  502  0.00000000000E+00  0.00000000000E+00  0.41388814788E+03  0.41388814788E+03  0.00000000000E+00 0.  1.
         21   -1    0    0  502  503 -0.00000000000E+00 -0.00000000000E+00 -0.26761432663E+01  0.26761432663E+01  0.00000000000E+00 0. -1.
          2    1    1    2  501    0  0.24292382983E+02  0.87088264758E+01  0.33712852292E+03  0.33811478006E+03  0.00000000000E+00 0.  1.
         -2    1    1    2    0  503 -0.24292382983E+02 -0.87088264758E+01  0.74083481689E+02  0.78449511080E+02  0.00000000000E+00 0. -1.
</event>
<event>
 4    1  0.1772365E+004  0.2027178E+02  0.7546771E-02  0.1529921E+00
         21   -1    0    0  501  502  0.00000000000E+00  0.00000000000E+00  0.40389010055E+03  0.40389010055E+03  0.00000000000E+00 0.  1.
         21   -1    0    0  502  503 -0.00000000000E+00 -0.00000000000E+00 -0.26660748003E+01  0.26660748003E+01  0.00000000000E+00 0. -1.
          2    1    1    2  501    0  0.11316759713E+02 -0.16818917083E+02  0.36046215257E+03  0.36103172778E+03  0.00000000000E+00 0.  1.
         -2    1    1    2    0  503 -0.11316759713E+02  0.16818917083E+02  0.40761873179E+02  0.45524447578E+02  0.00000000000E+00 0. -1.
</event>
<event>
 4    1  0.1772365E+004  0.3585651E+02  0.7546771E-02  0.1374640E+00
         21   -1    0    0  501  502  0.00000000000E+00  0.00000000000E+00  0.11615163269E+03  0.11615163269E+03  0.00000000000E+00 0.  1.
         21   -1    0    0  502  503 -0.00000000000E+00 -0.00000000000E+00 -0.30881385394E+02  0.30881385394E+02  0.00000000000E+00 0. -1.
          2    1    1    2  501    0 -0.24982892875E+01 -0.35769367011E+02  0.10152006480E+03  0.10766620929E+03  0.00000000000E+00 0.  1.
         -2    1    1    2    0  503  0.24982892875E+01  0.35769367011E+02 -0.16249817505E+02  0.39366808794E+02  0.00000000000E+00 0. -1.
</event>
<event>
 4    1  0.1772365E+004  0.2751284E+02  0.7546771E-02  0.1442523E+00
         21   -1    0    0  503  502  0.00000000000E+00  0.00000000000E+00  0.14857027519E+02  0.14857027519E+02  0.00000000000E+00 0.  1.
         21   -1    0    0  501  503 -0.00000000000E+00 -0.00000000000E+00 -0.86441661500E+02  0.86441661500E+02  0.00000000000E+00 0. -1.
          2    1    1    2  501    0 -0.22000920455E+02 -0.16520169726E+02 -0.68247134077E+02  0.73584154669E+02  0.00000000000E+00 0. -1.
         -2    1    1    2    0  502  0.22000920455E+02  0.16520169726E+02 -0.33374999041E+01  0.27714534350E+02  0.00000000000E+00 0.  1.
</event>
<event>
 4    1  0.1772365E+004  0.5424503E+02  0.7546771E-02  0.1280747E+00
         21   -1    0    0  503  502  0.00000000000E+00  0.00000000000E+00  0.55739299006E+02  0.55739299006E+02  0.00000000000E+00 0. -1.
         21   -1    0    0  501  503 -0.00000000000E+00 -0.00000000000E+00 -0.52795719317E+02  0.52795719317E+02  0.00000000000E+00 0.  1.
          2    1    1    2  501    0  0.54231421067E+02 -0.12148450467E+01  0.94861955213E+00  0.54253320253E+02  0.00000000000E+00 0.  1.
         -2    1    1    2    0  502 -0.54231421067E+02  0.12148450467E+01  0.19949601367E+01  0.54281698070E+02  0.00000000000E+00 0. -1.
</event>
<event>
 4    1  0.1772365E+004  0.2039868E+02  0.7546771E-02  0.1528026E+00
         21   -1    0    0  501  502  0.00000000000E+00  0.00000000000E+00  0.14231472395E+02  0.14231472395E+02  0.00000000000E+00 0. -1.
         21   -1    0    0  502  503 -0.00000000000E+00 -0.00000000000E+00 -0.79568370995E+02  0.79568370995E+02  0.00000000000E+00 0.  1.
          2    1    1    2  501    0 -0.20353728795E+02 -0.13534062756E+01  0.46320866591E+01  0.20917987743E+02  0.00000000000E+00 0. -1.
         -2    1    1    2    0  503  0.20353728795E+02  0.13534062756E+01 -0.69968985259E+02  0.72881855647E+02  0.00000000000E+00 0.  1.
</event>
<event>
 4    1  0.1772365E+004  0.2119057E+02  0.7546771E-02  0.1516561E+00
         21   -1    0    0  501  502  0.00000000000E+00  0.00000000000E+00  0.10434951067E+03  0.10434951067E+03  0.00000000000E+00 0. -1.
         21   -1    0    0  502  503 -0.00000000000E+00 -0.00000000000E+00 -0.43426536287E+01  0.43426536287E+01  0.00000000000E+00 0.  1.
          2    1    1    2  501    0 -0.16695880972E+02 -0.13049438197E+02  0.44825556422E+02  0.49581960300E+02  0.00000000000E+00 0.  1.
         -2    1    1    2    0  503  0.16695880972E+02  0.13049438197E+02  0.55181300619E+02  0.59110203998E+02  0.00000000000E+00 0. -1.
</event>
<event>
 4    1  0.1772365E+004  0.2182459E+02  0.7546771E-02  0.1507810E+00
         21   -1    0    0  503  502  0.00000000000E+00  0.00000000000E+00  0.82267055054E+03  0.82267055054E+03  0.00000000000E+00 0.  1.
         21   -1    0    0  501  503 -0.00000000000E+00 -0.00000000000E+00 -0.15146008008E+01  0.15146008008E+01  0.00000000000E+00 0. -1.
          2    1    1    2  501    0  0.16376215754E+02 -0.14426796012E+02  0.86690046539E+02  0.89395061690E+02  0.00000000000E+00 0. -1.
         -2    1    1    2    0  502 -0.16376215754E+02  0.14426796012E+02  0.73446590320E+03  0.73479008965E+03  0.00000000000E+00 0.  1.
</event>
<event>
 4    1  0.1772365E+004  0.2146623E+02  0.7546771E-02  0.1512711E+00
         21   -1    0    0  503  502  0.00000000000E+00  0.00000000000E+00  0.32646398480E+03  0.32646398480E+03  0.00000000000E+00 0.  1.
         21   -1    0    0  501  503 -0.00000000000E+00 -0.00000000000E+00 -0.26015432236E+01  0.26015432236E+01  0.00000000000E+00 0. -1.
          2    1    1    2  501    0  0.19269883223E+02 -0.94588955492E+01  0.50650244556E+02  0.55011329542E+02  0.00000000000E+00 0. -1.
         -2    1    1    2    0  502 -0.19269883223E+02  0.94588955492E+01  0.27321219702E+03  0.27405419848E+03  0.00000000000E+00 0.  1.
</event>
<event>
 4    1  0.1772365E+004  0.2886781E+02  0.7546771E-02  0.1429697E+00
         21   -1    0    0  501  502  0.00000000000E+00  0.00000000000E+00  0.36075523834E+02  0.36075523834E+02  0.00000000000E+00 0.  1.
         21   -1    0    0  502  503 -0.00000000000E+00 -0.00000000000E+00 -0.24353328423E+02  0.24353328423E+02  0.00000000000E+00 0. -1.
          2    1    1    2  501    0 -0.27940055256E+02  0.72597522147E+01 -0.99281209755E+00  0.28884881266E+02  0.00000000000E+00 0. -1.
         -2    1    1    2    0  503  0.27940055256E+02 -0.72597522147E+01  0.12715007508E+02  0.31543970990E+02  0.00000000000E+00 0.  1.
</event>
<event>
 4    1  0.1772365E+004  0.2000711E+02  0.7546771E-02  0.1533927E+00
         21   -1    0    0  503  502  0.00000000000E+00  0.00000000000E+00  0.59228897761E+01  0.59228897761E+01  0.00000000000E+00 0. -1.
         21   -1    0    0  501  503 -0.00000000000E+00 -0.00000000000E+00 -0.89210015835E+02  0.89210015835E+02  0.00000000000E+00 0.  1.
          2    1    1    2  501    0 -0.13647272082E+02  0.14629985103E+02 -0.65064049891E+02  0.68070662459E+02  0.00000000000E+00 0. -1.
         -2    1    1    2    0  502  0.13647272082E+02 -0.14629985103E+02 -0.18223076167E+02  0.27062243152E+02  0.00000000000E+00 0.  1.
</event>
<event>
 4    1  0.1772365E+004  0.2140351E+02  0.7546771E-02  0.1513581E+00
         21   -1    0    0  503  502  0.00000000000E+00  0.00000000000E+00  0.25991260601E+03  0.25991260601E+03  0.00000000000E+00 0.  1.
         21   -1    0    0  501  503 -0.00000000000E+00 -0.00000000000E+00 -0.34906543154E+01  0.34906543154E+01  0.00000000000E+00 0. -1.
          2    1    1    2  501    0 -0.96358815503E+01  0.19111772052E+02  0.35544598667E+02  0.41491306784E+02  0.00000000000E+00 0. -1.
         -2    1    1    2    0  502  0.96358815503E+01 -0.19111772052E+02  0.22087735303E+03  0.22191195354E+03  0.00000000000E+00 0.  1.
</event>
<event>
 4    1  0.1772365E+004  0.2112607E+02  0.7546771E-02  0.1517472E+00
         21   -1    0    0  503  502  0.00000000000E+00  0.00000000000E+00  0.76030984726E+00  0.76030984726E+00  0.00000000000E+00 0. -1.
         21   -1    0    0  501  503 -0.00000000000E+00 -0.00000000000E+00 -0.94061680687E+03  0.94061680687E+03  0.00000000000E+00 0.  1.
          2    1    1    2  501    0 -0.16119361323E+02 -0.13655660054E+02 -0.18133479857E+03  0.18256127748E+03  0.00000000000E+00 0. -1.
         -2    1    1    2    0  502  0.16119361323E+02  0.13655660054E+02 -0.75852169845E+03  0.75881583924E+03  0.00000000000E+00 0.  1.
</event>
<event>
 4    1  0.1772365E+004  0.2634144E+02  0.7546771E-02  0.1454338E+00
         21   -1    0    0  501  502  0.00000000000E+00  0.00000000000E+00  0.80281659487E+00  0.80281659487E+00  0.00000000000E+00 0. -1.
         21   -1    0    0  502  503 -0.00000000000E+00 -0.00000000000E+00 -0.92994702179E+03  0.92994702179E+03  0.00000000000E+00 0.  1.
          2    1    1    2  501    0  0.13229265577E+02 -0.22778458436E+02 -0.34092250708E+03  0.34193863114E+03  0.00000000000E+00 0. -1.
         -2    1    1    2    0  503 -0.13229265577E+02  0.22778458436E+02 -0.58822169812E+03  0.58881120724E+03  0.00000000000E+00 0.  1.
</event>
<event>
 4    1  0.1772365E+004  0.3508038E+02  0.7546771E-02  0.1379999E+00
         21   -1    0    0  503  502  0.00000000000E+00  0.00000000000E+00  0.25043531258E+03  0.25043531258E+03  0.00000000000E+00 0. -1.
         21   -1    0    0  501  503 -0.00000000000E+00 -0.00000000000E+00 -0.18108333461E+02  0.18108333461E+02  0.00000000000E+00 0.  1.
          2    1    1    2  501    0  0.24601793407E+02 -0.25007692877E+02  0.15489331098E+01  0.35114557318E+02  0.00000000000E+00 0.  1.
         -2    1    1    2    0  502 -0.24601793407E+02  0.25007692877E+02  0.23077804601E+03  0.23342908873E+03  0.00000000000E+00 0. -1.
</event>
<event>
 4    1  0.1772365E+004  0.3938662E+02  0.7546771E-02  0.1352118E+00
         21   -1    0    0  501  502  0.00000000000E+00  0.00000000000E+00  0.54325705425E+02  0.54325705425E+02  0.00000000000E+00 0. -1.
         21   -1    0    0  502  503 -0.00000000000E+00 -0.00000000000E+00 -0.65469882760E+02  0.65469882760E+02  0.00000000000E+00 0.  1.
          2    1    1    2  501    0 -0.29914277562E+02 -0.25621124067E+02  0.39404545481E+02  0.55713770336E+02  0.00000000000E+00 0.  1.
         -2    1    1    2    0  503  0.29914277562E+02  0.25621124067E+02 -0.50548722816E+02  0.64081817849E+02  0.00000000000E+00 0. -1.
</event>
<event>
 4    1  0.1772365E+004  0.3139135E+02  0.7546771E-02  0.1407879E+00
         21   -1    0    0  501  502  0.00000000000E+00  0.00000000000E+00  0.65139529949E+02  0.65139529949E+02  0.00000000000E+00 0. -1.
         21   -1    0    0  502  503 -0.00000000000E+00 -0.00000000000E+00 -0.81005116869E+02  0.81005116869E+02  0.00000000000E+00 0.  1.
          2    1    1    2  501    0  0.29090123411E+02 -0.11797521171E+02  0.57964062085E+02  0.65918504832E+02  0.00000000000E+00 0. -1.
         -2    1    1    2    0  503 -0.29090123411E+02  0.11797521171E+02 -0.73829649005E+02  0.80226141987E+02  0.00000000000E+00 0.  1.
</event>
<event>
 4    1  0.1772365E+004  0.3189619E+02  0.7546771E-02  0.1403804E+00
         21   -1    0    0  501  502  0.00000000000E+00  0.00000000000E+00  0.13854866739E+02  0.13854866739E+02  0.00000000000E+00 0. -1.
         21   -1    0    0  502  503 -0.00000000000E+00 -0.00000000000E+00 -0.76172197573E+02  0.76172197573E+02  0.00000000000E+00 0.  1.
          2    1    1    2  501    0  0.29595239245E+02 -0.11894903139E+02 -0.22618404920E+02  0.39101907214E+02  0.00000000000E+00 0.  1.
         -2    1    1    2    0  503 -0.29595239245E+02  0.11894903139E+02 -0.39698925914E+02  0.50925157097E+02  0.00000000000E+00 0. -1.
</event>
<event>
 4    1  0.1772365E+004  0.2049997E+02  0.7546771E-02  0.1526525E+00
         21   -1    0    0  501  502  0.00000000000E+00  0.00000000000E+00  0.81496877882E+00  0.81496877882E+00  0.00000000000E+00 0.  1.
         21   -1    0    0  502  503 -0.00000000000E+00 -0.00000000000E+00 -0.55215851203E+03  0.55215851203E+03  0.00000000000E+00 0. -1.
          2    1    1    2  501    0 -0.19843572731E+02 -0.51460139479E+01 -0.20458887362E+03  0.20561336544E+03  0.00000000000E+00 0.  1.
         -2    1    1    2    0  503  0.19843572731E+02  0.51460139479E+01 -0.34675466963E+03  0.34736011537E+03  0.00000000000E+00 0. -1.
</event>
<event>
 4    1  0.1772365E+004  0.2158883E+02  0.7546771E-02  0.1511021E+00
         21   -1    0    0  503  502  0.00000000000E+00  0.00000000000E+00  0.13737267780E+02  0.13737267780E+02  0.00000000000E+00 0. -1.
         21   -1    0    0  501  503 -0.00000000000E+00 -0.00000000000E+00 -0.76633004377E+02  0.76633004377E+02  0.00000000000E+00 0.  1.
          2    1    1    2  501    0  0.20436685077E+02 -0.69584119135E+01 -0.65178712614E+02  0.68661067363E+02  0.00000000000E+00 0.  1.
         -2    1    1    2    0  502 -0.20436685077E+02  0.69584119135E+01  0.22829760168E+01  0.21709204794E+02  0.00000000000E+00 0. -1.
</event>
<event>
 4    1  0.1772365E+004  0.5508418E+02  0.7546771E-02  0.1277516E+00
         21   -1    0    0  501  502  0.00000000000E+00  0.00000000000E+00  0.29105675348E+02  0.29105675348E+02  0.00000000000E+00 0.  1.
         21   -1    0    0  502  503 -0.00000000000E+00 -0.00000000000E+00 -0.13294248065E+03  0.13294248065E+03  0.00000000000E+00 0. -1.
          2    1    1    2  501    0 -0.54524829731E+02 -0.78300474488E+01 -0.14276961243E+02  0.56904290898E+02  0.00000000000E+00 0.  1.
         -2    1    1    2    0  503  0.54524829731E+02  0.78300474488E+01 -0.89559844063E+02  0.10514386510E+03  0.00000000000E+00 0. -1.
</event>
<event>
 4    1  0.1772365E+004  0.2041996E+02  0.7546771E-02  0.1527710E+00
         21   -1    0    0  503  502  0.00000000000E+00  0.00000000000E+00  0.43865984143E+02  0.43865984143E+02  0.00000000000E+00 0.  1.
         21   -1    0    0  501  503 -0.00000000000E+00 -0.00000000000E+00 -0.13521030312E+02  0.13521030312E+02  0.00000000000E+00 0. -1.
          2    1    1    2  501    0 -0.10935130417E+02  0.17245221321E+02 -0.46411245656E+00  0.20425232827E+02  0.00000000000E+00 0. -1.
         -2    1    1    2    0  502  0.10935130417E+02 -0.17245221321E+02  0.30809066287E+02  0.36961781628E+02  0.00000000000E+00 0.  1.
</event>
<event>
 4    1  0.1772365E+004  0.2337340E+02  0.7546771E-02  0.1487862E+00
         21   -1    0    0  503  502  0.00000000000E+00  0.00000000000E+00  0.39463929316E+02  0.39463929316E+02  0.00000000000E+00 0. -1.
         21   -1    0    0  501  503 -0.00000000000E+00 -0.00000000000E+00 -0.23422067069E+02  0.23422067069E+02  0.00000000000E+00 0.  1.
          2    1    1    2  501    0  0.23318712746E+02  0.15980004441E+01 -0.12086810654E+02  0.26313626914E+02  0.00000000000E+00 0.  1.
         -2    1    1    2    0  502 -0.23318712746E+02 -0.15980004441E+01  0.28128672902E+02  0.36572369472E+02  0.00000000000E+00 0. -1.
</event>
<event>
 4    1  0.1772365E+004  0.2332661E+02  0.7546771E-02  0.1488437E+00
         21   -1    0    0  503  502  0.00000000000E+00  0.00000000000E+00  0.47270527827E+03  0.47270527827E+03  0.00000000000E+00 0. -1.
         21   -1    0    0  501  503 -0.00000000000E+00 -0.00000000000E+00 -0.12451217495E+01  0.12451217495E+01  0.00000000000E+00 0.  1.
          2    1    1    2  501    0  0.10922691458E+02  0.20611294803E+02  0.17061028285E+03  0.17219755886E+03  0.00000000000E+00 0. -1.
         -2    1    1    2    0  502 -0.10922691458E+02 -0.20611294803E+02  0.30084987367E+03  0.30175284116E+03  0.00000000000E+00 0.  1.
</event>
<event>
 4    1  0.1772365E+004  0.2527423E+02  0.7546771E-02  0.1465759E+00
         21   -1    0    0  503  502  0.00000000000E+00  0.00000000000E+00  0.38748770204E+01  0.38748770204E+01  0.00000000000E+00 0.  1.
         21   -1    0    0  501  503 -0.00000000000E+00 -0.00000000000E+00 -0.18920719229E+03  0.18920719229E+03  0.00000000000E+00 0. -1.
          2    1    1    2  501    0 -0.24099581259E+02 -0.76155687711E+01 -0.12730204389E+03  0.12978673694E+03  0.00000000000E+00 0. -1.
         -2    1    1    2    0  502  0.24099581259E+02  0.76155687711E+01 -0.58030271372E+02  0.63295332372E+02  0.00000000000E+00 0.  1.
</event>
<event>
 4    1  0.1772365E+004  0.2495999E+02  0.7546771E-02  0.1469251E+00
         21   -1    0    0  503  502  0.00000000000E+00  0.00000000000E+00  0.61526366598E+01  0.61526366598E+01  0.00000000000E+00 0.  1.
         21   -1    0    0  501  503 -0.00000000000E+00 -0.00000000000E+00 -0.63391289155E+03  0.63391289155E+03  0.00000000000E+00 0. -1.
          2    1    1    2  501    0  0.18914370357E+02 -0.16286429108E+02 -0.60724139692E+03  0.60775415697E+03  0.00000000000E+00 0. -1.
         -2    1    1    2    0  502 -0.18914370357E+02  0.16286429108E+02 -0.20518857969E+02  0.32311371240E+02  0.00000000000E+00 0.  1.
</event>
<event>
 4    1  0.1772365E+004  0.9772699E+02  0.7546771E-02  0.1167806E+00
         21   -1    0    0  501  502  0.00000000000E+00  0.00000000000E+00  0.16581722746E+03  0.16581722746E+03  0.00000000000E+00 0.  1.
         21   -1    0    0  502  503 -0.00000000000E+00 -0.00000000000E+00 -0.13258805982E+03  0.13258805982E+03  0.00000000000E+00 0. -1.
          2    1    1    2  501    0  0.85679737359E+02  0.47005828407E+02  0.12882397937E+03  0.16169781371E+03  0.00000000000E+00 0.  1.
         -2    1    1    2    0  503 -0.85679737359E+02 -0.47005828407E+02 -0.95594811735E+02  0.13670747357E+03  0.00000000000E+00 0. -1.
</event>
<event>
 4    1  0.1772365E+004  0.2529620E+02  0.7546771E-02  0.1465517E+00
         21   -1    0    0  503  502  0.00000000000E+00  0.00000000000E+00  0.23909247472E+02  0.23909247472E+02  0.00000000000E+00 0. -1.
         21   -1    0    0  501  503 -0.00000000000E+00 -0.00000000000E+00 -0.27083705906E+02  0.27083705906E+02  0.00000000000E+00 0.  1.
          2    1    1    2  501    0 -0.24658799554E+02 -0.56428133804E+01 -0.43590632253E+01  0.25669031351E+02  0.00000000000E+00 0.  1.
         -2    1    1    2    0  502  0.24658799554E+02  0.56428133804E+01  0.11846047907E+01  0.25323922027E+02  0.00000000000E+00 0. -1.
</event>
<event>
 4    1  0.1772365E+004  0.2421899E+02  0.7546771E-02  0.1477733E+00
         21   -1    0    0  503  502  0.00000000000E+00  0.00000000000E+00  0.44859383760E+01  0.44859383760E+01  0.00000000000E+00 0. -1.
         21   -1    0    0  501  503 -0.00000000000E+00 -0.00000000000E+00 -0.29237712060E+03  0.29237712060E+03  0.00000000000E+00 0.  1.
          2    1    1    2  501    0 -0.23651251682E+02 -0.52132529090E+01 -0.25430379386E+03  0.25545445638E+03  0.00000000000E+00 0.  1.
         -2    1    1    2    0  502  0.23651251682E+02  0.52132529090E+01 -0.33587388368E+02  0.41408602602E+02  0.00000000000E+00 0. -1.
</event>
<event>
 4    1  0.1772365E+004  0.2029368E+02  0.7546771E-02  0.1529593E+00
         21   -1    0    0  503  502  0.00000000000E+00  0.00000000000E+00  0.59036577974E+02  0.59036577974E+02  0.00000000000E+00 0. -1.
         21   -1    0    0  501  503 -0.00000000000E+00 -0.00000000000E+00 -0.77737683496E+01  0.77737683496E+01  0.00000000000E+00 0.  1.
          2    1    1    2  501    0 -0.15688599881E+02  0.12872497802E+02  0.14929450803E+02  0.25193687050E+02  0.00000000000E+00 0. -1.
         -2    1    1    2    0  502  0.15688599881E+02 -0.12872497802E+02  0.36333358822E+02  0.41616659274E+02  0.00000000000E+00 0.  1.
</event>
<event>
 4    1  0.1772365E+004  0.2448224E+02  0.7546771E-02  0.1474680E+00
         21   -1    0    0  503  502  0.00000000000E+00  0.00000000000E+00  0.16173608520E+02  0.16173608520E+02  0.00000000000E+00 0. -1.
         21   -1    0    0  501  503 -0.00000000000E+00 -0.00000000000E+00 -0.52882333722E+02  0.52882333722E+02  0.00000000000E+00 0.  1.
          2    1    1    2  501    0  0.19270313470E+02  0.15100837117E+02 -0.37241347022E+02  0.44567905390E+02  0.00000000000E+00 0.  1.
         -2    1    1    2    0  502 -0.19270313470E+02 -0.15100837117E+02  0.53262182125E+00  0.24488036852E+02  0.00000000000E+00 0. -1.
</event>
<event>
 4    1  0.1772365E+004  0.2165994E+02  0.7546771E-02  0.1510048E+00
         21   -1    0    0  501  502  0.00000000000E+00  0.00000000000E+00  0.40185789833E+02  0.40185789833E+02  0.00000000000E+00 0.  1.
         21   -1    0    0  502  503 -0.00000000000E+00 -0.00000000000E+00 -0.15733046816E+02  0.15733046816E+02  0.00000000000E+00 0. -1.
          2    1    1    2  501    0  0.84493309490E+01  0.19943965044E+02  0.26426810150E+02  0.34169126853E+02  0.00000000000E+00 0.  1.
         -2    1    1    2    0  503 -0.84493309490E+01 -0.19943965044E+02 -0.19740671325E+01  0.21749709796E+02  0.00000000000E+00 0. -1.
</event>
<event>
 4    1  0.1772365E+004  0.2247227E+02  0.7546771E-02  0.1499233E+00
         21   -1    0    0  503  502  0.00000000000E+00  0.00000000000E+00  0.51643200505E+02  0.51643200505E+02  0.00000000000E+00 0.  1.
         21   -1    0    0  501  503 -0.00000000000E+00 -0.00000000000E+00 -0.16284020483E+02  0.16284020483E+02  0.00000000000E+00 0. -1.
          2    1    1    2  501    0  0.42749119064E+01  0.22061912749E+02 -0.37872293820E+01  0.22789163485E+02  0.00000000000E+00 0. -1.
         -2    1    1    2    0  502 -0.42749119064E+01 -0.22061912749E+02  0.39146409404E+02  0.45138057504E+02  0.00000000000E+00 0.  1.
</event>
<event>
 4    1  0.1772365E+004  0.2757818E+02  0.7546771E-02  0.1441885E+00
         21   -1    0    0  503  502  0.00000000000E+00  0.00000000000E+00  0.13547557287E+03  0.13547557287E+03  0.00000000000E+00 0. -1.
         21   -1    0    0  501  503 -0.00000000000E+00 -0.00000000000E+00 -0.60450710314E+01  0.60450710314E+01  0.00000000000E+00 0.  1.
          2    1    1    2  501    0  0.21064704675E+02 -0.17799841494E+02  0.45818925096E+02  0.53478313709E+02  0.00000000000E+00 0.  1.
         -2    1    1    2    0  502 -0.21064704675E+02  0.17799841494E+02  0.83611576746E+02  0.88042330195E+02  0.00000000000E+00 0. -1.
</event>
<event>
 4    1  0.1772365E+004  0.2127262E+02  0.7546771E-02  0.1515408E+00
         21   -1    0    0  501  502  0.00000000000E+00  0.00000000000E+00  0.30285959687E+02  0.30285959687E+02  0.00000000000E+00 0.  1.
         21   -1    0    0  502  503 -0.00000000000E+00 -0.00000000000E+00 -0.15517298591E+02  0.15517298591E+02  0.00000000000E+00 0. -1.
          2    1    1    2  501    0  0.19282477384E+02 -0.89838995368E+01  0.29736059168E+01  0.21479448715E+02  0.00000000000E+00 0.  1.
         -2    1    1    2    0  503 -0.19282477384E+02  0.89838995368E+01  0.11795055180E+02  0.24323809563E+02  0.00000000000E+00 0. -1.
</event>
<event>
 4    1  0.1772365E+004  0.3055838E+02  0.7546771E-02  0.1414805E+00
         21   -1    0    0  501  502  0.00000000000E+00  0.00000000000E+00  0.23269600283E+03  0.23269600283E+03  0.00000000000E+00 0. -1.
         21   -1    0    0  502  503 -0.00000000000E+00 -0.00000000000E+00 -0.40574394253E+01  0.40574394253E+01  0.00000000000E+00 0.  1.
          2    1    1    2  501    0  0.33254792552E+01 -0.30376893004E+02  0.12670472244E+03  0.13033764279E+03  0.00000000000E+00 0. -1.
         -2    1    1    2    0  503 -0.33254792552E+01  0.30376893004E+02  0.10193384096E+03  0.10641579946E+03  0.00000000000E+00 0.  1.
</event>
<event>
 4    1  0.1772365E+004  0.2110857E+02  0.7546771E-02  0.1517720E+00
         21   -1    0    0  503  502  0.00000000000E+00  0.00000000000E+00  0.16461126925E+02  0.16461126925E+02  0.00000000000E+00 0. -1.
         21   -1    0    0  501  503 -0.00000000000E+00 -0.00000000000E+00 -0.54500244238E+02  0.54500244238E+02  0.00000000000E+00 0.  1.
          2    1    1    2  501    0 -0.11443067814E+02  0.17737755021E+02 -0.44191835560E+02  0.48974381919E+02  0.00000000000E+00 0.  1.
         -2    1    1    2    0  502  0.11443067814E+02 -0.17737755021E+02  0.61527182473E+01  0.21986989244E+02  0.00000000000E+00 0. -1.
</event>
<event>
 4    1  0.1772365E+004  0.3287585E+02  0.7546771E-02  0.1396145E+00
         21   -1    0    0  501  502  0.00000000000E+00  0.00000000000E+00  0.11103173792E+02  0.11103173792E+02  0.00000000000E+00 0.  1.
         21   -1    0    0  502  503 -0.00000000000E+00 -0.00000000000E+00 -0.22365350937E+03  0.22365350937E+03  0.00000000000E+00 0. -1.
          2    1    1    2  501    0  0.16419418498E+02 -0.28481996257E+02 -0.18064917647E+02  0.37512166881E+02  0.00000000000E+00 0.  1.
         -2    1    1    2    0  503 -0.16419418498E+02  0.28481996257E+02 -0.19448541793E+03  0.19724451628E+03  0.00000000000E+00 0. -1.
</event>
<event>
 4    1  0.1772365E+004  0.2430006E+02  0.7546771E-02  0.1476788E+00
         21   -1    0    0  501  502  0.00000000000E+00  0.00000000000E+00  0.18250460203E+03  0.18250460203E+03  0.00000000000E+00 0.  1.
         21   -1    0    0  502  503 -0.00000000000E+00 -0.00000000000E+00 -0.32993332966E+01  0.32993332966E+01  0.00000000000E+00 0. -1.
          2    1    1    2  501    0  0.11426701796E+02 -0.21445822979E+02  0.10252524967E+03  0.10536564742E+03  0.00000000000E+00 0.  1.
         -2    1    1    2    0  503 -0.11426701796E+02  0.21445822979E+02  0.76680019071E+02  0.80438287910E+02  0.00000000000E+00 0. -1.
</event>
<event>
 4    1  0.1772365E+004  0.2014798E+02  0.7546771E-02  0.1531785E+00
         21   -1    0    0  501  502  0.00000000000E+00  0.00000000000E+00  0.44045601436E+03  0.44045601436E+03  0.00000000000E+00 0. -1.
         21   -1    0    0  502  503 -0.00000000000E+00 -0.00000000000E+00 -0.18947203184E+01  0.18947203184E+01  0.00000000000E+00 0.  1.
          2    1    1    2  501    0 -0.19867362174E+02  0.33509880096E+01  0.37778415930E+03  0.37832104385E+03  0.00000000000E+00 0. -1.
         -2    1    1    2    0  503  0.19867362174E+02 -0.33509880096E+01  0.60777134743E+02  0.64029690831E+02  0.00000000000E+00 0.  1.
</event>
<event>
 4    1  0.1772365E+004  0.2724965E+02  0.7546771E-02  0.1445116E+00
         21   -1    0    0  503  502  0.00000000000E+00  0.00000000000E+00  0.15031149855E+03  0.15031149855E+03  0.00000000000E+00 0. -1.
         21   -1    0    0  501  503 -0.00000000000E+00 -0.00000000000E+00 -0.52108273568E+01  0.52108273568E+01  0.00000000000E+00 0.  1.
          2    1    1    2  501    0 -0.11704882170E+02  0.24607705051E+02  0.90277165177E+02  0.94300105869E+02  0.00000000000E+00 0.  1.
         -2    1    1    2    0  502  0.11704882170E+02 -0.24607705051E+02  0.54823506017E+02  0.61222220039E+02  0.00000000000E+00 0. -1.
</event>
<event>
 4    1  0.1772365E+004  0.2839613E+02  0.7546771E-02  0.1434066E+00
         21   -1    0    0  501  502  0.00000000000E+00  0.00000000000E+00  0.21577113640E+02  0.21577113640E+02  0.00000000000E+00 0. -1.
         21   -1    0    0  502  503 -0.00000000000E+00 -0.00000000000E+00 -0.98730843017E+02  0.98730843017E+02  0.00000000000E+00 0.  1.
          2    1    1    2  501    0 -0.25516144244E+02  0.12460609851E+02  0.88454761845E+01  0.29741937796E+02  0.00000000000E+00 0. -1.
         -2    1    1    2    0  503  0.25516144244E+02 -0.12460609851E+02 -0.85999205562E+02  0.90566018861E+02  0.00000000000E+00 0.  1.
</event>
<event>
 4    1  0.1772365E+004  0.2784108E+02  0.7546771E-02  0.1439337E+00
         21   -1    0    0  503  502  0.00000000000E+00  0.00000000000E+00  0.29308425267E+02  0.29308425267E+02  0.00000000000E+00 0.  1.
         21   -1    0    0  501  503 -0.00000000000E+00 -0.00000000000E+00 -0.46463354107E+02  0.46463354107E+02  0.00000000000E+00 0. -1.
          2    1    1    2  501    0 -0.24696585792E+02 -0.12853191641E+02 -0.33443840204E+02  0.43515702140E+02  0.00000000000E+00 0. -1.
         -2    1    1    2    0  502  0.24696585792E+02  0.12853191641E+02  0.16288911365E+02  0.32256077235E+02  0.00000000000E+00 0.  1.
</event>
<event>
 4    1  0.1772365E+004  0.2434347E+02  0.7546771E-02  0.1476284E+00
         21   -1    0    0  501  502  0.00000000000E+00  0.00000000000E+00  0.11662567589E+01  0.11662567589E+01  0.00000000000E+00 0. -1.
         21   -1    0    0  502  503 -0.00000000000E+00 -0.00000000000E+00 -0.12325920441E+04  0.12325920441E+04  0.00000000000E+00 0.  1.
          2    1    1    2  501    0 -0.20554974537E+02  0.13042154459E+02 -0.14277992929E+03  0.14484030164E+03  0.00000000000E+00 0. -1.
         -2    1    1    2    0  503  0.20554974537E+02 -0.13042154459E+02 -0.10886458580E+04  0.10889179992E+04  0.00000000000E+00 0.  1.
</event>
<event>
 4    1  0.1772365E+004  0.3404599E+02  0.7546771E-02  0.1387397E+00
         21   -1    0    0  501  502  0.00000000000E+00  0.00000000000E+00  0.11239159975E+02  0.11239159975E+02  0.00000000000E+00 0.  1.
         21   -1    0    0  502  503 -0.00000000000E+00 -0.00000000000E+00 -0.23777675087E+03  0.23777675087E+03  0.00000000000E+00 0. -1.
          2    1    1    2  501    0 -0.27924781719E+01 -0.33931274062E+02 -0.19576179789E+02  0.39272841875E+02  0.00000000000E+00 0.  1.
         -2    1    1    2    0  503  0.27924781719E+01  0.33931274062E+02 -0.20696141111E+03  0.20974306897E+03  0.00000000000E+00 0. -1.
</event>
<event>
 4    1  0.1772365E+004  0.2152690E+02  0.7546771E-02  0.1511873E+00
         21   -1    0    0  503  502  0.00000000000E+00  0.00000000000E+00  0.29705684889E+02  0.29705684889E+02  0.00000000000E+00 0.  1.
         21   -1    0    0  501  503 -0.00000000000E+00 -0.00000000000E+00 -0.20007641429E+02  0.20007641429E+02  0.00000000000E+00 0. -1.
          2    1    1    2  501    0 -0.30980270158E+01  0.21302804946E+02 -0.68177406657E+01  0.22580718716E+02  0.00000000000E+00 0. -1.
         -2    1    1    2    0  502  0.30980270158E+01 -0.21302804946E+02  0.16515784126E+02  0.27132607601E+02  0.00000000000E+00 0.  1.
</event>
<event>
 4    1  0.1772365E+004  0.4591220E+02  0.7546771E-02  0.1316940E+00
         21   -1    0    0  501  502  0.00000000000E+00  0.00000000000E+00  0.29870518588E+02  0.29870518588E+02  0.00000000000E+00 0.  1.
         21   -1    0    0  502  503 -0.00000000000E+00 -0.00000000000E+00 -0.97610355185E+02  0.97610355185E+02  0.00000000000E+00 0. -1.
          2    1    1    2  501    0  0.41087308714E+02 -0.20488132372E+02 -0.32074014883E+00  0.45913324642E+02  0.00000000000E+00 0.  1.
         -2    1    1    2    0  503 -0.41087308714E+02  0.20488132372E+02 -0.67419096448E+02  0.81567549131E+02  0.00000000000E+00 0. -1.
</event>
<event>
 4    1  0.1772365E+004  0.2365242E+02  0.7546771E-02  0.1484464E+00
         21   -1    0    0  501  502  0.00000000000E+00  0.00000000000E+00  0.89437463383E+01  0.89437463383E+01  0.00000000000E+00 0.  1.
         21   -1    0    0  502  503 -0.00000000000E+00 -0.00000000000E+00 -0.13938625109E+03  0.13938625109E+03  0.00000000000E+00 0. -1.
          2    1    1    2  501    0  0.23188979985E+02 -0.46591941115E+01 -0.10156922934E+02  0.25741017190E+02  0.00000000000E+00 0.  1.
         -2    1    1    2    0  503 -0.23188979985E+02  0.46591941115E+01 -0.12028558182E+03  0.12258898024E+03  0.00000000000E+00 0. -1.
</event>
<event>
 4    1  0.1772365E+004  0.2826358E+02  0.7546771E-02  0.1435312E+00
         21   -1    0    0  501  502  0.00000000000E+00  0.00000000000E+00  0.89376780733E+02  0.89376780733E+02  0.00000000000E+00 0. -1.
         21   -1    0    0  502  503 -0.00000000000E+00 -0.00000000000E+00 -0.96797297788E+01  0.96797297788E+01  0.00000000000E+00 0.  1.
          2    1    1    2  501    0 -0.82518754389E+01  0.27032142479E+02  0.53560755951E+02  0.60560587459E+02  0.00000000000E+00 0. -1.
         -2    1    1    2    0  503  0.82518754389E+01 -0.27032142479E+02  0.26136295002E+02  0.38495923053E+02  0.00000000000E+00 0.  1.
</event>
<event>
 4    1  0.1772365E+004  0.2170805E+02  0.7546771E-02  0.1509391E+00
         21   -1    0    0  501  502  0.00000000000E+00  0.00000000000E+00  0.84530188533E+01  0.84530188533E+01  0.00000000000E+00 0. -1.
         21   -1    0    0  502  503 -0.00000000000E+00 -0.00000000000E+00 -0.10368827276E+03  0.10368827276E+03  0.00000000000E+00 0.  1.
          2    1    1    2  501    0 -0.17885322710E+02  0.12302623734E+02 -0.94916692941E+01  0.23692427169E+02  0.00000000000E+00 0. -1.
         -2    1    1    2    0  503  0.17885322710E+02 -0.12302623734E+02 -0.85743584608E+02  0.88448864439E+02  0.00000000000E+00 0.  1.
</event>
<event>
 4    1  0.1772365E+004  0.2253838E+02  0.7546771E-02  0.1498378E+00
         21   -1    0    0  503  502  0.00000000000E+00  0.00000000000E+00  0.52944517409E+01  0.52944517409E+01  0.00000000000E+00 0. -1.
         21   -1    0    0  501  503 -0.00000000000E+00 -0.00000000000E+00 -0.14663041028E+03  0.14663041028E+03  0.00000000000E+00 0.  1.
          2    1    1    2  501    0 -0.13440690683E+02 -0.18092163393E+02 -0.11532876869E+03  0.11751043966E+03  0.00000000000E+00 0.  1.
         -2    1    1    2    0  502  0.13440690683E+02  0.18092163393E+02 -0.26007189844E+02  0.34414422353E+02  0.00000000000E+00 0. -1.
</event>
<event>
 4    1  0.1772365E+004  0.2574568E+02  0.7546771E-02  0.1460632E+00
         21   -1    0    0  501  502  0.00000000000E+00  0.00000000000E+00  0.19308695101E+03  0.19308695101E+03  0.00000000000E+00 0. -1.
         21   -1    0    0  502  503 -0.00000000000E+00 -0.00000000000E+00 -0.10131143221E+02  0.10131143221E+02  0.00000000000E+00 0.  1.
          2    1    1    2  501    0  0.22327539636E+02  0.12818770309E+02  0.17409786774E+03  0.17599121413E+03  0.00000000000E+00 0. -1.
         -2    1    1    2    0  503 -0.22327539636E+02 -0.12818770309E+02  0.88579400534E+01  0.27226880108E+02  0.00000000000E+00 0.  1.
</event>
<event>
 4    1  0.1772365E+004  0.3421705E+02  0.7546771E-02  0.1386153E+00
         21   -1    0    0  503  502  0.00000000000E+00  0.00000000000E+00  0.35474491718E+02  0.35474491718E+02  0.00000000000E+00 0.  1.
         21   -1    0    0  501  503 -0.00000000000E+00 -0.00000000000E+00 -0.58801152467E+02  0.58801152467E+02  0.00000000000E+00 0. -1.
          2    1    1    2  501    0 -0.50584636073E+01 -0.33841075957E+02 -0.42885348540E+02  0.54863098668E+02  0.00000000000E+00 0. -1.
         -2    1    1    2    0  502  0.50584636073E+01  0.33841075957E+02  0.19558687791E+02  0.39412545517E+02  0.00000000000E+00 0.  1.
</event>
<event>
 4    1  0.1772365E+004  0.3165684E+02  0.7546771E-02  0.1405725E+00
         21   -1    0    0  503  502  0.00000000000E+00  0.00000000000E+00  0.56944879644E+02  0.56944879644E+02  0.00000000000E+00 0. -1.
         21   -1    0    0  501  503 -0.00000000000E+00 -0.00000000000E+00 -0.29254575248E+02  0.29254575248E+02  0.00000000000E+00 0.  1.
          2    1    1    2  501    0 -0.29705035450E+02  0.10943786549E+02 -0.13359937057E+02  0.34360493496E+02  0.00000000000E+00 0.  1.
         -2    1    1    2    0  502  0.29705035450E+02 -0.10943786549E+02  0.41050241454E+02  0.51838961395E+02  0.00000000000E+00 0. -1.
</event>
<event>
 4    1  0.1772365E+004  0.2164278E+02  0.7546771E-02  0.1510282E+00
         21   -1    0    0  501  502  0.00000000000E+00  0.00000000000E+00  0.11841803014E+03  0.11841803014E+03  0.00000000000E+00 0.  1.
         21   -1    0    0  502  503 -0.00000000000E+00 -0.00000000000E+00 -0.66115461372E+01  0.66115461372E+01  0.00000000000E+00 0. -1.
          2    1    1    2  501    0  0.88835880393E-01 -0.21642594500E+02  0.95525939160E+02  0.97947000163E+02  0.00000000000E+00 0.  1.
         -2    1    1    2    0  503 -0.88835880393E-01  0.21642594500E+02  0.16280544839E+02  0.27082576110E+02  0.00000000000E+00 0. -1.
</event>
<event>
 4    1  0.1772365E+004  0.2354861E+02  0.7546771E-02  0.1485722E+00
         21   -1    0    0  501  502  0.00000000000E+00  0.00000000000E+00  0.10204633519E+02  0.10204633519E+02  0.00000000000E+00 0. -1.
         21   -1    0    0  502  503 -0.00000000000E+00 -0.00000000000E+00 -0.83241762055E+02  0.83241762055E+02  0.00000000000E+00 0.  1.
          2    1    1    2  501    0  0.22334528902E+02 -0.74636488540E+01 -0.89882455805E+01  0.25205669880E+02  0.00000000000E+00 0. -1.
         -2    1    1    2    0  503 -0.22334528902E+02  0.74636488540E+01 -0.64048882955E+02  0.68240725694E+02  0.00000000000E+00 0.  1.
</event>
<event>
 4    1  0.1772365E+004  0.3482371E+02  0.7546771E-02  0.1381807E+00
         21   -1    0    0  501  502  0.00000000000E+00  0.00000000000E+00  0.38290596159E+02  0.38290596159E+02  0.00000000000E+00 0.  1.
         21   -1    0    0  502  503 -0.00000000000E+00 -0.00000000000E+00 -0.19882729266E+03  0.19882729266E+03  0.00000000000E+00 0. -1.
          2    1    1    2  501    0 -0.27104448941E+02  0.21864120918E+02  0.28438786019E+02  0.44960599264E+02  0.00000000000E+00 0.  1.
         -2    1    1    2    0  503  0.27104448941E+02 -0.21864120918E+02 -0.18897548252E+03  0.19215728956E+03  0.00000000000E+00 0. -1.
</event>
<event>
 4    1  0.1772365E+004  0.2113403E+02  0.7546771E-02  0.1517360E+00
         21   -1    0    0  503  502  0.00000000000E+00  0.00000000000E+00  0.87020806466E+01  0.87020806466E+01  0.00000000000E+00 0. -1.
         21   -1    0    0  501  503 -0.00000000000E+00 -0.00000000000E+00 -0.51720290447E+02  0.51720290447E+02  0.00000000000E+00 0.  1.
          2    1    1    2  501    0  0.38130128343E+00 -0.21130594695E+02 -0.18872987330E+02  0.28334379711E+02  0.00000000000E+00 0. -1.
         -2    1    1    2    0  502 -0.38130128343E+00  0.21130594695E+02 -0.24145222470E+02  0.32087991382E+02  0.00000000000E+00 0.  1.
</event>
<event>
 4    1  0.1772365E+004  0.2324505E+02  0.7546771E-02  0.1489444E+00
         21   -1    0    0  501  502  0.00000000000E+00  0.00000000000E+00  0.20981186772E+02  0.20981186772E+02  0.00000000000E+00 0.  1.
         21   -1    0    0  502  503 -0.00000000000E+00 -0.00000000000E+00 -0.26137439517E+02  0.26137439517E+02  0.00000000000E+00 0. -1.
          2    1    1    2  501    0 -0.20342446269E+02  0.11247978430E+02  0.27845899491E+00  0.23246713281E+02  0.00000000000E+00 0. -1.
         -2    1    1    2    0  503  0.20342446269E+02 -0.11247978430E+02 -0.54347117400E+01  0.23871913008E+02  0.00000000000E+00 0.  1.
</event>
<event>
 4    1  0.1772365E+004  0.2624201E+02  0.7546771E-02  0.1455374E+00
         21   -1    0    0  503  502  0.00000000000E+00  0.00000000000E+00  0.23348545135E+03  0.23348545135E+03  0.00000000000E+00 0. -1.
         21   -1    0    0  501  503 -0.00000000000E+00 -0.00000000000E+00 -0.29649625866E+01  0.29649625866E+01  0.00000000000E+00 0.  1.
          2    1    1    2  501    0  0.14711992860E+01 -0.26200736299E+02  0.10669617029E+03  0.10987591076E+03  0.00000000000E+00 0.  1.
         -2    1    1    2    0  502 -0.14711992860E+01  0.26200736299E+02  0.12382431847E+03  0.12657450318E+03  0.00000000000E+00 0. -1.
</event>
<event>
 4    1  0.1772365E+004  0.3074534E+02  0.7546771E-02  0.1413228E+00
         21   -1    0    0  501  502  0.00000000000E+00  0.00000000000E+00  0.18163024784E+03  0.18163024784E+03  0.00000000000E+00 0. -1.
         21   -1    0    0  502  503 -0.00000000000E+00 -0.00000000000E+00 -0.77696947100E+01  0.77696947100E+01  0.00000000000E+00 0.  1.
          2    1    1    2  501    0 -0.93611888228E+01  0.29285562154E+02  0.14134503616E+03  0.14465025148E+03  0.00000000000E+00 0. -1.
         -2    1    1    2    0  503  0.93611888228E+01 -0.29285562154E+02  0.32515516970E+02  0.44749691068E+02  0.00000000000E+00 0.  1.
</event>
<event>
 4    1  0.1772365E+004  0.2352754E+02  0.7546771E-02  0.1485978E+00
         21   -1    0    0  503  502  0.00000000000E+00  0.00000000000E+00  0.30092902007E+01  0.30092902007E+01  0.00000000000E+00 0. -1.
         21   -1    0    0  501  503 -0.00000000000E+00 -0.00000000000E+00 -0.18579025200E+03  0.18579025200E+03  0.00000000000E+00 0.  1.
          2    1    1    2  501    0  0.16052215183E+02  0.17200919964E+02 -0.81983861176E+02  0.85293017025E+02  0.00000000000E+00 0.  1.
         -2    1    1    2    0  502 -0.16052215183E+02 -0.17200919964E+02 -0.10079710062E+03  0.10350652517E+03  0.00000000000E+00 0. -1.
</event>
<event>
 4    1  0.1772365E+004  0.2899809E+02  0.7546771E-02  0.1428507E+00
         21   -1    0    0  501  502  0.00000000000E+00  0.00000000000E+00  0.10746487789E+03  0.10746487789E+03  0.00000000000E+00 0. -1.
         21   -1    0    0  502  503 -0.00000000000E+00 -0.00000000000E+00 -0.10235415245E+02  0.10235415245E+02  0.00000000000E+00 0.  1.
          2    1    1    2  501    0  0.24263597318E+02 -0.15879776555E+02  0.77174862993E+02  0.82443004168E+02  0.00000000000E+00 0. -1.
         -2    1    1    2    0  503 -0.24263597318E+02  0.15879776555E+02  0.20054599655E+02  0.35257288970E+02  0.00000000000E+00 0.  1.
</event>
<event>
 4    1  0.1772365E+004  0.2108680E+02  0.7546771E-02  0.1518029E+00
         21   -1    0    0  503  502  0.00000000000E+00  0.00000000000E+00  0.33907876722E+03  0.33907876722E+03  0.00000000000E+00 0.  1.
         21   -1    0    0  501  503 -0.00000000000E+00 -0.00000000000E+00 -0.13235187103E+01  0.13235187103E+01  0.00000000000E+00 0. -1.
          2    1    1    2  501    0 -0.12509099571E+02  0.16975734584E+02  0.18519326522E+03  0.18638991018E+03  0.00000000000E+00 0.  1.
         -2    1    1    2    0  502  0.12509099571E+02 -0.16975734584E+02  0.15256198330E+03  0.15401237575E+03  0.00000000000E+00 0. -1.
</event>
<event>
 4    1  0.1772365E+004  0.3215288E+02  0.7546771E-02  0.1401766E+00
         21   -1    0    0  501  502  0.00000000000E+00  0.00000000000E+00  0.29345359273E+03  0.29345359273E+03  0.00000000000E+00 0. -1.
         21   -1    0    0  502  503 -0.00000000000E+00 -0.00000000000E+00 -0.68435805035E+01  0.68435805035E+01  0.00000000000E+00 0.  1.
          2    1    1    2  501    0  0.89155027616E+01  0.30892090596E+02  0.24789572581E+03  0.24997219510E+03  0.00000000000E+00 0. -1.
         -2    1    1    2    0  503 -0.89155027616E+01 -0.30892090596E+02  0.38714286417E+02  0.50324978129E+02  0.00000000000E+00 0.  1.
</event>
<event>
 4    1  0.1772365E+004  0.3106335E+02  0.7546771E-02  0.1410575E+00
         21   -1    0    0  501  502  0.00000000000E+00  0.00000000000E+00  0.30040746446E+02  0.30040746446E+02  0.00000000000E+00 0.  1.
         21   -1    0    0  502  503 -0.00000000000E+00 -0.00000000000E+00 -0.34652295174E+02  0.34652295174E+02  0.00000000000E+00 0. -1.
          2    1    1    2  501    0  0.19975685533E+02 -0.23788731259E+02  0.64370781792E+01  0.31723299370E+02  0.00000000000E+00 0. -1.
         -2    1    1    2    0  503 -0.19975685533E+02  0.23788731259E+02 -0.11048626908E+02  0.32969742249E+02  0.00000000000E+00 0.  1.
</event>
<event>
 4    1  0.1772365E+004  0.4024911E+02  0.7546771E-02  0.1347032E+00
         21   -1    0    0  501  502  0.00000000000E+00  0.00000000000E+00  0.74410750742E+03  0.74410750742E+03  0.00000000000E+00 0. -1.
         21   -1    0    0  502  503 -0.00000000000E+00 -0.00000000000E+00 -0.26773366004E+01  0.26773366004E+01  0.00000000000E+00 0.  1.
          2    1    1    2  501    0  0.38052514926E+02  0.13114772606E+02  0.53211557104E+03  0.53363561734E+03  0.00000000000E+00 0. -1.
         -2    1    1    2    0  503 -0.38052514926E+02 -0.13114772606E+02  0.20931459978E+03  0.21314922668E+03  0.00000000000E+00 0.  1.
</event>
<event>
 4    1  0.1772365E+004  0.2095048E+02  0.7546771E-02  0.1519973E+00
         21   -1    0    0  501  502  0.00000000000E+00  0.00000000000E+00  0.53654952687E+02  0.53654952687E+02  0.00000000000E+00 0.  1.
         21   -1    0    0  502  503 -0.00000000000E+00 -0.00000000000E+00 -0.10688248793E+02  0.10688248793E+02  0.00000000000E+00 0. -1.
          2    1    1    2  501    0  0.94578550290E+01 -0.18694155620E+02  0.37066830832E+02  0.42577839588E+02  0.00000000000E+00 0.  1.
         -2    1    1    2    0  503 -0.94578550290E+01  0.18694155620E+02  0.58998730622E+01  0.21765361891E+02  0.00000000000E+00 0. -1.
</event>
<event>
 4    1  0.1772365E+004  0.2206310E+02  0.7546771E-02  0.1504610E+00
         21   -1    0    0  503  502  0.00000000000E+00  0.00000000000E+00  0.39676358044E+02  0.39676358044E+02  0.00000000000E+00 0. -1.
         21   -1    0    0  501  503 -0.00000000000E+00 -0.00000000000E+00 -0.13288236283E+02  0.13288236283E+02  0.00000000000E+00 0.  1.
          2    1    1    2  501    0  0.21993958336E+02  0.17453001815E+01  0.58589356531E+01  0.22827777005E+02  0.00000000000E+00 0.  1.
         -2    1    1    2    0  502 -0.21993958336E+02 -0.17453001815E+01  0.20529186108E+02  0.30136817321E+02  0.00000000000E+00 0. -1.
</event>
<event>
 4    1  0.1772365E+004  0.2185264E+02  0.7546771E-02  0.1507431E+00
         21   -1    0    0  501  502  0.00000000000E+00  0.00000000000E+00  0.40411860439E+03  0.40411860439E+03  0.00000000000E+00 0.  1.
         21   -1    0    0  502  503 -0.00000000000E+00 -0.00000000000E+00 -0.18543608180E+01  0.18543608180E+01  0.00000000000E+00 0. -1.
          2    1    1    2  501    0  0.20318859338E+02 -0.80424949937E+01  0.32338959031E+03  0.32412708139E+03  0.00000000000E+00 0.  1.
         -2    1    1    2    0  503 -0.20318859338E+02  0.80424949937E+01  0.78874653266E+02  0.81845883820E+02  0.00000000000E+00 0. -1.
</event>
<event>
 4    1  0.1772365E+004  0.2699170E+02  0.7546771E-02  0.1447691E+00
         21   -1    0    0  503  502  0.00000000000E+00  0.00000000000E+00  0.42948342962E+02  0.42948342962E+02  0.00000000000E+00 0. -1.
         21   -1    0    0  501  503 -0.00000000000E+00 -0.00000000000E+00 -0.51256660380E+02  0.51256660380E+02  0.00000000000E+00 0.  1.
          2    1    1    2  501    0  0.15032670132E+02  0.22418093454E+02 -0.42681841522E+02  0.50500412682E+02  0.00000000000E+00 0.  1.
         -2    1    1    2    0  502 -0.15032670132E+02 -0.22418093454E+02  0.34373524104E+02  0.43704590660E+02  0.00000000000E+00 0. -1.
</event>
<event>
 4    1  0.1772365E+004  0.2024604E+02  0.7546771E-02  0.1530307E+00
         21   -1    0    0  503  502  0.00000000000E+00  0.00000000000E+00  0.40897828021E+02  0.40897828021E+02  0.00000000000E+00 0. -1.
         21   -1    0    0  501  503 -0.00000000000E+00 -0.00000000000E+00 -0.13731213045E+02  0.13731213045E+02  0.00000000000E+00 0.  1.
          2    1    1    2  501    0  0.44237504952E+01  0.19756837912E+02 -0.61201955819E+00  0.20255290189E+02  0.00000000000E+00 0.  1.
         -2    1    1    2    0  502 -0.44237504952E+01 -0.19756837912E+02  0.27778634535E+02  0.34373750876E+02  0.00000000000E+00 0. -1.
</event>
<event>
 4    1  0.1772365E+004  0.5200706E+02  0.7546771E-02  0.1289697E+00
         21   -1    0    0  501  502  0.00000000000E+00  0.00000000000E+00  0.22612758282E+03  0.22612758282E+03  0.00000000000E+00 0. -1.
         21   -1    0    0  502  503 -0.00000000000E+00 -0.00000000000E+00 -0.12108680690E+02  0.12108680690E+02  0.00000000000E+00 0.  1.
          2    1    1    2  501    0  0.51130125163E+02 -0.95102569168E+01  0.12015999970E+03  0.13093189151E+03  0.00000000000E+00 0. -1.
         -2    1    1    2    0  503 -0.51130125163E+02  0.95102569168E+01  0.93858902431E+02  0.10730437200E+03  0.00000000000E+00 0.  1.
</event>
<event>
 4    1  0.1772365E+004  0.3233851E+02  0.7546771E-02  0.1400306E+00
         21   -1    0    0  501  502  0.00000000000E+00  0.00000000000E+00  0.37006501739E+02  0.37006501739E+02  0.00000000000E+00 0. -1.
         21   -1    0    0  502  503 -0.00000000000E+00 -0.00000000000E+00 -0.28495069998E+02  0.28495069998E+02  0.00000000000E+00 0.  1.
          2    1    1    2  501    0 -0.17493474038E+02  0.27198484999E+02  0.12768795180E+01  0.32363708710E+02  0.00000000000E+00 0.  1.
         -2    1    1    2    0  503  0.17493474038E+02 -0.27198484999E+02  0.72345522231E+01  0.33137863027E+02  0.00000000000E+00 0. -1.
</event>
<event>
 4    1  0.1772365E+004  0.4551941E+02  0.7546771E-02  0.1318862E+00
         21   -1    0    0  501  502  0.00000000000E+00  0.00000000000E+00  0.19027182091E+01  0.19027182091E+01  0.00000000000E+00 0.  1.
         21   -1    0    0  502  503 -0.00000000000E+00 -0.00000000000E+00 -0.12236237342E+04  0.12236237342E+04  0.00000000000E+00 0. -1.
          2    1    1    2  501    0 -0.88466169048E+01  0.44651476775E+02 -0.40759386432E+03  0.41012775478E+03  0.00000000000E+00 0.  1.
         -2    1    1    2    0  503  0.88466169048E+01 -0.44651476775E+02 -0.81412715170E+03  0.81539869766E+03  0.00000000000E+00 0. -1.
</event>
<event>
 4    1  0.1772365E+004  0.2472274E+02  0.7546771E-02  0.1471929E+00
         21   -1    0    0  503  502  0.00000000000E+00  0.00000000000E+00  0.14513411294E+04  0.14513411294E+04  0.00000000000E+00 0. -1.
         21   -1    0    0  501  503 -0.00000000000E+00 -0.00000000000E+00 -0.58536753902E+00  0.58536753902E+00  0.00000000000E+00 0.  1.
          2    1    1    2  501    0 -0.61733390285E+01  0.23939586414E+02  0.34085086761E+03  0.34174629166E+03  0.00000000000E+00 0. -1.
         -2    1    1    2    0  502  0.61733390285E+01 -0.23939586414E+02  0.11099048943E+04  0.11101802053E+04  0.00000000000E+00 0.  1.
</event>
<event>
 4    1  0.1772365E+004  0.4622566E+02  0.7546771E-02  0.1315422E+00
         21   -1    0    0  501  502  0.00000000000E+00  0.00000000000E+00  0.15899876429E+03  0.15899876429E+03  0.00000000000E+00 0. -1.
         21   -1    0    0  502  503 -0.00000000000E+00 -0.00000000000E+00 -0.33220093253E+02  0.33220093253E+02  0.00000000000E+00 0.  1.
          2    1    1    2  501    0  0.38069716269E+02  0.26220375969E+02  0.13705260238E+03  0.14463826338E+03  0.00000000000E+00 0. -1.
         -2    1    1    2    0  503 -0.38069716269E+02 -0.26220375969E+02 -0.11273931350E+02  0.47580594162E+02  0.00000000000E+00 0.  1.
</event>
<event>
 4    1  0.1772365E+004  0.2510304E+02  0.7546771E-02  0.1467654E+00
         21   -1    0    0  503  502  0.00000000000E+00  0.00000000000E+00  0.23458973330E+02  0.23458973330E+02  0.00000000000E+00 0. -1.
         21   -1    0    0  501  503 -0.00000000000E+00 -0.00000000000E+00 -0.10933973413E+03  0.10933973413E+03  0.00000000000E+00 0.  1.
          2    1    1    2  501    0 -0.13880426613E+02  0.20916419676E+02 -0.10060936679E+03  0.10369381631E+03  0.00000000000E+00 0.  1.
         -2    1    1    2    0  502  0.13880426613E+02 -0.20916419676E+02  0.14728605984E+02  0.29104891157E+02  0.00000000000E+00 0. -1.
</event>
<event>
 4    1  0.1772365E+004  0.2589215E+02  0.7546771E-02  0.1459066E+00
         21   -1    0    0  503  502  0.00000000000E+00  0.00000000000E+00  0.17114972852E+03  0.17114972852E+03  0.00000000000E+00 0.  1.
         21   -1    0    0  501  503 -0.00000000000E+00 -0.00000000000E+00 -0.10077366911E+02  0.10077366911E+02  0.00000000000E+00 0. -1.
          2    1    1    2  501    0  0.18836050727E+02 -0.17765314984E+02  0.96892757169E+01  0.27645710108E+02  0.00000000000E+00 0. -1.
         -2    1    1    2    0  502 -0.18836050727E+02  0.17765314984E+02  0.15138308589E+03  0.15358138532E+03  0.00000000000E+00 0.  1.
</event>
<event>
 4    1  0.1772365E+004  0.3720351E+02  0.7546771E-02  0.1365701E+00
         21   -1    0    0  503  502  0.00000000000E+00  0.00000000000E+00  0.55233184237E+03  0.55233184237E+03  0.00000000000E+00 0.  1.
         21   -1    0    0  501  503 -0.00000000000E+00 -0.00000000000E+00 -0.11280409264E+02  0.11280409264E+02  0.00000000000E+00 0. -1.
          2    1    1    2  501    0 -0.13362242205E+01 -0.37179501164E+02  0.21984246761E+02  0.43213515335E+02  0.00000000000E+00 0. -1.
         -2    1    1    2    0  502  0.13362242205E+01  0.37179501164E+02  0.51906718635E+03  0.52039873630E+03  0.00000000000E+00 0.  1.
</event>
<event>
 4    1  0.1772365E+004  0.2132952E+02  0.7546771E-02  0.1514612E+00
         21   -1    0    0  503  502  0.00000000000E+00  0.00000000000E+00  0.17269420275E+03  0.17269420275E+03  0.00000000000E+00 0.  1.
         21   -1    0    0  501  503 -0.00000000000E+00 -0.00000000000E+00 -0.27031361321E+01  0.27031361321E+01  0.00000000000E+00 0. -1.
          2    1    1    2  501    0  0.10193032879E+02  0.18736342183E+02  0.71012550763E+02  0.74146684373E+02  0.00000000000E+00 0. -1.
         -2    1    1    2    0  502 -0.10193032879E+02 -0.18736342183E+02  0.98978515855E+02  0.10125065451E+03  0.00000000000E+00 0.  1.
</event>
<event>
 4    1  0.1772365E+004  0.3269771E+02  0.7546771E-02  0.1397514E+00
         21   -1    0    0  501  502  0.00000000000E+00  0.00000000000E+00  0.13523956765E+02  0.13523956765E+02  0.00000000000E+00 0.  1.
         21   -1    0    0  502  503 -0.00000000000E+00 -0.00000000000E+00 -0.15329387231E+03  0.15329387231E+03  0.00000000000E+00 0. -1.
          2    1    1    2  501    0 -0.44036675967E+01 -0.32399817415E+02 -0.11839949403E+02  0.34775348433E+02  0.00000000000E+00 0.  1.
         -2    1    1    2    0  503  0.44036675967E+01  0.32399817415E+02 -0.12792996614E+03  0.13204248064E+03  0.00000000000E+00 0. -1.
</event>
<event>
 4    1  0.1772365E+004  0.2013038E+02  0.7546771E-02  0.1532052E+00
         21   -1    0    0  503  502  0.00000000000E+00  0.00000000000E+00  0.16262234506E+02  0.16262234506E+02  0.00000000000E+00 0.  1.
         21   -1    0    0  501  503 -0.00000000000E+00 -0.00000000000E+00 -0.25029817390E+02  0.25029817390E+02  0.00000000000E+00 0. -1.
          2    1    1    2  501    0 -0.18803524995E+02 -0.71874649948E+01 -0.30075857614E+01  0.20353814812E+02  0.00000000000E+00 0.  1.
         -2    1    1    2    0  502  0.18803524995E+02  0.71874649948E+01 -0.57599971229E+01  0.20938237083E+02  0.00000000000E+00 0. -1.
</event>
<event>
 4    1  0.1772365E+004  0.2357351E+02  0.7546771E-02  0.1485419E+00
         21   -1    0    0  501  502  0.00000000000E+00  0.00000000000E+00  0.24155235098E+02  0.24155235098E+02  0.00000000000E+00 0.  1.
         21   -1    0    0  502  503 -0.00000000000E+00 -0.00000000000E+00 -0.23213836383E+02  0.23213836383E+02  0.00000000000E+00 0. -1.
          2    1    1    2  501    0  0.20289722724E+02 -0.12001554619E+02 -0.17715092812E+01  0.23639974759E+02  0.00000000000E+00 0.  1.
         -2    1    1    2    0  503 -0.20289722724E+02  0.12001554619E+02  0.27129079958E+01  0.23729096722E+02  0.00000000000E+00 0. -1.
</event>
<event>
 4    1  0.1772365E+004  0.2648633E+02  0.7546771E-02  0.1452837E+00
         21   -1    0    0  503  502  0.00000000000E+00  0.00000000000E+00  0.10336490790E+03  0.10336490790E+03  0.00000000000E+00 0. -1.
         21   -1    0    0  501  503 -0.00000000000E+00 -0.00000000000E+00 -0.68255733585E+01  0.68255733585E+01  0.00000000000E+00 0.  1.
          2    1    1    2  501    0  0.24862879008E+02 -0.91303177948E+01  0.52417777298E+02  0.58729454556E+02  0.00000000000E+00 0. -1.
         -2    1    1    2    0  502 -0.24862879008E+02  0.91303177948E+01  0.44121557240E+02  0.51461026699E+02  0.00000000000E+00 0.  1.
</event>
<event>
 4    1  0.1772365E+004  0.2105936E+02  0.7546771E-02  0.1518419E+00
         21   -1    0    0  501  502  0.00000000000E+00  0.00000000000E+00  0.12810979448E+02  0.12810979448E+02  0.00000000000E+00 0. -1.
         21   -1    0    0  502  503 -0.00000000000E+00 -0.00000000000E+00 -0.37618810225E+02  0.37618810225E+02  0.00000000000E+00 0.  1.
          2    1    1    2  501    0 -0.20960225744E+02  0.20409901952E+01 -0.52829516339E+01  0.21711892644E+02  0.00000000000E+00 0. -1.
         -2    1    1    2    0  503  0.20960225744E+02 -0.20409901952E+01 -0.19524879144E+02  0.28717897029E+02  0.00000000000E+00 0.  1.
</event>
<event>
 4    1  0.1772365E+004  0.2372406E+02  0.7546771E-02  0.1483601E+00
         21   -1    0    0  501  502  0.00000000000E+00  0.00000000000E+00  0.19004677632E+02  0.19004677632E+02  0.00000000000E+00 0.  1.
         21   -1    0    0  502  503 -0.00000000000E+00 -0.00000000000E+00 -0.12838559640E+03  0.12838559640E+03  0.00000000000E+00 0. -1.
          2    1    1    2  501    0  0.22895400406E+02  0.62154501760E+01  0.99483922191E+01  0.25725506572E+02  0.00000000000E+00 0.  1.
         -2    1    1    2    0  503 -0.22895400406E+02 -0.62154501760E+01 -0.11932931098E+03  0.12166476746E+03  0.00000000000E+00 0. -1.
</event>
<event>
 4    1  0.1772365E+004  0.2849626E+02  0.7546771E-02  0.1433130E+00
         21   -1    0    0  503  502  0.00000000000E+00  0.00000000000E+00  0.76145425247E+02  0.76145425247E+02  0.00000000000E+00 0.  1.
         21   -1    0    0  501  503 -0.00000000000E+00 -0.00000000000E+00 -0.35292429876E+02  0.35292429876E+02  0.00000000000E+00 0. -1.
          2    1    1    2  501    0 -0.28394848009E+02 -0.24019231522E+01 -0.26119013626E+02  0.38655394204E+02  0.00000000000E+00 0. -1.
         -2    1    1    2    0  502  0.28394848009E+02  0.24019231522E+01  0.66972008997E+02  0.72782460919E+02  0.00000000000E+00 0.  1.
</event>
<event>
 4    1  0.1772365E+004  0.2126559E+02  0.7546771E-02  0.1515507E+00
         21   -1    0    0  501  502  0.00000000000E+00  0.00000000000E+00  0.26729122742E+02  0.26729122742E+02  0.00000000000E+00 0.  1.
         21   -1    0    0  502  503 -0.00000000000E+00 -0.00000000000E+00 -0.34865418418E+02  0.34865418418E+02  0.00000000000E+00 0. -1.
          2    1    1    2  501    0  0.14526732471E+02 -0.15530589469E+02  0.18027456447E+02  0.27878564373E+02  0.00000000000E+00 0.  1.
         -2    1    1    2    0  503 -0.14526732471E+02  0.15530589469E+02 -0.26163752123E+02  0.33715976787E+02  0.00000000000E+00 0. -1.
</event>
<event>
 4    1  0.1772365E+004  0.3860620E+02  0.7546771E-02  0.1356853E+00
         21   -1    0    0  503  502  0.00000000000E+00  0.00000000000E+00  0.57079515679E+02  0.57079515679E+02  0.00000000000E+00 0. -1.
         21   -1    0    0  501  503 -0.00000000000E+00 -0.00000000000E+00 -0.30229169246E+02  0.30229169246E+02  0.00000000000E+00 0.  1.
          2    1    1    2  501    0  0.10544075373E+02  0.37138409598E+02 -0.26862313982E+01  0.38699545631E+02  0.00000000000E+00 0.  1.
         -2    1    1    2    0  502 -0.10544075373E+02 -0.37138409598E+02  0.29536577831E+02  0.48609139294E+02  0.00000000000E+00 0. -1.
</event>
<event>
 4    1  0.1772365E+004  0.3234026E+02  0.7546771E-02  0.1400293E+00
         21   -1    0    0  501  502  0.00000000000E+00  0.00000000000E+00  0.11321382908E+02  0.11321382908E+02  0.00000000000E+00 0.  1.
         21   -1    0    0  502  503 -0.00000000000E+00 -0.00000000000E+00 -0.10054878598E+03  0.10054878598E+03  0.00000000000E+00 0. -1.
          2    1    1    2  501    0  0.20189000479E+02 -0.25264531085E+02 -0.28672508425E+02  0.43220423537E+02  0.00000000000E+00 0.  1.
         -2    1    1    2    0  503 -0.20189000479E+02  0.25264531085E+02 -0.60554894651E+02  0.68649745356E+02  0.00000000000E+00 0. -1.
</event>
<event>
 4    1  0.1772365E+004  0.2629343E+02  0.7546771E-02  0.1454838E+00
         21   -1    0    0  501  502  0.00000000000E+00  0.00000000000E+00  0.58311420757E+01  0.58311420757E+01  0.00000000000E+00 0.  1.
         21   -1    0    0  502  503 -0.00000000000E+00 -0.00000000000E+00 -0.15823221674E+03  0.15823221674E+03  0.00000000000E+00 0. -1.
          2    1    1    2  501    0 -0.25414430833E+02  0.67417513457E+01 -0.35125937307E+02  0.43876827341E+02  0.00000000000E+00 0.  1.
         -2    1    1    2    0  503  0.25414430833E+02 -0.67417513457E+01 -0.11727513736E+03  0.12018653147E+03  0.00000000000E+00 0. -1.
</event>
<event>
 4    1  0.1772365E+004  0.2829874E+02  0.7546771E-02  0.1434981E+00
         21   -1    0    0  503  502  0.00000000000E+00  0.00000000000E+00  0.13827586967E+02  0.13827586967E+02  0.00000000000E+00 0. -1.
         21   -1    0    0  501  503 -0.00000000000E+00 -0.00000000000E+00 -0.37838633935E+03  0.37838633935E+03  0.00000000000E+00 0.  1.
          2    1    1    2  501    0  0.28147477712E+02  0.29220069098E+01 -0.36275567888E+03  0.36385780352E+03  0.00000000000E+00 0.  1.
         -2    1    1    2    0  502 -0.28147477712E+02 -0.29220069098E+01 -0.18030735067E+01  0.28356122796E+02  0.00000000000E+00 0. -1.
</event>
<event>
 4    1  0.1772365E+004  0.2016762E+02  0.7546771E-02  0.1531489E+00
         21   -1    0    0  501  502  0.00000000000E+00  0.00000000000E+00  0.60901345773E+01  0.60901345773E+01  0.00000000000E+00 0. -1.
         21   -1    0    0  502  503 -0.00000000000E+00 -0.00000000000E+00 -0.96017391361E+02  0.96017391361E+02  0.00000000000E+00 0.  1.
          2    1    1    2  501    0  0.71514023632E+01 -0.18857102640E+02 -0.16794005764E+02  0.26244456659E+02  0.00000000000E+00 0. -1.
         -2    1    1    2    0  503 -0.71514023632E+01  0.18857102640E+02 -0.73133251020E+02  0.75863069279E+02  0.00000000000E+00 0.  1.
</event>
<event>
 4    1  0.1772365E+004  0.2084545E+02  0.7546771E-02  0.1521483E+00
         21   -1    0    0  503  502  0.00000000000E+00  0.00000000000E+00  0.20255451465E+02  0.20255451465E+02  0.00000000000E+00 0.  1.
         21   -1    0    0  501  503 -0.00000000000E+00 -0.00000000000E+00 -0.29294645535E+02  0.29294645535E+02  0.00000000000E+00 0. -1.
          2    1    1    2  501    0 -0.19818648274E+02 -0.64617362725E+01 -0.17338003380E+02  0.27113450837E+02  0.00000000000E+00 0. -1.
         -2    1    1    2    0  502  0.19818648274E+02  0.64617362725E+01  0.82988093106E+01  0.22436646163E+02  0.00000000000E+00 0.  1.
</event>
<event>
 4    1  0.1772365E+004  0.2245948E+02  0.7546771E-02  0.1499399E+00
         21   -1    0    0  503  502  0.00000000000E+00  0.00000000000E+00  0.14837314225E+02  0.14837314225E+02  0.00000000000E+00 0.  1.
         21   -1    0    0  501  503 -0.00000000000E+00 -0.00000000000E+00 -0.38314983146E+02  0.38314983146E+02  0.00000000000E+00 0. -1.
          2    1    1    2  501    0 -0.36463978195E+01  0.22161494234E+02 -0.20660276796E+02  0.30516799980E+02  0.00000000000E+00 0. -1.
         -2    1    1    2    0  502  0.36463978195E+01 -0.22161494234E+02 -0.28173921258E+01  0.22635497391E+02  0.00000000000E+00 0.  1.
</event>
<event>
 4    1  0.1772365E+004  0.2078258E+02  0.7546771E-02  0.1522392E+00
         21   -1    0    0  503  502  0.00000000000E+00  0.00000000000E+00  0.59240467996E+02  0.59240467996E+02  0.00000000000E+00 0. -1.
         21   -1    0    0  501  503 -0.00000000000E+00 -0.00000000000E+00 -0.97153119878E+01  0.97153119878E+01  0.00000000000E+00 0.  1.
          2    1    1    2  501    0 -0.15961200704E+02  0.13309980586E+02  0.75392627710E+01  0.22107826538E+02  0.00000000000E+00 0.  1.
         -2    1    1    2    0  502  0.15961200704E+02 -0.13309980586E+02  0.41985893238E+02  0.46847953446E+02  0.00000000000E+00 0. -1.
</event>
<event>
 4    1  0.1772365E+004  0.2596041E+02  0.7546771E-02  0.1458340E+00
         21   -1    0    0  503  502  0.00000000000E+00  0.00000000000E+00  0.27786315519E+02  0.27786315519E+02  0.00000000000E+00 0. -1.
         21   -1    0    0  501  503 -0.00000000000E+00 -0.00000000000E+00 -0.54597157010E+02  0.54597157010E+02  0.00000000000E+00 0.  1.
          2    1    1    2  501    0  0.17342755432E+02 -0.19317655345E+02 -0.44113449840E+02  0.51185343906E+02  0.00000000000E+00 0.  1.
         -2    1    1    2    0  502 -0.17342755432E+02  0.19317655345E+02  0.17302608348E+02  0.31198128624E+02  0.00000000000E+00 0. -1.
</event>
<event>
 4    1  0.1772365E+004  0.3036861E+02  0.7546771E-02  0.1416420E+00
         21   -1    0    0  503  502  0.00000000000E+00  0.00000000000E+00  0.16673516192E+02  0.16673516192E+02  0.00000000000E+00 0. -1.
         21   -1    0    0  501  503 -0.00000000000E+00 -0.00000000000E+00 -0.75107523379E+02  0.75107523379E+02  0.00000000000E+00 0.  1.
          2    1    1    2  501    0  0.28101902649E+02  0.11512400646E+02 -0.52776190299E+02  0.60889888846E+02  0.00000000000E+00 0.  1.
         -2    1    1    2    0  502 -0.28101902649E+02 -0.11512400646E+02 -0.56578168878E+01  0.30891150724E+02  0.00000000000E+00 0. -1.
</event>
<event>
 4    1  0.1772365E+004  0.2475198E+02  0.7546771E-02  0.1471597E+00
         21   -1    0    0  501  502  0.00000000000E+00  0.00000000000E+00  0.15506951454E+03  0.15506951454E+03  0.00000000000E+00 0. -1.
         21   -1    0    0  502  503 -0.00000000000E+00 -0.00000000000E+00 -0.74236875326E+01  0.74236875326E+01  0.00000000000E+00 0.  1.
          2    1    1    2  501    0  0.10448542793E+02  0.22438552036E+02  0.12939233426E+03  0.13173851687E+03  0.00000000000E+00 0. -1.
         -2    1    1    2    0  503 -0.10448542793E+02 -0.22438552036E+02  0.18253492749E+02  0.30754685196E+02  0.00000000000E+00 0.  1.
</event>
<event>
 4    1  0.1772365E+004  0.2196220E+02  0.7546771E-02  0.1505958E+00
         21   -1    0    0  501  502  0.00000000000E+00  0.00000000000E+00  0.12663789825E+04  0.12663789825E+04  0.00000000000E+00 0. -1.
         21   -1    0    0  502  503 -0.00000000000E+00 -0.00000000000E+00 -0.79086459896E+00  0.79086459896E+00  0.00000000000E+00 0.  1.
          2    1    1    2  501    0  0.15809890103E+02  0.15244199510E+02  0.10889755018E+04  0.10891969436E+04  0.00000000000E+00 0. -1.
         -2    1    1    2    0  503 -0.15809890103E+02 -0.15244199510E+02  0.17661261612E+03  0.17797290360E+03  0.00000000000E+00 0.  1.
</event>
<event>
 4    1  0.1772365E+004  0.2476977E+02  0.7546771E-02  0.1471396E+00
         21   -1    0    0  503  502  0.00000000000E+00  0.00000000000E+00  0.65476244668E+01  0.65476244668E+01  0.00000000000E+00 0.  1.
         21   -1    0    0  501  503 -0.00000000000E+00 -0.00000000000E+00 -0.11695957930E+03  0.11695957930E+03  0.00000000000E+00 0. -1.
          2    1    1    2  501    0 -0.24453529405E+02 -0.39454193773E+01 -0.82742173033E+02  0.86370183701E+02  0.00000000000E+00 0. -1.
         -2    1    1    2    0  502  0.24453529405E+02  0.39454193773E+01 -0.27669781799E+02  0.37137020064E+02  0.00000000000E+00 0.  1.
</event>
<event>
 4    1  0.1772365E+004  0.4857599E+02  0.7546771E-02  0.1304467E+00
         21   -1    0    0  503  502  0.00000000000E+00  0.00000000000E+00  0.16356874808E+03  0.16356874808E+03  0.00000000000E+00 0.  1.
         21   -1    0    0  501  503 -0.00000000000E+00 -0.00000000000E+00 -0.14958189108E+02  0.14958189108E+02  0.00000000000E+00 0. -1.
          2    1    1    2  501    0 -0.33034810331E+02 -0.35613593455E+02  0.91143927420E+02  0.10328040588E+03  0.00000000000E+00 0.  1.
         -2    1    1    2    0  502  0.33034810331E+02  0.35613593455E+02  0.57466631548E+02  0.75246531307E+02  0.00000000000E+00 0. -1.
</event>
<event>
 4    1  0.1772365E+004  0.4374769E+02  0.7546771E-02  0.1327821E+00
         21   -1    0    0  503  502  0.00000000000E+00  0.00000000000E+00  0.90958864220E+01  0.90958864220E+01  0.00000000000E+00 0. -1.
         21   -1    0    0  501  503 -0.00000000000E+00 -0.00000000000E+00 -0.60675420729E+03  0.60675420729E+03  0.00000000000E+00 0.  1.
          2    1    1    2  501    0  0.30134101688E+02 -0.31714289669E+02 -0.54770067412E+03  0.54944507340E+03  0.00000000000E+00 0.  1.
         -2    1    1    2    0  502 -0.30134101688E+02  0.31714289669E+02 -0.49957646745E+02  0.66405020308E+02  0.00000000000E+00 0. -1.
</event>
<event>
 4    1  0.1772365E+004  0.2143891E+02  0.7546771E-02  0.1513090E+00
         21   -1    0    0  503  502  0.00000000000E+00  0.00000000000E+00  0.79917956166E+01  0.79917956166E+01  0.00000000000E+00 0. -1.
         21   -1    0    0  501  503 -0.00000000000E+00 -0.00000000000E+00 -0.60145805669E+02  0.60145805669E+02  0.00000000000E+00 0.  1.
          2    1    1    2  501    0 -0.70161216835E+01 -0.20258354249E+02 -0.18948181542E+02  0.28612243255E+02  0.00000000000E+00 0. -1.
         -2    1    1    2    0  502  0.70161216835E+01  0.20258354249E+02 -0.33205828511E+02  0.39525358031E+02  0.00000000000E+00 0.  1.
</event>
<event>
 4    1  0.1772365E+004  0.2849923E+02  0.7546771E-02  0.1433103E+00
         21   -1    0    0  501  502  0.00000000000E+00  0.00000000000E+00  0.17395429868E+01  0.17395429868E+01  0.00000000000E+00 0.  1.
         21   -1    0    0  502  503 -0.00000000000E+00 -0.00000000000E+00 -0.54732878995E+03  0.54732878995E+03  0.00000000000E+00 0. -1.
          2    1    1    2  501    0  0.13875403786E+02  0.24893354095E+02 -0.16756030383E+03  0.16996664769E+03  0.00000000000E+00 0. -1.
         -2    1    1    2    0  503 -0.13875403786E+02 -0.24893354095E+02 -0.37802894314E+03  0.37910168525E+03  0.00000000000E+00 0.  1.
</event>
<event>
 4    1  0.1772365E+004  0.2342816E+02  0.7546771E-02  0.1487191E+00
         21   -1    0    0  501  502  0.00000000000E+00  0.00000000000E+00  0.13823217512E+02  0.13823217512E+02  0.00000000000E+00 0. -1.
         21   -1    0    0  502  503 -0.00000000000E+00 -0.00000000000E+00 -0.41164938605E+02  0.41164938605E+02  0.00000000000E+00 0.  1.
          2    1    1    2  501    0  0.19009861361E+02 -0.13693210948E+02 -0.84966845896E+01  0.24921326290E+02  0.00000000000E+00 0. -1.
         -2    1    1    2    0  503 -0.19009861361E+02  0.13693210948E+02 -0.18845036504E+02  0.30066829827E+02  0.00000000000E+00 0.  1.
</event>
<event>
 4    1  0.1772365E+004  0.2024682E+02  0.7546771E-02  0.1530296E+00
         21   -1    0    0  501  502  0.00000000000E+00  0.00000000000E+00  0.43246960342E+02  0.43246960342E+02  0.00000000000E+00 0. -1.
         21   -1    0    0  502  503 -0.00000000000E+00 -0.00000000000E+00 -0.99971240349E+01  0.99971240349E+01  0.00000000000E+00 0.  1.
          2    1    1    2  501    0 -0.35166324129E+01  0.19939080139E+02  0.10563663565E+02  0.22836913282E+02  0.00000000000E+00 0. -1.
         -2    1    1    2    0  503  0.35166324129E+01 -0.19939080139E+02  0.22686172742E+02  0.30407171095E+02  0.00000000000E+00 0.  1.
</event>
<event>
 4    1  0.1772365E+004  0.2018901E+02  0.7546771E-02  0.1531166E+00
         21   -1    0    0  503  502  0.00000000000E+00  0.00000000000E+00  0.45232391154E+01  0.45232391154E+01  0.00000000000E+00 0. -1.
         21   -1    0    0  501  503 -0.00000000000E+00 -0.00000000000E+00 -0.15384059866E+03  0.15384059866E+03  0.00000000000E+00 0.  1.
          2    1    1    2  501    0  0.21210981101E+01 -0.20077277231E+02 -0.12562217861E+03  0.12723414588E+03  0.00000000000E+00 0.  1.
         -2    1    1    2    0  502 -0.21210981101E+01  0.20077277231E+02 -0.23695180933E+02  0.31129691898E+02  0.00000000000E+00 0. -1.
</event>
<event>
 4    1  0.1772365E+004  0.4758100E+02  0.7546771E-02  0.1309015E+00
         21   -1    0    0  503  502  0.00000000000E+00  0.00000000000E+00  0.38540411746E+03  0.38540411746E+03  0.00000000000E+00 0.  1.
         21   -1    0    0  501  503 -0.00000000000E+00 -0.00000000000E+00 -0.59368972389E+01  0.59368972389E+01  0.00000000000E+00 0. -1.
          2    1    1    2  501    0  0.16429784919E+02 -0.44654379267E+02  0.20983726196E+03  0.21516418830E+03  0.00000000000E+00 0. -1.
         -2    1    1    2    0  502 -0.16429784919E+02  0.44654379267E+02  0.16962995826E+03  0.17617682640E+03  0.00000000000E+00 0.  1.
</event>
<event>
 4    1  0.1772365E+004  0.2606941E+02  0.7546771E-02  0.1457187E+00
         21   -1    0    0  503  502  0.00000000000E+00  0.00000000000E+00  0.40680120734E+02  0.40680120734E+02  0.00000000000E+00 0. -1.
         21   -1    0    0  501  503 -0.00000000000E+00 -0.00000000000E+00 -0.24189454821E+02  0.24189454821E+02  0.00000000000E+00 0.  1.
          2    1    1    2  501    0  0.21762822618E+02 -0.14352478482E+02  0.26285499331E+02  0.37020826057E+02  0.00000000000E+00 0. -1.
         -2    1    1    2    0  502 -0.21762822618E+02  0.14352478482E+02 -0.97948334175E+01  0.27848749497E+02  0.00000000000E+00 0.  1.
</event>
<event>
 4    1  0.1772365E+004  0.3140840E+02  0.7546771E-02  0.1407740E+00
         21   -1    0    0  501  502  0.00000000000E+00  0.00000000000E+00  0.41854555260E+02  0.41854555260E+02  0.00000000000E+00 0.  1.
         21   -1    0    0  502  503 -0.00000000000E+00 -0.00000000000E+00 -0.37117393077E+02  0.37117393077E+02  0.00000000000E+00 0. -1.
          2    1    1    2  501    0 -0.43553906043E+01 -0.31104956647E+02  0.26224229415E+02  0.40916964254E+02  0.00000000000E+00 0.  1.
         -2    1    1    2    0  503  0.43553906043E+01  0.31104956647E+02 -0.21487067232E+02  0.38054984083E+02  0.00000000000E+00 0. -1.
</event>
<event>
 4    1  0.1772365E+004  0.2292652E+02  0.7546771E-02  0.1493423E+00
         21   -1    0    0  501  502  0.00000000000E+00  0.00000000000E+00  0.31968586587E+03  0.31968586587E+03  0.00000000000E+00 0. -1.
         21   -1    0    0  502  503 -0.00000000000E+00 -0.00000000000E+00 -0.16512132364E+01  0.16512132364E+01  0.00000000000E+00 0.  1.
          2    1    1    2  501    0  0.21894037863E+02 -0.68026896116E+01  0.14854160020E+03  0.15030047395E+03  0.00000000000E+00 0.  1.
         -2    1    1    2    0  503 -0.21894037863E+02  0.68026896116E+01  0.16949305244E+03  0.17103660516E+03  0.00000000000E+00 0. -1.
</event>
<event>
 4    1  0.1772365E+004  0.2081935E+02  0.7546771E-02  0.1521860E+00
         21   -1    0    0  501  502  0.00000000000E+00  0.00000000000E+00  0.37803690628E+03  0.37803690628E+03  0.00000000000E+00 0.  1.
         21   -1    0    0  502  503 -0.00000000000E+00 -0.00000000000E+00 -0.17073250988E+01  0.17073250988E+01  0.00000000000E+00 0. -1.
          2    1    1    2  501    0 -0.13150011028E+02 -0.16140709368E+02  0.29698014763E+03  0.29770900788E+03  0.00000000000E+00 0.  1.
         -2    1    1    2    0  503  0.13150011028E+02  0.16140709368E+02  0.79349433551E+02  0.82035223494E+02  0.00000000000E+00 0. -1.
</event>
<event>
 4    1  0.1772365E+004  0.3320778E+02  0.7546771E-02  0.1393621E+00
         21   -1    0    0  501  502  0.00000000000E+00  0.00000000000E+00  0.27578546299E+02  0.27578546299E+02  0.00000000000E+00 0.  1.
         21   -1    0    0  502  503 -0.00000000000E+00 -0.00000000000E+00 -0.43337258333E+02  0.43337258333E+02  0.00000000000E+00 0. -1.
          2    1    1    2  501    0 -0.30867347756E+02  0.12245949611E+02  0.19808198689E+01  0.33266801571E+02  0.00000000000E+00 0.  1.
         -2    1    1    2    0  503  0.30867347756E+02 -0.12245949611E+02 -0.17739531903E+02  0.37649003061E+02  0.00000000000E+00 0. -1.
</event>
<event>
 4    1  0.1772365E+004  0.2494254E+02  0.7546771E-02  0.1469447E+00
         21   -1    0    0  501  502  0.00000000000E+00  0.00000000000E+00  0.22007946518E+02  0.22007946518E+02  0.00000000000E+00 0. -1.
         21   -1    0    0  502  503 -0.00000000000E+00 -0.00000000000E+00 -0.82903952667E+02  0.82903952667E+02  0.00000000000E+00 0.  1.
          2    1    1    2  501    0  0.33394711058E+01  0.24717978816E+02  0.12135815686E+02  0.27738214910E+02  0.00000000000E+00 0. -1.
         -2    1    1    2    0  503 -0.33394711058E+01 -0.24717978816E+02 -0.73031821836E+02  0.77173684275E+02  0.00000000000E+00 0.  1.
</event>
<event>
 4    1  0.1772365E+004  0.2024338E+02  0.7546771E-02  0.1530347E+00
         21   -1    0    0  501  502  0.00000000000E+00  0.00000000000E+00  0.23913815126E+02  0.23913815126E+02  0.00000000000E+00 0.  1.
         21   -1    0    0  502  503 -0.00000000000E+00 -0.00000000000E+00 -0.21937235472E+02  0.21937235472E+02  0.00000000000E+00 0. -1.
          2    1    1    2  501    0 -0.11787415696E+02  0.16457558251E+02  0.11713137338E+02  0.23387859643E+02  0.00000000000E+00 0.  1.
         -2    1    1    2    0  503  0.11787415696E+02 -0.16457558251E+02 -0.97365576844E+01  0.22463190956E+02  0.00000000000E+00 0. -1.
</event>
<event>
 4    1  0.1772365E+004  0.2107810E+02  0.7546771E-02  0.1518153E+00
         21   -1    0    0  503  502  0.00000000000E+00  0.00000000000E+00  0.32136127496E+01  0.32136127496E+01  0.00000000000E+00 0.  1.
         21   -1    0    0  501  503 -0.00000000000E+00 -0.00000000000E+00 -0.14811694835E+03  0.14811694835E+03  0.00000000000E+00 0. -1.
          2    1    1    2  501    0  0.17914404142E+02 -0.11106768133E+02 -0.52923708866E+02  0.56966701978E+02  0.00000000000E+00 0. -1.
         -2    1    1    2    0  502 -0.17914404142E+02  0.11106768133E+02 -0.91979626732E+02  0.94363859119E+02  0.00000000000E+00 0.  1.
</event>
<event>
 4    1  0.1772365E+004  0.2178038E+02  0.7546771E-02  0.1508408E+00
         21   -1    0    0  501  502  0.00000000000E+00  0.00000000000E+00  0.17373380395E+03  0.17373380395E+03  0.00000000000E+00 0.  1.
         21   -1    0    0  502  503 -0.00000000000E+00 -0.00000000000E+00 -0.15638972145E+02  0.15638972145E+02  0.00000000000E+00 0. -1.
          2    1    1    2  501    0 -0.37107619041E+01 -0.21461948903E+02  0.16507156749E+03  0.16650227445E+03  0.00000000000E+00 0.  1.
         -2    1    1    2    0  503  0.37107619041E+01  0.21461948903E+02 -0.69767356825E+01  0.22870501643E+02  0.00000000000E+00 0. -1.
</event>
<event>
 4    1  0.1772365E+004  0.2909661E+02  0.7546771E-02  0.1427613E+00
         21   -1    0    0  501  502  0.00000000000E+00  0.00000000000E+00  0.45732424985E+03  0.45732424985E+03  0.00000000000E+00 0. -1.
         21   -1    0    0  502  503 -0.00000000000E+00 -0.00000000000E+00 -0.41110451426E+01  0.41110451426E+01  0.00000000000E+00 0.  1.
          2    1    1    2  501    0 -0.22514495188E+02 -0.18431235592E+02  0.39766367275E+03  0.39872673545E+03  0.00000000000E+00 0. -1.
         -2    1    1    2    0  503  0.22514495188E+02  0.18431235592E+02  0.55549531957E+02  0.62708559541E+02  0.00000000000E+00 0.  1.
</event>
<event>
 4    1  0.1772365E+004  0.3398625E+02  0.7546771E-02  0.1387834E+00
         21   -1    0    0  503  502  0.00000000000E+00  0.00000000000E+00  0.21332750657E+01  0.21332750657E+01  0.00000000000E+00 0.  1.
         21   -1    0    0  501  503 -0.00000000000E+00 -0.00000000000E+00 -0.92394851926E+03  0.92394851926E+03  0.00000000000E+00 0. -1.
          2    1    1    2  501    0 -0.32131065924E+02  0.11075174371E+02 -0.75883438513E+03  0.75959508223E+03  0.00000000000E+00 0. -1.
         -2    1    1    2    0  502  0.32131065924E+02 -0.11075174371E+02 -0.16298085906E+03  0.16648671209E+03  0.00000000000E+00 0.  1.
</event>
<event>
 4    1  0.1772365E+004  0.3140586E+02  0.7546771E-02  0.1407761E+00
         21   -1    0    0  503  502  0.00000000000E+00  0.00000000000E+00  0.12976758520E+03  0.12976758520E+03  0.00000000000E+00 0. -1.
         21   -1    0    0  501  503 -0.00000000000E+00 -0.00000000000E+00 -0.38906340932E+02  0.38906340932E+02  0.00000000000E+00 0.  1.
          2    1    1    2  501    0  0.30107440721E+02 -0.89370042371E+01 -0.30221109698E+02  0.43584899941E+02  0.00000000000E+00 0.  1.
         -2    1    1    2    0  502 -0.30107440721E+02  0.89370042371E+01  0.12108235397E+03  0.12508902619E+03  0.00000000000E+00 0. -1.
</event>
<event>
 4    1  0.1772365E+004  0.2997889E+02  0.7546771E-02  0.1419780E+00
         21   -1    0    0  501  502  0.00000000000E+00  0.00000000000E+00  0.18911382091E+03  0.18911382091E+03  0.00000000000E+00 0.  1.
         21   -1    0    0  502  503 -0.00000000000E+00 -0.00000000000E+00 -0.15806092980E+02  0.15806092980E+02  0.00000000000E+00 0. -1.
          2    1    1    2  501    0 -0.29041431008E+02 -0.74383384141E+01  0.17233727297E+03  0.17492532478E+03  0.00000000000E+00 0.  1.
         -2    1    1    2    0  503  0.29041431008E+02  0.74383384141E+01  0.97045496048E+00  0.29994589115E+02  0.00000000000E+00 0. -1.
</event>
<event>
 4    1  0.1772365E+004  0.3489028E+02  0.7546771E-02  0.1381336E+00
         21   -1    0    0  501  502  0.00000000000E+00  0.00000000000E+00  0.68271911945E+03  0.68271911945E+03  0.00000000000E+00 0. -1.
         21   -1    0    0  502  503 -0.00000000000E+00 -0.00000000000E+00 -0.30726178961E+02  0.30726178961E+02  0.00000000000E+00 0.  1.
          2    1    1    2  501    0 -0.33957109031E+02  0.80153731108E+01  0.67221399432E+03  0.67311884955E+03  0.00000000000E+00 0. -1.
         -2    1    1    2    0  503  0.33957109031E+02 -0.80153731108E+01 -0.20221053830E+02  0.40326448862E+02  0.00000000000E+00 0.  1.
</event>
<event>
 4    1  0.1772365E+004  0.3328370E+02  0.7546771E-02  0.1393048E+00
         21   -1    0    0  501  502  0.00000000000E+00  0.00000000000E+00  0.10734486781E+04  0.10734486781E+04  0.00000000000E+00 0. -1.
         21   -1    0    0  502  503 -0.00000000000E+00 -0.00000000000E+00 -0.20520746674E+01  0.20520746674E+01  0.00000000000E+00 0.  1.
          2    1    1    2  501    0 -0.30453481193E+02  0.13430942644E+02  0.91483776771E+03  0.91544303261E+03  0.00000000000E+00 0. -1.
         -2    1    1    2    0  503  0.30453481193E+02 -0.13430942644E+02  0.15655883572E+03  0.16005772014E+03  0.00000000000E+00 0.  1.
</event>
<event>
 4    1  0.1772365E+004  0.2233787E+02  0.7546771E-02  0.1500984E+00
         21   -1    0    0  501  502  0.00000000000E+00  0.00000000000E+00  0.68077698733E+03  0.68077698733E+03  0.00000000000E+00 0.  1.
         21   -1    0    0  502  503 -0.00000000000E+00 -0.00000000000E+00 -0.22348655105E+01  0.22348655105E+01  0.00000000000E+00 0. -1.
          2    1    1    2  501    0 -0.10815193830E+02  0.19545126119E+02  0.61922995090E+03  0.61963272385E+03  0.00000000000E+00 0.  1.
         -2    1    1    2    0  503  0.10815193830E+02 -0.19545126119E+02  0.59312170924E+02  0.63379128996E+02  0.00000000000E+00 0. -1.
</event>
<event>
 4    1  0.1772365E+004  0.3269700E+02  0.7546771E-02  0.1397519E+00
         21   -1    0    0  503  502  0.00000000000E+00  0.00000000000E+00  0.60584519254E+02  0.60584519254E+02  0.00000000000E+00 0.  1.
         21   -1    0    0  501  503 -0.00000000000E+00 -0.00000000000E+00 -0.28543077571E+02  0.28543077571E+02  0.00000000000E+00 0. -1.
          2    1    1    2  501    0 -0.23926552349E+02 -0.22284834216E+02 -0.11513986810E+02  0.34665049194E+02  0.00000000000E+00 0. -1.
         -2    1    1    2    0  502  0.23926552349E+02  0.22284834216E+02  0.43555428492E+02  0.54462547631E+02  0.00000000000E+00 0.  1.
</event>
<event>
 4    1  0.1772365E+004  0.2370777E+02  0.7546771E-02  0.1483797E+00
         21   -1    0    0  503  502  0.00000000000E+00  0.00000000000E+00  0.86351097582E+03  0.86351097582E+03  0.00000000000E+00 0. -1.
         21   -1    0    0  501  503 -0.00000000000E+00 -0.00000000000E+00 -0.65925796315E+00  0.65925796315E+00  0.00000000000E+00 0.  1.
          2    1    1    2  501    0  0.11581969699E+01 -0.23679466906E+02  0.48007929669E+03  0.48066432121E+03  0.00000000000E+00 0. -1.
         -2    1    1    2    0  502 -0.11581969699E+01  0.23679466906E+02  0.38277242116E+03  0.38350591257E+03  0.00000000000E+00 0.  1.
</event>
<event>
 4    1  0.1772365E+004  0.2098248E+02  0.7546771E-02  0.1519515E+00
         21   -1    0    0  501  502  0.00000000000E+00  0.00000000000E+00  0.25265911933E+02  0.25265911933E+02  0.00000000000E+00 0.  1.
         21   -1    0    0  502  503 -0.00000000000E+00 -0.00000000000E+00 -0.18099101185E+02  0.18099101185E+02  0.00000000000E+00 0. -1.
          2    1    1    2  501    0  0.20970906988E+02  0.69673075272E+00  0.77671852387E+01  0.22373947800E+02  0.00000000000E+00 0. -1.
         -2    1    1    2    0  503 -0.20970906988E+02 -0.69673075272E+00 -0.60037449077E+00  0.20991065318E+02  0.00000000000E+00 0.  1.
</event>
<event>
 4    1  0.1772365E+004  0.2111798E+02  0.7546771E-02  0.1517587E+00
         21   -1    0    0  501  502  0.00000000000E+00  0.00000000000E+00  0.74174646607E+02  0.74174646607E+02  0.00000000000E+00 0. -1.
         21   -1    0    0  502  503 -0.00000000000E+00 -0.00000000000E+00 -0.30634467011E+02  0.30634467011E+02  0.00000000000E+00 0.  1.
          2    1    1    2  501    0  0.19211881765E+02  0.87677174506E+01  0.68751489276E+02  0.71921739050E+02  0.00000000000E+00 0. -1.
         -2    1    1    2    0  503 -0.19211881765E+02 -0.87677174506E+01 -0.25211309680E+02  0.32887374569E+02  0.00000000000E+00 0.  1.
</event>
<event>
 4    1  0.1772365E+004  0.2564232E+02  0.7546771E-02  0.1461744E+00
         21   -1    0    0  503  502  0.00000000000E+00  0.00000000000E+00  0.11034878556E+02  0.11034878556E+02  0.00000000000E+00 0.  1.
         21   -1    0    0  501  503 -0.00000000000E+00 -0.00000000000E+00 -0.92740104222E+02  0.92740104222E+02  0.00000000000E+00 0. -1.
          2    1    1    2  501    0  0.18327223294E+02  0.17934360532E+02 -0.71876419382E+02  0.76313485470E+02  0.00000000000E+00 0. -1.
         -2    1    1    2    0  502 -0.18327223294E+02 -0.17934360532E+02 -0.98288062840E+01  0.27461497307E+02  0.00000000000E+00 0.  1.
</event>
<event>
 4    1  0.1772365E+004  0.3061902E+02  0.7546771E-02  0.1414292E+00
         21   -1    0    0  501  502  0.00000000000E+00  0.00000000000E+00  0.41288915051E+02  0.41288915051E+02  0.00000000000E+00 0. -1.
         21   -1    0    0  502  503 -0.00000000000E+00 -0.00000000000E+00 -0.22707624514E+02  0.22707624514E+02  0.00000000000E+00 0.  1.
          2    1    1    2  501    0  0.14418732807E+02  0.27011559555E+02  0.90593814159E+01  0.31931122702E+02  0.00000000000E+00 0. -1.
         -2    1    1    2    0  503 -0.14418732807E+02 -0.27011559555E+02  0.95219091207E+01  0.32065416864E+02  0.00000000000E+00 0.  1.
</event>
<event>
 4    1  0.1772365E+004  0.2265396E+02  0.7546771E-02  0.1496890E+00
         21   -1    0    0  501  502  0.00000000000E+00  0.00000000000E+00  0.26486316438E+02  0.26486316438E+02  0.00000000000E+00 0. -1.
         21   -1    0    0  502  503 -0.00000000000E+00 -0.00000000000E+00 -0.14371605495E+03  0.14371605495E+03  0.00000000000E+00 0.  1.
          2    1    1    2  501    0 -0.20566091368E+02  0.94993528873E+01  0.20541943725E+02  0.30580602863E+02  0.00000000000E+00 0. -1.
         -2    1    1    2    0  503  0.20566091368E+02 -0.94993528873E+01 -0.13777168223E+03  0.13962176852E+03  0.00000000000E+00 0.  1.
</event>
<event>
 4    1  0.1772365E+004  0.2139337E+02  0.7546771E-02  0.1513722E+00
         21   -1    0    0  503  502  0.00000000000E+00  0.00000000000E+00  0.34452386610E+01  0.34452386610E+01  0.00000000000E+00 0. -1.
         21   -1    0    0  501  503 -0.00000000000E+00 -0.00000000000E+00 -0.22316073148E+03  0.22316073148E+03  0.00000000000E+00 0.  1.
          2    1    1    2  501    0 -0.44379473471E+01  0.20927995306E+02 -0.37777110738E+02  0.43414127423E+02  0.00000000000E+00 0. -1.
         -2    1    1    2    0  502  0.44379473471E+01 -0.20927995306E+02 -0.18193838208E+03  0.18319184271E+03  0.00000000000E+00 0.  1.
</event>
<event>
 4    1  0.1772365E+004  0.2366155E+02  0.7546771E-02  0.1484354E+00
         21   -1    0    0  503  502  0.00000000000E+00  0.00000000000E+00  0.24317001708E+01  0.24317001708E+01  0.00000000000E+00 0. -1.
         21   -1    0    0  501  503 -0.00000000000E+00 -0.00000000000E+00 -0.31618435221E+03  0.31618435221E+03  0.00000000000E+00 0.  1.
          2    1    1    2  501    0 -0.17869612674E+02  0.15509547305E+02 -0.23993440647E+03  0.24109829639E+03  0.00000000000E+00 0.  1.
         -2    1    1    2    0  502  0.17869612674E+02 -0.15509547305E+02 -0.73818245572E+02  0.77517755992E+02  0.00000000000E+00 0. -1.
</event>
<event>
 4    1  0.1772365E+004  0.3230236E+02  0.7546771E-02  0.1400590E+00
         21   -1    0    0  503  502  0.00000000000E+00  0.00000000000E+00  0.57762891318E+02  0.57762891318E+02  0.00000000000E+00 0.  1.
         21   -1    0    0  501  503 -0.00000000000E+00 -0.00000000000E+00 -0.66741232938E+02  0.66741232938E+02  0.00000000000E+00 0. -1.
          2    1    1    2  501    0 -0.59136416734E+01  0.31756432391E+02 -0.57653280425E+02  0.66085875192E+02  0.00000000000E+00 0. -1.
         -2    1    1    2    0  502  0.59136416734E+01 -0.31756432391E+02  0.48674938806E+02  0.58418249065E+02  0.00000000000E+00 0.  1.
</event>
<event>
 4    1  0.1772365E+004  0.7520605E+02  0.7546771E-02  0.1215437E+00
         21   -1    0    0  503  502  0.00000000000E+00  0.00000000000E+00  0.79171074339E+03  0.79171074339E+03  0.00000000000E+00 0.  1.
         21   -1    0    0  501  503 -0.00000000000E+00 -0.00000000000E+00 -0.71833634400E+01  0.71833634400E+01  0.00000000000E+00 0. -1.
          2    1    1    2  501    0  0.39316922893E+01  0.75103206835E+02  0.42184806365E+03  0.42849940337E+03  0.00000000000E+00 0. -1.
         -2    1    1    2    0  502 -0.39316922893E+01 -0.75103206835E+02  0.36267931630E+03  0.37039470346E+03  0.00000000000E+00 0.  1.
</event>
<event>
 4    1  0.1772365E+004  0.2293668E+02  0.7546771E-02  0.1493295E+00
         21   -1    0    0  501  502  0.00000000000E+00  0.00000000000E+00  0.11266227975E+03  0.11266227975E+03  0.00000000000E+00 0.  1.
         21   -1    0    0  502  503 -0.00000000000E+00 -0.00000000000E+00 -0.26654558707E+02  0.26654558707E+02  0.00000000000E+00 0. -1.
          2    1    1    2  501    0  0.56199964571E+01  0.22237507436E+02  0.10626695084E+03  0.10871410184E+03  0.00000000000E+00 0.  1.
         -2    1    1    2    0  503 -0.56199964571E+01 -0.22237507436E+02 -0.20259229794E+02  0.30602736625E+02  0.00000000000E+00 0. -1.
</event>
<event>
 4    1  0.1772365E+004  0.2188506E+02  0.7546771E-02  0.1506994E+00
         21   -1    0    0  501  502  0.00000000000E+00  0.00000000000E+00  0.26147901107E+02  0.26147901107E+02  0.00000000000E+00 0.  1.
         21   -1    0    0  502  503 -0.00000000000E+00 -0.00000000000E+00 -0.33323859897E+02  0.33323859897E+02  0.00000000000E+00 0. -1.
          2    1    1    2  501    0 -0.20811871072E+02  0.67691742549E+01  0.16366735409E+02  0.27328112367E+02  0.00000000000E+00 0.  1.
         -2    1    1    2    0  503  0.20811871072E+02 -0.67691742549E+01 -0.23542694198E+02  0.32143648637E+02  0.00000000000E+00 0. -1.
</event>
<event>
 4    1  0.1772365E+004  0.2084253E+02  0.7546771E-02  0.1521525E+00
         21   -1    0    0  503  502  0.00000000000E+00  0.00000000000E+00  0.58987736079E+02  0.58987736079E+02  0.00000000000E+00 0. -1.
         21   -1    0    0  501  503 -0.00000000000E+00 -0.00000000000E+00 -0.10915964156E+02  0.10915964156E+02  0.00000000000E+00 0.  1.
          2    1    1    2  501    0 -0.16221105600E+02  0.13087664232E+02  0.40994766321E+01  0.21241867399E+02  0.00000000000E+00 0.  1.
         -2    1    1    2    0  502  0.16221105600E+02 -0.13087664232E+02  0.43972295290E+02  0.48661832837E+02  0.00000000000E+00 0. -1.
</event>
<event>
 4    1  0.1772365E+004  0.3284058E+02  0.7546771E-02  0.1396415E+00
         21   -1    0    0  503  502  0.00000000000E+00  0.00000000000E+00  0.23348907493E+01  0.23348907493E+01  0.00000000000E+00 0. -1.
         21   -1    0    0  501  503 -0.00000000000E+00 -0.00000000000E+00 -0.71363107884E+03  0.71363107884E+03  0.00000000000E+00 0.  1.
          2    1    1    2  501    0 -0.18214143365E+02 -0.27326697346E+02 -0.56825996465E+03  0.56920812611E+03  0.00000000000E+00 0.  1.
         -2    1    1    2    0  502  0.18214143365E+02  0.27326697346E+02 -0.14303622344E+03  0.14675784348E+03  0.00000000000E+00 0. -1.
</event>
<event>
 4    1  0.1772365E+004  0.3121518E+02  0.7546771E-02  0.1409322E+00
         21   -1    0    0  503  502  0.00000000000E+00  0.00000000000E+00  0.39218737745E+02  0.39218737745E+02  0.00000000000E+00 0.  1.
         21   -1    0    0  501  503 -0.00000000000E+00 -0.00000000000E+00 -0.31479516810E+02  0.31479516810E+02  0.00000000000E+00 0. -1.
          2    1    1    2  501    0 -0.31196963248E+02 -0.10662127678E+01 -0.12358619903E+02  0.33572649753E+02  0.00000000000E+00 0.  1.
         -2    1    1    2    0  502  0.31196963248E+02  0.10662127678E+01  0.20097840838E+02  0.37125604802E+02  0.00000000000E+00 0. -1.
</event>
<event>
 4    1  0.1772365E+004  0.2266743E+02  0.7546771E-02  0.1496717E+00
         21   -1    0    0  503  502  0.00000000000E+00  0.00000000000E+00  0.50738788903E+00  0.50738788903E+00  0.00000000000E+00 0.  1.
         21   -1    0    0  501  503 -0.00000000000E+00 -0.00000000000E+00 -0.10995593137E+04  0.10995593137E+04  0.00000000000E+00 0. -1.
          2    1    1    2  501    0 -0.17008401214E+02 -0.14984220686E+02 -0.70415182877E+03  0.70451657932E+03  0.00000000000E+00 0. -1.
         -2    1    1    2    0  502  0.17008401214E+02  0.14984220686E+02 -0.39490009708E+03  0.39555012231E+03  0.00000000000E+00 0.  1.
</event>
<event>
 4    1  0.1772365E+004  0.2760732E+02  0.7546771E-02  0.1441601E+00
         21   -1    0    0  501  502  0.00000000000E+00  0.00000000000E+00  0.32385085554E+02  0.32385085554E+02  0.00000000000E+00 0. -1.
         21   -1    0    0  502  503 -0.00000000000E+00 -0.00000000000E+00 -0.72773574042E+02  0.72773574042E+02  0.00000000000E+00 0.  1.
          2    1    1    2  501    0 -0.10067727855E+01  0.27588959616E+02  0.23055493121E+02  0.35968320050E+02  0.00000000000E+00 0. -1.
         -2    1    1    2    0  503  0.10067727855E+01 -0.27588959616E+02 -0.63443981609E+02  0.69190339547E+02  0.00000000000E+00 0.  1.
</event>
<event>
 4    1  0.1772365E+004  0.2140944E+02  0.7546771E-02  0.1513499E+00
         21   -1    0    0  501  502  0.00000000000E+00  0.00000000000E+00  0.56052327102E+02  0.56052327102E+02  0.00000000000E+00 0.  1.
         21   -1    0    0  502  503 -0.00000000000E+00 -0.00000000000E+00 -0.29242731377E+02  0.29242731377E+02  0.00000000000E+00 0. -1.
          2    1    1    2  501    0 -0.97546368577E+01 -0.19058100901E+02  0.49601475959E+02  0.54024721818E+02  0.00000000000E+00 0.  1.
         -2    1    1    2    0  503  0.97546368577E+01  0.19058100901E+02 -0.22791880234E+02  0.31270336660E+02  0.00000000000E+00 0. -1.
</event>
<event>
 4    1  0.1772365E+004  0.9818969E+02  0.7546771E-02  0.1166982E+00
         21   -1    0    0  503  502  0.00000000000E+00  0.00000000000E+00  0.38511960559E+03  0.38511960559E+03  0.00000000000E+00 0. -1.
         21   -1    0    0  501  503 -0.00000000000E+00 -0.00000000000E+00 -0.53740114227E+02  0.53740114227E+02  0.00000000000E+00 0.  1.
          2    1    1    2  501    0  0.95955750746E+02 -0.20825673935E+02  0.53168124627E+01  0.98333530857E+02  0.00000000000E+00 0.  1.
         -2    1    1    2    0  502 -0.95955750746E+02  0.20825673935E+02  0.32606267890E+03  0.34052618896E+03  0.00000000000E+00 0. -1.
</event>
<event>
 4    1  0.1772365E+004  0.2143423E+02  0.7546771E-02  0.1513155E+00
         21   -1    0    0  503  502  0.00000000000E+00  0.00000000000E+00  0.85381437793E+02  0.85381437793E+02  0.00000000000E+00 0. -1.
         21   -1    0    0  501  503 -0.00000000000E+00 -0.00000000000E+00 -0.54330301339E+01  0.54330301339E+01  0.00000000000E+00 0.  1.
          2    1    1    2  501    0  0.39813984900E+01  0.21061216266E+02  0.35525065541E+02  0.41490440420E+02  0.00000000000E+00 0.  1.
         -2    1    1    2    0  502 -0.39813984900E+01 -0.21061216266E+02  0.44423342118E+02  0.49324027507E+02  0.00000000000E+00 0. -1.
</event>
<event>
 4    1  0.1772365E+004  0.2161538E+02  0.7546771E-02  0.1510657E+00
         21   -1    0    0  501  502  0.00000000000E+00  0.00000000000E+00  0.16389195126E+03  0.16389195126E+03  0.00000000000E+00 0. -1.
         21   -1    0    0  502  503 -0.00000000000E+00 -0.00000000000E+00 -0.40726555743E+01  0.40726555743E+01  0.00000000000E+00 0.  1.
          2    1    1    2  501    0 -0.65421422180E+01 -0.20601581549E+02  0.12590957344E+03  0.12775149889E+03  0.00000000000E+00 0. -1.
         -2    1    1    2    0  503  0.65421422180E+01  0.20601581549E+02  0.33909722254E+02  0.40213107944E+02  0.00000000000E+00 0.  1.
</event>
<event>
 4    1  0.1772365E+004  0.2206158E+02  0.7546771E-02  0.1504631E+00
         21   -1    0    0  503  502  0.00000000000E+00  0.00000000000E+00  0.93539920910E+01  0.93539920910E+01  0.00000000000E+00 0. -1.
         21   -1    0    0  501  503 -0.00000000000E+00 -0.00000000000E+00 -0.16452850437E+03  0.16452850437E+03  0.00000000000E+00 0.  1.
          2    1    1    2  501    0  0.21246381594E+02 -0.59417485489E+01 -0.14947809194E+03  0.15109736290E+03  0.00000000000E+00 0.  1.
         -2    1    1    2    0  502 -0.21246381594E+02  0.59417485489E+01 -0.56964203436E+01  0.22785133561E+02  0.00000000000E+00 0. -1.
</event>
<event>
 4    1  0.1772365E+004  0.2303495E+02  0.7546771E-02  0.1492060E+00
         21   -1    0    0  503  502  0.00000000000E+00  0.00000000000E+00  0.45100827234E+02  0.45100827234E+02  0.00000000000E+00 0. -1.
         21   -1    0    0  501  503 -0.00000000000E+00 -0.00000000000E+00 -0.12594777016E+02  0.12594777016E+02  0.00000000000E+00 0.  1.
          2    1    1    2  501    0 -0.16407721144E+02 -0.16167727746E+02  0.88482361057E+01  0.24675899493E+02  0.00000000000E+00 0.  1.
         -2    1    1    2    0  502  0.16407721144E+02  0.16167727746E+02  0.23657814112E+02  0.33019704756E+02  0.00000000000E+00 0. -1.
</event>
<event>
 4    1  0.1772365E+004  0.2772194E+02  0.7546771E-02  0.1440488E+00
         21   -1    0    0  503  502  0.00000000000E+00  0.00000000000E+00  0.51484260299E+02  0.51484260299E+02  0.00000000000E+00 0.  1.
         21   -1    0    0  501  503 -0.00000000000E+00 -0.00000000000E+00 -0.23305957590E+02  0.23305957590E+02  0.00000000000E+00 0. -1.
          2    1    1    2  501    0  0.27516485756E+02  0.33688339842E+01 -0.83329381973E+01  0.28947260488E+02  0.00000000000E+00 0. -1.
         -2    1    1    2    0  502 -0.27516485756E+02 -0.33688339842E+01  0.36511240906E+02  0.45842957401E+02  0.00000000000E+00 0.  1.
</event>
<event>
 4    1  0.1772365E+004  0.4037501E+02  0.7546771E-02  0.1346302E+00
         21   -1    0    0  501  502  0.00000000000E+00  0.00000000000E+00  0.88238153980E+03  0.88238153980E+03  0.00000000000E+00 0. -1.
         21   -1    0    0  502  503 -0.00000000000E+00 -0.00000000000E+00 -0.18777535030E+01  0.18777535030E+01  0.00000000000E+00 0.  1.
          2    1    1    2  501    0 -0.24628188778E+02 -0.31993651009E+02  0.49643342529E+03  0.49807257216E+03  0.00000000000E+00 0.  1.
         -2    1    1    2    0  503  0.24628188778E+02  0.31993651009E+02  0.38407036100E+03  0.38618672114E+03  0.00000000000E+00 0. -1.
</event>
<event>
 4    1  0.1772365E+004  0.2231694E+02  0.7546771E-02  0.1501258E+00
         21   -1    0    0  501  502  0.00000000000E+00  0.00000000000E+00  0.43779778491E+02  0.43779778491E+02  0.00000000000E+00 0. -1.
         21   -1    0    0  502  503 -0.00000000000E+00 -0.00000000000E+00 -0.13191808780E+02  0.13191808780E+02  0.00000000000E+00 0.  1.
          2    1    1    2  501    0 -0.44321180271E+01 -0.21872403881E+02  0.47259998372E+01  0.22811856483E+02  0.00000000000E+00 0. -1.
         -2    1    1    2    0  503  0.44321180271E+01  0.21872403881E+02  0.25861969873E+02  0.34159730788E+02  0.00000000000E+00 0.  1.
</event>
<event>
 4    1  0.1772365E+004  0.2103312E+02  0.7546771E-02  0.1518792E+00
         21   -1    0    0  503  502  0.00000000000E+00  0.00000000000E+00  0.47181225824E+02  0.47181225824E+02  0.00000000000E+00 0. -1.
         21   -1    0    0  501  503 -0.00000000000E+00 -0.00000000000E+00 -0.93868382851E+01  0.93868382851E+01  0.00000000000E+00 0.  1.
          2    1    1    2  501    0  0.29550139154E+01  0.20824509700E+02  0.19838205317E+02  0.28912742895E+02  0.00000000000E+00 0.  1.
         -2    1    1    2    0  502 -0.29550139154E+01 -0.20824509700E+02  0.17956182222E+02  0.27655321215E+02  0.00000000000E+00 0. -1.
</event>
<event>
 4    1  0.1772365E+004  0.3199524E+02  0.7546771E-02  0.1403015E+00
         21   -1    0    0  503  502  0.00000000000E+00  0.00000000000E+00  0.69662818776E+01  0.69662818776E+01  0.00000000000E+00 0.  1.
         21   -1    0    0  501  503 -0.00000000000E+00 -0.00000000000E+00 -0.48844715021E+03  0.48844715021E+03  0.00000000000E+00 0. -1.
          2    1    1    2  501    0 -0.15925869319E+02  0.27749995396E+02 -0.44786065181E+03  0.44900207015E+03  0.00000000000E+00 0. -1.
         -2    1    1    2    0  502  0.15925869319E+02 -0.27749995396E+02 -0.33620216523E+02  0.46411361939E+02  0.00000000000E+00 0.  1.
</event>
<event>
 4    1  0.1772365E+004  0.2393191E+02  0.7546771E-02  0.1481116E+00
         21   -1    0    0  503  502  0.00000000000E+00  0.00000000000E+00  0.95598914412E+01  0.95598914412E+01  0.00000000000E+00 0. -1.
         21   -1    0    0  501  503 -0.00000000000E+00 -0.00000000000E+00 -0.71519250750E+02  0.71519250750E+02  0.00000000000E+00 0.  1.
          2    1    1    2  501    0  0.15160827129E+02 -0.18517165503E+02 -0.47312601920E+02  0.53020924152E+02  0.00000000000E+00 0. -1.
         -2    1    1    2    0  502 -0.15160827129E+02  0.18517165503E+02 -0.14646757389E+02  0.28058218039E+02  0.00000000000E+00 0.  1.
</event>
<event>
 4    1  0.1772365E+004  0.2154507E+02  0.7546771E-02  0.1511623E+00
         21   -1    0    0  503  502  0.00000000000E+00  0.00000000000E+00  0.40176971143E+03  0.40176971143E+03  0.00000000000E+00 0. -1.
         21   -1    0    0  501  503 -0.00000000000E+00 -0.00000000000E+00 -0.18090505620E+01  0.18090505620E+01  0.00000000000E+00 0.  1.
          2    1    1    2  501    0  0.13993850003E+02  0.16381757820E+02  0.78681086860E+02  0.81577590407E+02  0.00000000000E+00 0.  1.
         -2    1    1    2    0  502 -0.13993850003E+02 -0.16381757820E+02  0.32127957401E+03  0.32200117159E+03  0.00000000000E+00 0. -1.
</event>
<event>
 4    1  0.1772365E+004  0.3246038E+02  0.7546771E-02  0.1399354E+00
         21   -1    0    0  501  502  0.00000000000E+00  0.00000000000E+00  0.91533169327E+01  0.91533169327E+01  0.00000000000E+00 0.  1.
         21   -1    0    0  502  503 -0.00000000000E+00 -0.00000000000E+00 -0.12340276346E+03  0.12340276346E+03  0.00000000000E+00 0. -1.
          2    1    1    2  501    0  0.16918482166E+02  0.27702726085E+02 -0.39947664212E+02  0.51473215825E+02  0.00000000000E+00 0.  1.
         -2    1    1    2    0  503 -0.16918482166E+02 -0.27702726085E+02 -0.74301782319E+02  0.81082864572E+02  0.00000000000E+00 0. -1.
</event>
<event>
 4    1  0.1772365E+004  0.2121256E+02  0.7546771E-02  0.1516252E+00
         21   -1    0    0  503  502  0.00000000000E+00  0.00000000000E+00  0.32477085498E+02  0.32477085498E+02  0.00000000000E+00 0.  1.
         21   -1    0    0  501  503 -0.00000000000E+00 -0.00000000000E+00 -0.16525812171E+02  0.16525812171E+02  0.00000000000E+00 0. -1.
          2    1    1    2  501    0  0.26667273421E+01 -0.21044267169E+02 -0.18741207550E+01  0.21295185935E+02  0.00000000000E+00 0.  1.
         -2    1    1    2    0  502 -0.26667273421E+01  0.21044267169E+02  0.17825394082E+02  0.27707711735E+02  0.00000000000E+00 0. -1.
</event>
<event>
 4    1  0.1772365E+004  0.2256022E+02  0.7546771E-02  0.1498096E+00
         21   -1    0    0  501  502  0.00000000000E+00  0.00000000000E+00  0.72770555501E+02  0.72770555501E+02  0.00000000000E+00 0.  1.
         21   -1    0    0  502  503 -0.00000000000E+00 -0.00000000000E+00 -0.11380778002E+02  0.11380778002E+02  0.00000000000E+00 0. -1.
          2    1    1    2  501    0  0.19685800557E+02  0.11019663067E+02  0.45724650055E+01  0.23018930338E+02  0.00000000000E+00 0. -1.
         -2    1    1    2    0  503 -0.19685800557E+02 -0.11019663067E+02  0.56817312494E+02  0.61132403165E+02  0.00000000000E+00 0.  1.
</event>
<event>
 4    1  0.1772365E+004  0.2931920E+02  0.7546771E-02  0.1425606E+00
         21   -1    0    0  503  502  0.00000000000E+00  0.00000000000E+00  0.59385840878E+02  0.59385840878E+02  0.00000000000E+00 0. -1.
         21   -1    0    0  501  503 -0.00000000000E+00 -0.00000000000E+00 -0.18420472816E+02  0.18420472816E+02  0.00000000000E+00 0.  1.
          2    1    1    2  501    0  0.29280064811E+02  0.15144010039E+01  0.38487091500E+02  0.48382556959E+02  0.00000000000E+00 0. -1.
         -2    1    1    2    0  502 -0.29280064811E+02 -0.15144010039E+01  0.24782765624E+01  0.29423756736E+02  0.00000000000E+00 0.  1.
</event>
<event>
 4    1  0.1772365E+004  0.2381661E+02  0.7546771E-02  0.1482491E+00
         21   -1    0    0  501  502  0.00000000000E+00  0.00000000000E+00  0.86538493771E+01  0.86538493771E+01  0.00000000000E+00 0. -1.
         21   -1    0    0  502  503 -0.00000000000E+00 -0.00000000000E+00 -0.98416578418E+02  0.98416578418E+02  0.00000000000E+00 0.  1.
          2    1    1    2  501    0  0.20005836032E+02  0.12922751229E+02 -0.13942477637E+02  0.27597529914E+02  0.00000000000E+00 0. -1.
         -2    1    1    2    0  503 -0.20005836032E+02 -0.12922751229E+02 -0.75820251404E+02  0.79472897882E+02  0.00000000000E+00 0.  1.
</event>
<event>
 4    1  0.1772365E+004  0.2081364E+02  0.7546771E-02  0.1521942E+00
         21   -1    0    0  503  502  0.00000000000E+00  0.00000000000E+00  0.26607496695E+01  0.26607496695E+01  0.00000000000E+00 0.  1.
         21   -1    0    0  501  503 -0.00000000000E+00 -0.00000000000E+00 -0.36327467916E+03  0.36327467916E+03  0.00000000000E+00 0. -1.
          2    1    1    2  501    0  0.12204112409E+02  0.16860232590E+02 -0.31622318600E+03  0.31690741735E+03  0.00000000000E+00 0. -1.
         -2    1    1    2    0  502 -0.12204112409E+02 -0.16860232590E+02 -0.44390743484E+02  0.49028011480E+02  0.00000000000E+00 0.  1.
</event>
<event>
 4    1  0.1772365E+004  0.2305252E+02  0.7546771E-02  0.1491840E+00
         21   -1    0    0  501  502  0.00000000000E+00  0.00000000000E+00  0.86965915425E+01  0.86965915425E+01  0.00000000000E+00 0. -1.
         21   -1    0    0  502  503 -0.00000000000E+00 -0.00000000000E+00 -0.47775389708E+03  0.47775389708E+03  0.00000000000E+00 0.  1.
          2    1    1    2  501    0 -0.66084893169E+01  0.22084987077E+02 -0.73901101923E+01  0.24208108433E+02  0.00000000000E+00 0. -1.
         -2    1    1    2    0  503  0.66084893169E+01 -0.22084987077E+02 -0.46166719534E+03  0.46224238019E+03  0.00000000000E+00 0.  1.
</event>
<event>
 4    1  0.1772365E+004  0.2307841E+02  0.7546771E-02  0.1491516E+00
         21   -1    0    0  503  502  0.00000000000E+00  0.00000000000E+00  0.41054248634E+02  0.41054248634E+02  0.00000000000E+00 0. -1.
         21   -1    0    0  501  503 -0.00000000000E+00 -0.00000000000E+00 -0.81121401324E+02  0.81121401324E+02  0.00000000000E+00 0.  1.
          2    1    1    2  501    0  0.11501151951E+02  0.20008409609E+02 -0.76023969928E+02  0.79449713372E+02  0.00000000000E+00 0.  1.
         -2    1    1    2    0  502 -0.11501151951E+02 -0.20008409609E+02  0.35956817237E+02  0.42725936586E+02  0.00000000000E+00 0. -1.
</event>
<event>
 4    1  0.1772365E+004  0.2080201E+02  0.7546771E-02  0.1522110E+00
         21   -1    0    0  501  502  0.00000000000E+00  0.00000000000E+00  0.68419472251E+01  0.68419472251E+01  0.00000000000E+00 0. -1.
         21   -1    0    0  502  503 -0.00000000000E+00 -0.00000000000E+00 -0.13812591379E+03  0.13812591379E+03  0.00000000000E+00 0.  1.
          2    1    1    2  501    0  0.17485681861E+02  0.11268305066E+02 -0.12273153593E+02  0.24152723828E+02  0.00000000000E+00 0. -1.
         -2    1    1    2    0  503 -0.17485681861E+02 -0.11268305066E+02 -0.11901081297E+03  0.12081513718E+03  0.00000000000E+00 0.  1.
</event>
<event>
 4    1  0.1772365E+004  0.4397572E+02  0.7546771E-02  0.1326641E+00
         21   -1    0    0  503  502  0.00000000000E+00  0.00000000000E+00  0.10338215626E+03  0.10338215626E+03  0.00000000000E+00 0. -1.
         21   -1    0    0  501  503 -0.00000000000E+00 -0.00000000000E+00 -0.33644885492E+02  0.33644885492E+02  0.00000000000E+00 0.  1.
          2    1    1    2  501    0 -0.17907051253E+02  0.40164677740E+02 -0.10785093015E+02  0.45278936094E+02  0.00000000000E+00 0.  1.
         -2    1    1    2    0  502  0.17907051253E+02 -0.40164677740E+02  0.80522363785E+02  0.91748105659E+02  0.00000000000E+00 0. -1.
</event>
<event>
 4    1  0.1772365E+004  0.2380765E+02  0.7546771E-02  0.1482598E+00
         21   -1    0    0  501  502  0.00000000000E+00  0.00000000000E+00  0.91200531449E+03  0.91200531449E+03  0.00000000000E+00 0.  1.
         21   -1    0    0  502  503 -0.00000000000E+00 -0.00000000000E+00 -0.81896079800E+00  0.81896079800E+00  0.00000000000E+00 0. -1.
          2    1    1    2  501    0 -0.20146673559E+02 -0.12685260307E+02  0.67971003996E+03  0.68012685781E+03  0.00000000000E+00 0.  1.
         -2    1    1    2    0  503  0.20146673559E+02  0.12685260307E+02  0.23147631373E+03  0.23269741749E+03  0.00000000000E+00 0. -1.
</event>
