<event>
 4    1  0.6718357E+001  0.2788823E+02  0.7546771E-02  0.1438884E+00
          2   -1    0    0  502    0  0.00000000000E+00  0.00000000000E+00  0.19607602359E+01  0.19607602359E+01  0.00000000000E+00 0. -1.
         -2   -1    0    0    0  501 -0.00000000000E+00 -0.00000000000E+00 -0.50479579432E+03  0.50479579432E+03  0.00000000000E+00 0.  1.
          1    1    1    2  502    0  0.23915552438E+02  0.14345728826E+02 -0.13414456392E+03  0.13701283740E+03  0.00000000000E+00 0. -1.
         -1    1    1    2    0  501 -0.23915552438E+02 -0.14345728826E+02 -0.36869047017E+03  0.36974371716E+03  0.00000000000E+00 0.  1.
</event>
<event>
 4    1  0.6718357E+001  0.3399330E+02  0.7546771E-02  0.1387782E+00
          2   -1    0    0  502    0  0.00000000000E+00  0.00000000000E+00  0.12776195751E+02  0.12776195751E+02  0.00000000000E+00 0.  1.
         -2   -1    0    0    0  501 -0.00000000000E+00 -0.00000000000E+00 -0.99975243559E+02  0.99975243559E+02  0.00000000000E+00 0. -1.
          1    1    1    2  502    0  0.20985765810E+02 -0.26742135267E+02 -0.61005397654E+02  0.69836972359E+02  0.00000000000E+00 0. -1.
         -1    1    1    2    0  501 -0.20985765810E+02  0.26742135267E+02 -0.26193650154E+02  0.42914466951E+02  0.00000000000E+00 0.  1.
</event>
<event>
 4    1  0.6718357E+001  0.2003590E+02  0.7546771E-02  0.1533488E+00
          2   -1    0    0  502    0  0.00000000000E+00  0.00000000000E+00  0.35237234104E+02  0.35237234104E+02  0.00000000000E+00 0.  1.
         -2   -1    0    0    0  501 -0.00000000000E+00 -0.00000000000E+00 -0.12431442979E+02  0.12431442979E+02  0.00000000000E+00 0. -1.
          1    1    1    2  502    0  0.55229659466E+01 -0.19259646780E+02  0.45123083282E+01  0.20537723179E+02  0.00000000000E+00 0. -1.
         -1    1    1    2    0  501 -0.55229659466E+01  0.19259646780E+02  0.18293482797E+02  0.27130953905E+02  0.00000000000E+00 0.  1.
</event>
<event>
 4    1  0.6718357E+001  0.2910110E+02  0.7546771E-02  0.1427572E+00
          2   -1    0    0  502    0  0.00000000000E+00  0.00000000000E+00  0.13208828561E+02  0.13208828561E+02  0.00000000000E+00 0.  1.
         -2   -1    0    0    0  501 -0.00000000000E+00 -0.00000000000E+00 -0.92799685557E+02  0.92799685557E+02  0.00000000000E+00 0. -1.
          1    1    1    2  502    0  0.33198700061E+01 -0.28911112733E+02 -0.10326230595E+02  0.30878876512E+02  0.00000000000E+00 0. -1.
         -1    1    1    2    0  501 -0.33198700061E+01  0.28911112733E+02 -0.69264626401E+02  0.75129637606E+02  0.00000000000E+00 0.  1.
</event>
<event>
 4    1  0.6718357E+001  0.2795401E+02  0.7546771E-02  0.1438253E+00
          2   -1    0    0  502    0  0.00000000000E+00  0.00000000000E+00  0.20258061208E+04  0.20258061208E+04  0.00000000000E+00 0.  1.
         -2   -1    0    0    0  501 -0.00000000000E+00 -0.00000000000E+00 -0.77377225627E+00  0.77377225627E+00  0.00000000000E+00 0. -1.
          1    1    1    2  502    0 -0.20521979657E+02  0.18980906649E+02  0.29494781987E+03  0.29626954435E+03  0.00000000000E+00 0. -1.
         -1    1    1    2    0  501  0.20521979657E+02 -0.18980906649E+02  0.17300845286E+04  0.17303103487E+04  0.00000000000E+00 0.  1.
</event>
<event>
 4    1  0.6718357E+001  0.3007182E+02  0.7546771E-02  0.1418973E+00
          2   -1    0    0  502    0  0.00000000000E+00  0.00000000000E+00  0.21628285879E+03  0.21628285879E+03  0.00000000000E+00 0.  1.
         -2   -1    0    0    0  501 -0.00000000000E+00 -0.00000000000E+00 -0.51820266443E+01  0.51820266443E+01  0.00000000000E+00 0. -1.
          1    1    1    2  502    0 -0.28189576838E+02  0.10471961142E+02  0.15421490758E+03  0.15711954663E+03  0.00000000000E+00 0.  1.
         -1    1    1    2    0  501  0.28189576838E+02 -0.10471961142E+02  0.56885924565E+02  0.64345338806E+02  0.00000000000E+00 0. -1.
</event>
<event>
 4    1  0.6718357E+001  0.2599250E+02  0.7546771E-02  0.1458000E+00
          2   -1    0    0  502    0  0.00000000000E+00  0.00000000000E+00  0.81060720993E+03  0.81060720993E+03  0.00000000000E+00 0. -1.
         -2   -1    0    0    0  501 -0.00000000000E+00 -0.00000000000E+00 -0.12400255417E+01  0.12400255417E+01  0.00000000000E+00 0.  1.
          1    1    1    2  502    0 -0.25637487053E+02 -0.42812539716E+01  0.63711429902E+03  0.63764428947E+03  0.00000000000E+00 0. -1.
         -1    1    1    2    0  501  0.25637487053E+02  0.42812539716E+01  0.17225288537E+03  0.17420294600E+03  0.00000000000E+00 0.  1.
</event>
<event>
 4    1  0.6718357E+001  0.2711215E+02  0.7546771E-02  0.1446485E+00
          2   -1    0    0  502    0  0.00000000000E+00  0.00000000000E+00  0.11367359935E+04  0.11367359935E+04  0.00000000000E+00 0.  1.
         -2   -1    0    0    0  501 -0.00000000000E+00 -0.00000000000E+00 -0.91245761416E+00  0.91245761416E+00  0.00000000000E+00 0. -1.
          1    1    1    2  502    0 -0.63464946611E+01 -0.26358887011E+02  0.26089898576E+03  0.26230392618E+03  0.00000000000E+00 0. -1.
         -1    1    1    2    0  501  0.63464946611E+01  0.26358887011E+02  0.87492455011E+03  0.87534452492E+03  0.00000000000E+00 0.  1.
</event>
<event>
 4    1  0.6718357E+001  0.3577528E+02  0.7546771E-02  0.1375193E+00
          2   -1    0    0  502    0  0.00000000000E+00  0.00000000000E+00  0.53661336176E+02  0.53661336176E+02  0.00000000000E+00 0. -1.
         -2   -1    0    0    0  501 -0.00000000000E+00 -0.00000000000E+00 -0.23913736863E+02  0.23913736863E+02  0.00000000000E+00 0.  1.
          1    1    1    2  502    0  0.31581172230E+02  0.16807733260E+02  0.12885284410E+02  0.38025003499E+02  0.00000000000E+00 0.  1.
         -1    1    1    2    0  501 -0.31581172230E+02 -0.16807733260E+02  0.16862314902E+02  0.39550069540E+02  0.00000000000E+00 0. -1.
</event>
<event>
 4    1  0.6718357E+001  0.2478356E+02  0.7546771E-02  0.1471239E+00
          2   -1    0    0  502    0  0.00000000000E+00  0.00000000000E+00  0.10289301096E+03  0.10289301096E+03  0.00000000000E+00 0. -1.
         -2   -1    0    0    0  501 -0.00000000000E+00 -0.00000000000E+00 -0.69081104589E+01  0.69081104589E+01  0.00000000000E+00 0.  1.
          1    1    1    2  502    0 -0.23699723688E+02  0.72490039817E+01  0.68228619226E+02  0.72590422531E+02  0.00000000000E+00 0. -1.
         -1    1    1    2    0  501  0.23699723688E+02 -0.72490039817E+01  0.27756281279E+02  0.37210698892E+02  0.00000000000E+00 0.  1.
</event>
<event>
 4    1  0.6718357E+001  0.2744522E+02  0.7546771E-02  0.1443186E+00
          2   -1    0    0  502    0  0.00000000000E+00  0.00000000000E+00  0.17426145575E+01  0.17426145575E+01  0.00000000000E+00 0.  1.
         -2   -1    0    0    0  501 -0.00000000000E+00 -0.00000000000E+00 -0.43548837796E+03  0.43548837796E+03  0.00000000000E+00 0. -1.
          1    1    1    2  502    0  0.24480430787E+02  0.12407601190E+02 -0.23573332742E+03  0.23732560274E+03  0.00000000000E+00 0.  1.
         -1    1    1    2    0  501 -0.24480430787E+02 -0.12407601190E+02 -0.19801243598E+03  0.19990538978E+03  0.00000000000E+00 0. -1.
</event>
<event>
 4    1  0.6718357E+001  0.2741003E+02  0.7546771E-02  0.1443532E+00
          2   -1    0    0  502    0  0.00000000000E+00  0.00000000000E+00  0.69846731571E+03  0.69846731571E+03  0.00000000000E+00 0. -1.
         -2   -1    0    0    0  501 -0.00000000000E+00 -0.00000000000E+00 -0.10890088522E+01  0.10890088522E+01  0.00000000000E+00 0.  1.
          1    1    1    2  502    0 -0.18987045256E+02 -0.19768708379E+02  0.38742237082E+03  0.38839078662E+03  0.00000000000E+00 0. -1.
         -1    1    1    2    0  501  0.18987045256E+02  0.19768708379E+02  0.30995593604E+03  0.31116553794E+03  0.00000000000E+00 0.  1.
</event>
<event>
 4    1  0.6718357E+001  0.3218970E+02  0.7546771E-02  0.1401476E+00
          2   -1    0    0  502    0  0.00000000000E+00  0.00000000000E+00  0.18492175583E+03  0.18492175583E+03  0.00000000000E+00 0.  1.
         -2   -1    0    0    0  501 -0.00000000000E+00 -0.00000000000E+00 -0.56035565217E+01  0.56035565217E+01  0.00000000000E+00 0. -1.
          1    1    1    2  502    0  0.31810636957E+02 -0.49254510022E+01  0.90271476358E+02  0.95839011551E+02  0.00000000000E+00 0. -1.
         -1    1    1    2    0  501 -0.31810636957E+02  0.49254510022E+01  0.89046722948E+02  0.94686300799E+02  0.00000000000E+00 0.  1.
</event>
<event>
 4    1  0.6718357E+001  0.2524785E+02  0.7546771E-02  0.1466050E+00
          2   -1    0    0  502    0  0.00000000000E+00  0.00000000000E+00  0.54419161767E+01  0.54419161767E+01  0.00000000000E+00 0. -1.
         -2   -1    0    0    0  501 -0.00000000000E+00 -0.00000000000E+00 -0.11962995403E+03  0.11962995403E+03  0.00000000000E+00 0.  1.
          1    1    1    2  502    0 -0.16024562266E+02 -0.19510694628E+02 -0.48067885842E+02  0.54295261764E+02  0.00000000000E+00 0. -1.
         -1    1    1    2    0  501  0.16024562266E+02  0.19510694628E+02 -0.66120152014E+02  0.70776608446E+02  0.00000000000E+00 0.  1.
</event>
<event>
 4    1  0.6718357E+001  0.2255103E+02  0.7546771E-02  0.1498214E+00
          2   -1    0    0  502    0  0.00000000000E+00  0.00000000000E+00  0.37065781162E+03  0.37065781162E+03  0.00000000000E+00 0.  1.
         -2   -1    0    0    0  501 -0.00000000000E+00 -0.00000000000E+00 -0.36431425939E+01  0.36431425939E+01  0.00000000000E+00 0. -1.
          1    1    1    2  502    0  0.27409680004E+00  0.22549362857E+02  0.33127295774E+03  0.33203963834E+03  0.00000000000E+00 0.  1.
         -1    1    1    2    0  501 -0.27409680004E+00 -0.22549362857E+02  0.35741711285E+02  0.42261315880E+02  0.00000000000E+00 0. -1.
</event>
<event>
 4    1  0.6718357E+001  0.2055065E+02  0.7546771E-02  0.1525778E+00
          2   -1    0    0  502    0  0.00000000000E+00  0.00000000000E+00  0.21667223463E+04  0.21667223463E+04  0.00000000000E+00 0. -1.
         -2   -1    0    0    0  501 -0.00000000000E+00 -0.00000000000E+00 -0.22403163866E+00  0.22403163866E+00  0.00000000000E+00 0.  1.
          1    1    1    2  502    0 -0.20547853225E+02  0.33900343527E+00  0.69265524314E+03  0.69296003856E+03  0.00000000000E+00 0.  1.
         -1    1    1    2    0  501  0.20547853225E+02 -0.33900343527E+00  0.14738430716E+04  0.14739863394E+04  0.00000000000E+00 0. -1.
</event>
<event>
 4    1  0.6718357E+001  0.2692847E+02  0.7546771E-02  0.1448328E+00
          2   -1    0    0  502    0  0.00000000000E+00  0.00000000000E+00  0.21572353800E+03  0.21572353800E+03  0.00000000000E+00 0. -1.
         -2   -1    0    0    0  501 -0.00000000000E+00 -0.00000000000E+00 -0.36892976650E+01  0.36892976650E+01  0.00000000000E+00 0.  1.
          1    1    1    2  502    0  0.20111196618E+02 -0.17907598709E+02  0.73313107584E+02  0.78102202687E+02  0.00000000000E+00 0. -1.
         -1    1    1    2    0  501 -0.20111196618E+02  0.17907598709E+02  0.13872113275E+03  0.14131063298E+03  0.00000000000E+00 0.  1.
</event>
<event>
 4    1  0.6718357E+001  0.2094659E+02  0.7546771E-02  0.1520029E+00
          2   -1    0    0  502    0  0.00000000000E+00  0.00000000000E+00  0.30461020752E+02  0.30461020752E+02  0.00000000000E+00 0. -1.
         -2   -1    0    0    0  501 -0.00000000000E+00 -0.00000000000E+00 -0.21287296388E+02  0.21287296388E+02  0.00000000000E+00 0.  1.
          1    1    1    2  502    0  0.18810919504E+02  0.92146147814E+01 -0.10126264272E+02  0.23265877294E+02  0.00000000000E+00 0.  1.
         -1    1    1    2    0  501 -0.18810919504E+02 -0.92146147814E+01  0.19299988637E+02  0.28482439845E+02  0.00000000000E+00 0. -1.
</event>
<event>
 4    1  0.6718357E+001  0.3783829E+02  0.7546771E-02  0.1361641E+00
          2   -1    0    0  502    0  0.00000000000E+00  0.00000000000E+00  0.10871351912E+03  0.10871351912E+03  0.00000000000E+00 0. -1.
         -2   -1    0    0    0  501 -0.00000000000E+00 -0.00000000000E+00 -0.13277107343E+02  0.13277107343E+02  0.00000000000E+00 0.  1.
          1    1    1    2  502    0  0.28829781042E+01  0.37728298927E+02  0.53201538470E+02  0.65285065660E+02  0.00000000000E+00 0. -1.
         -1    1    1    2    0  501 -0.28829781042E+01 -0.37728298927E+02  0.42234873309E+02  0.56705560804E+02  0.00000000000E+00 0.  1.
</event>
<event>
 4    1  0.6718357E+001  0.2239518E+02  0.7546771E-02  0.1500236E+00
          2   -1    0    0  502    0  0.00000000000E+00  0.00000000000E+00  0.78800935537E+03  0.78800935537E+03  0.00000000000E+00 0. -1.
         -2   -1    0    0    0  501 -0.00000000000E+00 -0.00000000000E+00 -0.89437446788E+00  0.89437446788E+00  0.00000000000E+00 0.  1.
          1    1    1    2  502    0  0.22388586145E+02 -0.54345202175E+00  0.18173896149E+03  0.18311361024E+03  0.00000000000E+00 0.  1.
         -1    1    1    2    0  501 -0.22388586145E+02  0.54345202175E+00  0.60537601941E+03  0.60579011960E+03  0.00000000000E+00 0. -1.
</event>
<event>
 4    1  0.6718357E+001  0.2896272E+02  0.7546771E-02  0.1428830E+00
          2   -1    0    0  502    0  0.00000000000E+00  0.00000000000E+00  0.21902295938E+03  0.21902295938E+03  0.00000000000E+00 0.  1.
         -2   -1    0    0    0  501 -0.00000000000E+00 -0.00000000000E+00 -0.38474073343E+01  0.38474073343E+01  0.00000000000E+00 0. -1.
          1    1    1    2  502    0  0.13843989434E+02 -0.25439789955E+02  0.11510197335E+03  0.11868994577E+03  0.00000000000E+00 0. -1.
         -1    1    1    2    0  501 -0.13843989434E+02  0.25439789955E+02  0.10007357869E+03  0.10418042094E+03  0.00000000000E+00 0.  1.
</event>
<event>
 4    1  0.6718357E+001  0.2115497E+02  0.7546771E-02  0.1517064E+00
          2   -1    0    0  502    0  0.00000000000E+00  0.00000000000E+00  0.10365059540E+04  0.10365059540E+04  0.00000000000E+00 0. -1.
         -2   -1    0    0    0  501 -0.00000000000E+00 -0.00000000000E+00 -0.44651468803E+00  0.44651468803E+00  0.00000000000E+00 0.  1.
          1    1    1    2  502    0  0.94930922260E+01  0.18905395598E+02  0.61224474064E+03  0.61261011681E+03  0.00000000000E+00 0. -1.
         -1    1    1    2    0  501 -0.94930922260E+01 -0.18905395598E+02  0.42381469866E+03  0.42434235186E+03  0.00000000000E+00 0.  1.
</event>
<event>
 4    1  0.6718357E+001  0.3822585E+02  0.7546771E-02  0.1359208E+00
          2   -1    0    0  502    0  0.00000000000E+00  0.00000000000E+00  0.51697312452E+03  0.51697312452E+03  0.00000000000E+00 0.  1.
         -2   -1    0    0    0  501 -0.00000000000E+00 -0.00000000000E+00 -0.32709022978E+01  0.32709022978E+01  0.00000000000E+00 0. -1.
          1    1    1    2  502    0 -0.89016181877E+00 -0.38215479446E+02  0.16096841464E+03  0.16544499318E+03  0.00000000000E+00 0. -1.
         -1    1    1    2    0  501  0.89016181877E+00  0.38215479446E+02  0.35273380758E+03  0.35479903364E+03  0.00000000000E+00 0.  1.
</event>
<event>
 4    1  0.6718357E+001  0.2622161E+02  0.7546771E-02  0.1455588E+00
          2   -1    0    0  502    0  0.00000000000E+00  0.00000000000E+00  0.12065771544E+04  0.12065771544E+04  0.00000000000E+00 0.  1.
         -2   -1    0    0    0  501 -0.00000000000E+00 -0.00000000000E+00 -0.60194807562E+00  0.60194807562E+00  0.00000000000E+00 0. -1.
          1    1    1    2  502    0  0.12922601972E+02 -0.22816209969E+02  0.46361636175E+03  0.46435730205E+03  0.00000000000E+00 0.  1.
         -1    1    1    2    0  501 -0.12922601972E+02  0.22816209969E+02  0.74235884459E+03  0.74282180045E+03  0.00000000000E+00 0. -1.
</event>
<event>
 4    1  0.6718357E+001  0.2369303E+02  0.7546771E-02  0.1483974E+00
          2   -1    0    0  502    0  0.00000000000E+00  0.00000000000E+00  0.14751741836E+02  0.14751741836E+02  0.00000000000E+00 0.  1.
         -2   -1    0    0    0  501 -0.00000000000E+00 -0.00000000000E+00 -0.14750216476E+03  0.14750216476E+03  0.00000000000E+00 0. -1.
          1    1    1    2  502    0  0.10241728037E+02  0.21365077597E+02  0.35076449795E+01  0.23951265253E+02  0.00000000000E+00 0.  1.
         -1    1    1    2    0  501 -0.10241728037E+02 -0.21365077597E+02 -0.13625806790E+03  0.13830264134E+03  0.00000000000E+00 0. -1.
</event>
<event>
 4    1  0.6718357E+001  0.2811248E+02  0.7546771E-02  0.1436742E+00
          2   -1    0    0  502    0  0.00000000000E+00  0.00000000000E+00  0.53379667044E+01  0.53379667044E+01  0.00000000000E+00 0. -1.
         -2   -1    0    0    0  501 -0.00000000000E+00 -0.00000000000E+00 -0.31273800486E+03  0.31273800486E+03  0.00000000000E+00 0.  1.
          1    1    1    2  502    0  0.25522527757E+02  0.11786099332E+02 -0.26910782889E+03  0.27057223644E+03  0.00000000000E+00 0.  1.
         -1    1    1    2    0  501 -0.25522527757E+02 -0.11786099332E+02 -0.38292209261E+02  0.47503735123E+02  0.00000000000E+00 0. -1.
</event>
<event>
 4    1  0.6718357E+001  0.2014547E+02  0.7546771E-02  0.1531824E+00
          2   -1    0    0  502    0  0.00000000000E+00  0.00000000000E+00  0.16850109208E+04  0.16850109208E+04  0.00000000000E+00 0.  1.
         -2   -1    0    0    0  501 -0.00000000000E+00 -0.00000000000E+00 -0.25654144103E+00  0.25654144103E+00  0.00000000000E+00 0. -1.
          1    1    1    2  502    0 -0.30443257422E+01  0.19914112154E+02  0.10507548841E+04  0.10509479846E+04  0.00000000000E+00 0.  1.
         -1    1    1    2    0  501  0.30443257422E+01 -0.19914112154E+02  0.63399949527E+03  0.63431947769E+03  0.00000000000E+00 0. -1.
</event>
<event>
 4    1  0.6718357E+001  0.2765091E+02  0.7546771E-02  0.1441177E+00
          2   -1    0    0  502    0  0.00000000000E+00  0.00000000000E+00  0.35459653691E+03  0.35459653691E+03  0.00000000000E+00 0. -1.
         -2   -1    0    0    0  501 -0.00000000000E+00 -0.00000000000E+00 -0.35785231936E+01  0.35785231936E+01  0.00000000000E+00 0.  1.
          1    1    1    2  502    0 -0.22196100607E+02 -0.16489564479E+02  0.62603218938E+02  0.68437823170E+02  0.00000000000E+00 0.  1.
         -1    1    1    2    0  501  0.22196100607E+02  0.16489564479E+02  0.28841479478E+03  0.28973723694E+03  0.00000000000E+00 0. -1.
</event>
<event>
 4    1  0.6718357E+001  0.2319243E+02  0.7546771E-02  0.1490096E+00
          2   -1    0    0  502    0  0.00000000000E+00  0.00000000000E+00  0.15227838106E+03  0.15227838106E+03  0.00000000000E+00 0.  1.
         -2   -1    0    0    0  501 -0.00000000000E+00 -0.00000000000E+00 -0.37522605129E+01  0.37522605129E+01  0.00000000000E+00 0. -1.
          1    1    1    2  502    0 -0.21554295861E+02  0.85616133771E+01  0.93153057960E+02  0.95996776514E+02  0.00000000000E+00 0.  1.
         -1    1    1    2    0  501  0.21554295861E+02 -0.85616133771E+01  0.55373062587E+02  0.60033865059E+02  0.00000000000E+00 0. -1.
</event>
<event>
 4    1  0.6718357E+001  0.4799595E+02  0.7546771E-02  0.1307103E+00
          2   -1    0    0  502    0  0.00000000000E+00  0.00000000000E+00  0.50415999164E+03  0.50415999164E+03  0.00000000000E+00 0.  1.
         -2   -1    0    0    0  501 -0.00000000000E+00 -0.00000000000E+00 -0.45780115031E+01  0.45780115031E+01  0.00000000000E+00 0. -1.
          1    1    1    2  502    0 -0.47898818497E+02 -0.30519721780E+01  0.26094623013E+03  0.26532347497E+03  0.00000000000E+00 0. -1.
         -1    1    1    2    0  501  0.47898818497E+02  0.30519721780E+01  0.23863575000E+03  0.24341452817E+03  0.00000000000E+00 0.  1.
</event>
<event>
 4    1  0.6718357E+001  0.2128058E+02  0.7546771E-02  0.1515296E+00
          2   -1    0    0  502    0  0.00000000000E+00  0.00000000000E+00  0.11236129404E+04  0.11236129404E+04  0.00000000000E+00 0. -1.
         -2   -1    0    0    0  501 -0.00000000000E+00 -0.00000000000E+00 -0.58185792163E+00  0.58185792163E+00  0.00000000000E+00 0.  1.
          1    1    1    2  502    0  0.14779429556E+02  0.15311161181E+02  0.24990925829E+03  0.25081367701E+03  0.00000000000E+00 0.  1.
         -1    1    1    2    0  501 -0.14779429556E+02 -0.15311161181E+02  0.87312182421E+03  0.87338112134E+03  0.00000000000E+00 0. -1.
</event>
<event>
 4    1  0.6718357E+001  0.4197676E+02  0.7546771E-02  0.1337276E+00
          2   -1    0    0  502    0  0.00000000000E+00  0.00000000000E+00  0.90980318294E+03  0.90980318294E+03  0.00000000000E+00 0. -1.
         -2   -1    0    0    0  501 -0.00000000000E+00 -0.00000000000E+00 -0.19380500688E+01  0.19380500688E+01  0.00000000000E+00 0.  1.
          1    1    1    2  502    0  0.20234946384E+02 -0.36777647485E+02  0.46580387504E+03  0.46769145643E+03  0.00000000000E+00 0.  1.
         -1    1    1    2    0  501 -0.20234946384E+02  0.36777647485E+02  0.44206125783E+03  0.44404977658E+03  0.00000000000E+00 0. -1.
</event>
<event>
 4    1  0.6718357E+001  0.2913876E+02  0.7546771E-02  0.1427231E+00
          2   -1    0    0  502    0  0.00000000000E+00  0.00000000000E+00  0.10034717500E+02  0.10034717500E+02  0.00000000000E+00 0. -1.
         -2   -1    0    0    0  501 -0.00000000000E+00 -0.00000000000E+00 -0.86485613480E+02  0.86485613480E+02  0.00000000000E+00 0.  1.
          1    1    1    2  502    0 -0.24728983515E+02  0.15412491719E+02 -0.45326803178E+02  0.53884938647E+02  0.00000000000E+00 0.  1.
         -1    1    1    2    0  501  0.24728983515E+02 -0.15412491719E+02 -0.31124092802E+02  0.42635392333E+02  0.00000000000E+00 0. -1.
</event>
<event>
 4    1  0.6718357E+001  0.2946538E+02  0.7546771E-02  0.1424300E+00
          2   -1    0    0  502    0  0.00000000000E+00  0.00000000000E+00  0.14173692041E+02  0.14173692041E+02  0.00000000000E+00 0.  1.
         -2   -1    0    0    0  501 -0.00000000000E+00 -0.00000000000E+00 -0.74777955474E+02  0.74777955474E+02  0.00000000000E+00 0. -1.
          1    1    1    2  502    0  0.22952082494E+02 -0.18477292511E+02 -0.49215733282E+02  0.57361980717E+02  0.00000000000E+00 0. -1.
         -1    1    1    2    0  501 -0.22952082494E+02  0.18477292511E+02 -0.11388530151E+02  0.31589666797E+02  0.00000000000E+00 0.  1.
</event>
<event>
 4    1  0.6718357E+001  0.2259629E+02  0.7546771E-02  0.1497631E+00
          2   -1    0    0  502    0  0.00000000000E+00  0.00000000000E+00  0.33232588496E+03  0.33232588496E+03  0.00000000000E+00 0. -1.
         -2   -1    0    0    0  501 -0.00000000000E+00 -0.00000000000E+00 -0.21410368910E+01  0.21410368910E+01  0.00000000000E+00 0.  1.
          1    1    1    2  502    0  0.22465628097E+02  0.24265182221E+01  0.25396155140E+03  0.25496482508E+03  0.00000000000E+00 0. -1.
         -1    1    1    2    0  501 -0.22465628097E+02 -0.24265182221E+01  0.76223296661E+02  0.79502096767E+02  0.00000000000E+00 0.  1.
</event>
<event>
 4    1  0.6718357E+001  0.2704173E+02  0.7546771E-02  0.1447189E+00
          2   -1    0    0  502    0  0.00000000000E+00  0.00000000000E+00  0.16548695905E+01  0.16548695905E+01  0.00000000000E+00 0.  1.
         -2   -1    0    0    0  501 -0.00000000000E+00 -0.00000000000E+00 -0.66775936400E+03  0.66775936400E+03  0.00000000000E+00 0. -1.
          1    1    1    2  502    0  0.23170467773E+02  0.13942178483E+02 -0.52771935093E+03  0.52841174122E+03  0.00000000000E+00 0. -1.
         -1    1    1    2    0  501 -0.23170467773E+02 -0.13942178483E+02 -0.13838514348E+03  0.14100249236E+03  0.00000000000E+00 0.  1.
</event>
<event>
 4    1  0.6718357E+001  0.2264824E+02  0.7546771E-02  0.1496963E+00
          2   -1    0    0  502    0  0.00000000000E+00  0.00000000000E+00  0.31516621802E+01  0.31516621802E+01  0.00000000000E+00 0. -1.
         -2   -1    0    0    0  501 -0.00000000000E+00 -0.00000000000E+00 -0.25266434812E+03  0.25266434812E+03  0.00000000000E+00 0.  1.
          1    1    1    2  502    0 -0.20675364183E+02  0.92451221637E+01 -0.20105776286E+03  0.20232935272E+03  0.00000000000E+00 0.  1.
         -1    1    1    2    0  501  0.20675364183E+02 -0.92451221637E+01 -0.48454923087E+02  0.53486657582E+02  0.00000000000E+00 0. -1.
</event>
<event>
 4    1  0.6718357E+001  0.2070188E+02  0.7546771E-02  0.1523564E+00
          2   -1    0    0  502    0  0.00000000000E+00  0.00000000000E+00  0.91736047692E+03  0.91736047692E+03  0.00000000000E+00 0.  1.
         -2   -1    0    0    0  501 -0.00000000000E+00 -0.00000000000E+00 -0.80797516868E+00  0.80797516868E+00  0.00000000000E+00 0. -1.
          1    1    1    2  502    0  0.63826176259E+01  0.19693405773E+02  0.16012052455E+03  0.16145324531E+03  0.00000000000E+00 0. -1.
         -1    1    1    2    0  501 -0.63826176259E+01 -0.19693405773E+02  0.75643197721E+03  0.75671520678E+03  0.00000000000E+00 0.  1.
</event>
<event>
 4    1  0.6718357E+001  0.3367196E+02  0.7546771E-02  0.1390148E+00
          2   -1    0    0  502    0  0.00000000000E+00  0.00000000000E+00  0.52939279286E+01  0.52939279286E+01  0.00000000000E+00 0.  1.
         -2   -1    0    0    0  501 -0.00000000000E+00 -0.00000000000E+00 -0.22302660051E+03  0.22302660051E+03  0.00000000000E+00 0. -1.
          1    1    1    2  502    0 -0.28255367049E+02  0.18314892305E+02 -0.86117047063E+02  0.92465922599E+02  0.00000000000E+00 0.  1.
         -1    1    1    2    0  501  0.28255367049E+02 -0.18314892305E+02 -0.13161562552E+03  0.13585460584E+03  0.00000000000E+00 0. -1.
</event>
<event>
 4    1  0.6718357E+001  0.2347346E+02  0.7546771E-02  0.1486637E+00
          2   -1    0    0  502    0  0.00000000000E+00  0.00000000000E+00  0.60759767114E+03  0.60759767114E+03  0.00000000000E+00 0. -1.
         -2   -1    0    0    0  501 -0.00000000000E+00 -0.00000000000E+00 -0.95166327616E+00  0.95166327616E+00  0.00000000000E+00 0.  1.
          1    1    1    2  502    0 -0.18325215965E+02  0.14669343286E+02  0.36934699464E+03  0.37009215828E+03  0.00000000000E+00 0. -1.
         -1    1    1    2    0  501  0.18325215965E+02 -0.14669343286E+02  0.23729901323E+03  0.23845717614E+03  0.00000000000E+00 0.  1.
</event>
<event>
 4    1  0.6718357E+001  0.2975429E+02  0.7546771E-02  0.1421744E+00
          2   -1    0    0  502    0  0.00000000000E+00  0.00000000000E+00  0.24319383660E+03  0.24319383660E+03  0.00000000000E+00 0.  1.
         -2   -1    0    0    0  501 -0.00000000000E+00 -0.00000000000E+00 -0.39027801390E+01  0.39027801390E+01  0.00000000000E+00 0. -1.
          1    1    1    2  502    0 -0.16842047844E+02 -0.24528826669E+02  0.87609990833E+02  0.92524744837E+02  0.00000000000E+00 0. -1.
         -1    1    1    2    0  501  0.16842047844E+02  0.24528826669E+02  0.15168106562E+03  0.15457187190E+03  0.00000000000E+00 0.  1.
</event>
<event>
 4    1  0.6718357E+001  0.3768975E+02  0.7546771E-02  0.1362583E+00
          2   -1    0    0  502    0  0.00000000000E+00  0.00000000000E+00  0.19098367432E+01  0.19098367432E+01  0.00000000000E+00 0.  1.
         -2   -1    0    0    0  501 -0.00000000000E+00 -0.00000000000E+00 -0.74442936237E+03  0.74442936237E+03  0.00000000000E+00 0. -1.
          1    1    1    2  502    0 -0.17414857210E+01  0.37649495120E+02 -0.36032255540E+03  0.36228836745E+03  0.00000000000E+00 0.  1.
         -1    1    1    2    0  501  0.17414857210E+01 -0.37649495120E+02 -0.38219697023E+03  0.38405083167E+03  0.00000000000E+00 0. -1.
</event>
<event>
 4    1  0.6718357E+001  0.2929230E+02  0.7546771E-02  0.1425848E+00
          2   -1    0    0  502    0  0.00000000000E+00  0.00000000000E+00  0.12807107767E+02  0.12807107767E+02  0.00000000000E+00 0.  1.
         -2   -1    0    0    0  501 -0.00000000000E+00 -0.00000000000E+00 -0.91134262601E+02  0.91134262601E+02  0.00000000000E+00 0. -1.
          1    1    1    2  502    0 -0.26686832105E+02 -0.12076919978E+02 -0.12417459069E+02  0.31815598277E+02  0.00000000000E+00 0.  1.
         -1    1    1    2    0  501  0.26686832105E+02  0.12076919978E+02 -0.65909695765E+02  0.72125772091E+02  0.00000000000E+00 0. -1.
</event>
<event>
 4    1  0.6718357E+001  0.2004246E+02  0.7546771E-02  0.1533388E+00
          2   -1    0    0  502    0  0.00000000000E+00  0.00000000000E+00  0.11387750201E+04  0.11387750201E+04  0.00000000000E+00 0.  1.
         -2   -1    0    0    0  501 -0.00000000000E+00 -0.00000000000E+00 -0.35275282281E+00  0.35275282281E+00  0.00000000000E+00 0. -1.
          1    1    1    2  502    0  0.20016364589E+02  0.10223692659E+01  0.56700759950E+03  0.56736171705E+03  0.00000000000E+00 0. -1.
         -1    1    1    2    0  501 -0.20016364589E+02 -0.10223692659E+01  0.57141466779E+03  0.57176605588E+03  0.00000000000E+00 0.  1.
</event>
<event>
 4    1  0.6718357E+001  0.2529223E+02  0.7546771E-02  0.1465561E+00
          2   -1    0    0  502    0  0.00000000000E+00  0.00000000000E+00  0.17308823841E+04  0.17308823841E+04  0.00000000000E+00 0.  1.
         -2   -1    0    0    0  501 -0.00000000000E+00 -0.00000000000E+00 -0.37100164707E+00  0.37100164707E+00  0.00000000000E+00 0. -1.
          1    1    1    2  502    0 -0.22977199105E+02 -0.10570971380E+02  0.81164516968E+03  0.81203914842E+03  0.00000000000E+00 0.  1.
         -1    1    1    2    0  501  0.22977199105E+02  0.10570971380E+02  0.91886621279E+03  0.91921423734E+03  0.00000000000E+00 0. -1.
</event>
<event>
 4    1  0.6718357E+001  0.2462058E+02  0.7546771E-02  0.1473093E+00
          2   -1    0    0  502    0  0.00000000000E+00  0.00000000000E+00  0.23314019490E+01  0.23314019490E+01  0.00000000000E+00 0. -1.
         -2   -1    0    0    0  501 -0.00000000000E+00 -0.00000000000E+00 -0.33714115731E+03  0.33714115731E+03  0.00000000000E+00 0.  1.
          1    1    1    2  502    0  0.18846369110E+02  0.15842587143E+02 -0.86215095630E+02  0.89661674703E+02  0.00000000000E+00 0. -1.
         -1    1    1    2    0  501 -0.18846369110E+02 -0.15842587143E+02 -0.24859465974E+03  0.24981088456E+03  0.00000000000E+00 0.  1.
</event>
<event>
 4    1  0.6718357E+001  0.4024945E+02  0.7546771E-02  0.1347030E+00
          2   -1    0    0  502    0  0.00000000000E+00  0.00000000000E+00  0.29850884907E+03  0.29850884907E+03  0.00000000000E+00 0.  1.
         -2   -1    0    0    0  501 -0.00000000000E+00 -0.00000000000E+00 -0.54423922060E+01  0.54423922060E+01  0.00000000000E+00 0. -1.
          1    1    1    2  502    0  0.40090464382E+02 -0.35738802693E+01  0.15460624652E+03  0.15975953623E+03  0.00000000000E+00 0.  1.
         -1    1    1    2    0  501 -0.40090464382E+02  0.35738802693E+01  0.13846021034E+03  0.14419170504E+03  0.00000000000E+00 0. -1.
</event>
<event>
 4    1  0.6718357E+001  0.1038532E+03  0.7546771E-02  0.1157293E+00
          2   -1    0    0  502    0  0.00000000000E+00  0.00000000000E+00  0.27735087936E+04  0.27735087936E+04  0.00000000000E+00 0. -1.
         -2   -1    0    0    0  501 -0.00000000000E+00 -0.00000000000E+00 -0.40510621456E+01  0.40510621456E+01  0.00000000000E+00 0.  1.
          1    1    1    2  502    0 -0.10382625642E+03  0.23665851547E+01  0.11067449299E+04  0.11116068694E+04  0.00000000000E+00 0.  1.
         -1    1    1    2    0  501  0.10382625642E+03 -0.23665851547E+01  0.16627128016E+04  0.16659529864E+04  0.00000000000E+00 0. -1.
</event>
<event>
 4    1  0.6718357E+001  0.5515512E+02  0.7546771E-02  0.1277246E+00
          2   -1    0    0  502    0  0.00000000000E+00  0.00000000000E+00  0.29352118009E+03  0.29352118009E+03  0.00000000000E+00 0. -1.
         -2   -1    0    0    0  501 -0.00000000000E+00 -0.00000000000E+00 -0.10401566126E+02  0.10401566126E+02  0.00000000000E+00 0.  1.
          1    1    1    2  502    0  0.40262172352E+02  0.37696752079E+02  0.15067800217E+03  0.16045543923E+03  0.00000000000E+00 0. -1.
         -1    1    1    2    0  501 -0.40262172352E+02 -0.37696752079E+02  0.13244161179E+03  0.14346730699E+03  0.00000000000E+00 0.  1.
</event>
<event>
 4    1  0.6718357E+001  0.2418126E+02  0.7546771E-02  0.1478175E+00
          2   -1    0    0  502    0  0.00000000000E+00  0.00000000000E+00  0.18410602814E+03  0.18410602814E+03  0.00000000000E+00 0.  1.
         -2   -1    0    0    0  501 -0.00000000000E+00 -0.00000000000E+00 -0.25828713562E+02  0.25828713562E+02  0.00000000000E+00 0. -1.
          1    1    1    2  502    0  0.50909991056E+01 -0.23639272470E+02 -0.19163349847E+02  0.30853969796E+02  0.00000000000E+00 0. -1.
         -1    1    1    2    0  501 -0.50909991056E+01  0.23639272470E+02  0.17744066443E+03  0.17908077191E+03  0.00000000000E+00 0.  1.
</event>
<event>
 4    1  0.6718357E+001  0.4312160E+02  0.7546771E-02  0.1331104E+00
          2   -1    0    0  502    0  0.00000000000E+00  0.00000000000E+00  0.21999892388E+03  0.21999892388E+03  0.00000000000E+00 0.  1.
         -2   -1    0    0    0  501 -0.00000000000E+00 -0.00000000000E+00 -0.10766418012E+02  0.10766418012E+02  0.00000000000E+00 0. -1.
          1    1    1    2  502    0  0.16101622890E+02 -0.40002621337E+02  0.51121848839E+02  0.66879857971E+02  0.00000000000E+00 0. -1.
         -1    1    1    2    0  501 -0.16101622890E+02  0.40002621337E+02  0.15811065703E+03  0.16388548392E+03  0.00000000000E+00 0.  1.
</event>
<event>
 4    1  0.6718357E+001  0.2008572E+02  0.7546771E-02  0.1532729E+00
          2   -1    0    0  502    0  0.00000000000E+00  0.00000000000E+00  0.15296556410E+01  0.15296556410E+01  0.00000000000E+00 0.  1.
         -2   -1    0    0    0  501 -0.00000000000E+00 -0.00000000000E+00 -0.27339057893E+03  0.27339057893E+03  0.00000000000E+00 0. -1.
          1    1    1    2  502    0 -0.19893394585E+02  0.27729275528E+01 -0.11010847919E+03  0.11192548175E+03  0.00000000000E+00 0.  1.
         -1    1    1    2    0  501  0.19893394585E+02 -0.27729275528E+01 -0.16175244409E+03  0.16299475281E+03  0.00000000000E+00 0. -1.
</event>
<event>
 4    1  0.6718357E+001  0.3321000E+02  0.7546771E-02  0.1393604E+00
          2   -1    0    0  502    0  0.00000000000E+00  0.00000000000E+00  0.30018927136E+04  0.30018927136E+04  0.00000000000E+00 0.  1.
         -2   -1    0    0    0  501 -0.00000000000E+00 -0.00000000000E+00 -0.54561827533E+00  0.54561827533E+00  0.00000000000E+00 0. -1.
          1    1    1    2  502    0 -0.53880457842E+01  0.32769998747E+02  0.23586439884E+04  0.23588777773E+04  0.00000000000E+00 0.  1.
         -1    1    1    2    0  501  0.53880457842E+01 -0.32769998747E+02  0.64270310687E+03  0.64356055460E+03  0.00000000000E+00 0. -1.
</event>
<event>
 4    1  0.6718357E+001  0.3168219E+02  0.7546771E-02  0.1405520E+00
          2   -1    0    0  502    0  0.00000000000E+00  0.00000000000E+00  0.15024286151E+03  0.15024286151E+03  0.00000000000E+00 0. -1.
         -2   -1    0    0    0  501 -0.00000000000E+00 -0.00000000000E+00 -0.70813234864E+01  0.70813234864E+01  0.00000000000E+00 0.  1.
          1    1    1    2  502    0 -0.88228095652E+01 -0.30428923616E+02  0.52875918863E+02  0.61641091462E+02  0.00000000000E+00 0. -1.
         -1    1    1    2    0  501  0.88228095652E+01  0.30428923616E+02  0.90285619157E+02  0.95683093531E+02  0.00000000000E+00 0.  1.
</event>
<event>
 4    1  0.6718357E+001  0.2311223E+02  0.7546771E-02  0.1491094E+00
          2   -1    0    0  502    0  0.00000000000E+00  0.00000000000E+00  0.89473212087E+03  0.89473212087E+03  0.00000000000E+00 0.  1.
         -2   -1    0    0    0  501 -0.00000000000E+00 -0.00000000000E+00 -0.69250444756E+00  0.69250444756E+00  0.00000000000E+00 0. -1.
          1    1    1    2  502    0  0.22980200178E+02 -0.24669394747E+01  0.28077506399E+03  0.28172470951E+03  0.00000000000E+00 0.  1.
         -1    1    1    2    0  501 -0.22980200178E+02  0.24669394747E+01  0.61326455243E+03  0.61369991581E+03  0.00000000000E+00 0. -1.
</event>
<event>
 4    1  0.6718357E+001  0.3195429E+02  0.7546771E-02  0.1403341E+00
          2   -1    0    0  502    0  0.00000000000E+00  0.00000000000E+00  0.58349847498E+03  0.58349847498E+03  0.00000000000E+00 0. -1.
         -2   -1    0    0    0  501 -0.00000000000E+00 -0.00000000000E+00 -0.20591338895E+01  0.20591338895E+01  0.00000000000E+00 0.  1.
          1    1    1    2  502    0 -0.15966160618E+02  0.27679562326E+02  0.17726408830E+03  0.18012116326E+03  0.00000000000E+00 0.  1.
         -1    1    1    2    0  501  0.15966160618E+02 -0.27679562326E+02  0.40417525279E+03  0.40543644561E+03  0.00000000000E+00 0. -1.
</event>
<event>
 4    1  0.6718357E+001  0.2703666E+02  0.7546771E-02  0.1447240E+00
          2   -1    0    0  502    0  0.00000000000E+00  0.00000000000E+00  0.31764519194E+03  0.31764519194E+03  0.00000000000E+00 0. -1.
         -2   -1    0    0    0  501 -0.00000000000E+00 -0.00000000000E+00 -0.28596681470E+01  0.28596681470E+01  0.00000000000E+00 0.  1.
          1    1    1    2  502    0 -0.87285754264E+01  0.25588920340E+02  0.86577523877E+02  0.90700873832E+02  0.00000000000E+00 0.  1.
         -1    1    1    2    0  501  0.87285754264E+01 -0.25588920340E+02  0.22820799991E+03  0.22980398625E+03  0.00000000000E+00 0. -1.
</event>
<event>
 4    1  0.6718357E+001  0.2178143E+02  0.7546771E-02  0.1508394E+00
          2   -1    0    0  502    0  0.00000000000E+00  0.00000000000E+00  0.12302743096E+03  0.12302743096E+03  0.00000000000E+00 0. -1.
         -2   -1    0    0    0  501 -0.00000000000E+00 -0.00000000000E+00 -0.38755894092E+01  0.38755894092E+01  0.00000000000E+00 0.  1.
          1    1    1    2  502    0  0.21765910924E+02  0.82194735865E+00  0.64052552978E+02  0.67654711727E+02  0.00000000000E+00 0. -1.
         -1    1    1    2    0  501 -0.21765910924E+02 -0.82194735865E+00  0.55099288573E+02  0.59248308643E+02  0.00000000000E+00 0.  1.
</event>
<event>
 4    1  0.6718357E+001  0.2064390E+02  0.7546771E-02  0.1524410E+00
          2   -1    0    0  502    0  0.00000000000E+00  0.00000000000E+00  0.13008498305E+03  0.13008498305E+03  0.00000000000E+00 0.  1.
         -2   -1    0    0    0  501 -0.00000000000E+00 -0.00000000000E+00 -0.32929929415E+01  0.32929929415E+01  0.00000000000E+00 0. -1.
          1    1    1    2  502    0  0.74776193243E+01  0.19242028253E+02  0.68173567531E+02  0.71230651773E+02  0.00000000000E+00 0. -1.
         -1    1    1    2    0  501 -0.74776193243E+01 -0.19242028253E+02  0.58618422573E+02  0.62147324214E+02  0.00000000000E+00 0.  1.
</event>
<event>
 4    1  0.6718357E+001  0.3472882E+02  0.7546771E-02  0.1382480E+00
          2   -1    0    0  502    0  0.00000000000E+00  0.00000000000E+00  0.11995435496E+04  0.11995435496E+04  0.00000000000E+00 0.  1.
         -2   -1    0    0    0  501 -0.00000000000E+00 -0.00000000000E+00 -0.14298021842E+01  0.14298021842E+01  0.00000000000E+00 0. -1.
          1    1    1    2  502    0 -0.26444293326E+02  0.22512003458E+02  0.27192384060E+03  0.27413257018E+03  0.00000000000E+00 0. -1.
         -1    1    1    2    0  501  0.26444293326E+02 -0.22512003458E+02  0.92618990684E+03  0.92684078162E+03  0.00000000000E+00 0.  1.
</event>
<event>
 4    1  0.6718357E+001  0.2939853E+02  0.7546771E-02  0.1424896E+00
          2   -1    0    0  502    0  0.00000000000E+00  0.00000000000E+00  0.87559614250E+03  0.87559614250E+03  0.00000000000E+00 0. -1.
         -2   -1    0    0    0  501 -0.00000000000E+00 -0.00000000000E+00 -0.10408596883E+01  0.10408596883E+01  0.00000000000E+00 0.  1.
          1    1    1    2  502    0  0.62917341033E+01  0.28717376016E+02  0.53692096519E+03  0.53772520535E+03  0.00000000000E+00 0. -1.
         -1    1    1    2    0  501 -0.62917341033E+01 -0.28717376016E+02  0.33763431762E+03  0.33891179684E+03  0.00000000000E+00 0.  1.
</event>
<event>
 4    1  0.6718357E+001  0.2220237E+02  0.7546771E-02  0.1502764E+00
          2   -1    0    0  502    0  0.00000000000E+00  0.00000000000E+00  0.29148819264E+03  0.29148819264E+03  0.00000000000E+00 0.  1.
         -2   -1    0    0    0  501 -0.00000000000E+00 -0.00000000000E+00 -0.17028464984E+01  0.17028464984E+01  0.00000000000E+00 0. -1.
          1    1    1    2  502    0  0.20168623025E+02 -0.92828749064E+01  0.13273395659E+03  0.13457803815E+03  0.00000000000E+00 0. -1.
         -1    1    1    2    0  501 -0.20168623025E+02  0.92828749064E+01  0.15705138955E+03  0.15861300098E+03  0.00000000000E+00 0.  1.
</event>
<event>
 4    1  0.6718357E+001  0.3495284E+02  0.7546771E-02  0.1380895E+00
          2   -1    0    0  502    0  0.00000000000E+00  0.00000000000E+00  0.70687840560E+03  0.70687840560E+03  0.00000000000E+00 0. -1.
         -2   -1    0    0    0  501 -0.00000000000E+00 -0.00000000000E+00 -0.19299433059E+01  0.19299433059E+01  0.00000000000E+00 0.  1.
          1    1    1    2  502    0  0.25040175291E+02  0.24386278786E+02  0.23791928333E+03  0.24047304704E+03  0.00000000000E+00 0.  1.
         -1    1    1    2    0  501 -0.25040175291E+02 -0.24386278786E+02  0.46702917896E+03  0.46833530186E+03  0.00000000000E+00 0. -1.
</event>
<event>
 4    1  0.6718357E+001  0.2640934E+02  0.7546771E-02  0.1453633E+00
          2   -1    0    0  502    0  0.00000000000E+00  0.00000000000E+00  0.13361878395E+04  0.13361878395E+04  0.00000000000E+00 0.  1.
         -2   -1    0    0    0  501 -0.00000000000E+00 -0.00000000000E+00 -0.59300854175E+00  0.59300854175E+00  0.00000000000E+00 0. -1.
          1    1    1    2  502    0 -0.62364099205E+01  0.25662430716E+02  0.89913141185E+03  0.89951917652E+03  0.00000000000E+00 0. -1.
         -1    1    1    2    0  501  0.62364099205E+01 -0.25662430716E+02  0.43646341915E+03  0.43726167156E+03  0.00000000000E+00 0.  1.
</event>
<event>
 4    1  0.6718357E+001  0.3012084E+02  0.7546771E-02  0.1418549E+00
          2   -1    0    0  502    0  0.00000000000E+00  0.00000000000E+00  0.10603603273E+03  0.10603603273E+03  0.00000000000E+00 0. -1.
         -2   -1    0    0    0  501 -0.00000000000E+00 -0.00000000000E+00 -0.53068989669E+02  0.53068989669E+02  0.00000000000E+00 0.  1.
          1    1    1    2  502    0  0.26912213571E+02  0.13527675292E+02 -0.46374253138E+02  0.55297708743E+02  0.00000000000E+00 0.  1.
         -1    1    1    2    0  501 -0.26912213571E+02 -0.13527675292E+02  0.99341296196E+02  0.10380731365E+03  0.00000000000E+00 0. -1.
</event>
<event>
 4    1  0.6718357E+001  0.2178433E+02  0.7546771E-02  0.1508355E+00
          2   -1    0    0  502    0  0.00000000000E+00  0.00000000000E+00  0.33307130710E+03  0.33307130710E+03  0.00000000000E+00 0.  1.
         -2   -1    0    0    0  501 -0.00000000000E+00 -0.00000000000E+00 -0.16614099833E+01  0.16614099833E+01  0.00000000000E+00 0. -1.
          1    1    1    2  502    0  0.67075618145E+01 -0.20725969015E+02  0.22886668560E+03  0.22990110255E+03  0.00000000000E+00 0.  1.
         -1    1    1    2    0  501 -0.67075618145E+01  0.20725969015E+02  0.10254321152E+03  0.10483161453E+03  0.00000000000E+00 0. -1.
</event>
<event>
 4    1  0.6718357E+001  0.2643802E+02  0.7546771E-02  0.1453336E+00
          2   -1    0    0  502    0  0.00000000000E+00  0.00000000000E+00  0.10017267721E+02  0.10017267721E+02  0.00000000000E+00 0. -1.
         -2   -1    0    0    0  501 -0.00000000000E+00 -0.00000000000E+00 -0.10774010395E+03  0.10774010395E+03  0.00000000000E+00 0.  1.
          1    1    1    2  502    0  0.26418252985E+02 -0.10220511390E+01 -0.13910884067E+02  0.29874426770E+02  0.00000000000E+00 0. -1.
         -1    1    1    2    0  501 -0.26418252985E+02  0.10220511390E+01 -0.83811952162E+02  0.87882944902E+02  0.00000000000E+00 0.  1.
</event>
<event>
 4    1  0.6718357E+001  0.3242446E+02  0.7546771E-02  0.1399634E+00
          2   -1    0    0  502    0  0.00000000000E+00  0.00000000000E+00  0.25114431431E+03  0.25114431431E+03  0.00000000000E+00 0. -1.
         -2   -1    0    0    0  501 -0.00000000000E+00 -0.00000000000E+00 -0.70976822775E+01  0.70976822775E+01  0.00000000000E+00 0.  1.
          1    1    1    2  502    0  0.22604721063E+02  0.23245905044E+02  0.39325482387E+02  0.50969001173E+02  0.00000000000E+00 0. -1.
         -1    1    1    2    0  501 -0.22604721063E+02 -0.23245905044E+02  0.20472114965E+03  0.20727299542E+03  0.00000000000E+00 0.  1.
</event>
<event>
 4    1  0.6718357E+001  0.4074132E+02  0.7546771E-02  0.1344196E+00
          2   -1    0    0  502    0  0.00000000000E+00  0.00000000000E+00  0.14930170038E+04  0.14930170038E+04  0.00000000000E+00 0. -1.
         -2   -1    0    0    0  501 -0.00000000000E+00 -0.00000000000E+00 -0.22940790753E+01  0.22940790753E+01  0.00000000000E+00 0.  1.
          1    1    1    2  502    0  0.27305777783E+02  0.30236559471E+02  0.20861725701E+03  0.21255826249E+03  0.00000000000E+00 0.  1.
         -1    1    1    2    0  501 -0.27305777783E+02 -0.30236559471E+02  0.12821056677E+04  0.12827528203E+04  0.00000000000E+00 0. -1.
</event>
<event>
 4    1  0.6718357E+001  0.3640177E+02  0.7546771E-02  0.1370967E+00
          2   -1    0    0  502    0  0.00000000000E+00  0.00000000000E+00  0.14066557128E+04  0.14066557128E+04  0.00000000000E+00 0. -1.
         -2   -1    0    0    0  501 -0.00000000000E+00 -0.00000000000E+00 -0.97263376494E+00  0.97263376494E+00  0.00000000000E+00 0.  1.
          1    1    1    2  502    0 -0.36151279869E+02  0.42630988271E+01  0.82771953286E+03  0.82851959188E+03  0.00000000000E+00 0.  1.
         -1    1    1    2    0  501  0.36151279869E+02 -0.42630988271E+01  0.57796354620E+03  0.57910875472E+03  0.00000000000E+00 0. -1.
</event>
<event>
 4    1  0.6718357E+001  0.2511771E+02  0.7546771E-02  0.1467491E+00
          2   -1    0    0  502    0  0.00000000000E+00  0.00000000000E+00  0.19933074127E+04  0.19933074127E+04  0.00000000000E+00 0. -1.
         -2   -1    0    0    0  501 -0.00000000000E+00 -0.00000000000E+00 -0.41688849743E+00  0.41688849743E+00  0.00000000000E+00 0.  1.
          1    1    1    2  502    0  0.20888399696E+02 -0.13948987978E+02  0.14856018500E+04  0.14858141729E+04  0.00000000000E+00 0. -1.
         -1    1    1    2    0  501 -0.20888399696E+02  0.13948987978E+02  0.50728867423E+03  0.50791012838E+03  0.00000000000E+00 0.  1.
</event>
<event>
 4    1  0.6718357E+001  0.2225474E+02  0.7546771E-02  0.1502075E+00
          2   -1    0    0  502    0  0.00000000000E+00  0.00000000000E+00  0.20233675543E+03  0.20233675543E+03  0.00000000000E+00 0. -1.
         -2   -1    0    0    0  501 -0.00000000000E+00 -0.00000000000E+00 -0.76275461689E+01  0.76275461689E+01  0.00000000000E+00 0.  1.
          1    1    1    2  502    0 -0.21880440074E+02 -0.40644724803E+01  0.18386705059E+03  0.18520897896E+03  0.00000000000E+00 0. -1.
         -1    1    1    2    0  501  0.21880440074E+02  0.40644724803E+01  0.10842158672E+02  0.24755322641E+02  0.00000000000E+00 0.  1.
</event>
<event>
 4    1  0.6718357E+001  0.3128586E+02  0.7546771E-02  0.1408742E+00
          2   -1    0    0  502    0  0.00000000000E+00  0.00000000000E+00  0.36065112553E+03  0.36065112553E+03  0.00000000000E+00 0. -1.
         -2   -1    0    0    0  501 -0.00000000000E+00 -0.00000000000E+00 -0.27150640776E+01  0.27150640776E+01  0.00000000000E+00 0.  1.
          1    1    1    2  502    0 -0.56057097207E+01 -0.30779552093E+02  0.18257576578E+03  0.18523691602E+03  0.00000000000E+00 0.  1.
         -1    1    1    2    0  501  0.56057097207E+01  0.30779552093E+02  0.17536029568E+03  0.17812927359E+03  0.00000000000E+00 0. -1.
</event>
<event>
 4    1  0.6718357E+001  0.3211821E+02  0.7546771E-02  0.1402040E+00
          2   -1    0    0  502    0  0.00000000000E+00  0.00000000000E+00  0.24140417626E+02  0.24140417626E+02  0.00000000000E+00 0.  1.
         -2   -1    0    0    0  501 -0.00000000000E+00 -0.00000000000E+00 -0.10340804146E+03  0.10340804146E+03  0.00000000000E+00 0. -1.
          1    1    1    2  502    0 -0.27350523166E+02 -0.16838294754E+02 -0.88484991957E+02  0.94133804179E+02  0.00000000000E+00 0. -1.
         -1    1    1    2    0  501  0.27350523166E+02  0.16838294754E+02  0.92173681201E+01  0.33414654910E+02  0.00000000000E+00 0.  1.
</event>
<event>
 4    1  0.6718357E+001  0.2137588E+02  0.7546771E-02  0.1513965E+00
          2   -1    0    0  502    0  0.00000000000E+00  0.00000000000E+00  0.22587281501E+03  0.22587281501E+03  0.00000000000E+00 0.  1.
         -2   -1    0    0    0  501 -0.00000000000E+00 -0.00000000000E+00 -0.46959756185E+01  0.46959756185E+01  0.00000000000E+00 0. -1.
          1    1    1    2  502    0 -0.21228275511E+02  0.25076695972E+01  0.19756646546E+03  0.19871949166E+03  0.00000000000E+00 0.  1.
         -1    1    1    2    0  501  0.21228275511E+02 -0.25076695972E+01  0.23610373924E+02  0.31849298969E+02  0.00000000000E+00 0. -1.
</event>
<event>
 4    1  0.6718357E+001  0.3698914E+02  0.7546771E-02  0.1367094E+00
          2   -1    0    0  502    0  0.00000000000E+00  0.00000000000E+00  0.20939223802E+04  0.20939223802E+04  0.00000000000E+00 0.  1.
         -2   -1    0    0    0  501 -0.00000000000E+00 -0.00000000000E+00 -0.78461120484E+00  0.78461120484E+00  0.00000000000E+00 0. -1.
          1    1    1    2  502    0  0.18192995784E+02 -0.32205764646E+02  0.61828693755E+03  0.61939239058E+03  0.00000000000E+00 0. -1.
         -1    1    1    2    0  501 -0.18192995784E+02  0.32205764646E+02  0.14748508315E+04  0.14753146009E+04  0.00000000000E+00 0.  1.
</event>
<event>
 4    1  0.6718357E+001  0.2309482E+02  0.7546771E-02  0.1491311E+00
          2   -1    0    0  502    0  0.00000000000E+00  0.00000000000E+00  0.74728009450E+00  0.74728009450E+00  0.00000000000E+00 0.  1.
         -2   -1    0    0    0  501 -0.00000000000E+00 -0.00000000000E+00 -0.80417800648E+03  0.80417800648E+03  0.00000000000E+00 0. -1.
          1    1    1    2  502    0 -0.60983959198E+01 -0.22275100551E+02 -0.26675601173E+03  0.26775388014E+03  0.00000000000E+00 0.  1.
         -1    1    1    2    0  501  0.60983959198E+01  0.22275100551E+02 -0.53667471466E+03  0.53717140643E+03  0.00000000000E+00 0. -1.
</event>
<event>
 4    1  0.6718357E+001  0.4244599E+02  0.7546771E-02  0.1334719E+00
          2   -1    0    0  502    0  0.00000000000E+00  0.00000000000E+00  0.84875480813E+03  0.84875480813E+03  0.00000000000E+00 0.  1.
         -2   -1    0    0    0  501 -0.00000000000E+00 -0.00000000000E+00 -0.25511553067E+01  0.25511553067E+01  0.00000000000E+00 0. -1.
          1    1    1    2  502    0 -0.36315768285E+02 -0.21973321167E+02  0.24866667762E+03  0.25226331169E+03  0.00000000000E+00 0. -1.
         -1    1    1    2    0  501  0.36315768285E+02  0.21973321167E+02  0.59753697521E+03  0.59904265174E+03  0.00000000000E+00 0.  1.
</event>
<event>
 4    1  0.6718357E+001  0.2365623E+02  0.7546771E-02  0.1484418E+00
          2   -1    0    0  502    0  0.00000000000E+00  0.00000000000E+00  0.38016922099E+03  0.38016922099E+03  0.00000000000E+00 0.  1.
         -2   -1    0    0    0  501 -0.00000000000E+00 -0.00000000000E+00 -0.21548378223E+01  0.21548378223E+01  0.00000000000E+00 0. -1.
          1    1    1    2  502    0  0.21073146777E+02 -0.10748938547E+02  0.29661563388E+03  0.29755747589E+03  0.00000000000E+00 0.  1.
         -1    1    1    2    0  501 -0.21073146777E+02  0.10748938547E+02  0.81398749284E+02  0.84766582921E+02  0.00000000000E+00 0. -1.
</event>
<event>
 4    1  0.6718357E+001  0.2637325E+02  0.7546771E-02  0.1454008E+00
          2   -1    0    0  502    0  0.00000000000E+00  0.00000000000E+00  0.21932184257E+03  0.21932184257E+03  0.00000000000E+00 0. -1.
         -2   -1    0    0    0  501 -0.00000000000E+00 -0.00000000000E+00 -0.70003798658E+01  0.70003798658E+01  0.00000000000E+00 0.  1.
          1    1    1    2  502    0 -0.56896082525E+01  0.25752212184E+02  0.22469429293E+02  0.34647125814E+02  0.00000000000E+00 0.  1.
         -1    1    1    2    0  501  0.56896082525E+01 -0.25752212184E+02  0.18985203341E+03  0.19167509662E+03  0.00000000000E+00 0. -1.
</event>
<event>
 4    1  0.6718357E+001  0.5016796E+02  0.7546771E-02  0.1297446E+00
          2   -1    0    0  502    0  0.00000000000E+00  0.00000000000E+00  0.91901917971E+03  0.91901917971E+03  0.00000000000E+00 0.  1.
         -2   -1    0    0    0  501 -0.00000000000E+00 -0.00000000000E+00 -0.27627382332E+01  0.27627382332E+01  0.00000000000E+00 0. -1.
          1    1    1    2  502    0 -0.20121925495E+02  0.45955769990E+02  0.50120996135E+03  0.50371445288E+03  0.00000000000E+00 0. -1.
         -1    1    1    2    0  501  0.20121925495E+02 -0.45955769990E+02  0.41504648013E+03  0.41806746507E+03  0.00000000000E+00 0.  1.
</event>
<event>
 4    1  0.6718357E+001  0.5481496E+02  0.7546771E-02  0.1278546E+00
          2   -1    0    0  502    0  0.00000000000E+00  0.00000000000E+00  0.12811611358E+04  0.12811611358E+04  0.00000000000E+00 0.  1.
         -2   -1    0    0    0  501 -0.00000000000E+00 -0.00000000000E+00 -0.26021459709E+01  0.26021459709E+01  0.00000000000E+00 0. -1.
          1    1    1    2  502    0 -0.27381051812E+02  0.47486390629E+02  0.43760827383E+03  0.44102798167E+03  0.00000000000E+00 0. -1.
         -1    1    1    2    0  501  0.27381051812E+02 -0.47486390629E+02  0.84095071601E+03  0.84273530011E+03  0.00000000000E+00 0.  1.
</event>
<event>
 4    1  0.6718357E+001  0.2684987E+02  0.7546771E-02  0.1449122E+00
          2   -1    0    0  502    0  0.00000000000E+00  0.00000000000E+00  0.14410609856E+02  0.14410609856E+02  0.00000000000E+00 0. -1.
         -2   -1    0    0    0  501 -0.00000000000E+00 -0.00000000000E+00 -0.11557318542E+03  0.11557318542E+03  0.00000000000E+00 0.  1.
          1    1    1    2  502    0 -0.17800277701E+02  0.20101384520E+02 -0.99525947594E+02  0.10308409087E+03  0.00000000000E+00 0.  1.
         -1    1    1    2    0  501  0.17800277701E+02 -0.20101384520E+02 -0.16366279664E+01  0.26899704403E+02  0.00000000000E+00 0. -1.
</event>
<event>
 4    1  0.6718357E+001  0.2261581E+02  0.7546771E-02  0.1497380E+00
          2   -1    0    0  502    0  0.00000000000E+00  0.00000000000E+00  0.21706329540E+02  0.21706329540E+02  0.00000000000E+00 0. -1.
         -2   -1    0    0    0  501 -0.00000000000E+00 -0.00000000000E+00 -0.29937953421E+02  0.29937953421E+02  0.00000000000E+00 0.  1.
          1    1    1    2  502    0  0.22541284280E+02  0.18344642082E+01  0.77995256299E+01  0.23922946223E+02  0.00000000000E+00 0. -1.
         -1    1    1    2    0  501 -0.22541284280E+02 -0.18344642082E+01 -0.16031149511E+02  0.27721336739E+02  0.00000000000E+00 0.  1.
</event>
<event>
 4    1  0.6718357E+001  0.2396706E+02  0.7546771E-02  0.1480699E+00
          2   -1    0    0  502    0  0.00000000000E+00  0.00000000000E+00  0.22294161218E+04  0.22294161218E+04  0.00000000000E+00 0. -1.
         -2   -1    0    0    0  501 -0.00000000000E+00 -0.00000000000E+00 -0.26084926420E+00  0.26084926420E+00  0.00000000000E+00 0.  1.
          1    1    1    2  502    0 -0.23879294040E+02  0.20491635928E+01  0.99120567958E+03  0.99149539534E+03  0.00000000000E+00 0.  1.
         -1    1    1    2    0  501  0.23879294040E+02 -0.20491635928E+01  0.12379495929E+04  0.12381815757E+04  0.00000000000E+00 0. -1.
</event>
<event>
 4    1  0.6718357E+001  0.3870733E+02  0.7546771E-02  0.1356232E+00
          2   -1    0    0  502    0  0.00000000000E+00  0.00000000000E+00  0.26929674204E+02  0.26929674204E+02  0.00000000000E+00 0. -1.
         -2   -1    0    0    0  501 -0.00000000000E+00 -0.00000000000E+00 -0.55908540362E+02  0.55908540362E+02  0.00000000000E+00 0.  1.
          1    1    1    2  502    0 -0.10136375574E+02 -0.37356542374E+02 -0.11597183110E+02  0.40407326365E+02  0.00000000000E+00 0. -1.
         -1    1    1    2    0  501  0.10136375574E+02  0.37356542374E+02 -0.17381683049E+02  0.42430888201E+02  0.00000000000E+00 0.  1.
</event>
<event>
 4    1  0.6718357E+001  0.2224243E+02  0.7546771E-02  0.1502237E+00
          2   -1    0    0  502    0  0.00000000000E+00  0.00000000000E+00  0.13030326748E+03  0.13030326748E+03  0.00000000000E+00 0. -1.
         -2   -1    0    0    0  501 -0.00000000000E+00 -0.00000000000E+00 -0.46429602604E+01  0.46429602604E+01  0.00000000000E+00 0.  1.
          1    1    1    2  502    0  0.12592459351E+02 -0.18334550918E+02  0.34024442630E+02  0.40649581623E+02  0.00000000000E+00 0.  1.
         -1    1    1    2    0  501 -0.12592459351E+02  0.18334550918E+02  0.91635864590E+02  0.94296646117E+02  0.00000000000E+00 0. -1.
</event>
<event>
 4    1  0.6718357E+001  0.3641748E+02  0.7546771E-02  0.1370863E+00
          2   -1    0    0  502    0  0.00000000000E+00  0.00000000000E+00  0.16469042210E+04  0.16469042210E+04  0.00000000000E+00 0.  1.
         -2   -1    0    0    0  501 -0.00000000000E+00 -0.00000000000E+00 -0.81810941370E+00  0.81810941370E+00  0.00000000000E+00 0. -1.
          1    1    1    2  502    0 -0.36247892210E+02  0.35104589260E+01  0.92617851633E+03  0.92689421031E+03  0.00000000000E+00 0.  1.
         -1    1    1    2    0  501  0.36247892210E+02 -0.35104589260E+01  0.71990759521E+03  0.72082812005E+03  0.00000000000E+00 0. -1.
</event>
<event>
 4    1  0.6718357E+001  0.5650849E+02  0.7546771E-02  0.1272180E+00
          2   -1    0    0  502    0  0.00000000000E+00  0.00000000000E+00  0.56081974451E+03  0.56081974451E+03  0.00000000000E+00 0.  1.
         -2   -1    0    0    0  501 -0.00000000000E+00 -0.00000000000E+00 -0.86536402347E+01  0.86536402347E+01  0.00000000000E+00 0. -1.
          1    1    1    2  502    0  0.47083170775E+02 -0.31247159303E+02  0.10955927268E+03  0.12327385840E+03  0.00000000000E+00 0. -1.
         -1    1    1    2    0  501 -0.47083170775E+02  0.31247159303E+02  0.44260683160E+03  0.44619952635E+03  0.00000000000E+00 0.  1.
</event>
<event>
 4    1  0.6718357E+001  0.2668023E+02  0.7546771E-02  0.1450847E+00
          2   -1    0    0  502    0  0.00000000000E+00  0.00000000000E+00  0.16170233292E+03  0.16170233292E+03  0.00000000000E+00 0.  1.
         -2   -1    0    0    0  501 -0.00000000000E+00 -0.00000000000E+00 -0.47032806723E+01  0.47032806723E+01  0.00000000000E+00 0. -1.
          1    1    1    2  502    0 -0.21078731632E+02  0.16356085919E+02  0.99553322346E+02  0.10306647595E+03  0.00000000000E+00 0.  1.
         -1    1    1    2    0  501  0.21078731632E+02 -0.16356085919E+02  0.57445729900E+02  0.63339137645E+02  0.00000000000E+00 0. -1.
</event>
<event>
 4    1  0.6718357E+001  0.3210495E+02  0.7546771E-02  0.1402145E+00
          2   -1    0    0  502    0  0.00000000000E+00  0.00000000000E+00  0.35888887639E+02  0.35888887639E+02  0.00000000000E+00 0. -1.
         -2   -1    0    0    0  501 -0.00000000000E+00 -0.00000000000E+00 -0.33486709764E+02  0.33486709764E+02  0.00000000000E+00 0.  1.
          1    1    1    2  502    0  0.28367169302E+02  0.15034344383E+02  0.14288422928E+02  0.35140956661E+02  0.00000000000E+00 0. -1.
         -1    1    1    2    0  501 -0.28367169302E+02 -0.15034344383E+02 -0.11886245052E+02  0.34234640742E+02  0.00000000000E+00 0.  1.
</event>
<event>
 4    1  0.6718357E+001  0.2160986E+02  0.7546771E-02  0.1510733E+00
          2   -1    0    0  502    0  0.00000000000E+00  0.00000000000E+00  0.34797726733E+02  0.34797726733E+02  0.00000000000E+00 0.  1.
         -2   -1    0    0    0  501 -0.00000000000E+00 -0.00000000000E+00 -0.17401262830E+02  0.17401262830E+02  0.00000000000E+00 0. -1.
          1    1    1    2  502    0  0.90469085224E+01 -0.19624976376E+02 -0.37856873471E+01  0.21938953490E+02  0.00000000000E+00 0. -1.
         -1    1    1    2    0  501 -0.90469085224E+01  0.19624976376E+02  0.21182151250E+02  0.30260036073E+02  0.00000000000E+00 0.  1.
</event>
<event>
 4    1  0.6718357E+001  0.2471643E+02  0.7546771E-02  0.1472001E+00
          2   -1    0    0  502    0  0.00000000000E+00  0.00000000000E+00  0.22222169689E+03  0.22222169689E+03  0.00000000000E+00 0.  1.
         -2   -1    0    0    0  501 -0.00000000000E+00 -0.00000000000E+00 -0.29836153634E+01  0.29836153634E+01  0.00000000000E+00 0. -1.
          1    1    1    2  502    0  0.19681446576E+02  0.14951344435E+02  0.78047582270E+02  0.81867741742E+02  0.00000000000E+00 0.  1.
         -1    1    1    2    0  501 -0.19681446576E+02 -0.14951344435E+02  0.14119049925E+03  0.14333757051E+03  0.00000000000E+00 0. -1.
</event>
<event>
 4    1  0.6718357E+001  0.2485354E+02  0.7546771E-02  0.1470449E+00
          2   -1    0    0  502    0  0.00000000000E+00  0.00000000000E+00  0.17680141902E+04  0.17680141902E+04  0.00000000000E+00 0.  1.
         -2   -1    0    0    0  501 -0.00000000000E+00 -0.00000000000E+00 -0.92182206664E+00  0.92182206664E+00  0.00000000000E+00 0. -1.
          1    1    1    2  502    0 -0.23670027977E+02 -0.75781342831E+01  0.18655611338E+03  0.18820436176E+03  0.00000000000E+00 0. -1.
         -1    1    1    2    0  501  0.23670027977E+02  0.75781342831E+01  0.15805362547E+04  0.15807316505E+04  0.00000000000E+00 0.  1.
</event>
<event>
 4    1  0.6718357E+001  0.2156026E+02  0.7546771E-02  0.1511414E+00
          2   -1    0    0  502    0  0.00000000000E+00  0.00000000000E+00  0.69222385405E+03  0.69222385405E+03  0.00000000000E+00 0.  1.
         -2   -1    0    0    0  501 -0.00000000000E+00 -0.00000000000E+00 -0.74348178599E+00  0.74348178599E+00  0.00000000000E+00 0. -1.
          1    1    1    2  502    0  0.14150216324E+02  0.16267026643E+02  0.45353234426E+03  0.45404452652E+03  0.00000000000E+00 0.  1.
         -1    1    1    2    0  501 -0.14150216324E+02 -0.16267026643E+02  0.23794802801E+03  0.23892280931E+03  0.00000000000E+00 0. -1.
</event>
<event>
 4    1  0.6718357E+001  0.3471136E+02  0.7546771E-02  0.1382604E+00
          2   -1    0    0  502    0  0.00000000000E+00  0.00000000000E+00  0.11230662620E+03  0.11230662620E+03  0.00000000000E+00 0. -1.
         -2   -1    0    0    0  501 -0.00000000000E+00 -0.00000000000E+00 -0.22924067926E+02  0.22924067926E+02  0.00000000000E+00 0.  1.
          1    1    1    2  502    0 -0.33060360570E+02  0.10577848568E+02  0.94008770707E+02  0.10021241086E+03  0.00000000000E+00 0. -1.
         -1    1    1    2    0  501  0.33060360570E+02 -0.10577848568E+02 -0.46262124294E+01  0.35018283265E+02  0.00000000000E+00 0.  1.
</event>
<event>
 4    1  0.6718357E+001  0.2821280E+02  0.7546771E-02  0.1435791E+00
          2   -1    0    0  502    0  0.00000000000E+00  0.00000000000E+00  0.33879663064E+03  0.33879663064E+03  0.00000000000E+00 0.  1.
         -2   -1    0    0    0  501 -0.00000000000E+00 -0.00000000000E+00 -0.27271316212E+01  0.27271316212E+01  0.00000000000E+00 0. -1.
          1    1    1    2  502    0 -0.28203667746E+02 -0.71781515672E+00  0.10448104484E+03  0.10822315309E+03  0.00000000000E+00 0.  1.
         -1    1    1    2    0  501  0.28203667746E+02  0.71781515672E+00  0.23158845417E+03  0.23330060917E+03  0.00000000000E+00 0. -1.
</event>
<event>
 4    1  0.6718357E+001  0.2555866E+02  0.7546771E-02  0.1462650E+00
          2   -1    0    0  502    0  0.00000000000E+00  0.00000000000E+00  0.55437919126E+01  0.55437919126E+01  0.00000000000E+00 0.  1.
         -2   -1    0    0    0  501 -0.00000000000E+00 -0.00000000000E+00 -0.12939706400E+03  0.12939706400E+03  0.00000000000E+00 0. -1.
          1    1    1    2  502    0 -0.25558572545E+02 -0.65618202659E-01 -0.41757127975E+02  0.48958172688E+02  0.00000000000E+00 0. -1.
         -1    1    1    2    0  501  0.25558572545E+02  0.65618202659E-01 -0.82096144112E+02  0.85982683224E+02  0.00000000000E+00 0.  1.
</event>
<event>
 4    1  0.6718357E+001  0.2929244E+02  0.7546771E-02  0.1425846E+00
          2   -1    0    0  502    0  0.00000000000E+00  0.00000000000E+00  0.22373067627E+04  0.22373067627E+04  0.00000000000E+00 0. -1.
         -2   -1    0    0    0  501 -0.00000000000E+00 -0.00000000000E+00 -0.12305751486E+01  0.12305751486E+01  0.00000000000E+00 0.  1.
          1    1    1    2  502    0  0.28447234043E+02  0.69858540789E+01  0.18942105505E+03  0.19167259422E+03  0.00000000000E+00 0.  1.
         -1    1    1    2    0  501 -0.28447234043E+02 -0.69858540789E+01  0.20466551325E+04  0.20468647436E+04  0.00000000000E+00 0. -1.
</event>
<event>
 4    1  0.6718357E+001  0.2186424E+02  0.7546771E-02  0.1507274E+00
          2   -1    0    0  502    0  0.00000000000E+00  0.00000000000E+00  0.30110053455E+03  0.30110053455E+03  0.00000000000E+00 0.  1.
         -2   -1    0    0    0  501 -0.00000000000E+00 -0.00000000000E+00 -0.36702062973E+01  0.36702062973E+01  0.00000000000E+00 0. -1.
          1    1    1    2  502    0  0.15351729961E+02 -0.15568219299E+02  0.33927440815E+02  0.40362312931E+02  0.00000000000E+00 0. -1.
         -1    1    1    2    0  501 -0.15351729961E+02  0.15568219299E+02  0.26350288744E+03  0.26440842792E+03  0.00000000000E+00 0.  1.
</event>
<event>
 4    1  0.6718357E+001  0.2558498E+02  0.7546771E-02  0.1462364E+00
          2   -1    0    0  502    0  0.00000000000E+00  0.00000000000E+00  0.11660398656E+03  0.11660398656E+03  0.00000000000E+00 0. -1.
         -2   -1    0    0    0  501 -0.00000000000E+00 -0.00000000000E+00 -0.56775387059E+01  0.56775387059E+01  0.00000000000E+00 0.  1.
          1    1    1    2  502    0 -0.24445443340E+02  0.75506013476E+01  0.61941473100E+02  0.67017440794E+02  0.00000000000E+00 0. -1.
         -1    1    1    2    0  501  0.24445443340E+02 -0.75506013476E+01  0.48984974753E+02  0.55264084471E+02  0.00000000000E+00 0.  1.
</event>
<event>
 4    1  0.6718357E+001  0.3574377E+02  0.7546771E-02  0.1375408E+00
          2   -1    0    0  502    0  0.00000000000E+00  0.00000000000E+00  0.11631570879E+03  0.11631570879E+03  0.00000000000E+00 0.  1.
         -2   -1    0    0    0  501 -0.00000000000E+00 -0.00000000000E+00 -0.12052829793E+02  0.12052829793E+02  0.00000000000E+00 0. -1.
          1    1    1    2  502    0  0.21912870064E+02 -0.28239038594E+02  0.71244440416E+02  0.79708139267E+02  0.00000000000E+00 0.  1.
         -1    1    1    2    0  501 -0.21912870064E+02  0.28239038594E+02  0.33018438580E+02  0.48660399315E+02  0.00000000000E+00 0. -1.
</event>
<event>
 4    1  0.6718357E+001  0.2815053E+02  0.7546771E-02  0.1436381E+00
          2   -1    0    0  502    0  0.00000000000E+00  0.00000000000E+00  0.28811155170E+02  0.28811155170E+02  0.00000000000E+00 0. -1.
         -2   -1    0    0    0  501 -0.00000000000E+00 -0.00000000000E+00 -0.29190372961E+02  0.29190372961E+02  0.00000000000E+00 0.  1.
          1    1    1    2  502    0  0.76036874308E+01  0.27104173130E+02 -0.71579786415E+01  0.29046323724E+02  0.00000000000E+00 0. -1.
         -1    1    1    2    0  501 -0.76036874308E+01 -0.27104173130E+02  0.67787608506E+01  0.28955204408E+02  0.00000000000E+00 0.  1.
</event>
<event>
 4    1  0.6718357E+001  0.2451186E+02  0.7546771E-02  0.1474339E+00
          2   -1    0    0  502    0  0.00000000000E+00  0.00000000000E+00  0.80817557908E+03  0.80817557908E+03  0.00000000000E+00 0. -1.
         -2   -1    0    0    0  501 -0.00000000000E+00 -0.00000000000E+00 -0.74379368509E+00  0.74379368509E+00  0.00000000000E+00 0.  1.
          1    1    1    2  502    0  0.17701850854E+02  0.16955108822E+02  0.41251734385E+03  0.41324495183E+03  0.00000000000E+00 0.  1.
         -1    1    1    2    0  501 -0.17701850854E+02 -0.16955108822E+02  0.39491444155E+03  0.39567442093E+03  0.00000000000E+00 0. -1.
</event>
<event>
 4    1  0.6718357E+001  0.2543731E+02  0.7546771E-02  0.1463970E+00
          2   -1    0    0  502    0  0.00000000000E+00  0.00000000000E+00  0.17418544908E+04  0.17418544908E+04  0.00000000000E+00 0.  1.
         -2   -1    0    0    0  501 -0.00000000000E+00 -0.00000000000E+00 -0.59544527752E+00  0.59544527752E+00  0.00000000000E+00 0. -1.
          1    1    1    2  502    0  0.21497319395E+02 -0.13598610304E+02  0.14049523382E+04  0.14051825966E+04  0.00000000000E+00 0. -1.
         -1    1    1    2    0  501 -0.21497319395E+02  0.13598610304E+02  0.33630670726E+03  0.33726733950E+03  0.00000000000E+00 0.  1.
</event>
<event>
 4    1  0.6718357E+001  0.3145406E+02  0.7546771E-02  0.1407368E+00
          2   -1    0    0  502    0  0.00000000000E+00  0.00000000000E+00  0.51802268590E+02  0.51802268590E+02  0.00000000000E+00 0.  1.
         -2   -1    0    0    0  501 -0.00000000000E+00 -0.00000000000E+00 -0.19466654052E+02  0.19466654052E+02  0.00000000000E+00 0. -1.
          1    1    1    2  502    0 -0.28417126229E+02 -0.13484252408E+02  0.11268925383E+02  0.33411776448E+02  0.00000000000E+00 0.  1.
         -1    1    1    2    0  501  0.28417126229E+02  0.13484252408E+02  0.21066689154E+02  0.37857146195E+02  0.00000000000E+00 0. -1.
</event>
<event>
 4    1  0.6718357E+001  0.2205384E+02  0.7546771E-02  0.1504734E+00
          2   -1    0    0  502    0  0.00000000000E+00  0.00000000000E+00  0.93936497065E+03  0.93936497065E+03  0.00000000000E+00 0.  1.
         -2   -1    0    0    0  501 -0.00000000000E+00 -0.00000000000E+00 -0.74187637728E+00  0.74187637728E+00  0.00000000000E+00 0. -1.
          1    1    1    2  502    0 -0.21897391222E+02  0.26222628927E+01  0.72766343927E+03  0.72799756377E+03  0.00000000000E+00 0.  1.
         -1    1    1    2    0  501  0.21897391222E+02 -0.26222628927E+01  0.21095965501E+03  0.21210928326E+03  0.00000000000E+00 0. -1.
</event>
<event>
 4    1  0.6718357E+001  0.3149612E+02  0.7546771E-02  0.1407026E+00
          2   -1    0    0  502    0  0.00000000000E+00  0.00000000000E+00  0.16118800052E+03  0.16118800052E+03  0.00000000000E+00 0. -1.
         -2   -1    0    0    0  501 -0.00000000000E+00 -0.00000000000E+00 -0.71330685772E+01  0.71330685772E+01  0.00000000000E+00 0.  1.
          1    1    1    2  502    0  0.39536155844E+01  0.31246989542E+02  0.45852795541E+02  0.55628089043E+02  0.00000000000E+00 0.  1.
         -1    1    1    2    0  501 -0.39536155844E+01 -0.31246989542E+02  0.10820213640E+03  0.11269298006E+03  0.00000000000E+00 0. -1.
</event>
<event>
 4    1  0.6718357E+001  0.4452903E+02  0.7546771E-02  0.1323811E+00
          2   -1    0    0  502    0  0.00000000000E+00  0.00000000000E+00  0.86230269832E+03  0.86230269832E+03  0.00000000000E+00 0.  1.
         -2   -1    0    0    0  501 -0.00000000000E+00 -0.00000000000E+00 -0.25323042380E+01  0.25323042380E+01  0.00000000000E+00 0. -1.
          1    1    1    2  502    0 -0.26436151777E+02  0.35832449502E+02  0.56100664865E+03  0.56277108525E+03  0.00000000000E+00 0. -1.
         -1    1    1    2    0  501  0.26436151777E+02 -0.35832449502E+02  0.29876374542E+03  0.30206391731E+03  0.00000000000E+00 0.  1.
</event>
<event>
 4    1  0.6718357E+001  0.2485467E+02  0.7546771E-02  0.1470436E+00
          2   -1    0    0  502    0  0.00000000000E+00  0.00000000000E+00  0.40185163816E+03  0.40185163816E+03  0.00000000000E+00 0. -1.
         -2   -1    0    0    0  501 -0.00000000000E+00 -0.00000000000E+00 -0.26328503237E+01  0.26328503237E+01  0.00000000000E+00 0.  1.
          1    1    1    2  502    0  0.21764482693E+02 -0.12002570482E+02  0.69148324688E+02  0.73479556424E+02  0.00000000000E+00 0.  1.
         -1    1    1    2    0  501 -0.21764482693E+02  0.12002570482E+02  0.33007046315E+03  0.33100493206E+03  0.00000000000E+00 0. -1.
</event>
<event>
 4    1  0.6718357E+001  0.2339438E+02  0.7546771E-02  0.1487604E+00
          2   -1    0    0  502    0  0.00000000000E+00  0.00000000000E+00  0.11510190195E+03  0.11510190195E+03  0.00000000000E+00 0.  1.
         -2   -1    0    0    0  501 -0.00000000000E+00 -0.00000000000E+00 -0.13125476555E+02  0.13125476555E+02  0.00000000000E+00 0. -1.
          1    1    1    2  502    0 -0.22741913566E+02 -0.54865588604E+01 -0.21192816148E+00  0.23395338731E+02  0.00000000000E+00 0. -1.
         -1    1    1    2    0  501  0.22741913566E+02  0.54865588604E+01  0.10218835356E+03  0.10483203978E+03  0.00000000000E+00 0.  1.
</event>
<event>
 4    1  0.6718357E+001  0.2230555E+02  0.7546771E-02  0.1501407E+00
          2   -1    0    0  502    0  0.00000000000E+00  0.00000000000E+00  0.16523556298E+04  0.16523556298E+04  0.00000000000E+00 0. -1.
         -2   -1    0    0    0  501 -0.00000000000E+00 -0.00000000000E+00 -0.93911722743E+00  0.93911722743E+00  0.00000000000E+00 0.  1.
          1    1    1    2  502    0 -0.21379684311E+02  0.63597623711E+01  0.14435259207E+03  0.14606576709E+03  0.00000000000E+00 0.  1.
         -1    1    1    2    0  501  0.21379684311E+02 -0.63597623711E+01  0.15070639205E+04  0.15072289799E+04  0.00000000000E+00 0. -1.
</event>
<event>
 4    1  0.6718357E+001  0.4777202E+02  0.7546771E-02  0.1308132E+00
          2   -1    0    0  502    0  0.00000000000E+00  0.00000000000E+00  0.33714415492E+03  0.33714415492E+03  0.00000000000E+00 0.  1.
         -2   -1    0    0    0  501 -0.00000000000E+00 -0.00000000000E+00 -0.69219707354E+01  0.69219707354E+01  0.00000000000E+00 0. -1.
          1    1    1    2  502    0  0.43782127614E+02 -0.19112588299E+02  0.19067608088E+03  0.19656941153E+03  0.00000000000E+00 0. -1.
         -1    1    1    2    0  501 -0.43782127614E+02  0.19112588299E+02  0.13954610330E+03  0.14749671412E+03  0.00000000000E+00 0.  1.
</event>
<event>
 4    1  0.6718357E+001  0.2283786E+02  0.7546771E-02  0.1494544E+00
          2   -1    0    0  502    0  0.00000000000E+00  0.00000000000E+00  0.30172700815E+03  0.30172700815E+03  0.00000000000E+00 0.  1.
         -2   -1    0    0    0  501 -0.00000000000E+00 -0.00000000000E+00 -0.18628437225E+01  0.18628437225E+01  0.00000000000E+00 0. -1.
          1    1    1    2  502    0 -0.22137592958E+02 -0.56120198500E+01  0.19067974725E+03  0.19204253123E+03  0.00000000000E+00 0.  1.
         -1    1    1    2    0  501  0.22137592958E+02  0.56120198500E+01  0.10918441717E+03  0.11154732064E+03  0.00000000000E+00 0. -1.
</event>
<event>
 4    1  0.6718357E+001  0.2496250E+02  0.7546771E-02  0.1469223E+00
          2   -1    0    0  502    0  0.00000000000E+00  0.00000000000E+00  0.81554363887E+03  0.81554363887E+03  0.00000000000E+00 0. -1.
         -2   -1    0    0    0  501 -0.00000000000E+00 -0.00000000000E+00 -0.76847866877E+00  0.76847866877E+00  0.00000000000E+00 0.  1.
          1    1    1    2  502    0 -0.10772330088E+01 -0.24939243057E+02  0.43832865257E+03  0.43903887520E+03  0.00000000000E+00 0.  1.
         -1    1    1    2    0  501  0.10772330088E+01  0.24939243057E+02  0.37644650763E+03  0.37727324233E+03  0.00000000000E+00 0. -1.
</event>
<event>
 4    1  0.6718357E+001  0.2021369E+02  0.7546771E-02  0.1530794E+00
          2   -1    0    0  502    0  0.00000000000E+00  0.00000000000E+00  0.31713371586E+01  0.31713371586E+01  0.00000000000E+00 0. -1.
         -2   -1    0    0    0  501 -0.00000000000E+00 -0.00000000000E+00 -0.21350279677E+03  0.21350279677E+03  0.00000000000E+00 0.  1.
          1    1    1    2  502    0 -0.98297173418E+01  0.17662674171E+02 -0.36943964704E+02  0.42112348901E+02  0.00000000000E+00 0. -1.
         -1    1    1    2    0  501  0.98297173418E+01 -0.17662674171E+02 -0.17338749491E+03  0.17456178503E+03  0.00000000000E+00 0.  1.
</event>
<event>
 4    1  0.6718357E+001  0.6082607E+02  0.7546771E-02  0.1257051E+00
          2   -1    0    0  502    0  0.00000000000E+00  0.00000000000E+00  0.25309068824E+01  0.25309068824E+01  0.00000000000E+00 0. -1.
         -2   -1    0    0    0  501 -0.00000000000E+00 -0.00000000000E+00 -0.14894123552E+04  0.14894123552E+04  0.00000000000E+00 0.  1.
          1    1    1    2  502    0  0.60570316072E+02  0.55719835978E+01 -0.64196535089E+03  0.64484053993E+03  0.00000000000E+00 0.  1.
         -1    1    1    2    0  501 -0.60570316072E+02 -0.55719835978E+01 -0.84491609742E+03  0.84710272215E+03  0.00000000000E+00 0. -1.
</event>
<event>
 4    1  0.6718357E+001  0.7917829E+02  0.7546771E-02  0.1205768E+00
          2   -1    0    0  502    0  0.00000000000E+00  0.00000000000E+00  0.49838798128E+03  0.49838798128E+03  0.00000000000E+00 0. -1.
         -2   -1    0    0    0  501 -0.00000000000E+00 -0.00000000000E+00 -0.12720468770E+02  0.12720468770E+02  0.00000000000E+00 0.  1.
          1    1    1    2  502    0 -0.76967265741E+02  0.18580659669E+02  0.26978805419E+03  0.28116684565E+03  0.00000000000E+00 0. -1.
         -1    1    1    2    0  501  0.76967265741E+02 -0.18580659669E+02  0.21587945832E+03  0.22994160440E+03  0.00000000000E+00 0.  1.
</event>
<event>
 4    1  0.6718357E+001  0.4211410E+02  0.7546771E-02  0.1336524E+00
          2   -1    0    0  502    0  0.00000000000E+00  0.00000000000E+00  0.10214093823E+04  0.10214093823E+04  0.00000000000E+00 0.  1.
         -2   -1    0    0    0  501 -0.00000000000E+00 -0.00000000000E+00 -0.17448205128E+01  0.17448205128E+01  0.00000000000E+00 0. -1.
          1    1    1    2  502    0 -0.54185209133E+01 -0.41764060778E+02  0.54532600877E+03  0.54694977190E+03  0.00000000000E+00 0. -1.
         -1    1    1    2    0  501  0.54185209133E+01  0.41764060778E+02  0.47433855300E+03  0.47620443090E+03  0.00000000000E+00 0.  1.
</event>
<event>
 4    1  0.6718357E+001  0.3126383E+02  0.7546771E-02  0.1408923E+00
          2   -1    0    0  502    0  0.00000000000E+00  0.00000000000E+00  0.24817316061E+03  0.24817316061E+03  0.00000000000E+00 0. -1.
         -2   -1    0    0    0  501 -0.00000000000E+00 -0.00000000000E+00 -0.54775760866E+01  0.54775760866E+01  0.00000000000E+00 0.  1.
          1    1    1    2  502    0 -0.11628370593E+02 -0.29020816350E+02  0.18857480170E+03  0.19114884938E+03  0.00000000000E+00 0. -1.
         -1    1    1    2    0  501  0.11628370593E+02  0.29020816350E+02  0.54120782817E+02  0.62501887308E+02  0.00000000000E+00 0.  1.
</event>
<event>
 4    1  0.6718357E+001  0.4281551E+02  0.7546771E-02  0.1332732E+00
          2   -1    0    0  502    0  0.00000000000E+00  0.00000000000E+00  0.78804795538E+01  0.78804795538E+01  0.00000000000E+00 0.  1.
         -2   -1    0    0    0  501 -0.00000000000E+00 -0.00000000000E+00 -0.48509889047E+03  0.48509889047E+03  0.00000000000E+00 0. -1.
          1    1    1    2  502    0  0.25613190113E+02  0.34309360725E+02 -0.60783315773E+02  0.74349036427E+02  0.00000000000E+00 0.  1.
         -1    1    1    2    0  501 -0.25613190113E+02 -0.34309360725E+02 -0.41643509514E+03  0.41863033360E+03  0.00000000000E+00 0. -1.
</event>
<event>
 4    1  0.6718357E+001  0.2788564E+02  0.7546771E-02  0.1438909E+00
          2   -1    0    0  502    0  0.00000000000E+00  0.00000000000E+00  0.16618126894E+03  0.16618126894E+03  0.00000000000E+00 0. -1.
         -2   -1    0    0    0  501 -0.00000000000E+00 -0.00000000000E+00 -0.65080472190E+01  0.65080472190E+01  0.00000000000E+00 0.  1.
          1    1    1    2  502    0  0.14791854651E+02  0.23639161589E+02  0.12560748129E+03  0.12866564530E+03  0.00000000000E+00 0. -1.
         -1    1    1    2    0  501 -0.14791854651E+02 -0.23639161589E+02  0.34065740428E+02  0.44023670855E+02  0.00000000000E+00 0.  1.
</event>
<event>
 4    1  0.6718357E+001  0.2633529E+02  0.7546771E-02  0.1454402E+00
          2   -1    0    0  502    0  0.00000000000E+00  0.00000000000E+00  0.26748039922E+02  0.26748039922E+02  0.00000000000E+00 0.  1.
         -2   -1    0    0    0  501 -0.00000000000E+00 -0.00000000000E+00 -0.26079198168E+02  0.26079198168E+02  0.00000000000E+00 0. -1.
          1    1    1    2  502    0  0.22470235839E+02  0.13734476206E+02  0.23395999089E+01  0.26439006468E+02  0.00000000000E+00 0.  1.
         -1    1    1    2    0  501 -0.22470235839E+02 -0.13734476206E+02 -0.16707581539E+01  0.26388231622E+02  0.00000000000E+00 0. -1.
</event>
<event>
 4    1  0.6718357E+001  0.2539811E+02  0.7546771E-02  0.1464399E+00
          2   -1    0    0  502    0  0.00000000000E+00  0.00000000000E+00  0.20120531058E+02  0.20120531058E+02  0.00000000000E+00 0. -1.
         -2   -1    0    0    0  501 -0.00000000000E+00 -0.00000000000E+00 -0.66388010314E+02  0.66388010314E+02  0.00000000000E+00 0.  1.
          1    1    1    2  502    0  0.10231081273E+02  0.23246271769E+02 -0.54237185010E+02  0.59889368113E+02  0.00000000000E+00 0.  1.
         -1    1    1    2    0  501 -0.10231081273E+02 -0.23246271769E+02  0.79697057545E+01  0.26619173259E+02  0.00000000000E+00 0. -1.
</event>
<event>
 4    1  0.6718357E+001  0.2154646E+02  0.7546771E-02  0.1511604E+00
          2   -1    0    0  502    0  0.00000000000E+00  0.00000000000E+00  0.23905515491E+01  0.23905515491E+01  0.00000000000E+00 0.  1.
         -2   -1    0    0    0  501 -0.00000000000E+00 -0.00000000000E+00 -0.25292933123E+03  0.25292933123E+03  0.00000000000E+00 0. -1.
          1    1    1    2  502    0  0.18296847491E+02  0.11378725461E+02 -0.18678353252E+03  0.18802217434E+03  0.00000000000E+00 0. -1.
         -1    1    1    2    0  501 -0.18296847491E+02 -0.11378725461E+02 -0.63755247161E+02  0.67297708444E+02  0.00000000000E+00 0.  1.
</event>
<event>
 4    1  0.6718357E+001  0.2558117E+02  0.7546771E-02  0.1462406E+00
          2   -1    0    0  502    0  0.00000000000E+00  0.00000000000E+00  0.11212259890E+02  0.11212259890E+02  0.00000000000E+00 0.  1.
         -2   -1    0    0    0  501 -0.00000000000E+00 -0.00000000000E+00 -0.61404721246E+02  0.61404721246E+02  0.00000000000E+00 0. -1.
          1    1    1    2  502    0 -0.54418233093E+01 -0.24995657249E+02 -0.33175465434E+02  0.41892813573E+02  0.00000000000E+00 0. -1.
         -1    1    1    2    0  501  0.54418233093E+01  0.24995657249E+02 -0.17016995921E+02  0.30724167563E+02  0.00000000000E+00 0.  1.
</event>
<event>
 4    1  0.6718357E+001  0.2273318E+02  0.7546771E-02  0.1495876E+00
          2   -1    0    0  502    0  0.00000000000E+00  0.00000000000E+00  0.30783141899E+01  0.30783141899E+01  0.00000000000E+00 0.  1.
         -2   -1    0    0    0  501 -0.00000000000E+00 -0.00000000000E+00 -0.46173124754E+03  0.46173124754E+03  0.00000000000E+00 0. -1.
          1    1    1    2  502    0  0.15107368504E+02 -0.16987198195E+02 -0.41472733747E+03  0.41534992709E+03  0.00000000000E+00 0. -1.
         -1    1    1    2    0  501 -0.15107368504E+02  0.16987198195E+02 -0.43925595876E+02  0.49459634639E+02  0.00000000000E+00 0.  1.
</event>
<event>
 4    1  0.6718357E+001  0.2985996E+02  0.7546771E-02  0.1420817E+00
          2   -1    0    0  502    0  0.00000000000E+00  0.00000000000E+00  0.15869531356E+02  0.15869531356E+02  0.00000000000E+00 0. -1.
         -2   -1    0    0    0  501 -0.00000000000E+00 -0.00000000000E+00 -0.60025624276E+02  0.60025624276E+02  0.00000000000E+00 0.  1.
          1    1    1    2  502    0 -0.20006086477E+02  0.22166948701E+02 -0.12478268479E+02  0.32362390132E+02  0.00000000000E+00 0. -1.
         -1    1    1    2    0  501  0.20006086477E+02 -0.22166948701E+02 -0.31677824441E+02  0.43532765501E+02  0.00000000000E+00 0.  1.
</event>
<event>
 4    1  0.6718357E+001  0.2217396E+02  0.7546771E-02  0.1503140E+00
          2   -1    0    0  502    0  0.00000000000E+00  0.00000000000E+00  0.10827117128E+02  0.10827117128E+02  0.00000000000E+00 0.  1.
         -2   -1    0    0    0  501 -0.00000000000E+00 -0.00000000000E+00 -0.45756180999E+02  0.45756180999E+02  0.00000000000E+00 0. -1.
          1    1    1    2  502    0  0.17423497948E+02  0.13715183267E+02 -0.19917113011E+02  0.29805635767E+02  0.00000000000E+00 0. -1.
         -1    1    1    2    0  501 -0.17423497948E+02 -0.13715183267E+02 -0.15011950860E+02  0.26777662359E+02  0.00000000000E+00 0.  1.
</event>
<event>
 4    1  0.6718357E+001  0.2554096E+02  0.7546771E-02  0.1462842E+00
          2   -1    0    0  502    0  0.00000000000E+00  0.00000000000E+00  0.50342326176E+02  0.50342326176E+02  0.00000000000E+00 0.  1.
         -2   -1    0    0    0  501 -0.00000000000E+00 -0.00000000000E+00 -0.15703826557E+02  0.15703826557E+02  0.00000000000E+00 0. -1.
          1    1    1    2  502    0  0.30608960848E+01 -0.25356882098E+02  0.35108305879E+01  0.25781126546E+02  0.00000000000E+00 0. -1.
         -1    1    1    2    0  501 -0.30608960848E+01  0.25356882098E+02  0.31127669031E+02  0.40265026187E+02  0.00000000000E+00 0.  1.
</event>
<event>
 4    1  0.6718357E+001  0.2293840E+02  0.7546771E-02  0.1493273E+00
          2   -1    0    0  502    0  0.00000000000E+00  0.00000000000E+00  0.10014217576E+02  0.10014217576E+02  0.00000000000E+00 0.  1.
         -2   -1    0    0    0  501 -0.00000000000E+00 -0.00000000000E+00 -0.52545473041E+02  0.52545473041E+02  0.00000000000E+00 0. -1.
          1    1    1    2  502    0  0.17146517418E+02  0.15237024736E+02 -0.21022396159E+02  0.31114484130E+02  0.00000000000E+00 0.  1.
         -1    1    1    2    0  501 -0.17146517418E+02 -0.15237024736E+02 -0.21508859306E+02  0.31445206487E+02  0.00000000000E+00 0. -1.
</event>
<event>
 4    1  0.6718357E+001  0.2202329E+02  0.7546771E-02  0.1505141E+00
          2   -1    0    0  502    0  0.00000000000E+00  0.00000000000E+00  0.14982338782E+01  0.14982338782E+01  0.00000000000E+00 0.  1.
         -2   -1    0    0    0  501 -0.00000000000E+00 -0.00000000000E+00 -0.32539986382E+03  0.32539986382E+03  0.00000000000E+00 0. -1.
          1    1    1    2  502    0  0.19908464619E+02  0.94169281562E+01 -0.15024722185E+03  0.15185273515E+03  0.00000000000E+00 0.  1.
         -1    1    1    2    0  501 -0.19908464619E+02 -0.94169281562E+01 -0.17365440810E+03  0.17504536255E+03  0.00000000000E+00 0. -1.
</event>
<event>
 4    1  0.6718357E+001  0.2117008E+02  0.7546771E-02  0.1516850E+00
          2   -1    0    0  502    0  0.00000000000E+00  0.00000000000E+00  0.61152207283E+03  0.61152207283E+03  0.00000000000E+00 0.  1.
         -2   -1    0    0    0  501 -0.00000000000E+00 -0.00000000000E+00 -0.73922385894E+00  0.73922385894E+00  0.00000000000E+00 0. -1.
          1    1    1    2  502    0  0.11899947267E+02 -0.17508952144E+02  0.33375126529E+03  0.33442200770E+03  0.00000000000E+00 0.  1.
         -1    1    1    2    0  501 -0.11899947267E+02  0.17508952144E+02  0.27703158368E+03  0.27783928899E+03  0.00000000000E+00 0. -1.
</event>
<event>
 4    1  0.6718357E+001  0.2897959E+02  0.7546771E-02  0.1428676E+00
          2   -1    0    0  502    0  0.00000000000E+00  0.00000000000E+00  0.54019926012E+03  0.54019926012E+03  0.00000000000E+00 0.  1.
         -2   -1    0    0    0  501 -0.00000000000E+00 -0.00000000000E+00 -0.24536122839E+01  0.24536122839E+01  0.00000000000E+00 0. -1.
          1    1    1    2  502    0  0.42091241665E+01 -0.28672288966E+02  0.43310627576E+03  0.43407472051E+03  0.00000000000E+00 0.  1.
         -1    1    1    2    0  501 -0.42091241665E+01  0.28672288966E+02  0.10463937208E+03  0.10857815190E+03  0.00000000000E+00 0. -1.
</event>
<event>
 4    1  0.6718357E+001  0.2022228E+02  0.7546771E-02  0.1530664E+00
          2   -1    0    0  502    0  0.00000000000E+00  0.00000000000E+00  0.23456011627E+01  0.23456011627E+01  0.00000000000E+00 0. -1.
         -2   -1    0    0    0  501 -0.00000000000E+00 -0.00000000000E+00 -0.17669284038E+03  0.17669284038E+03  0.00000000000E+00 0.  1.
          1    1    1    2  502    0 -0.17786660204E+02  0.96216175795E+01 -0.97495539635E+02  0.99570683712E+02  0.00000000000E+00 0.  1.
         -1    1    1    2    0  501  0.17786660204E+02 -0.96216175795E+01 -0.76851699585E+02  0.79467757834E+02  0.00000000000E+00 0. -1.
</event>
<event>
 4    1  0.6718357E+001  0.2809415E+02  0.7546771E-02  0.1436916E+00
          2   -1    0    0  502    0  0.00000000000E+00  0.00000000000E+00  0.24191495746E+03  0.24191495746E+03  0.00000000000E+00 0.  1.
         -2   -1    0    0    0  501 -0.00000000000E+00 -0.00000000000E+00 -0.33774362663E+01  0.33774362663E+01  0.00000000000E+00 0. -1.
          1    1    1    2  502    0  0.17166576394E+02  0.22239374000E+02  0.96657391692E+02  0.10065750081E+03  0.00000000000E+00 0. -1.
         -1    1    1    2    0  501 -0.17166576394E+02 -0.22239374000E+02  0.14188012950E+03  0.14463489292E+03  0.00000000000E+00 0.  1.
</event>
<event>
 4    1  0.6718357E+001  0.3417051E+02  0.7546771E-02  0.1386490E+00
          2   -1    0    0  502    0  0.00000000000E+00  0.00000000000E+00  0.19324954354E+04  0.19324954354E+04  0.00000000000E+00 0.  1.
         -2   -1    0    0    0  501 -0.00000000000E+00 -0.00000000000E+00 -0.11884547997E+01  0.11884547997E+01  0.00000000000E+00 0. -1.
          1    1    1    2  502    0  0.10388826688E+02  0.32552969342E+02  0.16435500194E+04  0.16439051949E+04  0.00000000000E+00 0.  1.
         -1    1    1    2    0  501 -0.10388826688E+02 -0.32552969342E+02  0.28775696110E+03  0.28977869521E+03  0.00000000000E+00 0. -1.
</event>
<event>
 4    1  0.6718357E+001  0.2733738E+02  0.7546771E-02  0.1444248E+00
          2   -1    0    0  502    0  0.00000000000E+00  0.00000000000E+00  0.14692135392E+04  0.14692135392E+04  0.00000000000E+00 0. -1.
         -2   -1    0    0    0  501 -0.00000000000E+00 -0.00000000000E+00 -0.76522817677E+00  0.76522817677E+00  0.00000000000E+00 0.  1.
          1    1    1    2  502    0 -0.20640357815E+02  0.17925058118E+02  0.30863958202E+03  0.30984790409E+03  0.00000000000E+00 0.  1.
         -1    1    1    2    0  501  0.20640357815E+02 -0.17925058118E+02  0.11598087290E+04  0.11601308633E+04  0.00000000000E+00 0. -1.
</event>
<event>
 4    1  0.6718357E+001  0.3888840E+02  0.7546771E-02  0.1355126E+00
          2   -1    0    0  502    0  0.00000000000E+00  0.00000000000E+00  0.17372391344E+04  0.17372391344E+04  0.00000000000E+00 0. -1.
         -2   -1    0    0    0  501 -0.00000000000E+00 -0.00000000000E+00 -0.88935698542E+00  0.88935698542E+00  0.00000000000E+00 0.  1.
          1    1    1    2  502    0 -0.56337512026E+01  0.38478158499E+02  0.99464179645E+03  0.99540173351E+03  0.00000000000E+00 0. -1.
         -1    1    1    2    0  501  0.56337512026E+01 -0.38478158499E+02  0.74170798096E+03  0.74272675787E+03  0.00000000000E+00 0.  1.
</event>
<event>
 4    1  0.6718357E+001  0.2116492E+02  0.7546771E-02  0.1516923E+00
          2   -1    0    0  502    0  0.00000000000E+00  0.00000000000E+00  0.92672236492E+03  0.92672236492E+03  0.00000000000E+00 0.  1.
         -2   -1    0    0    0  501 -0.00000000000E+00 -0.00000000000E+00 -0.85946759946E+00  0.85946759946E+00  0.00000000000E+00 0. -1.
          1    1    1    2  502    0  0.19164869947E+02 -0.89811773410E+01  0.15613150589E+03  0.15755951548E+03  0.00000000000E+00 0. -1.
         -1    1    1    2    0  501 -0.19164869947E+02  0.89811773410E+01  0.76973139143E+03  0.77002231704E+03  0.00000000000E+00 0.  1.
</event>
<event>
 4    1  0.6718357E+001  0.2111851E+02  0.7546771E-02  0.1517579E+00
          2   -1    0    0  502    0  0.00000000000E+00  0.00000000000E+00  0.78670473441E+03  0.78670473441E+03  0.00000000000E+00 0. -1.
         -2   -1    0    0    0  501 -0.00000000000E+00 -0.00000000000E+00 -0.65353292071E+00  0.65353292071E+00  0.00000000000E+00 0.  1.
          1    1    1    2  502    0  0.21118469166E+02 -0.43043670049E-01  0.24970042377E+03  0.25059188579E+03  0.00000000000E+00 0. -1.
         -1    1    1    2    0  501 -0.21118469166E+02  0.43043670049E-01  0.53635077772E+03  0.53676638154E+03  0.00000000000E+00 0.  1.
</event>
<event>
 4    1  0.6718357E+001  0.2616137E+02  0.7546771E-02  0.1456219E+00
          2   -1    0    0  502    0  0.00000000000E+00  0.00000000000E+00  0.26976548669E+02  0.26976548669E+02  0.00000000000E+00 0.  1.
         -2   -1    0    0    0  501 -0.00000000000E+00 -0.00000000000E+00 -0.42171214759E+02  0.42171214759E+02  0.00000000000E+00 0. -1.
          1    1    1    2  502    0  0.16987881871E+02 -0.19895461984E+02 -0.29419589163E+02  0.39369147369E+02  0.00000000000E+00 0. -1.
         -1    1    1    2    0  501 -0.16987881871E+02  0.19895461984E+02  0.14224923073E+02  0.29778616060E+02  0.00000000000E+00 0.  1.
</event>
<event>
 4    1  0.6718357E+001  0.4994361E+02  0.7546771E-02  0.1298417E+00
          2   -1    0    0  502    0  0.00000000000E+00  0.00000000000E+00  0.88715756155E+02  0.88715756155E+02  0.00000000000E+00 0.  1.
         -2   -1    0    0    0  501 -0.00000000000E+00 -0.00000000000E+00 -0.37790452858E+02  0.37790452858E+02  0.00000000000E+00 0. -1.
          1    1    1    2  502    0  0.37763934387E+01 -0.49800633723E+02 -0.65407314994E+01  0.50370084724E+02  0.00000000000E+00 0.  1.
         -1    1    1    2    0  501 -0.37763934387E+01  0.49800633723E+02  0.57466034796E+02  0.76136124289E+02  0.00000000000E+00 0. -1.
</event>
<event>
 4    1  0.6718357E+001  0.2064197E+02  0.7546771E-02  0.1524438E+00
          2   -1    0    0  502    0  0.00000000000E+00  0.00000000000E+00  0.59754752965E+03  0.59754752965E+03  0.00000000000E+00 0.  1.
         -2   -1    0    0    0  501 -0.00000000000E+00 -0.00000000000E+00 -0.11961911116E+01  0.11961911116E+01  0.00000000000E+00 0. -1.
          1    1    1    2  502    0 -0.20640663865E+02  0.23234645287E+00  0.48843255077E+03  0.48886853820E+03  0.00000000000E+00 0.  1.
         -1    1    1    2    0  501  0.20640663865E+02 -0.23234645287E+00  0.10791878777E+03  0.10987518257E+03  0.00000000000E+00 0. -1.
</event>
<event>
 4    1  0.6718357E+001  0.2558012E+02  0.7546771E-02  0.1462417E+00
          2   -1    0    0  502    0  0.00000000000E+00  0.00000000000E+00  0.92368103590E+01  0.92368103590E+01  0.00000000000E+00 0.  1.
         -2   -1    0    0    0  501 -0.00000000000E+00 -0.00000000000E+00 -0.13614810092E+03  0.13614810092E+03  0.00000000000E+00 0. -1.
          1    1    1    2  502    0  0.21725840109E+02  0.13502974074E+02 -0.11380160558E+03  0.11664110712E+03  0.00000000000E+00 0. -1.
         -1    1    1    2    0  501 -0.21725840109E+02 -0.13502974074E+02 -0.13109684980E+02  0.28743804159E+02  0.00000000000E+00 0.  1.
</event>
<event>
 4    1  0.6718357E+001  0.2091807E+02  0.7546771E-02  0.1520438E+00
          2   -1    0    0  502    0  0.00000000000E+00  0.00000000000E+00  0.10670623677E+04  0.10670623677E+04  0.00000000000E+00 0. -1.
         -2   -1    0    0    0  501 -0.00000000000E+00 -0.00000000000E+00 -0.48825154139E+00  0.48825154139E+00  0.00000000000E+00 0.  1.
          1    1    1    2  502    0 -0.15440930346E+02  0.14111822189E+02  0.31968754337E+03  0.32037117730E+03  0.00000000000E+00 0.  1.
         -1    1    1    2    0  501  0.15440930346E+02 -0.14111822189E+02  0.74688657281E+03  0.74717944197E+03  0.00000000000E+00 0. -1.
</event>
<event>
 4    1  0.6718357E+001  0.3155546E+02  0.7546771E-02  0.1406544E+00
          2   -1    0    0  502    0  0.00000000000E+00  0.00000000000E+00  0.66074007714E+03  0.66074007714E+03  0.00000000000E+00 0.  1.
         -2   -1    0    0    0  501 -0.00000000000E+00 -0.00000000000E+00 -0.15232794254E+01  0.15232794254E+01  0.00000000000E+00 0. -1.
          1    1    1    2  502    0  0.14730766620E+01 -0.31521060942E+02  0.36382125056E+03  0.36518714325E+03  0.00000000000E+00 0.  1.
         -1    1    1    2    0  501 -0.14730766620E+01  0.31521060942E+02  0.29539554715E+03  0.29707621331E+03  0.00000000000E+00 0. -1.
</event>
<event>
 4    1  0.6718357E+001  0.3166172E+02  0.7546771E-02  0.1405685E+00
          2   -1    0    0  502    0  0.00000000000E+00  0.00000000000E+00  0.10195031215E+03  0.10195031215E+03  0.00000000000E+00 0.  1.
         -2   -1    0    0    0  501 -0.00000000000E+00 -0.00000000000E+00 -0.10743925928E+02  0.10743925928E+02  0.00000000000E+00 0. -1.
          1    1    1    2  502    0 -0.40996269026E+01  0.31395180039E+02  0.29194934669E+02  0.43067487514E+02  0.00000000000E+00 0. -1.
         -1    1    1    2    0  501  0.40996269026E+01 -0.31395180039E+02  0.62011451549E+02  0.69626750561E+02  0.00000000000E+00 0.  1.
</event>
<event>
 4    1  0.6718357E+001  0.4045466E+02  0.7546771E-02  0.1345842E+00
          2   -1    0    0  502    0  0.00000000000E+00  0.00000000000E+00  0.42450649443E+01  0.42450649443E+01  0.00000000000E+00 0. -1.
         -2   -1    0    0    0  501 -0.00000000000E+00 -0.00000000000E+00 -0.40037306041E+03  0.40037306041E+03  0.00000000000E+00 0.  1.
          1    1    1    2  502    0 -0.40177640774E+02 -0.47261398013E+01 -0.23702372177E+03  0.24045129215E+03  0.00000000000E+00 0.  1.
         -1    1    1    2    0  501  0.40177640774E+02  0.47261398013E+01 -0.15910427370E+03  0.16416683320E+03  0.00000000000E+00 0. -1.
</event>
<event>
 4    1  0.6718357E+001  0.3369486E+02  0.7546771E-02  0.1389978E+00
          2   -1    0    0  502    0  0.00000000000E+00  0.00000000000E+00  0.66131149979E+01  0.66131149979E+01  0.00000000000E+00 0. -1.
         -2   -1    0    0    0  501 -0.00000000000E+00 -0.00000000000E+00 -0.17744348920E+03  0.17744348920E+03  0.00000000000E+00 0.  1.
          1    1    1    2  502    0 -0.14786032528E+02  0.30277336984E+02 -0.10199996122E+03  0.10742130134E+03  0.00000000000E+00 0.  1.
         -1    1    1    2    0  501  0.14786032528E+02 -0.30277336984E+02 -0.68830412986E+02  0.76635302861E+02  0.00000000000E+00 0. -1.
</event>
<event>
 4    1  0.6718357E+001  0.2915590E+02  0.7546771E-02  0.1427076E+00
          2   -1    0    0  502    0  0.00000000000E+00  0.00000000000E+00  0.69374197590E+01  0.69374197590E+01  0.00000000000E+00 0.  1.
         -2   -1    0    0    0  501 -0.00000000000E+00 -0.00000000000E+00 -0.17989247898E+03  0.17989247898E+03  0.00000000000E+00 0. -1.
          1    1    1    2  502    0  0.28272099574E+02  0.71242476267E+01 -0.33728985260E+02  0.44583752256E+02  0.00000000000E+00 0.  1.
         -1    1    1    2    0  501 -0.28272099574E+02 -0.71242476267E+01 -0.13922607396E+03  0.14224614648E+03  0.00000000000E+00 0. -1.
</event>
<event>
 4    1  0.6718357E+001  0.2921153E+02  0.7546771E-02  0.1426574E+00
          2   -1    0    0  502    0  0.00000000000E+00  0.00000000000E+00  0.11077619259E+04  0.11077619259E+04  0.00000000000E+00 0.  1.
         -2   -1    0    0    0  501 -0.00000000000E+00 -0.00000000000E+00 -0.97954053211E+00  0.97954053211E+00  0.00000000000E+00 0. -1.
          1    1    1    2  502    0 -0.15768388889E+02 -0.24590069776E+02  0.29717434734E+03  0.29860660800E+03  0.00000000000E+00 0. -1.
         -1    1    1    2    0  501  0.15768388889E+02  0.24590069776E+02  0.80960803799E+03  0.81013485840E+03  0.00000000000E+00 0.  1.
</event>
<event>
 4    1  0.6718357E+001  0.2329406E+02  0.7546771E-02  0.1488838E+00
          2   -1    0    0  502    0  0.00000000000E+00  0.00000000000E+00  0.92145237660E+01  0.92145237660E+01  0.00000000000E+00 0. -1.
         -2   -1    0    0    0  501 -0.00000000000E+00 -0.00000000000E+00 -0.60031729801E+02  0.60031729801E+02  0.00000000000E+00 0.  1.
          1    1    1    2  502    0  0.90516716418E+01 -0.21463464136E+02 -0.20626917061E+02  0.31114028342E+02  0.00000000000E+00 0. -1.
         -1    1    1    2    0  501 -0.90516716418E+01  0.21463464136E+02 -0.30190288975E+02  0.38132225225E+02  0.00000000000E+00 0.  1.
</event>
<event>
 4    1  0.6718357E+001  0.3030020E+02  0.7546771E-02  0.1417005E+00
          2   -1    0    0  502    0  0.00000000000E+00  0.00000000000E+00  0.40213833912E+03  0.40213833912E+03  0.00000000000E+00 0.  1.
         -2   -1    0    0    0  501 -0.00000000000E+00 -0.00000000000E+00 -0.22834679932E+01  0.22834679932E+01  0.00000000000E+00 0. -1.
          1    1    1    2  502    0  0.70773914885E+01 -0.29462059343E+02  0.19719546434E+03  0.19950978313E+03  0.00000000000E+00 0.  1.
         -1    1    1    2    0  501 -0.70773914885E+01  0.29462059343E+02  0.20265940679E+03  0.20491202398E+03  0.00000000000E+00 0. -1.
</event>
<event>
 4    1  0.6718357E+001  0.2620867E+02  0.7546771E-02  0.1455723E+00
          2   -1    0    0  502    0  0.00000000000E+00  0.00000000000E+00  0.43693605710E+03  0.43693605710E+03  0.00000000000E+00 0. -1.
         -2   -1    0    0    0  501 -0.00000000000E+00 -0.00000000000E+00 -0.17426693107E+01  0.17426693107E+01  0.00000000000E+00 0.  1.
          1    1    1    2  502    0  0.24312835309E+02 -0.97867578312E+01  0.28622388144E+03  0.28742130209E+03  0.00000000000E+00 0. -1.
         -1    1    1    2    0  501 -0.24312835309E+02  0.97867578312E+01  0.14896950635E+03  0.15125742432E+03  0.00000000000E+00 0.  1.
</event>
<event>
 4    1  0.6718357E+001  0.2531692E+02  0.7546771E-02  0.1465289E+00
          2   -1    0    0  502    0  0.00000000000E+00  0.00000000000E+00  0.75353394335E+03  0.75353394335E+03  0.00000000000E+00 0.  1.
         -2   -1    0    0    0  501 -0.00000000000E+00 -0.00000000000E+00 -0.91550078826E+00  0.91550078826E+00  0.00000000000E+00 0. -1.
          1    1    1    2  502    0  0.66505348023E+01 -0.24427790335E+02  0.47675636394E+03  0.47742808580E+03  0.00000000000E+00 0. -1.
         -1    1    1    2    0  501 -0.66505348023E+01  0.24427790335E+02  0.27586207862E+03  0.27702135834E+03  0.00000000000E+00 0.  1.
</event>
<event>
 4    1  0.6718357E+001  0.4680890E+02  0.7546771E-02  0.1312634E+00
          2   -1    0    0  502    0  0.00000000000E+00  0.00000000000E+00  0.24784018088E+03  0.24784018088E+03  0.00000000000E+00 0.  1.
         -2   -1    0    0    0  501 -0.00000000000E+00 -0.00000000000E+00 -0.89438363955E+01  0.89438363955E+01  0.00000000000E+00 0. -1.
          1    1    1    2  502    0 -0.37071998821E+02  0.28578665595E+02  0.13323757440E+03  0.14122083577E+03  0.00000000000E+00 0.  1.
         -1    1    1    2    0  501  0.37071998821E+02 -0.28578665595E+02  0.10565877008E+03  0.11556318150E+03  0.00000000000E+00 0. -1.
</event>
<event>
 4    1  0.6718357E+001  0.4055365E+02  0.7546771E-02  0.1345272E+00
          2   -1    0    0  502    0  0.00000000000E+00  0.00000000000E+00  0.27233498383E+03  0.27233498383E+03  0.00000000000E+00 0. -1.
         -2   -1    0    0    0  501 -0.00000000000E+00 -0.00000000000E+00 -0.12445537516E+02  0.12445537516E+02  0.00000000000E+00 0.  1.
          1    1    1    2  502    0 -0.55502974648E+01  0.40172036372E+02  0.27782765250E+02  0.49157708990E+02  0.00000000000E+00 0.  1.
         -1    1    1    2    0  501  0.55502974648E+01 -0.40172036372E+02  0.23210668106E+03  0.23562281235E+03  0.00000000000E+00 0. -1.
</event>
<event>
 4    1  0.6718357E+001  0.2333359E+02  0.7546771E-02  0.1488351E+00
          2   -1    0    0  502    0  0.00000000000E+00  0.00000000000E+00  0.60392137978E+02  0.60392137978E+02  0.00000000000E+00 0.  1.
         -2   -1    0    0    0  501 -0.00000000000E+00 -0.00000000000E+00 -0.19629875562E+02  0.19629875562E+02  0.00000000000E+00 0. -1.
          1    1    1    2  502    0  0.58038755547E+01  0.22600248973E+02  0.49803051321E+02  0.54998183116E+02  0.00000000000E+00 0.  1.
         -1    1    1    2    0  501 -0.58038755547E+01 -0.22600248973E+02 -0.90407889048E+01  0.25023830425E+02  0.00000000000E+00 0. -1.
</event>
<event>
 4    1  0.6718357E+001  0.2389190E+02  0.7546771E-02  0.1481592E+00
          2   -1    0    0  502    0  0.00000000000E+00  0.00000000000E+00  0.23329483390E+02  0.23329483390E+02  0.00000000000E+00 0.  1.
         -2   -1    0    0    0  501 -0.00000000000E+00 -0.00000000000E+00 -0.58851913064E+02  0.58851913064E+02  0.00000000000E+00 0. -1.
          1    1    1    2  502    0 -0.14307137034E+01 -0.23849028746E+02  0.13646880875E+02  0.27514731899E+02  0.00000000000E+00 0.  1.
         -1    1    1    2    0  501  0.14307137034E+01  0.23849028746E+02 -0.49169310549E+02  0.54666664556E+02  0.00000000000E+00 0. -1.
</event>
<event>
 4    1  0.6718357E+001  0.2123430E+02  0.7546771E-02  0.1515946E+00
          2   -1    0    0  502    0  0.00000000000E+00  0.00000000000E+00  0.38361536619E+02  0.38361536619E+02  0.00000000000E+00 0. -1.
         -2   -1    0    0    0  501 -0.00000000000E+00 -0.00000000000E+00 -0.19172449606E+02  0.19172449606E+02  0.00000000000E+00 0.  1.
          1    1    1    2  502    0 -0.20884435288E+02 -0.38387569552E+01  0.27488924298E+02  0.34735236451E+02  0.00000000000E+00 0. -1.
         -1    1    1    2    0  501  0.20884435288E+02  0.38387569552E+01 -0.82998372850E+01  0.22798749773E+02  0.00000000000E+00 0.  1.
</event>
<event>
 4    1  0.6718357E+001  0.2468053E+02  0.7546771E-02  0.1472409E+00
          2   -1    0    0  502    0  0.00000000000E+00  0.00000000000E+00  0.12504434788E+03  0.12504434788E+03  0.00000000000E+00 0. -1.
         -2   -1    0    0    0  501 -0.00000000000E+00 -0.00000000000E+00 -0.61150747626E+01  0.61150747626E+01  0.00000000000E+00 0.  1.
          1    1    1    2  502    0 -0.21989813087E+02 -0.11206100555E+02  0.89040636240E+02  0.92397854257E+02  0.00000000000E+00 0. -1.
         -1    1    1    2    0  501  0.21989813087E+02  0.11206100555E+02  0.29888636873E+02  0.38761568382E+02  0.00000000000E+00 0.  1.
</event>
<event>
 4    1  0.6718357E+001  0.2339369E+02  0.7546771E-02  0.1487613E+00
          2   -1    0    0  502    0  0.00000000000E+00  0.00000000000E+00  0.11351664368E+03  0.11351664368E+03  0.00000000000E+00 0.  1.
         -2   -1    0    0    0  501 -0.00000000000E+00 -0.00000000000E+00 -0.49608064338E+01  0.49608064338E+01  0.00000000000E+00 0. -1.
          1    1    1    2  502    0 -0.24981796088E+01  0.23259923227E+02  0.44333558386E+02  0.50127131666E+02  0.00000000000E+00 0. -1.
         -1    1    1    2    0  501  0.24981796088E+01 -0.23259923227E+02  0.64222278859E+02  0.68350318447E+02  0.00000000000E+00 0.  1.
</event>
<event>
 4    1  0.6718357E+001  0.2520647E+02  0.7546771E-02  0.1466507E+00
          2   -1    0    0  502    0  0.00000000000E+00  0.00000000000E+00  0.89417114704E+03  0.89417114704E+03  0.00000000000E+00 0.  1.
         -2   -1    0    0    0  501 -0.00000000000E+00 -0.00000000000E+00 -0.22399124896E+01  0.22399124896E+01  0.00000000000E+00 0. -1.
          1    1    1    2  502    0 -0.11202864653E+02 -0.22580127768E+02  0.81631773424E+03  0.81670680760E+03  0.00000000000E+00 0.  1.
         -1    1    1    2    0  501  0.11202864653E+02  0.22580127768E+02  0.75613500316E+02  0.79704251935E+02  0.00000000000E+00 0. -1.
</event>
<event>
 4    1  0.6718357E+001  0.2590426E+02  0.7546771E-02  0.1458937E+00
          2   -1    0    0  502    0  0.00000000000E+00  0.00000000000E+00  0.86137912197E+03  0.86137912197E+03  0.00000000000E+00 0. -1.
         -2   -1    0    0    0  501 -0.00000000000E+00 -0.00000000000E+00 -0.83266896940E+00  0.83266896940E+00  0.00000000000E+00 0.  1.
          1    1    1    2  502    0  0.25380347725E+02  0.51835139088E+01  0.32084440138E+03  0.32188842906E+03  0.00000000000E+00 0. -1.
         -1    1    1    2    0  501 -0.25380347725E+02 -0.51835139088E+01  0.53970205162E+03  0.54032336188E+03  0.00000000000E+00 0.  1.
</event>
<event>
 4    1  0.6718357E+001  0.3272009E+02  0.7546771E-02  0.1397341E+00
          2   -1    0    0  502    0  0.00000000000E+00  0.00000000000E+00  0.12159535856E+02  0.12159535856E+02  0.00000000000E+00 0. -1.
         -2   -1    0    0    0  501 -0.00000000000E+00 -0.00000000000E+00 -0.97964909256E+02  0.97964909256E+02  0.00000000000E+00 0.  1.
          1    1    1    2  502    0  0.32436693230E+02  0.42971245165E+01 -0.25382453276E+02  0.41411028496E+02  0.00000000000E+00 0. -1.
         -1    1    1    2    0  501 -0.32436693230E+02 -0.42971245165E+01 -0.60422920124E+02  0.68713416617E+02  0.00000000000E+00 0.  1.
</event>
<event>
 4    1  0.6718357E+001  0.3539535E+02  0.7546771E-02  0.1377805E+00
          2   -1    0    0  502    0  0.00000000000E+00  0.00000000000E+00  0.28579783299E+04  0.28579783299E+04  0.00000000000E+00 0. -1.
         -2   -1    0    0    0  501 -0.00000000000E+00 -0.00000000000E+00 -0.43961862561E+00  0.43961862561E+00  0.00000000000E+00 0.  1.
          1    1    1    2  502    0  0.34894443850E+02 -0.59337113494E+01  0.15051594322E+04  0.15055755535E+04  0.00000000000E+00 0.  1.
         -1    1    1    2    0  501 -0.34894443850E+02  0.59337113494E+01  0.13523792791E+04  0.13528423950E+04  0.00000000000E+00 0. -1.
</event>
<event>
 4    1  0.6718357E+001  0.3355412E+02  0.7546771E-02  0.1391023E+00
          2   -1    0    0  502    0  0.00000000000E+00  0.00000000000E+00  0.41883798049E+03  0.41883798049E+03  0.00000000000E+00 0.  1.
         -2   -1    0    0    0  501 -0.00000000000E+00 -0.00000000000E+00 -0.26905496661E+01  0.26905496661E+01  0.00000000000E+00 0. -1.
          1    1    1    2  502    0 -0.25270224874E+02  0.22074752767E+02  0.20171597216E+03  0.20448768276E+03  0.00000000000E+00 0. -1.
         -1    1    1    2    0  501  0.25270224874E+02 -0.22074752767E+02  0.21443145866E+03  0.21704084739E+03  0.00000000000E+00 0.  1.
</event>
<event>
 4    1  0.6718357E+001  0.2178417E+02  0.7546771E-02  0.1508357E+00
          2   -1    0    0  502    0  0.00000000000E+00  0.00000000000E+00  0.39965897952E+03  0.39965897952E+03  0.00000000000E+00 0.  1.
         -2   -1    0    0    0  501 -0.00000000000E+00 -0.00000000000E+00 -0.11935713421E+01  0.11935713421E+01  0.00000000000E+00 0. -1.
          1    1    1    2  502    0 -0.81072655229E+01 -0.20219359462E+02  0.18480675812E+03  0.18608623833E+03  0.00000000000E+00 0. -1.
         -1    1    1    2    0  501  0.81072655229E+01  0.20219359462E+02  0.21365865006E+03  0.21476631253E+03  0.00000000000E+00 0.  1.
</event>
<event>
 4    1  0.6718357E+001  0.3099956E+02  0.7546771E-02  0.1411104E+00
          2   -1    0    0  502    0  0.00000000000E+00  0.00000000000E+00  0.11686106159E+03  0.11686106159E+03  0.00000000000E+00 0.  1.
         -2   -1    0    0    0  501 -0.00000000000E+00 -0.00000000000E+00 -0.88283158324E+01  0.88283158324E+01  0.00000000000E+00 0. -1.
          1    1    1    2  502    0  0.30629118485E+02  0.47780441136E+01  0.37563312697E+02  0.48702926663E+02  0.00000000000E+00 0. -1.
         -1    1    1    2    0  501 -0.30629118485E+02 -0.47780441136E+01  0.70469433059E+02  0.76986450758E+02  0.00000000000E+00 0.  1.
</event>
<event>
 4    1  0.6718357E+001  0.2800029E+02  0.7546771E-02  0.1437811E+00
          2   -1    0    0  502    0  0.00000000000E+00  0.00000000000E+00  0.76479706698E+03  0.76479706698E+03  0.00000000000E+00 0. -1.
         -2   -1    0    0    0  501 -0.00000000000E+00 -0.00000000000E+00 -0.39387229225E+01  0.39387229225E+01  0.00000000000E+00 0.  1.
          1    1    1    2  502    0  0.58810569781E+01  0.27375704119E+02  0.71101472217E+03  0.71156584456E+03  0.00000000000E+00 0. -1.
         -1    1    1    2    0  501 -0.58810569781E+01 -0.27375704119E+02  0.49843621890E+02  0.57169945341E+02  0.00000000000E+00 0.  1.
</event>
<event>
 4    1  0.6718357E+001  0.4217521E+02  0.7546771E-02  0.1336190E+00
          2   -1    0    0  502    0  0.00000000000E+00  0.00000000000E+00  0.40654962170E+03  0.40654962170E+03  0.00000000000E+00 0. -1.
         -2   -1    0    0    0  501 -0.00000000000E+00 -0.00000000000E+00 -0.70401431802E+01  0.70401431802E+01  0.00000000000E+00 0.  1.
          1    1    1    2  502    0  0.38187532596E+02 -0.17901410223E+02  0.32698504390E+03  0.32969374739E+03  0.00000000000E+00 0. -1.
         -1    1    1    2    0  501 -0.38187532596E+02  0.17901410223E+02  0.72524434618E+02  0.83896017489E+02  0.00000000000E+00 0.  1.
</event>
<event>
 4    1  0.6718357E+001  0.2136805E+02  0.7546771E-02  0.1514074E+00
          2   -1    0    0  502    0  0.00000000000E+00  0.00000000000E+00  0.12377553262E+02  0.12377553262E+02  0.00000000000E+00 0.  1.
         -2   -1    0    0    0  501 -0.00000000000E+00 -0.00000000000E+00 -0.38322452843E+02  0.38322452843E+02  0.00000000000E+00 0. -1.
          1    1    1    2  502    0  0.18413053328E+02 -0.10842186425E+02 -0.80693827836E+01  0.22840938638E+02  0.00000000000E+00 0. -1.
         -1    1    1    2    0  501 -0.18413053328E+02  0.10842186425E+02 -0.17875516797E+02  0.27859067467E+02  0.00000000000E+00 0.  1.
</event>
<event>
 4    1  0.6718357E+001  0.2453058E+02  0.7546771E-02  0.1474124E+00
          2   -1    0    0  502    0  0.00000000000E+00  0.00000000000E+00  0.58835298044E+02  0.58835298044E+02  0.00000000000E+00 0. -1.
         -2   -1    0    0    0  501 -0.00000000000E+00 -0.00000000000E+00 -0.10402823180E+02  0.10402823180E+02  0.00000000000E+00 0.  1.
          1    1    1    2  502    0  0.18294460387E+02  0.16342034083E+02  0.28708036471E+02  0.37761100577E+02  0.00000000000E+00 0.  1.
         -1    1    1    2    0  501 -0.18294460387E+02 -0.16342034083E+02  0.19724438394E+02  0.31477020647E+02  0.00000000000E+00 0. -1.
</event>
<event>
 4    1  0.6718357E+001  0.7525723E+02  0.7546771E-02  0.1215308E+00
          2   -1    0    0  502    0  0.00000000000E+00  0.00000000000E+00  0.70745088004E+03  0.70745088004E+03  0.00000000000E+00 0.  1.
         -2   -1    0    0    0  501 -0.00000000000E+00 -0.00000000000E+00 -0.13716535904E+02  0.13716535904E+02  0.00000000000E+00 0. -1.
          1    1    1    2  502    0  0.19758923560E+02  0.72617052163E+02  0.57953325789E+03  0.58439921999E+03  0.00000000000E+00 0.  1.
         -1    1    1    2    0  501 -0.19758923560E+02 -0.72617052163E+02  0.11420108625E+03  0.13676819596E+03  0.00000000000E+00 0. -1.
</event>
<event>
 4    1  0.6718357E+001  0.2176871E+02  0.7546771E-02  0.1508567E+00
          2   -1    0    0  502    0  0.00000000000E+00  0.00000000000E+00  0.79444745121E+03  0.79444745121E+03  0.00000000000E+00 0. -1.
         -2   -1    0    0    0  501 -0.00000000000E+00 -0.00000000000E+00 -0.73516308800E+00  0.73516308800E+00  0.00000000000E+00 0.  1.
          1    1    1    2  502    0 -0.17117507503E+02 -0.13448698305E+02  0.22417383384E+03  0.22522829380E+03  0.00000000000E+00 0. -1.
         -1    1    1    2    0  501  0.17117507503E+02  0.13448698305E+02  0.56953845428E+03  0.56995432050E+03  0.00000000000E+00 0.  1.
</event>
<event>
 4    1  0.6718357E+001  0.2141353E+02  0.7546771E-02  0.1513442E+00
          2   -1    0    0  502    0  0.00000000000E+00  0.00000000000E+00  0.74940372261E+03  0.74940372261E+03  0.00000000000E+00 0. -1.
         -2   -1    0    0    0  501 -0.00000000000E+00 -0.00000000000E+00 -0.64698644644E+00  0.64698644644E+00  0.00000000000E+00 0.  1.
          1    1    1    2  502    0 -0.16264075542E+02 -0.13929079916E+02  0.28701009390E+03  0.28780780639E+03  0.00000000000E+00 0.  1.
         -1    1    1    2    0  501  0.16264075542E+02  0.13929079916E+02  0.46174664227E+03  0.46224290267E+03  0.00000000000E+00 0. -1.
</event>
<event>
 4    1  0.6718357E+001  0.2047953E+02  0.7546771E-02  0.1526827E+00
          2   -1    0    0  502    0  0.00000000000E+00  0.00000000000E+00  0.16812451727E+04  0.16812451727E+04  0.00000000000E+00 0. -1.
         -2   -1    0    0    0  501 -0.00000000000E+00 -0.00000000000E+00 -0.25231395590E+00  0.25231395590E+00  0.00000000000E+00 0.  1.
          1    1    1    2  502    0 -0.37246270180E+01 -0.20137982089E+02  0.75115183502E+03  0.75143096185E+03  0.00000000000E+00 0.  1.
         -1    1    1    2    0  501  0.37246270180E+01  0.20137982089E+02  0.92984102372E+03  0.93006652481E+03  0.00000000000E+00 0. -1.
</event>
<event>
 4    1  0.6718357E+001  0.3833880E+02  0.7546771E-02  0.1358505E+00
          2   -1    0    0  502    0  0.00000000000E+00  0.00000000000E+00  0.44285354600E+02  0.44285354600E+02  0.00000000000E+00 0. -1.
         -2   -1    0    0    0  501 -0.00000000000E+00 -0.00000000000E+00 -0.35618098223E+02  0.35618098223E+02  0.00000000000E+00 0.  1.
          1    1    1    2  502    0 -0.18685017561E+02  0.33477360424E+02 -0.60959663012E+01  0.38820411479E+02  0.00000000000E+00 0.  1.
         -1    1    1    2    0  501  0.18685017561E+02 -0.33477360424E+02  0.14763222678E+02  0.41083041344E+02  0.00000000000E+00 0. -1.
</event>
<event>
 4    1  0.6718357E+001  0.2173488E+02  0.7546771E-02  0.1509026E+00
          2   -1    0    0  502    0  0.00000000000E+00  0.00000000000E+00  0.24408238471E+02  0.24408238471E+02  0.00000000000E+00 0. -1.
         -2   -1    0    0    0  501 -0.00000000000E+00 -0.00000000000E+00 -0.19741159122E+02  0.19741159122E+02  0.00000000000E+00 0.  1.
          1    1    1    2  502    0 -0.89774888314E+01 -0.19794188404E+02 -0.75651229824E+00  0.21748046146E+02  0.00000000000E+00 0.  1.
         -1    1    1    2    0  501  0.89774888314E+01  0.19794188404E+02  0.54235916470E+01  0.22401351447E+02  0.00000000000E+00 0. -1.
</event>
<event>
 4    1  0.6718357E+001  0.2417374E+02  0.7546771E-02  0.1478263E+00
          2   -1    0    0  502    0  0.00000000000E+00  0.00000000000E+00  0.55013210799E+01  0.55013210799E+01  0.00000000000E+00 0.  1.
         -2   -1    0    0    0  501 -0.00000000000E+00 -0.00000000000E+00 -0.10694691361E+03  0.10694691361E+03  0.00000000000E+00 0. -1.
          1    1    1    2  502    0  0.23366768162E+02  0.61938600927E+01 -0.46098749972E+02  0.52052516809E+02  0.00000000000E+00 0.  1.
         -1    1    1    2    0  501 -0.23366768162E+02 -0.61938600927E+01 -0.55346842555E+02  0.60395717878E+02  0.00000000000E+00 0. -1.
</event>
<event>
 4    1  0.6718357E+001  0.2115295E+02  0.7546771E-02  0.1517092E+00
          2   -1    0    0  502    0  0.00000000000E+00  0.00000000000E+00  0.93066170418E+03  0.93066170418E+03  0.00000000000E+00 0.  1.
         -2   -1    0    0    0  501 -0.00000000000E+00 -0.00000000000E+00 -0.64994537538E+00  0.64994537538E+00  0.00000000000E+00 0. -1.
          1    1    1    2  502    0 -0.20063824485E+02 -0.67000182846E+01  0.22744377824E+03  0.22842530411E+03  0.00000000000E+00 0. -1.
         -1    1    1    2    0  501  0.20063824485E+02  0.67000182846E+01  0.70256798056E+03  0.70288634544E+03  0.00000000000E+00 0.  1.
</event>
<event>
 4    1  0.6718357E+001  0.2033677E+02  0.7546771E-02  0.1528948E+00
          2   -1    0    0  502    0  0.00000000000E+00  0.00000000000E+00  0.45475178144E+03  0.45475178144E+03  0.00000000000E+00 0.  1.
         -2   -1    0    0    0  501 -0.00000000000E+00 -0.00000000000E+00 -0.10178807022E+01  0.10178807022E+01  0.00000000000E+00 0. -1.
          1    1    1    2  502    0 -0.27094834967E+01  0.20155471286E+02  0.15249696803E+03  0.15384703306E+03  0.00000000000E+00 0. -1.
         -1    1    1    2    0  501  0.27094834967E+01 -0.20155471286E+02  0.30123693271E+03  0.30192262908E+03  0.00000000000E+00 0.  1.
</event>
<event>
 4    1  0.6718357E+001  0.2327204E+02  0.7546771E-02  0.1489110E+00
          2   -1    0    0  502    0  0.00000000000E+00  0.00000000000E+00  0.22404652037E+02  0.22404652037E+02  0.00000000000E+00 0.  1.
         -2   -1    0    0    0  501 -0.00000000000E+00 -0.00000000000E+00 -0.37095594055E+02  0.37095594055E+02  0.00000000000E+00 0. -1.
          1    1    1    2  502    0 -0.18591862594E+02  0.13997516842E+02  0.10213631650E+02  0.25414682842E+02  0.00000000000E+00 0.  1.
         -1    1    1    2    0  501  0.18591862594E+02 -0.13997516842E+02 -0.24904573668E+02  0.34085563250E+02  0.00000000000E+00 0. -1.
</event>
<event>
 4    1  0.6718357E+001  0.2028646E+02  0.7546771E-02  0.1529701E+00
          2   -1    0    0  502    0  0.00000000000E+00  0.00000000000E+00  0.13449785207E+01  0.13449785207E+01  0.00000000000E+00 0.  1.
         -2   -1    0    0    0  501 -0.00000000000E+00 -0.00000000000E+00 -0.38405733818E+03  0.38405733818E+03  0.00000000000E+00 0. -1.
          1    1    1    2  502    0  0.18933685455E+02  0.72839647481E+01 -0.27824029772E+03  0.27897885917E+03  0.00000000000E+00 0. -1.
         -1    1    1    2    0  501 -0.18933685455E+02 -0.72839647481E+01 -0.10447206194E+03  0.10642345753E+03  0.00000000000E+00 0.  1.
</event>
<event>
 4    1  0.6718357E+001  0.2006421E+02  0.7546771E-02  0.1533056E+00
          2   -1    0    0  502    0  0.00000000000E+00  0.00000000000E+00  0.53116210760E+02  0.53116210760E+02  0.00000000000E+00 0. -1.
         -2   -1    0    0    0  501 -0.00000000000E+00 -0.00000000000E+00 -0.87822474815E+01  0.87822474815E+01  0.00000000000E+00 0.  1.
          1    1    1    2  502    0 -0.20035567942E+02  0.10716646437E+01  0.10711626502E+02  0.22744480434E+02  0.00000000000E+00 0.  1.
         -1    1    1    2    0  501  0.20035567942E+02 -0.10716646437E+01  0.33622336776E+02  0.39153977808E+02  0.00000000000E+00 0. -1.
</event>
<event>
 4    1  0.6718357E+001  0.4192595E+02  0.7546771E-02  0.1337555E+00
          2   -1    0    0  502    0  0.00000000000E+00  0.00000000000E+00  0.89140191653E+03  0.89140191653E+03  0.00000000000E+00 0. -1.
         -2   -1    0    0    0  501 -0.00000000000E+00 -0.00000000000E+00 -0.25999381423E+01  0.25999381423E+01  0.00000000000E+00 0.  1.
          1    1    1    2  502    0 -0.41184129038E+02  0.78519259907E+01  0.66409001980E+03  0.66541215771E+03  0.00000000000E+00 0. -1.
         -1    1    1    2    0  501  0.41184129038E+02 -0.78519259907E+01  0.22471195859E+03  0.22858969697E+03  0.00000000000E+00 0.  1.
</event>
<event>
 4    1  0.6718357E+001  0.4363028E+02  0.7546771E-02  0.1328432E+00
          2   -1    0    0  502    0  0.00000000000E+00  0.00000000000E+00  0.57794975888E+02  0.57794975888E+02  0.00000000000E+00 0. -1.
         -2   -1    0    0    0  501 -0.00000000000E+00 -0.00000000000E+00 -0.35216641821E+02  0.35216641821E+02  0.00000000000E+00 0.  1.
          1    1    1    2  502    0 -0.39038064885E+02  0.19484121161E+02  0.23121019622E+02  0.49377961032E+02  0.00000000000E+00 0. -1.
         -1    1    1    2    0  501  0.39038064885E+02 -0.19484121161E+02 -0.54268555497E+00  0.43633656677E+02  0.00000000000E+00 0.  1.
</event>
<event>
 4    1  0.6718357E+001  0.2749141E+02  0.7546771E-02  0.1442733E+00
          2   -1    0    0  502    0  0.00000000000E+00  0.00000000000E+00  0.36134724516E+01  0.36134724516E+01  0.00000000000E+00 0.  1.
         -2   -1    0    0    0  501 -0.00000000000E+00 -0.00000000000E+00 -0.23409253793E+03  0.23409253793E+03  0.00000000000E+00 0. -1.
          1    1    1    2  502    0 -0.57519250651E+01 -0.26882952055E+02 -0.15403120805E+03  0.15646530225E+03  0.00000000000E+00 0.  1.
         -1    1    1    2    0  501  0.57519250651E+01  0.26882952055E+02 -0.76447857420E+02  0.81240708129E+02  0.00000000000E+00 0. -1.
</event>
<event>
 4    1  0.6718357E+001  0.2623994E+02  0.7546771E-02  0.1455396E+00
          2   -1    0    0  502    0  0.00000000000E+00  0.00000000000E+00  0.36137441389E+01  0.36137441389E+01  0.00000000000E+00 0. -1.
         -2   -1    0    0    0  501 -0.00000000000E+00 -0.00000000000E+00 -0.20319826986E+03  0.20319826986E+03  0.00000000000E+00 0.  1.
          1    1    1    2  502    0 -0.20328576380E+02  0.16591672793E+02 -0.73975208322E+02  0.78491184664E+02  0.00000000000E+00 0. -1.
         -1    1    1    2    0  501  0.20328576380E+02 -0.16591672793E+02 -0.12560931740E+03  0.12832082933E+03  0.00000000000E+00 0.  1.
</event>
<event>
 4    1  0.6718357E+001  0.2009263E+02  0.7546771E-02  0.1532624E+00
          2   -1    0    0  502    0  0.00000000000E+00  0.00000000000E+00  0.62414832844E+02  0.62414832844E+02  0.00000000000E+00 0.  1.
         -2   -1    0    0    0  501 -0.00000000000E+00 -0.00000000000E+00 -0.65642913663E+01  0.65642913663E+01  0.00000000000E+00 0. -1.
          1    1    1    2  502    0 -0.20081049581E+02 -0.68215797037E+00  0.23753180081E+02  0.31111532520E+02  0.00000000000E+00 0.  1.
         -1    1    1    2    0  501  0.20081049581E+02  0.68215797037E+00  0.32097361397E+02  0.37867591690E+02  0.00000000000E+00 0. -1.
</event>
<event>
 4    1  0.6718357E+001  0.2477007E+02  0.7546771E-02  0.1471392E+00
          2   -1    0    0  502    0  0.00000000000E+00  0.00000000000E+00  0.13333643133E+04  0.13333643133E+04  0.00000000000E+00 0.  1.
         -2   -1    0    0    0  501 -0.00000000000E+00 -0.00000000000E+00 -0.55512715886E+00  0.55512715886E+00  0.00000000000E+00 0. -1.
          1    1    1    2  502    0  0.12744037984E+02  0.21240189152E+02  0.39053851945E+03  0.39132325680E+03  0.00000000000E+00 0. -1.
         -1    1    1    2    0  501 -0.12744037984E+02 -0.21240189152E+02  0.94227066672E+03  0.94259618369E+03  0.00000000000E+00 0.  1.
</event>
<event>
 4    1  0.6718357E+001  0.4670901E+02  0.7546771E-02  0.1313108E+00
          2   -1    0    0  502    0  0.00000000000E+00  0.00000000000E+00  0.12756023160E+04  0.12756023160E+04  0.00000000000E+00 0.  1.
         -2   -1    0    0    0  501 -0.00000000000E+00 -0.00000000000E+00 -0.35380132692E+01  0.35380132692E+01  0.00000000000E+00 0. -1.
          1    1    1    2  502    0 -0.42139666875E+02  0.20148949265E+02  0.17635166364E+03  0.18243256548E+03  0.00000000000E+00 0. -1.
         -1    1    1    2    0  501  0.42139666875E+02 -0.20148949265E+02  0.10957126391E+04  0.10967077638E+04  0.00000000000E+00 0.  1.
</event>
<event>
 4    1  0.6718357E+001  0.2318493E+02  0.7546771E-02  0.1490189E+00
          2   -1    0    0  502    0  0.00000000000E+00  0.00000000000E+00  0.21735553923E+04  0.21735553923E+04  0.00000000000E+00 0. -1.
         -2   -1    0    0    0  501 -0.00000000000E+00 -0.00000000000E+00 -0.28227155664E+00  0.28227155664E+00  0.00000000000E+00 0.  1.
          1    1    1    2  502    0  0.14243767446E+01 -0.23141137589E+02  0.70411011333E+03  0.70449172656E+03  0.00000000000E+00 0. -1.
         -1    1    1    2    0  501 -0.14243767446E+01  0.23141137589E+02  0.14691630075E+04  0.14693459373E+04  0.00000000000E+00 0.  1.
</event>
<event>
 4    1  0.6718357E+001  0.2246985E+02  0.7546771E-02  0.1499265E+00
          2   -1    0    0  502    0  0.00000000000E+00  0.00000000000E+00  0.89301444193E+01  0.89301444193E+01  0.00000000000E+00 0. -1.
         -2   -1    0    0    0  501 -0.00000000000E+00 -0.00000000000E+00 -0.57927996966E+02  0.57927996966E+02  0.00000000000E+00 0.  1.
          1    1    1    2  502    0 -0.17477618629E+02 -0.14121860713E+02 -0.29676890208E+02  0.37223808448E+02  0.00000000000E+00 0. -1.
         -1    1    1    2    0  501  0.17477618629E+02  0.14121860713E+02 -0.19320962338E+02  0.29634332937E+02  0.00000000000E+00 0.  1.
</event>
<event>
 4    1  0.6718357E+001  0.2485056E+02  0.7546771E-02  0.1470482E+00
          2   -1    0    0  502    0  0.00000000000E+00  0.00000000000E+00  0.44209526945E+03  0.44209526945E+03  0.00000000000E+00 0. -1.
         -2   -1    0    0    0  501 -0.00000000000E+00 -0.00000000000E+00 -0.14328162626E+01  0.14328162626E+01  0.00000000000E+00 0.  1.
          1    1    1    2  502    0  0.49568662916E+01  0.24351176497E+02  0.18520648246E+03  0.18686623950E+03  0.00000000000E+00 0. -1.
         -1    1    1    2    0  501 -0.49568662916E+01 -0.24351176497E+02  0.25545597073E+03  0.25666184621E+03  0.00000000000E+00 0.  1.
</event>
<event>
 4    1  0.6718357E+001  0.2067604E+02  0.7546771E-02  0.1523941E+00
          2   -1    0    0  502    0  0.00000000000E+00  0.00000000000E+00  0.81519666045E+02  0.81519666045E+02  0.00000000000E+00 0.  1.
         -2   -1    0    0    0  501 -0.00000000000E+00 -0.00000000000E+00 -0.53578457214E+01  0.53578457214E+01  0.00000000000E+00 0. -1.
          1    1    1    2  502    0  0.17756687968E+02  0.10592386276E+02  0.31752150967E+02  0.37890601812E+02  0.00000000000E+00 0. -1.
         -1    1    1    2    0  501 -0.17756687968E+02 -0.10592386276E+02  0.44409669356E+02  0.48986909955E+02  0.00000000000E+00 0.  1.
</event>
<event>
 4    1  0.6718357E+001  0.3484968E+02  0.7546771E-02  0.1381623E+00
          2   -1    0    0  502    0  0.00000000000E+00  0.00000000000E+00  0.10537869963E+03  0.10537869963E+03  0.00000000000E+00 0.  1.
         -2   -1    0    0    0  501 -0.00000000000E+00 -0.00000000000E+00 -0.12523865852E+02  0.12523865852E+02  0.00000000000E+00 0. -1.
          1    1    1    2  502    0 -0.26112760046E+02 -0.23078649942E+02  0.29779674645E+02  0.45840258968E+02  0.00000000000E+00 0.  1.
         -1    1    1    2    0  501  0.26112760046E+02  0.23078649942E+02  0.63075159138E+02  0.72062306518E+02  0.00000000000E+00 0. -1.
</event>
<event>
 4    1  0.6718357E+001  0.2421066E+02  0.7546771E-02  0.1477831E+00
          2   -1    0    0  502    0  0.00000000000E+00  0.00000000000E+00  0.96725456164E+01  0.96725456164E+01  0.00000000000E+00 0.  1.
         -2   -1    0    0    0  501 -0.00000000000E+00 -0.00000000000E+00 -0.13043443129E+03  0.13043443129E+03  0.00000000000E+00 0. -1.
          1    1    1    2  502    0 -0.22596493913E+02  0.86922115578E+01 -0.11163975079E+03  0.11423480220E+03  0.00000000000E+00 0. -1.
         -1    1    1    2    0  501  0.22596493913E+02 -0.86922115578E+01 -0.91221348875E+01  0.25872174703E+02  0.00000000000E+00 0.  1.
</event>
<event>
 4    1  0.6718357E+001  0.3778898E+02  0.7546771E-02  0.1361953E+00
          2   -1    0    0  502    0  0.00000000000E+00  0.00000000000E+00  0.15390039963E+03  0.15390039963E+03  0.00000000000E+00 0. -1.
         -2   -1    0    0    0  501 -0.00000000000E+00 -0.00000000000E+00 -0.93543187459E+01  0.93543187459E+01  0.00000000000E+00 0.  1.
          1    1    1    2  502    0  0.25291904328E+02 -0.28077154327E+02  0.64937503164E+02  0.75132458610E+02  0.00000000000E+00 0.  1.
         -1    1    1    2    0  501 -0.25291904328E+02  0.28077154327E+02  0.79608577719E+02  0.88122259765E+02  0.00000000000E+00 0. -1.
</event>
<event>
 4    1  0.6718357E+001  0.8475371E+02  0.7546771E-02  0.1193222E+00
          2   -1    0    0  502    0  0.00000000000E+00  0.00000000000E+00  0.14465191501E+04  0.14465191501E+04  0.00000000000E+00 0.  1.
         -2   -1    0    0    0  501 -0.00000000000E+00 -0.00000000000E+00 -0.56174386914E+01  0.56174386914E+01  0.00000000000E+00 0. -1.
          1    1    1    2  502    0 -0.12120541755E+02  0.83882557663E+02  0.47316659299E+03  0.48069721836E+03  0.00000000000E+00 0. -1.
         -1    1    1    2    0  501  0.12120541755E+02 -0.83882557663E+02  0.96773511836E+03  0.97143937038E+03  0.00000000000E+00 0.  1.
</event>
<event>
 4    1  0.6718357E+001  0.3893587E+02  0.7546771E-02  0.1354837E+00
          2   -1    0    0  502    0  0.00000000000E+00  0.00000000000E+00  0.86606922240E+03  0.86606922240E+03  0.00000000000E+00 0.  1.
         -2   -1    0    0    0  501 -0.00000000000E+00 -0.00000000000E+00 -0.18488237581E+01  0.18488237581E+01  0.00000000000E+00 0. -1.
          1    1    1    2  502    0 -0.32348841968E+02 -0.21669206241E+02  0.33200353019E+03  0.33427884488E+03  0.00000000000E+00 0. -1.
         -1    1    1    2    0  501  0.32348841968E+02  0.21669206241E+02  0.53221686846E+03  0.53363920128E+03  0.00000000000E+00 0.  1.
</event>
<event>
 4    1  0.6718357E+001  0.2287299E+02  0.7546771E-02  0.1494099E+00
          2   -1    0    0  502    0  0.00000000000E+00  0.00000000000E+00  0.45489730765E+03  0.45489730765E+03  0.00000000000E+00 0.  1.
         -2   -1    0    0    0  501 -0.00000000000E+00 -0.00000000000E+00 -0.11787301820E+01  0.11787301820E+01  0.00000000000E+00 0. -1.
          1    1    1    2  502    0 -0.17677866044E+02  0.14514360411E+02  0.26240402139E+03  0.26339902059E+03  0.00000000000E+00 0.  1.
         -1    1    1    2    0  501  0.17677866044E+02 -0.14514360411E+02  0.19131455608E+03  0.19267701724E+03  0.00000000000E+00 0. -1.
</event>
<event>
 4    1  0.6718357E+001  0.3212081E+02  0.7546771E-02  0.1402020E+00
          2   -1    0    0  502    0  0.00000000000E+00  0.00000000000E+00  0.81179681792E+03  0.81179681792E+03  0.00000000000E+00 0. -1.
         -2   -1    0    0    0  501 -0.00000000000E+00 -0.00000000000E+00 -0.16025274117E+01  0.16025274117E+01  0.00000000000E+00 0.  1.
          1    1    1    2  502    0 -0.15997493158E+02  0.27853659621E+02  0.59009607858E+03  0.59096965074E+03  0.00000000000E+00 0. -1.
         -1    1    1    2    0  501  0.15997493158E+02 -0.27853659621E+02  0.22009821193E+03  0.22242969459E+03  0.00000000000E+00 0.  1.
</event>
<event>
 4    1  0.6718357E+001  0.2661990E+02  0.7546771E-02  0.1451464E+00
          2   -1    0    0  502    0  0.00000000000E+00  0.00000000000E+00  0.93791591218E+01  0.93791591218E+01  0.00000000000E+00 0.  1.
         -2   -1    0    0    0  501 -0.00000000000E+00 -0.00000000000E+00 -0.75627036567E+02  0.75627036567E+02  0.00000000000E+00 0. -1.
          1    1    1    2  502    0 -0.11766021156E+02  0.23878439328E+02 -0.34458089484E+02  0.43542841541E+02  0.00000000000E+00 0. -1.
         -1    1    1    2    0  501  0.11766021156E+02 -0.23878439328E+02 -0.31789787962E+02  0.41463354148E+02  0.00000000000E+00 0.  1.
</event>
<event>
 4    1  0.6718357E+001  0.2849488E+02  0.7546771E-02  0.1433143E+00
          2   -1    0    0  502    0  0.00000000000E+00  0.00000000000E+00  0.17305254022E+03  0.17305254022E+03  0.00000000000E+00 0. -1.
         -2   -1    0    0    0  501 -0.00000000000E+00 -0.00000000000E+00 -0.56491278646E+01  0.56491278646E+01  0.00000000000E+00 0.  1.
          1    1    1    2  502    0  0.10835460300E+01 -0.28474267500E+02  0.12048061467E+03  0.12380442840E+03  0.00000000000E+00 0. -1.
         -1    1    1    2    0  501 -0.10835460300E+01  0.28474267500E+02  0.46922797683E+02  0.54897239676E+02  0.00000000000E+00 0.  1.
</event>
<event>
 4    1  0.6718357E+001  0.2574544E+02  0.7546771E-02  0.1460634E+00
          2   -1    0    0  502    0  0.00000000000E+00  0.00000000000E+00  0.12818754680E+03  0.12818754680E+03  0.00000000000E+00 0. -1.
         -2   -1    0    0    0  501 -0.00000000000E+00 -0.00000000000E+00 -0.62635225835E+01  0.62635225835E+01  0.00000000000E+00 0.  1.
          1    1    1    2  502    0  0.81720327576E+01  0.24414044460E+02  0.89041348953E+02  0.92688669802E+02  0.00000000000E+00 0. -1.
         -1    1    1    2    0  501 -0.81720327576E+01 -0.24414044460E+02  0.32882675260E+02  0.41762399578E+02  0.00000000000E+00 0.  1.
</event>
<event>
 4    1  0.6718357E+001  0.2815674E+02  0.7546771E-02  0.1436322E+00
          2   -1    0    0  502    0  0.00000000000E+00  0.00000000000E+00  0.37614566760E+03  0.37614566760E+03  0.00000000000E+00 0.  1.
         -2   -1    0    0    0  501 -0.00000000000E+00 -0.00000000000E+00 -0.26414018619E+01  0.26414018619E+01  0.00000000000E+00 0. -1.
          1    1    1    2  502    0  0.12143767843E+02  0.25403362847E+02  0.10161920418E+03  0.10544792364E+03  0.00000000000E+00 0.  1.
         -1    1    1    2    0  501 -0.12143767843E+02 -0.25403362847E+02  0.27188506155E+03  0.27333914582E+03  0.00000000000E+00 0. -1.
</event>
<event>
 4    1  0.6718357E+001  0.2369652E+02  0.7546771E-02  0.1483932E+00
          2   -1    0    0  502    0  0.00000000000E+00  0.00000000000E+00  0.77186354855E+02  0.77186354855E+02  0.00000000000E+00 0.  1.
         -2   -1    0    0    0  501 -0.00000000000E+00 -0.00000000000E+00 -0.72943152206E+01  0.72943152206E+01  0.00000000000E+00 0. -1.
          1    1    1    2  502    0  0.15766695417E+02  0.17690003038E+02  0.32768140415E+02  0.40438544956E+02  0.00000000000E+00 0. -1.
         -1    1    1    2    0  501 -0.15766695417E+02 -0.17690003038E+02  0.37123899219E+02  0.44042125120E+02  0.00000000000E+00 0.  1.
</event>
<event>
 4    1  0.6718357E+001  0.2826181E+02  0.7546771E-02  0.1435329E+00
          2   -1    0    0  502    0  0.00000000000E+00  0.00000000000E+00  0.62502414973E+03  0.62502414973E+03  0.00000000000E+00 0. -1.
         -2   -1    0    0    0  501 -0.00000000000E+00 -0.00000000000E+00 -0.12780059393E+01  0.12780059393E+01  0.00000000000E+00 0.  1.
          1    1    1    2  502    0  0.58729702374E+01 -0.27644859878E+02  0.30928598432E+03  0.31057454846E+03  0.00000000000E+00 0. -1.
         -1    1    1    2    0  501 -0.58729702374E+01  0.27644859878E+02  0.31446015948E+03  0.31572760721E+03  0.00000000000E+00 0.  1.
</event>
<event>
 4    1  0.6718357E+001  0.2552002E+02  0.7546771E-02  0.1463069E+00
          2   -1    0    0  502    0  0.00000000000E+00  0.00000000000E+00  0.56228032678E+03  0.56228032678E+03  0.00000000000E+00 0.  1.
         -2   -1    0    0    0  501 -0.00000000000E+00 -0.00000000000E+00 -0.13980841883E+01  0.13980841883E+01  0.00000000000E+00 0. -1.
          1    1    1    2  502    0  0.17809711184E+02  0.18278010463E+02  0.39716876505E+03  0.39798781314E+03  0.00000000000E+00 0.  1.
         -1    1    1    2    0  501 -0.17809711184E+02 -0.18278010463E+02  0.16371347754E+03  0.16569059782E+03  0.00000000000E+00 0. -1.
</event>
<event>
 4    1  0.6718357E+001  0.5288055E+02  0.7546771E-02  0.1286144E+00
          2   -1    0    0  502    0  0.00000000000E+00  0.00000000000E+00  0.19272196641E+04  0.19272196641E+04  0.00000000000E+00 0.  1.
         -2   -1    0    0    0  501 -0.00000000000E+00 -0.00000000000E+00 -0.14606532240E+01  0.14606532240E+01  0.00000000000E+00 0. -1.
          1    1    1    2  502    0  0.38984806476E+02  0.35728667580E+02  0.88439333236E+03  0.88597286592E+03  0.00000000000E+00 0. -1.
         -1    1    1    2    0  501 -0.38984806476E+02 -0.35728667580E+02  0.10413656785E+04  0.10427074514E+04  0.00000000000E+00 0.  1.
</event>
<event>
 4    1  0.6718357E+001  0.2739691E+02  0.7546771E-02  0.1443661E+00
          2   -1    0    0  502    0  0.00000000000E+00  0.00000000000E+00  0.80068012434E+02  0.80068012434E+02  0.00000000000E+00 0.  1.
         -2   -1    0    0    0  501 -0.00000000000E+00 -0.00000000000E+00 -0.38769856091E+02  0.38769856091E+02  0.00000000000E+00 0. -1.
          1    1    1    2  502    0  0.11641551367E+02 -0.24800500292E+02 -0.31089891594E+02  0.41438772813E+02  0.00000000000E+00 0. -1.
         -1    1    1    2    0  501 -0.11641551367E+02  0.24800500292E+02  0.72388047937E+02  0.77399095712E+02  0.00000000000E+00 0.  1.
</event>
<event>
 4    1  0.6718357E+001  0.2152679E+02  0.7546771E-02  0.1511875E+00
          2   -1    0    0  502    0  0.00000000000E+00  0.00000000000E+00  0.10277131776E+03  0.10277131776E+03  0.00000000000E+00 0.  1.
         -2   -1    0    0    0  501 -0.00000000000E+00 -0.00000000000E+00 -0.54258413148E+01  0.54258413148E+01  0.00000000000E+00 0. -1.
          1    1    1    2  502    0  0.37973170453E+00 -0.21523436853E+02  0.26435335543E+02  0.34091487140E+02  0.00000000000E+00 0. -1.
         -1    1    1    2    0  501 -0.37973170453E+00  0.21523436853E+02  0.70910140904E+02  0.74105671936E+02  0.00000000000E+00 0.  1.
</event>
<event>
 4    1  0.6718357E+001  0.2804283E+02  0.7546771E-02  0.1437405E+00
          2   -1    0    0  502    0  0.00000000000E+00  0.00000000000E+00  0.54894075495E+02  0.54894075495E+02  0.00000000000E+00 0. -1.
         -2   -1    0    0    0  501 -0.00000000000E+00 -0.00000000000E+00 -0.16414773613E+02  0.16414773613E+02  0.00000000000E+00 0.  1.
          1    1    1    2  502    0 -0.27637039312E+02  0.47533312392E+01  0.31959009194E+02  0.42517977004E+02  0.00000000000E+00 0. -1.
         -1    1    1    2    0  501  0.27637039312E+02 -0.47533312392E+01  0.65202926880E+01  0.28790872104E+02  0.00000000000E+00 0.  1.
</event>
<event>
 4    1  0.6718357E+001  0.2018096E+02  0.7546771E-02  0.1531287E+00
          2   -1    0    0  502    0  0.00000000000E+00  0.00000000000E+00  0.28881697468E+02  0.28881697468E+02  0.00000000000E+00 0. -1.
         -2   -1    0    0    0  501 -0.00000000000E+00 -0.00000000000E+00 -0.32132299869E+02  0.32132299869E+02  0.00000000000E+00 0.  1.
          1    1    1    2  502    0  0.15799544465E+02  0.12555692071E+02 -0.24478018402E+02  0.31724507775E+02  0.00000000000E+00 0.  1.
         -1    1    1    2    0  501 -0.15799544465E+02 -0.12555692071E+02  0.21227416001E+02  0.29289489562E+02  0.00000000000E+00 0. -1.
</event>
<event>
 4    1  0.6718357E+001  0.2556757E+02  0.7546771E-02  0.1462553E+00
          2   -1    0    0  502    0  0.00000000000E+00  0.00000000000E+00  0.14362448895E+02  0.14362448895E+02  0.00000000000E+00 0. -1.
         -2   -1    0    0    0  501 -0.00000000000E+00 -0.00000000000E+00 -0.54851243914E+02  0.54851243914E+02  0.00000000000E+00 0.  1.
          1    1    1    2  502    0 -0.11244840442E+02  0.22962015819E+02 -0.34522319599E+02  0.42959180131E+02  0.00000000000E+00 0.  1.
         -1    1    1    2    0  501  0.11244840442E+02 -0.22962015819E+02 -0.59664754197E+01  0.26254512678E+02  0.00000000000E+00 0. -1.
</event>
<event>
 4    1  0.6718357E+001  0.2418494E+02  0.7546771E-02  0.1478132E+00
          2   -1    0    0  502    0  0.00000000000E+00  0.00000000000E+00  0.12790451862E+04  0.12790451862E+04  0.00000000000E+00 0. -1.
         -2   -1    0    0    0  501 -0.00000000000E+00 -0.00000000000E+00 -0.52872044343E+00  0.52872044343E+00  0.00000000000E+00 0.  1.
          1    1    1    2  502    0 -0.53806232233E+01  0.23578806748E+02  0.40411937796E+03  0.40484241734E+03  0.00000000000E+00 0. -1.
         -1    1    1    2    0  501  0.53806232233E+01 -0.23578806748E+02  0.87439708779E+03  0.87473148929E+03  0.00000000000E+00 0.  1.
</event>
<event>
 4    1  0.6718357E+001  0.2569215E+02  0.7546771E-02  0.1461207E+00
          2   -1    0    0  502    0  0.00000000000E+00  0.00000000000E+00  0.41189639173E+03  0.41189639173E+03  0.00000000000E+00 0. -1.
         -2   -1    0    0    0  501 -0.00000000000E+00 -0.00000000000E+00 -0.17636899746E+01  0.17636899746E+01  0.00000000000E+00 0.  1.
          1    1    1    2  502    0  0.15319525790E+02  0.20625196413E+02  0.14254944403E+03  0.14484623084E+03  0.00000000000E+00 0.  1.
         -1    1    1    2    0  501 -0.15319525790E+02 -0.20625196413E+02  0.26758325773E+03  0.26881385086E+03  0.00000000000E+00 0. -1.
</event>
<event>
 4    1  0.6718357E+001  0.2700142E+02  0.7546771E-02  0.1447594E+00
          2   -1    0    0  502    0  0.00000000000E+00  0.00000000000E+00  0.85955284485E+03  0.85955284485E+03  0.00000000000E+00 0. -1.
         -2   -1    0    0    0  501 -0.00000000000E+00 -0.00000000000E+00 -0.85551945519E+00  0.85551945519E+00  0.00000000000E+00 0.  1.
          1    1    1    2  502    0 -0.16084334431E+02  0.21688039438E+02  0.38956947362E+03  0.39050409940E+03  0.00000000000E+00 0.  1.
         -1    1    1    2    0  501  0.16084334431E+02 -0.21688039438E+02  0.46912785177E+03  0.46990426490E+03  0.00000000000E+00 0. -1.
</event>
<event>
 4    1  0.6718357E+001  0.2253239E+02  0.7546771E-02  0.1498455E+00
          2   -1    0    0  502    0  0.00000000000E+00  0.00000000000E+00  0.33618426565E+03  0.33618426565E+03  0.00000000000E+00 0.  1.
         -2   -1    0    0    0  501 -0.00000000000E+00 -0.00000000000E+00 -0.21181326289E+01  0.21181326289E+01  0.00000000000E+00 0. -1.
          1    1    1    2  502    0 -0.49321634176E+01  0.21985957900E+02  0.25765283237E+03  0.25863621287E+03  0.00000000000E+00 0.  1.
         -1    1    1    2    0  501  0.49321634176E+01 -0.21985957900E+02  0.76413300650E+02  0.79666185405E+02  0.00000000000E+00 0. -1.
</event>
<event>
 4    1  0.6718357E+001  0.3114282E+02  0.7546771E-02  0.1409919E+00
          2   -1    0    0  502    0  0.00000000000E+00  0.00000000000E+00  0.30792467759E+01  0.30792467759E+01  0.00000000000E+00 0. -1.
         -2   -1    0    0    0  501 -0.00000000000E+00 -0.00000000000E+00 -0.32252024317E+03  0.32252024317E+03  0.00000000000E+00 0.  1.
          1    1    1    2  502    0 -0.31107066067E+02  0.14918069436E+01 -0.18462695155E+03  0.18723510965E+03  0.00000000000E+00 0.  1.
         -1    1    1    2    0  501  0.31107066067E+02 -0.14918069436E+01 -0.13481404485E+03  0.13836438030E+03  0.00000000000E+00 0. -1.
</event>
<event>
 4    1  0.6718357E+001  0.4293054E+02  0.7546771E-02  0.1332119E+00
          2   -1    0    0  502    0  0.00000000000E+00  0.00000000000E+00  0.57962183628E+02  0.57962183628E+02  0.00000000000E+00 0.  1.
         -2   -1    0    0    0  501 -0.00000000000E+00 -0.00000000000E+00 -0.34186192596E+02  0.34186192596E+02  0.00000000000E+00 0. -1.
          1    1    1    2  502    0  0.28639559590E+02 -0.31981352264E+02  0.24067954016E+02  0.49216843425E+02  0.00000000000E+00 0.  1.
         -1    1    1    2    0  501 -0.28639559590E+02  0.31981352264E+02 -0.29196298459E+00  0.42931532800E+02  0.00000000000E+00 0. -1.
</event>
<event>
 4    1  0.6718357E+001  0.2324961E+02  0.7546771E-02  0.1489387E+00
          2   -1    0    0  502    0  0.00000000000E+00  0.00000000000E+00  0.20056973637E+03  0.20056973637E+03  0.00000000000E+00 0. -1.
         -2   -1    0    0    0  501 -0.00000000000E+00 -0.00000000000E+00 -0.69480703692E+01  0.69480703692E+01  0.00000000000E+00 0.  1.
          1    1    1    2  502    0 -0.96354327365E+00 -0.23229631908E+02  0.17798957547E+03  0.17950162448E+03  0.00000000000E+00 0. -1.
         -1    1    1    2    0  501  0.96354327365E+00  0.23229631908E+02  0.15632090535E+02  0.28016182265E+02  0.00000000000E+00 0.  1.
</event>
<event>
 4    1  0.6718357E+001  0.6325056E+02  0.7546771E-02  0.1249171E+00
          2   -1    0    0  502    0  0.00000000000E+00  0.00000000000E+00  0.34309869103E+03  0.34309869103E+03  0.00000000000E+00 0. -1.
         -2   -1    0    0    0  501 -0.00000000000E+00 -0.00000000000E+00 -0.27937013263E+02  0.27937013263E+02  0.00000000000E+00 0.  1.
          1    1    1    2  502    0  0.57509523312E+02  0.26330375755E+02  0.29918599452E+03  0.30579877906E+03  0.00000000000E+00 0. -1.
         -1    1    1    2    0  501 -0.57509523312E+02 -0.26330375755E+02  0.15975683252E+02  0.65236925236E+02  0.00000000000E+00 0.  1.
</event>
<event>
 4    1  0.6718357E+001  0.2360219E+02  0.7546771E-02  0.1485072E+00
          2   -1    0    0  502    0  0.00000000000E+00  0.00000000000E+00  0.44440317368E+02  0.44440317368E+02  0.00000000000E+00 0. -1.
         -2   -1    0    0    0  501 -0.00000000000E+00 -0.00000000000E+00 -0.15999403130E+02  0.15999403130E+02  0.00000000000E+00 0.  1.
          1    1    1    2  502    0 -0.14572429304E+02  0.18566307911E+02  0.15839605938E+00  0.23602723880E+02  0.00000000000E+00 0.  1.
         -1    1    1    2    0  501  0.14572429304E+02 -0.18566307911E+02  0.28282518179E+02  0.36836996618E+02  0.00000000000E+00 0. -1.
</event>
<event>
 4    1  0.6718357E+001  0.6162870E+02  0.7546771E-02  0.1254397E+00
          2   -1    0    0  502    0  0.00000000000E+00  0.00000000000E+00  0.10036539654E+04  0.10036539654E+04  0.00000000000E+00 0.  1.
         -2   -1    0    0    0  501 -0.00000000000E+00 -0.00000000000E+00 -0.47924875006E+01  0.47924875006E+01  0.00000000000E+00 0. -1.
          1    1    1    2  502    0  0.44399333327E+01 -0.61468561871E+02  0.73070088391E+03  0.73329521944E+03  0.00000000000E+00 0.  1.
         -1    1    1    2    0  501 -0.44399333327E+01  0.61468561871E+02  0.26816059401E+03  0.27515123348E+03  0.00000000000E+00 0. -1.
</event>
<event>
 4    1  0.6718357E+001  0.3415842E+02  0.7546771E-02  0.1386578E+00
          2   -1    0    0  502    0  0.00000000000E+00  0.00000000000E+00  0.17149749896E+02  0.17149749896E+02  0.00000000000E+00 0.  1.
         -2   -1    0    0    0  501 -0.00000000000E+00 -0.00000000000E+00 -0.15043340570E+03  0.15043340570E+03  0.00000000000E+00 0. -1.
          1    1    1    2  502    0  0.16687099594E+02 -0.29805002716E+02 -0.12865521315E+03  0.13311258900E+03  0.00000000000E+00 0. -1.
         -1    1    1    2    0  501 -0.16687099594E+02  0.29805002716E+02 -0.46284426501E+01  0.34470566591E+02  0.00000000000E+00 0.  1.
</event>
<event>
 4    1  0.6718357E+001  0.2155093E+02  0.7546771E-02  0.1511542E+00
          2   -1    0    0  502    0  0.00000000000E+00  0.00000000000E+00  0.13174978570E+04  0.13174978570E+04  0.00000000000E+00 0.  1.
         -2   -1    0    0    0  501 -0.00000000000E+00 -0.00000000000E+00 -0.35259481054E+00  0.35259481054E+00  0.00000000000E+00 0. -1.
          1    1    1    2  502    0  0.31925407838E+01  0.21313150217E+02  0.66825088575E+03  0.66859830167E+03  0.00000000000E+00 0. -1.
         -1    1    1    2    0  501 -0.31925407838E+01 -0.21313150217E+02  0.64889437646E+03  0.64925215016E+03  0.00000000000E+00 0.  1.
</event>
<event>
 4    1  0.6718357E+001  0.2073802E+02  0.7546771E-02  0.1523038E+00
          2   -1    0    0  502    0  0.00000000000E+00  0.00000000000E+00  0.36595655313E+03  0.36595655313E+03  0.00000000000E+00 0.  1.
         -2   -1    0    0    0  501 -0.00000000000E+00 -0.00000000000E+00 -0.11794516596E+01  0.11794516596E+01  0.00000000000E+00 0. -1.
          1    1    1    2  502    0 -0.91116557707E+01 -0.18629096280E+02  0.19343343493E+03  0.19454192157E+03  0.00000000000E+00 0. -1.
         -1    1    1    2    0  501  0.91116557707E+01  0.18629096280E+02  0.17134366655E+03  0.17259408323E+03  0.00000000000E+00 0.  1.
</event>
<event>
 4    1  0.6718357E+001  0.2559885E+02  0.7546771E-02  0.1462214E+00
          2   -1    0    0  502    0  0.00000000000E+00  0.00000000000E+00  0.19976287078E+03  0.19976287078E+03  0.00000000000E+00 0. -1.
         -2   -1    0    0    0  501 -0.00000000000E+00 -0.00000000000E+00 -0.49282777067E+01  0.49282777067E+01  0.00000000000E+00 0.  1.
          1    1    1    2  502    0  0.82338953929E+01 -0.24238486061E+02  0.38235989607E+02  0.46014042868E+02  0.00000000000E+00 0.  1.
         -1    1    1    2    0  501 -0.82338953929E+01  0.24238486061E+02  0.15659860347E+03  0.15867710562E+03  0.00000000000E+00 0. -1.
</event>
<event>
 4    1  0.6718357E+001  0.2061602E+02  0.7546771E-02  0.1524818E+00
          2   -1    0    0  502    0  0.00000000000E+00  0.00000000000E+00  0.64856251123E+02  0.64856251123E+02  0.00000000000E+00 0. -1.
         -2   -1    0    0    0  501 -0.00000000000E+00 -0.00000000000E+00 -0.94309888029E+01  0.94309888029E+01  0.00000000000E+00 0.  1.
          1    1    1    2  502    0  0.19963426472E+02 -0.51460389486E+01  0.71948559009E+01  0.21835431409E+02  0.00000000000E+00 0.  1.
         -1    1    1    2    0  501 -0.19963426472E+02  0.51460389486E+01  0.48230406419E+02  0.52451808517E+02  0.00000000000E+00 0. -1.
</event>
<event>
 4    1  0.6718357E+001  0.2352516E+02  0.7546771E-02  0.1486007E+00
          2   -1    0    0  502    0  0.00000000000E+00  0.00000000000E+00  0.10321645634E+03  0.10321645634E+03  0.00000000000E+00 0.  1.
         -2   -1    0    0    0  501 -0.00000000000E+00 -0.00000000000E+00 -0.14436920457E+02  0.14436920457E+02  0.00000000000E+00 0. -1.
          1    1    1    2  502    0 -0.22995225786E+02 -0.49651544002E+01 -0.22505664646E+01  0.23632566864E+02  0.00000000000E+00 0. -1.
         -1    1    1    2    0  501  0.22995225786E+02  0.49651544002E+01  0.91030102343E+02  0.94020809929E+02  0.00000000000E+00 0.  1.
</event>
<event>
 4    1  0.6718357E+001  0.2550548E+02  0.7546771E-02  0.1463227E+00
          2   -1    0    0  502    0  0.00000000000E+00  0.00000000000E+00  0.25711637891E+02  0.25711637891E+02  0.00000000000E+00 0.  1.
         -2   -1    0    0    0  501 -0.00000000000E+00 -0.00000000000E+00 -0.25448695450E+02  0.25448695450E+02  0.00000000000E+00 0. -1.
          1    1    1    2  502    0 -0.25504382472E+02 -0.23643774791E+00 -0.18174552605E+01  0.25570150014E+02  0.00000000000E+00 0.  1.
         -1    1    1    2    0  501  0.25504382472E+02  0.23643774791E+00  0.20803977014E+01  0.25590183327E+02  0.00000000000E+00 0. -1.
</event>
<event>
 4    1  0.6718357E+001  0.3372433E+02  0.7546771E-02  0.1389760E+00
          2   -1    0    0  502    0  0.00000000000E+00  0.00000000000E+00  0.54346973517E+03  0.54346973517E+03  0.00000000000E+00 0.  1.
         -2   -1    0    0    0  501 -0.00000000000E+00 -0.00000000000E+00 -0.44528330541E+01  0.44528330541E+01  0.00000000000E+00 0. -1.
          1    1    1    2  502    0 -0.26066885743E+02 -0.21397380138E+02  0.46895995634E+03  0.47017100193E+03  0.00000000000E+00 0.  1.
         -1    1    1    2    0  501  0.26066885743E+02  0.21397380138E+02  0.70056945773E+02  0.77751566287E+02  0.00000000000E+00 0. -1.
</event>
<event>
 4    1  0.6718357E+001  0.2927311E+02  0.7546771E-02  0.1426020E+00
          2   -1    0    0  502    0  0.00000000000E+00  0.00000000000E+00  0.77381978992E+03  0.77381978992E+03  0.00000000000E+00 0. -1.
         -2   -1    0    0    0  501 -0.00000000000E+00 -0.00000000000E+00 -0.15032622204E+01  0.15032622204E+01  0.00000000000E+00 0.  1.
          1    1    1    2  502    0 -0.29270297946E+02  0.40561155838E+00  0.58509578189E+03  0.58582761018E+03  0.00000000000E+00 0. -1.
         -1    1    1    2    0  501  0.29270297946E+02 -0.40561155838E+00  0.18722074580E+03  0.18949544196E+03  0.00000000000E+00 0.  1.
</event>
<event>
 4    1  0.6718357E+001  0.2051919E+02  0.7546771E-02  0.1526242E+00
          2   -1    0    0  502    0  0.00000000000E+00  0.00000000000E+00  0.64055631207E+01  0.64055631207E+01  0.00000000000E+00 0.  1.
         -2   -1    0    0    0  501 -0.00000000000E+00 -0.00000000000E+00 -0.74505722026E+02  0.74505722026E+02  0.00000000000E+00 0. -1.
          1    1    1    2  502    0  0.79227180746E+01  0.18927961186E+02 -0.20165663933E+02  0.28769622490E+02  0.00000000000E+00 0. -1.
         -1    1    1    2    0  501 -0.79227180746E+01 -0.18927961186E+02 -0.47934494973E+02  0.52141662657E+02  0.00000000000E+00 0.  1.
</event>
<event>
 4    1  0.6718357E+001  0.2368871E+02  0.7546771E-02  0.1484026E+00
          2   -1    0    0  502    0  0.00000000000E+00  0.00000000000E+00  0.29048471675E+03  0.29048471675E+03  0.00000000000E+00 0.  1.
         -2   -1    0    0    0  501 -0.00000000000E+00 -0.00000000000E+00 -0.19363610965E+01  0.19363610965E+01  0.00000000000E+00 0. -1.
          1    1    1    2  502    0  0.15633767755E+02 -0.17797201293E+02  0.13716921890E+03  0.13919967558E+03  0.00000000000E+00 0.  1.
         -1    1    1    2    0  501 -0.15633767755E+02  0.17797201293E+02  0.15137913675E+03  0.15322140226E+03  0.00000000000E+00 0. -1.
</event>
<event>
 4    1  0.6718357E+001  0.2372641E+02  0.7546771E-02  0.1483573E+00
          2   -1    0    0  502    0  0.00000000000E+00  0.00000000000E+00  0.23009872628E+02  0.23009872628E+02  0.00000000000E+00 0. -1.
         -2   -1    0    0    0  501 -0.00000000000E+00 -0.00000000000E+00 -0.34628021017E+02  0.34628021017E+02  0.00000000000E+00 0.  1.
          1    1    1    2  502    0 -0.20768882941E+02  0.11471537840E+02  0.98033367784E+01  0.25671931969E+02  0.00000000000E+00 0. -1.
         -1    1    1    2    0  501  0.20768882941E+02 -0.11471537840E+02 -0.21421485167E+02  0.31965961675E+02  0.00000000000E+00 0.  1.
</event>
<event>
 4    1  0.6718357E+001  0.7523302E+02  0.7546771E-02  0.1215369E+00
          2   -1    0    0  502    0  0.00000000000E+00  0.00000000000E+00  0.16552425010E+04  0.16552425010E+04  0.00000000000E+00 0. -1.
         -2   -1    0    0    0  501 -0.00000000000E+00 -0.00000000000E+00 -0.40455208337E+01  0.40455208337E+01  0.00000000000E+00 0.  1.
          1    1    1    2  502    0  0.25402494953E+02  0.70814689630E+02  0.11519749309E+04  0.11544289707E+04  0.00000000000E+00 0.  1.
         -1    1    1    2    0  501 -0.25402494953E+02 -0.70814689630E+02  0.49922204928E+03  0.50485905112E+03  0.00000000000E+00 0. -1.
</event>
<event>
 4    1  0.6718357E+001  0.2523358E+02  0.7546771E-02  0.1466207E+00
          2   -1    0    0  502    0  0.00000000000E+00  0.00000000000E+00  0.19754333709E+02  0.19754333709E+02  0.00000000000E+00 0.  1.
         -2   -1    0    0    0  501 -0.00000000000E+00 -0.00000000000E+00 -0.70948517366E+02  0.70948517366E+02  0.00000000000E+00 0. -1.
          1    1    1    2  502    0  0.78433183438E+01 -0.23983655937E+02 -0.59098579910E+02  0.64260217414E+02  0.00000000000E+00 0. -1.
         -1    1    1    2    0  501 -0.78433183438E+01  0.23983655937E+02  0.79043962535E+01  0.26442633660E+02  0.00000000000E+00 0.  1.
</event>
<event>
 4    1  0.6718357E+001  0.2561762E+02  0.7546771E-02  0.1462011E+00
          2   -1    0    0  502    0  0.00000000000E+00  0.00000000000E+00  0.12003229650E+01  0.12003229650E+01  0.00000000000E+00 0.  1.
         -2   -1    0    0    0  501 -0.00000000000E+00 -0.00000000000E+00 -0.67452075169E+03  0.67452075169E+03  0.00000000000E+00 0. -1.
          1    1    1    2  502    0  0.25601232010E+02  0.91611523784E+00 -0.48371382342E+03  0.48439170648E+03  0.00000000000E+00 0. -1.
         -1    1    1    2    0  501 -0.25601232010E+02 -0.91611523784E+00 -0.18960660531E+03  0.19132936817E+03  0.00000000000E+00 0.  1.
</event>
<event>
 4    1  0.6718357E+001  0.2065211E+02  0.7546771E-02  0.1524290E+00
          2   -1    0    0  502    0  0.00000000000E+00  0.00000000000E+00  0.16926115270E+02  0.16926115270E+02  0.00000000000E+00 0. -1.
         -2   -1    0    0    0  501 -0.00000000000E+00 -0.00000000000E+00 -0.25557591555E+02  0.25557591555E+02  0.00000000000E+00 0.  1.
          1    1    1    2  502    0 -0.20652104750E+02 -0.10003403077E-01 -0.17971984514E+01  0.20730158054E+02  0.00000000000E+00 0. -1.
         -1    1    1    2    0  501  0.20652104750E+02  0.10003403077E-01 -0.68342778333E+01  0.21753548772E+02  0.00000000000E+00 0.  1.
</event>
<event>
 4    1  0.6718357E+001  0.2891479E+02  0.7546771E-02  0.1429267E+00
          2   -1    0    0  502    0  0.00000000000E+00  0.00000000000E+00  0.13862653733E+02  0.13862653733E+02  0.00000000000E+00 0.  1.
         -2   -1    0    0    0  501 -0.00000000000E+00 -0.00000000000E+00 -0.61273581831E+02  0.61273581831E+02  0.00000000000E+00 0. -1.
          1    1    1    2  502    0  0.25642184673E+02  0.13362020839E+02 -0.18995827064E+02  0.34596339135E+02  0.00000000000E+00 0.  1.
         -1    1    1    2    0  501 -0.25642184673E+02 -0.13362020839E+02 -0.28415101034E+02  0.40539896429E+02  0.00000000000E+00 0. -1.
</event>
<event>
 4    1  0.6718357E+001  0.3218998E+02  0.7546771E-02  0.1401473E+00
          2   -1    0    0  502    0  0.00000000000E+00  0.00000000000E+00  0.52701726901E+02  0.52701726901E+02  0.00000000000E+00 0. -1.
         -2   -1    0    0    0  501 -0.00000000000E+00 -0.00000000000E+00 -0.21591910473E+02  0.21591910473E+02  0.00000000000E+00 0.  1.
          1    1    1    2  502    0 -0.39786975885E+00  0.32187522822E+02  0.26662018625E+02  0.41797824858E+02  0.00000000000E+00 0. -1.
         -1    1    1    2    0  501  0.39786975885E+00 -0.32187522822E+02  0.44477978031E+01  0.32495812515E+02  0.00000000000E+00 0.  1.
</event>
<event>
 4    1  0.6718357E+001  0.3778949E+02  0.7546771E-02  0.1361950E+00
          2   -1    0    0  502    0  0.00000000000E+00  0.00000000000E+00  0.10834063232E+04  0.10834063232E+04  0.00000000000E+00 0. -1.
         -2   -1    0    0    0  501 -0.00000000000E+00 -0.00000000000E+00 -0.13242818573E+01  0.13242818573E+01  0.00000000000E+00 0.  1.
          1    1    1    2  502    0  0.21121535250E+02  0.31335701273E+02  0.50400569108E+03  0.50542040132E+03  0.00000000000E+00 0.  1.
         -1    1    1    2    0  501 -0.21121535250E+02 -0.31335701273E+02  0.57807635022E+03  0.57931020370E+03  0.00000000000E+00 0. -1.
</event>
<event>
 4    1  0.6718357E+001  0.2656429E+02  0.7546771E-02  0.1452035E+00
          2   -1    0    0  502    0  0.00000000000E+00  0.00000000000E+00  0.20703704365E+03  0.20703704365E+03  0.00000000000E+00 0.  1.
         -2   -1    0    0    0  501 -0.00000000000E+00 -0.00000000000E+00 -0.54110763340E+01  0.54110763340E+01  0.00000000000E+00 0. -1.
          1    1    1    2  502    0 -0.14598820863E+02  0.22193153655E+02  0.36189816299E+02  0.44892810599E+02  0.00000000000E+00 0. -1.
         -1    1    1    2    0  501  0.14598820863E+02 -0.22193153655E+02  0.16543615102E+03  0.16755530939E+03  0.00000000000E+00 0.  1.
</event>
<event>
 4    1  0.6718357E+001  0.2658922E+02  0.7546771E-02  0.1451779E+00
          2   -1    0    0  502    0  0.00000000000E+00  0.00000000000E+00  0.22467609023E+02  0.22467609023E+02  0.00000000000E+00 0.  1.
         -2   -1    0    0    0  501 -0.00000000000E+00 -0.00000000000E+00 -0.33029058304E+02  0.33029058304E+02  0.00000000000E+00 0. -1.
          1    1    1    2  502    0  0.18187539556E+02 -0.19395871142E+02  0.75387997465E+00  0.26599901268E+02  0.00000000000E+00 0. -1.
         -1    1    1    2    0  501 -0.18187539556E+02  0.19395871142E+02 -0.11315329256E+02  0.28896766058E+02  0.00000000000E+00 0.  1.
</event>
<event>
 4    1  0.6718357E+001  0.7048603E+02  0.7546771E-02  0.1227844E+00
          2   -1    0    0  502    0  0.00000000000E+00  0.00000000000E+00  0.95619511018E+03  0.95619511018E+03  0.00000000000E+00 0.  1.
         -2   -1    0    0    0  501 -0.00000000000E+00 -0.00000000000E+00 -0.52001577095E+01  0.52001577095E+01  0.00000000000E+00 0. -1.
          1    1    1    2  502    0 -0.21782757302E+02 -0.67035747041E+02  0.46171866188E+03  0.46706787796E+03  0.00000000000E+00 0. -1.
         -1    1    1    2    0  501  0.21782757302E+02  0.67035747041E+02  0.48927629059E+03  0.49432738993E+03  0.00000000000E+00 0.  1.
</event>
<event>
 4    1  0.6718357E+001  0.2770817E+02  0.7546771E-02  0.1440621E+00
          2   -1    0    0  502    0  0.00000000000E+00  0.00000000000E+00  0.57481779037E+03  0.57481779037E+03  0.00000000000E+00 0. -1.
         -2   -1    0    0    0  501 -0.00000000000E+00 -0.00000000000E+00 -0.20724824262E+01  0.20724824262E+01  0.00000000000E+00 0.  1.
          1    1    1    2  502    0  0.23883635283E+02  0.14046869977E+02  0.11438046852E+03  0.11768871725E+03  0.00000000000E+00 0.  1.
         -1    1    1    2    0  501 -0.23883635283E+02 -0.14046869977E+02  0.45836483943E+03  0.45920155554E+03  0.00000000000E+00 0. -1.
</event>
<event>
 4    1  0.6718357E+001  0.2633136E+02  0.7546771E-02  0.1454443E+00
          2   -1    0    0  502    0  0.00000000000E+00  0.00000000000E+00  0.41791515114E+01  0.41791515114E+01  0.00000000000E+00 0. -1.
         -2   -1    0    0    0  501 -0.00000000000E+00 -0.00000000000E+00 -0.17670563394E+03  0.17670563394E+03  0.00000000000E+00 0.  1.
          1    1    1    2  502    0 -0.19861712636E+01 -0.26256340405E+02 -0.63902801563E+02  0.69115181656E+02  0.00000000000E+00 0. -1.
         -1    1    1    2    0  501  0.19861712636E+01  0.26256340405E+02 -0.10862368087E+03  0.11176960380E+03  0.00000000000E+00 0.  1.
</event>
<event>
 4    1  0.6718357E+001  0.2156069E+02  0.7546771E-02  0.1511408E+00
          2   -1    0    0  502    0  0.00000000000E+00  0.00000000000E+00  0.10777756473E+04  0.10777756473E+04  0.00000000000E+00 0.  1.
         -2   -1    0    0    0  501 -0.00000000000E+00 -0.00000000000E+00 -0.66291184131E+00  0.66291184131E+00  0.00000000000E+00 0. -1.
          1    1    1    2  502    0  0.79391773566E+01  0.20045770445E+02  0.21984207702E+03  0.22089681365E+03  0.00000000000E+00 0. -1.
         -1    1    1    2    0  501 -0.79391773566E+01 -0.20045770445E+02  0.85727065843E+03  0.85754174549E+03  0.00000000000E+00 0.  1.
</event>
<event>
 4    1  0.6718357E+001  0.4658857E+02  0.7546771E-02  0.1313682E+00
          2   -1    0    0  502    0  0.00000000000E+00  0.00000000000E+00  0.30354261422E+04  0.30354261422E+04  0.00000000000E+00 0.  1.
         -2   -1    0    0    0  501 -0.00000000000E+00 -0.00000000000E+00 -0.73356091285E+00  0.73356091285E+00  0.00000000000E+00 0. -1.
          1    1    1    2  502    0  0.41176936060E+02  0.21793457081E+02  0.12762232233E+04  0.12770732988E+04  0.00000000000E+00 0.  1.
         -1    1    1    2    0  501 -0.41176936060E+02 -0.21793457081E+02  0.17584693581E+04  0.17590864044E+04  0.00000000000E+00 0. -1.
</event>
<event>
 4    1  0.6718357E+001  0.2300544E+02  0.7546771E-02  0.1492430E+00
          2   -1    0    0  502    0  0.00000000000E+00  0.00000000000E+00  0.45714679422E+02  0.45714679422E+02  0.00000000000E+00 0. -1.
         -2   -1    0    0    0  501 -0.00000000000E+00 -0.00000000000E+00 -0.32218346186E+02  0.32218346186E+02  0.00000000000E+00 0.  1.
          1    1    1    2  502    0 -0.18979132786E+02 -0.13001637501E+02  0.37937518320E+02  0.44367841454E+02  0.00000000000E+00 0. -1.
         -1    1    1    2    0  501  0.18979132786E+02  0.13001637501E+02 -0.24441185084E+02  0.33565184155E+02  0.00000000000E+00 0.  1.
</event>
<event>
 4    1  0.6718357E+001  0.2427341E+02  0.7546771E-02  0.1477098E+00
          2   -1    0    0  502    0  0.00000000000E+00  0.00000000000E+00  0.78361593846E+01  0.78361593846E+01  0.00000000000E+00 0.  1.
         -2   -1    0    0    0  501 -0.00000000000E+00 -0.00000000000E+00 -0.98991717725E+02  0.98991717725E+02  0.00000000000E+00 0. -1.
          1    1    1    2  502    0 -0.19285249205E+02  0.14740338241E+02 -0.71769385534E+02  0.75763072194E+02  0.00000000000E+00 0. -1.
         -1    1    1    2    0  501  0.19285249205E+02 -0.14740338241E+02 -0.19386172806E+02  0.31064804915E+02  0.00000000000E+00 0.  1.
</event>
<event>
 4    1  0.6718357E+001  0.3619851E+02  0.7546771E-02  0.1372328E+00
          2   -1    0    0  502    0  0.00000000000E+00  0.00000000000E+00  0.17715458107E+02  0.17715458107E+02  0.00000000000E+00 0.  1.
         -2   -1    0    0    0  501 -0.00000000000E+00 -0.00000000000E+00 -0.78363635652E+02  0.78363635652E+02  0.00000000000E+00 0. -1.
          1    1    1    2  502    0  0.22492907820E+02  0.28361964345E+02 -0.18943148771E+02  0.40855535844E+02  0.00000000000E+00 0.  1.
         -1    1    1    2    0  501 -0.22492907820E+02 -0.28361964345E+02 -0.41705028774E+02  0.55223557915E+02  0.00000000000E+00 0. -1.
</event>
<event>
 4    1  0.6718357E+001  0.2385633E+02  0.7546771E-02  0.1482016E+00
          2   -1    0    0  502    0  0.00000000000E+00  0.00000000000E+00  0.37202253782E+03  0.37202253782E+03  0.00000000000E+00 0.  1.
         -2   -1    0    0    0  501 -0.00000000000E+00 -0.00000000000E+00 -0.16916719637E+01  0.16916719637E+01  0.00000000000E+00 0. -1.
          1    1    1    2  502    0  0.23037689235E+01 -0.23744835255E+02  0.24296455256E+03  0.24413295220E+03  0.00000000000E+00 0.  1.
         -1    1    1    2    0  501 -0.23037689235E+01  0.23744835255E+02  0.12736631330E+03  0.12958125758E+03  0.00000000000E+00 0. -1.
</event>
<event>
 4    1  0.6718357E+001  0.2588495E+02  0.7546771E-02  0.1459142E+00
          2   -1    0    0  502    0  0.00000000000E+00  0.00000000000E+00  0.10210763554E+03  0.10210763554E+03  0.00000000000E+00 0.  1.
         -2   -1    0    0    0  501 -0.00000000000E+00 -0.00000000000E+00 -0.11144577563E+02  0.11144577563E+02  0.00000000000E+00 0. -1.
          1    1    1    2  502    0  0.25336521482E+02  0.53001319123E+01  0.91704113898E+01  0.27461375861E+02  0.00000000000E+00 0. -1.
         -1    1    1    2    0  501 -0.25336521482E+02 -0.53001319123E+01  0.81792646583E+02  0.85790837239E+02  0.00000000000E+00 0.  1.
</event>
<event>
 4    1  0.6718357E+001  0.2014797E+02  0.7546771E-02  0.1531786E+00
          2   -1    0    0  502    0  0.00000000000E+00  0.00000000000E+00  0.84094253922E+02  0.84094253922E+02  0.00000000000E+00 0.  1.
         -2   -1    0    0    0  501 -0.00000000000E+00 -0.00000000000E+00 -0.52788261158E+01  0.52788261158E+01  0.00000000000E+00 0. -1.
          1    1    1    2  502    0  0.20139560175E+02  0.58195912254E+00  0.26337186042E+02  0.33160035119E+02  0.00000000000E+00 0. -1.
         -1    1    1    2    0  501 -0.20139560175E+02 -0.58195912254E+00  0.52478241764E+02  0.56213044919E+02  0.00000000000E+00 0.  1.
</event>
<event>
 4    1  0.6718357E+001  0.2141174E+02  0.7546771E-02  0.1513467E+00
          2   -1    0    0  502    0  0.00000000000E+00  0.00000000000E+00  0.10347508853E+03  0.10347508853E+03  0.00000000000E+00 0.  1.
         -2   -1    0    0    0  501 -0.00000000000E+00 -0.00000000000E+00 -0.47082313156E+01  0.47082313156E+01  0.00000000000E+00 0. -1.
          1    1    1    2  502    0 -0.21387951693E+02  0.10090174552E+01  0.62517255574E+02  0.66082295952E+02  0.00000000000E+00 0.  1.
         -1    1    1    2    0  501  0.21387951693E+02 -0.10090174552E+01  0.36249601644E+02  0.42101023897E+02  0.00000000000E+00 0. -1.
</event>
<event>
 4    1  0.6718357E+001  0.2137699E+02  0.7546771E-02  0.1513950E+00
          2   -1    0    0  502    0  0.00000000000E+00  0.00000000000E+00  0.12090632908E+04  0.12090632908E+04  0.00000000000E+00 0. -1.
         -2   -1    0    0    0  501 -0.00000000000E+00 -0.00000000000E+00 -0.38148622933E+00  0.38148622933E+00  0.00000000000E+00 0.  1.
          1    1    1    2  502    0 -0.17856883265E+02  0.11751910163E+02  0.66249336071E+03  0.66283816174E+03  0.00000000000E+00 0.  1.
         -1    1    1    2    0  501  0.17856883265E+02 -0.11751910163E+02  0.54618844384E+03  0.54660661527E+03  0.00000000000E+00 0. -1.
</event>
<event>
 4    1  0.6718357E+001  0.2870134E+02  0.7546771E-02  0.1431228E+00
          2   -1    0    0  502    0  0.00000000000E+00  0.00000000000E+00  0.12021322099E+04  0.12021322099E+04  0.00000000000E+00 0.  1.
         -2   -1    0    0    0  501 -0.00000000000E+00 -0.00000000000E+00 -0.77021178318E+00  0.77021178318E+00  0.00000000000E+00 0. -1.
          1    1    1    2  502    0  0.28675270565E+02  0.12229631937E+01  0.80043479843E+03  0.80094920770E+03  0.00000000000E+00 0. -1.
         -1    1    1    2    0  501 -0.28675270565E+02 -0.12229631937E+01  0.40092719965E+03  0.40195321395E+03  0.00000000000E+00 0.  1.
</event>
<event>
 4    1  0.6718357E+001  0.2444290E+02  0.7546771E-02  0.1475133E+00
          2   -1    0    0  502    0  0.00000000000E+00  0.00000000000E+00  0.51052035023E+01  0.51052035023E+01  0.00000000000E+00 0. -1.
         -2   -1    0    0    0  501 -0.00000000000E+00 -0.00000000000E+00 -0.18821569913E+03  0.18821569913E+03  0.00000000000E+00 0.  1.
          1    1    1    2  502    0 -0.17123023358E+02 -0.17442982250E+02 -0.32109457993E+02  0.40354341170E+02  0.00000000000E+00 0. -1.
         -1    1    1    2    0  501  0.17123023358E+02  0.17442982250E+02 -0.15100103764E+03  0.15296656146E+03  0.00000000000E+00 0.  1.
</event>
<event>
 4    1  0.6718357E+001  0.2378197E+02  0.7546771E-02  0.1482906E+00
          2   -1    0    0  502    0  0.00000000000E+00  0.00000000000E+00  0.36230347449E+02  0.36230347449E+02  0.00000000000E+00 0.  1.
         -2   -1    0    0    0  501 -0.00000000000E+00 -0.00000000000E+00 -0.16033261328E+02  0.16033261328E+02  0.00000000000E+00 0. -1.
          1    1    1    2  502    0  0.23563827444E+02  0.32137518714E+01  0.14340712576E+02  0.27771175742E+02  0.00000000000E+00 0.  1.
         -1    1    1    2    0  501 -0.23563827444E+02 -0.32137518714E+01  0.58563735446E+01  0.24492433035E+02  0.00000000000E+00 0. -1.
</event>
<event>
 4    1  0.6718357E+001  0.3702225E+02  0.7546771E-02  0.1366878E+00
          2   -1    0    0  502    0  0.00000000000E+00  0.00000000000E+00  0.74644887699E+03  0.74644887699E+03  0.00000000000E+00 0. -1.
         -2   -1    0    0    0  501 -0.00000000000E+00 -0.00000000000E+00 -0.27811996204E+01  0.27811996204E+01  0.00000000000E+00 0.  1.
          1    1    1    2  502    0 -0.34045307634E+02 -0.14545244436E+02  0.15347061296E+03  0.15787297473E+03  0.00000000000E+00 0.  1.
         -1    1    1    2    0  501  0.34045307634E+02  0.14545244436E+02  0.59019706441E+03  0.59135710188E+03  0.00000000000E+00 0. -1.
</event>
<event>
 4    1  0.6718357E+001  0.2593187E+02  0.7546771E-02  0.1458643E+00
          2   -1    0    0  502    0  0.00000000000E+00  0.00000000000E+00  0.21861975031E+03  0.21861975031E+03  0.00000000000E+00 0.  1.
         -2   -1    0    0    0  501 -0.00000000000E+00 -0.00000000000E+00 -0.10889212466E+02  0.10889212466E+02  0.00000000000E+00 0. -1.
          1    1    1    2  502    0  0.21195939901E+02 -0.14939673863E+02  0.20107009808E+03  0.20273540901E+03  0.00000000000E+00 0.  1.
         -1    1    1    2    0  501 -0.21195939901E+02  0.14939673863E+02  0.66604397607E+01  0.26773553765E+02  0.00000000000E+00 0. -1.
</event>
<event>
 4    1  0.6718357E+001  0.2123284E+02  0.7546771E-02  0.1515966E+00
          2   -1    0    0  502    0  0.00000000000E+00  0.00000000000E+00  0.43152784128E+02  0.43152784128E+02  0.00000000000E+00 0. -1.
         -2   -1    0    0    0  501 -0.00000000000E+00 -0.00000000000E+00 -0.18515499876E+02  0.18515499876E+02  0.00000000000E+00 0.  1.
          1    1    1    2  502    0 -0.11937434303E+02  0.17559360980E+02 -0.80353846890E+01  0.22702442663E+02  0.00000000000E+00 0.  1.
         -1    1    1    2    0  501  0.11937434303E+02 -0.17559360980E+02  0.32672668941E+02  0.38965841342E+02  0.00000000000E+00 0. -1.
</event>
<event>
 4    1  0.6718357E+001  0.4732227E+02  0.7546771E-02  0.1310219E+00
          2   -1    0    0  502    0  0.00000000000E+00  0.00000000000E+00  0.92627631380E+03  0.92627631380E+03  0.00000000000E+00 0. -1.
         -2   -1    0    0    0  501 -0.00000000000E+00 -0.00000000000E+00 -0.27481118832E+01  0.27481118832E+01  0.00000000000E+00 0.  1.
          1    1    1    2  502    0  0.43421761666E+02 -0.18813495846E+02  0.62284765429E+03  0.62464277588E+03  0.00000000000E+00 0. -1.
         -1    1    1    2    0  501 -0.43421761666E+02  0.18813495846E+02  0.30068054763E+03  0.30438164980E+03  0.00000000000E+00 0.  1.
</event>
<event>
 4    1  0.6718357E+001  0.2212995E+02  0.7546771E-02  0.1503722E+00
          2   -1    0    0  502    0  0.00000000000E+00  0.00000000000E+00  0.40228738954E+03  0.40228738954E+03  0.00000000000E+00 0.  1.
         -2   -1    0    0    0  501 -0.00000000000E+00 -0.00000000000E+00 -0.16128755048E+01  0.16128755048E+01  0.00000000000E+00 0. -1.
          1    1    1    2  502    0  0.16124561306E+02 -0.15156947444E+02  0.10033326274E+03  0.10274482053E+03  0.00000000000E+00 0. -1.
         -1    1    1    2    0  501 -0.16124561306E+02  0.15156947444E+02  0.30034125129E+03  0.30115544451E+03  0.00000000000E+00 0.  1.
</event>
<event>
 4    1  0.6718357E+001  0.2675358E+02  0.7546771E-02  0.1450099E+00
          2   -1    0    0  502    0  0.00000000000E+00  0.00000000000E+00  0.20326000991E+04  0.20326000991E+04  0.00000000000E+00 0.  1.
         -2   -1    0    0    0  501 -0.00000000000E+00 -0.00000000000E+00 -0.39244298215E+00  0.39244298215E+00  0.00000000000E+00 0. -1.
          1    1    1    2  502    0 -0.26072770862E+02  0.59970624937E+01  0.13418663359E+04  0.13421330104E+04  0.00000000000E+00 0. -1.
         -1    1    1    2    0  501  0.26072770862E+02 -0.59970624937E+01  0.69034132020E+03  0.69085953168E+03  0.00000000000E+00 0.  1.
</event>
<event>
 4    1  0.6718357E+001  0.8459829E+02  0.7546771E-02  0.1193557E+00
          2   -1    0    0  502    0  0.00000000000E+00  0.00000000000E+00  0.10938068416E+03  0.10938068416E+03  0.00000000000E+00 0.  1.
         -2   -1    0    0    0  501 -0.00000000000E+00 -0.00000000000E+00 -0.75610410301E+02  0.75610410301E+02  0.00000000000E+00 0. -1.
          1    1    1    2  502    0  0.41205136340E+01 -0.84497878119E+02  0.50823801745E+02  0.98691077930E+02  0.00000000000E+00 0.  1.
         -1    1    1    2    0  501 -0.41205136340E+01  0.84497878119E+02 -0.17053527889E+02  0.86300016528E+02  0.00000000000E+00 0. -1.
</event>
<event>
 4    1  0.6718357E+001  0.2152628E+02  0.7546771E-02  0.1511882E+00
          2   -1    0    0  502    0  0.00000000000E+00  0.00000000000E+00  0.52042804149E+03  0.52042804149E+03  0.00000000000E+00 0. -1.
         -2   -1    0    0    0  501 -0.00000000000E+00 -0.00000000000E+00 -0.11005991339E+01  0.11005991339E+01  0.00000000000E+00 0.  1.
          1    1    1    2  502    0  0.21479836002E+02  0.14133590516E+01  0.14570034639E+03  0.14728194688E+03  0.00000000000E+00 0.  1.
         -1    1    1    2    0  501 -0.21479836002E+02 -0.14133590516E+01  0.37362709597E+03  0.37424669375E+03  0.00000000000E+00 0. -1.
</event>
<event>
 4    1  0.6718357E+001  0.3623125E+02  0.7546771E-02  0.1372108E+00
          2   -1    0    0  502    0  0.00000000000E+00  0.00000000000E+00  0.17245876570E+02  0.17245876570E+02  0.00000000000E+00 0.  1.
         -2   -1    0    0    0  501 -0.00000000000E+00 -0.00000000000E+00 -0.21093895100E+03  0.21093895100E+03  0.00000000000E+00 0. -1.
          1    1    1    2  502    0  0.53740024693E+00  0.36227262720E+02 -0.56331094350E+01  0.36666541767E+02  0.00000000000E+00 0.  1.
         -1    1    1    2    0  501 -0.53740024693E+00 -0.36227262720E+02 -0.18805996499E+03  0.19151828580E+03  0.00000000000E+00 0. -1.
</event>
<event>
 4    1  0.6718357E+001  0.2370339E+02  0.7546771E-02  0.1483850E+00
          2   -1    0    0  502    0  0.00000000000E+00  0.00000000000E+00  0.17336590533E+04  0.17336590533E+04  0.00000000000E+00 0. -1.
         -2   -1    0    0    0  501 -0.00000000000E+00 -0.00000000000E+00 -0.32494654590E+00  0.32494654590E+00  0.00000000000E+00 0.  1.
          1    1    1    2  502    0  0.14932606245E+02  0.18408361826E+02  0.91134508775E+03  0.91165328908E+03  0.00000000000E+00 0. -1.
         -1    1    1    2    0  501 -0.14932606245E+02 -0.18408361826E+02  0.82198901896E+03  0.82233071073E+03  0.00000000000E+00 0.  1.
</event>
<event>
 4    1  0.6718357E+001  0.2153226E+02  0.7546771E-02  0.1511800E+00
          2   -1    0    0  502    0  0.00000000000E+00  0.00000000000E+00  0.11065741967E+04  0.11065741967E+04  0.00000000000E+00 0.  1.
         -2   -1    0    0    0  501 -0.00000000000E+00 -0.00000000000E+00 -0.42383747569E+00  0.42383747569E+00  0.00000000000E+00 0. -1.
          1    1    1    2  502    0  0.80040494141E+01  0.19989328441E+02  0.49385140543E+03  0.49432059304E+03  0.00000000000E+00 0. -1.
         -1    1    1    2    0  501 -0.80040494141E+01 -0.19989328441E+02  0.61229895378E+03  0.61267744112E+03  0.00000000000E+00 0.  1.
</event>
<event>
 4    1  0.6718357E+001  0.2654087E+02  0.7546771E-02  0.1452275E+00
          2   -1    0    0  502    0  0.00000000000E+00  0.00000000000E+00  0.30627302155E+03  0.30627302155E+03  0.00000000000E+00 0.  1.
         -2   -1    0    0    0  501 -0.00000000000E+00 -0.00000000000E+00 -0.89236021216E+01  0.89236021216E+01  0.00000000000E+00 0. -1.
          1    1    1    2  502    0  0.87187356001E+01  0.25067933190E+02  0.28445279671E+03  0.28568831124E+03  0.00000000000E+00 0.  1.
         -1    1    1    2    0  501 -0.87187356001E+01 -0.25067933190E+02  0.12896622721E+02  0.29508312431E+02  0.00000000000E+00 0. -1.
</event>
<event>
 4    1  0.6718357E+001  0.2119387E+02  0.7546771E-02  0.1516515E+00
          2   -1    0    0  502    0  0.00000000000E+00  0.00000000000E+00  0.51962869294E+02  0.51962869294E+02  0.00000000000E+00 0. -1.
         -2   -1    0    0    0  501 -0.00000000000E+00 -0.00000000000E+00 -0.86444112246E+01  0.86444112246E+01  0.00000000000E+00 0.  1.
          1    1    1    2  502    0 -0.19966604620E+02  0.71073920612E+01  0.21787822140E+02  0.30395550917E+02  0.00000000000E+00 0. -1.
         -1    1    1    2    0  501  0.19966604620E+02 -0.71073920612E+01  0.21530635929E+02  0.30211729601E+02  0.00000000000E+00 0.  1.
</event>
<event>
 4    1  0.6718357E+001  0.2431288E+02  0.7546771E-02  0.1476639E+00
          2   -1    0    0  502    0  0.00000000000E+00  0.00000000000E+00  0.58125384011E+03  0.58125384011E+03  0.00000000000E+00 0.  1.
         -2   -1    0    0    0  501 -0.00000000000E+00 -0.00000000000E+00 -0.12475438983E+01  0.12475438983E+01  0.00000000000E+00 0. -1.
          1    1    1    2  502    0 -0.87338769690E+01  0.22689988870E+02  0.41521532756E+03  0.41592653731E+03  0.00000000000E+00 0.  1.
         -1    1    1    2    0  501  0.87338769690E+01 -0.22689988870E+02  0.16479096865E+03  0.16657484669E+03  0.00000000000E+00 0. -1.
</event>
<event>
 4    1  0.6718357E+001  0.2380831E+02  0.7546771E-02  0.1482590E+00
          2   -1    0    0  502    0  0.00000000000E+00  0.00000000000E+00  0.18233638947E+04  0.18233638947E+04  0.00000000000E+00 0. -1.
         -2   -1    0    0    0  501 -0.00000000000E+00 -0.00000000000E+00 -0.31261585117E+00  0.31261585117E+00  0.00000000000E+00 0.  1.
          1    1    1    2  502    0 -0.72841530284E+01 -0.22666641440E+02  0.97959942438E+03  0.97988870172E+03  0.00000000000E+00 0. -1.
         -1    1    1    2    0  501  0.72841530284E+01  0.22666641440E+02  0.84345185442E+03  0.84378780878E+03  0.00000000000E+00 0.  1.
</event>
<event>
 4    1  0.6718357E+001  0.5182342E+02  0.7546771E-02  0.1290455E+00
          2   -1    0    0  502    0  0.00000000000E+00  0.00000000000E+00  0.18835285953E+04  0.18835285953E+04  0.00000000000E+00 0. -1.
         -2   -1    0    0    0  501 -0.00000000000E+00 -0.00000000000E+00 -0.17803060099E+01  0.17803060099E+01  0.00000000000E+00 0.  1.
          1    1    1    2  502    0 -0.50883197538E+02 -0.98268615547E+01  0.13614788106E+04  0.13624647587E+04  0.00000000000E+00 0. -1.
         -1    1    1    2    0  501  0.50883197538E+02  0.98268615547E+01  0.52026947863E+03  0.52284414254E+03  0.00000000000E+00 0.  1.
</event>
<event>
 4    1  0.6718357E+001  0.3203456E+02  0.7546771E-02  0.1402703E+00
          2   -1    0    0  502    0  0.00000000000E+00  0.00000000000E+00  0.74544560325E+03  0.74544560325E+03  0.00000000000E+00 0. -1.
         -2   -1    0    0    0  501 -0.00000000000E+00 -0.00000000000E+00 -0.18007451262E+01  0.18007451262E+01  0.00000000000E+00 0.  1.
          1    1    1    2  502    0  0.20870917573E+02  0.24302632623E+02  0.55314106314E+03  0.55406791000E+03  0.00000000000E+00 0.  1.
         -1    1    1    2    0  501 -0.20870917573E+02 -0.24302632623E+02  0.19050379498E+03  0.19317843838E+03  0.00000000000E+00 0. -1.
</event>
<event>
 4    1  0.6718357E+001  0.2907767E+02  0.7546771E-02  0.1427784E+00
          2   -1    0    0  502    0  0.00000000000E+00  0.00000000000E+00  0.18859733529E+04  0.18859733529E+04  0.00000000000E+00 0. -1.
         -2   -1    0    0    0  501 -0.00000000000E+00 -0.00000000000E+00 -0.48303541631E+00  0.48303541631E+00  0.00000000000E+00 0.  1.
          1    1    1    2  502    0  0.33972783490E+01  0.28878526867E+02  0.68986338728E+03  0.69047592566E+03  0.00000000000E+00 0.  1.
         -1    1    1    2    0  501 -0.33972783490E+01 -0.28878526867E+02  0.11956269302E+04  0.11959804626E+04  0.00000000000E+00 0. -1.
</event>
<event>
 4    1  0.6718357E+001  0.3312635E+02  0.7546771E-02  0.1394237E+00
          2   -1    0    0  502    0  0.00000000000E+00  0.00000000000E+00  0.78771268479E+01  0.78771268479E+01  0.00000000000E+00 0.  1.
         -2   -1    0    0    0  501 -0.00000000000E+00 -0.00000000000E+00 -0.15160303427E+03  0.15160303427E+03  0.00000000000E+00 0. -1.
          1    1    1    2  502    0 -0.29113006571E+02 -0.15804681401E+02 -0.49155473602E+02  0.59275759724E+02  0.00000000000E+00 0.  1.
         -1    1    1    2    0  501  0.29113006571E+02  0.15804681401E+02 -0.94570433818E+02  0.10020440139E+03  0.00000000000E+00 0. -1.
</event>
<event>
 4    1  0.6718357E+001  0.5230008E+02  0.7546771E-02  0.1288497E+00
          2   -1    0    0  502    0  0.00000000000E+00  0.00000000000E+00  0.38235837841E+02  0.38235837841E+02  0.00000000000E+00 0. -1.
         -2   -1    0    0    0  501 -0.00000000000E+00 -0.00000000000E+00 -0.13490009779E+03  0.13490009779E+03  0.00000000000E+00 0.  1.
          1    1    1    2  502    0 -0.52138131844E+02 -0.41126747121E+01  0.10996912786E+02  0.53443717837E+02  0.00000000000E+00 0. -1.
         -1    1    1    2    0  501  0.52138131844E+02  0.41126747121E+01 -0.10766117273E+03  0.11969221779E+03  0.00000000000E+00 0.  1.
</event>
<event>
 4    1  0.6718357E+001  0.3722350E+02  0.7546771E-02  0.1365572E+00
          2   -1    0    0  502    0  0.00000000000E+00  0.00000000000E+00  0.16469259522E+03  0.16469259522E+03  0.00000000000E+00 0. -1.
         -2   -1    0    0    0  501 -0.00000000000E+00 -0.00000000000E+00 -0.20853246289E+02  0.20853246289E+02  0.00000000000E+00 0.  1.
          1    1    1    2  502    0  0.25511722253E+02 -0.27106106748E+02  0.14357453956E+03  0.14832139901E+03  0.00000000000E+00 0. -1.
         -1    1    1    2    0  501 -0.25511722253E+02  0.27106106748E+02  0.26480937395E+00  0.37224442499E+02  0.00000000000E+00 0.  1.
</event>
<event>
 4    1  0.6718357E+001  0.2452089E+02  0.7546771E-02  0.1474235E+00
          2   -1    0    0  502    0  0.00000000000E+00  0.00000000000E+00  0.58959286793E+03  0.58959286793E+03  0.00000000000E+00 0.  1.
         -2   -1    0    0    0  501 -0.00000000000E+00 -0.00000000000E+00 -0.10206718647E+01  0.10206718647E+01  0.00000000000E+00 0. -1.
          1    1    1    2  502    0 -0.97307733536E+01  0.22507470439E+02  0.28571730808E+03  0.28676759634E+03  0.00000000000E+00 0. -1.
         -1    1    1    2    0  501  0.97307733536E+01 -0.22507470439E+02  0.30285488798E+03  0.30384594345E+03  0.00000000000E+00 0.  1.
</event>
<event>
 4    1  0.6718357E+001  0.2508881E+02  0.7546771E-02  0.1467812E+00
          2   -1    0    0  502    0  0.00000000000E+00  0.00000000000E+00  0.18008287951E+04  0.18008287951E+04  0.00000000000E+00 0. -1.
         -2   -1    0    0    0  501 -0.00000000000E+00 -0.00000000000E+00 -0.35002984620E+00  0.35002984620E+00  0.00000000000E+00 0.  1.
          1    1    1    2  502    0 -0.23200401944E+02  0.95493402840E+01  0.86629901492E+03  0.86666223629E+03  0.00000000000E+00 0.  1.
         -1    1    1    2    0  501  0.23200401944E+02 -0.95493402840E+01  0.93417975035E+03  0.93451658867E+03  0.00000000000E+00 0. -1.
</event>
<event>
 4    1  0.6718357E+001  0.2206366E+02  0.7546771E-02  0.1504603E+00
          2   -1    0    0  502    0  0.00000000000E+00  0.00000000000E+00  0.13351560335E+04  0.13351560335E+04  0.00000000000E+00 0.  1.
         -2   -1    0    0    0  501 -0.00000000000E+00 -0.00000000000E+00 -0.37339480948E+00  0.37339480948E+00  0.00000000000E+00 0. -1.
          1    1    1    2  502    0 -0.85675203383E+01  0.20332311299E+02  0.56494043743E+03  0.56537111983E+03  0.00000000000E+00 0. -1.
         -1    1    1    2    0  501  0.85675203383E+01 -0.20332311299E+02  0.76984220129E+03  0.77015830852E+03  0.00000000000E+00 0.  1.
</event>
<event>
 4    1  0.6718357E+001  0.2227612E+02  0.7546771E-02  0.1501794E+00
          2   -1    0    0  502    0  0.00000000000E+00  0.00000000000E+00  0.61132038582E+03  0.61132038582E+03  0.00000000000E+00 0. -1.
         -2   -1    0    0    0  501 -0.00000000000E+00 -0.00000000000E+00 -0.25176653156E+01  0.25176653156E+01  0.00000000000E+00 0.  1.
          1    1    1    2  502    0 -0.20378665748E+02 -0.89964142058E+01  0.51758850174E+02  0.56348949037E+02  0.00000000000E+00 0.  1.
         -1    1    1    2    0  501  0.20378665748E+02  0.89964142058E+01  0.55704387033E+03  0.55748910210E+03  0.00000000000E+00 0. -1.
</event>
<event>
 4    1  0.6718357E+001  0.2318438E+02  0.7546771E-02  0.1490196E+00
          2   -1    0    0  502    0  0.00000000000E+00  0.00000000000E+00  0.35250785866E+03  0.35250785866E+03  0.00000000000E+00 0.  1.
         -2   -1    0    0    0  501 -0.00000000000E+00 -0.00000000000E+00 -0.89281134534E+01  0.89281134534E+01  0.00000000000E+00 0. -1.
          1    1    1    2  502    0 -0.20898782690E+02 -0.10037752805E+02  0.33635341603E+03  0.33715150315E+03  0.00000000000E+00 0.  1.
         -1    1    1    2    0  501  0.20898782690E+02  0.10037752805E+02  0.72263291678E+01  0.24284468957E+02  0.00000000000E+00 0. -1.
</event>
<event>
 4    1  0.6718357E+001  0.2135390E+02  0.7546771E-02  0.1514272E+00
          2   -1    0    0  502    0  0.00000000000E+00  0.00000000000E+00  0.74360451292E+00  0.74360451292E+00  0.00000000000E+00 0. -1.
         -2   -1    0    0    0  501 -0.00000000000E+00 -0.00000000000E+00 -0.65444329868E+03  0.65444329868E+03  0.00000000000E+00 0.  1.
          1    1    1    2  502    0 -0.10744135557E+02  0.18454069329E+02 -0.40907395241E+03  0.40963091639E+03  0.00000000000E+00 0.  1.
         -1    1    1    2    0  501  0.10744135557E+02 -0.18454069329E+02 -0.24462574176E+03  0.24555598680E+03  0.00000000000E+00 0. -1.
</event>
<event>
 4    1  0.6718357E+001  0.2028274E+02  0.7546771E-02  0.1529757E+00
          2   -1    0    0  502    0  0.00000000000E+00  0.00000000000E+00  0.10003277065E+04  0.10003277065E+04  0.00000000000E+00 0.  1.
         -2   -1    0    0    0  501 -0.00000000000E+00 -0.00000000000E+00 -0.43675204026E+00  0.43675204026E+00  0.00000000000E+00 0. -1.
          1    1    1    2  502    0  0.17700286030E+02  0.99040024910E+01  0.62084721047E+03  0.62117843502E+03  0.00000000000E+00 0.  1.
         -1    1    1    2    0  501 -0.17700286030E+02 -0.99040024910E+01  0.37904374397E+03  0.37958602349E+03  0.00000000000E+00 0. -1.
</event>
<event>
 4    1  0.6718357E+001  0.2323566E+02  0.7546771E-02  0.1489560E+00
          2   -1    0    0  502    0  0.00000000000E+00  0.00000000000E+00  0.17499381410E+04  0.17499381410E+04  0.00000000000E+00 0.  1.
         -2   -1    0    0    0  501 -0.00000000000E+00 -0.00000000000E+00 -0.32935444972E+00  0.32935444972E+00  0.00000000000E+00 0. -1.
          1    1    1    2  502    0 -0.22744977694E+02  0.47499292648E+01  0.65471234206E+03  0.65512452762E+03  0.00000000000E+00 0. -1.
         -1    1    1    2    0  501  0.22744977694E+02 -0.47499292648E+01  0.10948964445E+04  0.10951429678E+04  0.00000000000E+00 0.  1.
</event>
<event>
 4    1  0.6718357E+001  0.2799986E+02  0.7546771E-02  0.1437815E+00
          2   -1    0    0  502    0  0.00000000000E+00  0.00000000000E+00  0.45716543464E+03  0.45716543464E+03  0.00000000000E+00 0.  1.
         -2   -1    0    0    0  501 -0.00000000000E+00 -0.00000000000E+00 -0.17193064031E+01  0.17193064031E+01  0.00000000000E+00 0. -1.
          1    1    1    2  502    0 -0.24883431147E+02 -0.12837718318E+02  0.23934103626E+03  0.24097328440E+03  0.00000000000E+00 0.  1.
         -1    1    1    2    0  501  0.24883431147E+02  0.12837718318E+02  0.21610509198E+03  0.21791145664E+03  0.00000000000E+00 0. -1.
</event>
<event>
 4    1  0.6718357E+001  0.2048317E+02  0.7546771E-02  0.1526773E+00
          2   -1    0    0  502    0  0.00000000000E+00  0.00000000000E+00  0.98253816183E+00  0.98253816183E+00  0.00000000000E+00 0. -1.
         -2   -1    0    0    0  501 -0.00000000000E+00 -0.00000000000E+00 -0.45765556492E+03  0.45765556492E+03  0.00000000000E+00 0.  1.
          1    1    1    2  502    0 -0.11726925363E+02  0.16794035938E+02 -0.28767077278E+03  0.28839908796E+03  0.00000000000E+00 0. -1.
         -1    1    1    2    0  501  0.11726925363E+02 -0.16794035938E+02 -0.16900225397E+03  0.17023901512E+03  0.00000000000E+00 0.  1.
</event>
<event>
 4    1  0.6718357E+001  0.2293093E+02  0.7546771E-02  0.1493367E+00
          2   -1    0    0  502    0  0.00000000000E+00  0.00000000000E+00  0.65175473542E+03  0.65175473542E+03  0.00000000000E+00 0.  1.
         -2   -1    0    0    0  501 -0.00000000000E+00 -0.00000000000E+00 -0.93442648680E+00  0.93442648680E+00  0.00000000000E+00 0. -1.
          1    1    1    2  502    0 -0.73204680606E+01 -0.21731045130E+02  0.20479676958E+03  0.20607654987E+03  0.00000000000E+00 0. -1.
         -1    1    1    2    0  501  0.73204680606E+01  0.21731045130E+02  0.44602353936E+03  0.44661261205E+03  0.00000000000E+00 0.  1.
</event>
<event>
 4    1  0.6718357E+001  0.2418827E+02  0.7546771E-02  0.1478093E+00
          2   -1    0    0  502    0  0.00000000000E+00  0.00000000000E+00  0.15235561338E+04  0.15235561338E+04  0.00000000000E+00 0. -1.
         -2   -1    0    0    0  501 -0.00000000000E+00 -0.00000000000E+00 -0.43943018452E+00  0.43943018452E+00  0.00000000000E+00 0.  1.
          1    1    1    2  502    0 -0.17365581985E+02 -0.16837720070E+02  0.10321492998E+04  0.10324326851E+04  0.00000000000E+00 0. -1.
         -1    1    1    2    0  501  0.17365581985E+02  0.16837720070E+02  0.49096740390E+03  0.49156287893E+03  0.00000000000E+00 0.  1.
</event>
<event>
 4    1  0.6718357E+001  0.2368734E+02  0.7546771E-02  0.1484043E+00
          2   -1    0    0  502    0  0.00000000000E+00  0.00000000000E+00  0.17279570784E+04  0.17279570784E+04  0.00000000000E+00 0. -1.
         -2   -1    0    0    0  501 -0.00000000000E+00 -0.00000000000E+00 -0.38364954825E+00  0.38364954825E+00  0.00000000000E+00 0.  1.
          1    1    1    2  502    0  0.26223127559E+01 -0.23541736883E+02  0.52507918144E+03  0.52561320064E+03  0.00000000000E+00 0.  1.
         -1    1    1    2    0  501 -0.26223127559E+01  0.23541736883E+02  0.12024942474E+04  0.12027275274E+04  0.00000000000E+00 0. -1.
</event>
<event>
 4    1  0.6718357E+001  0.2049487E+02  0.7546771E-02  0.1526600E+00
          2   -1    0    0  502    0  0.00000000000E+00  0.00000000000E+00  0.86152758353E+02  0.86152758353E+02  0.00000000000E+00 0.  1.
         -2   -1    0    0    0  501 -0.00000000000E+00 -0.00000000000E+00 -0.49175626619E+01  0.49175626619E+01  0.00000000000E+00 0. -1.
          1    1    1    2  502    0 -0.18373269187E+02 -0.90808961400E+01  0.44827820832E+02  0.49290701109E+02  0.00000000000E+00 0. -1.
         -1    1    1    2    0  501  0.18373269187E+02  0.90808961400E+01  0.36407374859E+02  0.41779619905E+02  0.00000000000E+00 0.  1.
</event>
<event>
 4    1  0.6718357E+001  0.2075566E+02  0.7546771E-02  0.1522782E+00
          2   -1    0    0  502    0  0.00000000000E+00  0.00000000000E+00  0.12875375130E+01  0.12875375130E+01  0.00000000000E+00 0. -1.
         -2   -1    0    0    0  501 -0.00000000000E+00 -0.00000000000E+00 -0.33565969116E+03  0.33565969116E+03  0.00000000000E+00 0.  1.
          1    1    1    2  502    0 -0.17756077833E+02 -0.10747978742E+02 -0.17669616633E+03  0.17791102423E+03  0.00000000000E+00 0.  1.
         -1    1    1    2    0  501  0.17756077833E+02  0.10747978742E+02 -0.15767598732E+03  0.15903620444E+03  0.00000000000E+00 0. -1.
</event>
<event>
 4    1  0.6718357E+001  0.2291043E+02  0.7546771E-02  0.1493626E+00
          2   -1    0    0  502    0  0.00000000000E+00  0.00000000000E+00  0.10187403851E+03  0.10187403851E+03  0.00000000000E+00 0. -1.
         -2   -1    0    0    0  501 -0.00000000000E+00 -0.00000000000E+00 -0.53339481985E+01  0.53339481985E+01  0.00000000000E+00 0.  1.
          1    1    1    2  502    0  0.13566400699E+02 -0.18461862976E+02  0.58161604930E+02  0.62511278187E+02  0.00000000000E+00 0. -1.
         -1    1    1    2    0  501 -0.13566400699E+02  0.18461862976E+02  0.38378485380E+02  0.44696708521E+02  0.00000000000E+00 0.  1.
</event>
<event>
 4    1  0.6718357E+001  0.2352265E+02  0.7546771E-02  0.1486037E+00
          2   -1    0    0  502    0  0.00000000000E+00  0.00000000000E+00  0.11695838442E+04  0.11695838442E+04  0.00000000000E+00 0. -1.
         -2   -1    0    0    0  501 -0.00000000000E+00 -0.00000000000E+00 -0.57048838665E+00  0.57048838665E+00  0.00000000000E+00 0.  1.
          1    1    1    2  502    0  0.88249191207E+01 -0.21804493363E+02  0.34275366067E+03  0.34355987401E+03  0.00000000000E+00 0.  1.
         -1    1    1    2    0  501 -0.88249191207E+01  0.21804493363E+02  0.82625969516E+03  0.82659445860E+03  0.00000000000E+00 0. -1.
</event>
<event>
 4    1  0.6718357E+001  0.2054875E+02  0.7546771E-02  0.1525806E+00
          2   -1    0    0  502    0  0.00000000000E+00  0.00000000000E+00  0.71953475768E+01  0.71953475768E+01  0.00000000000E+00 0. -1.
         -2   -1    0    0    0  501 -0.00000000000E+00 -0.00000000000E+00 -0.11052428298E+03  0.11052428298E+03  0.00000000000E+00 0.  1.
          1    1    1    2  502    0  0.41605696679E+01 -0.20123137738E+02 -0.11353412300E+02  0.23476605019E+02  0.00000000000E+00 0. -1.
         -1    1    1    2    0  501 -0.41605696679E+01  0.20123137738E+02 -0.91975523099E+02  0.94243025533E+02  0.00000000000E+00 0.  1.
</event>
<event>
 4    1  0.6718357E+001  0.2489189E+02  0.7546771E-02  0.1470016E+00
          2   -1    0    0  502    0  0.00000000000E+00  0.00000000000E+00  0.12638629176E+03  0.12638629176E+03  0.00000000000E+00 0. -1.
         -2   -1    0    0    0  501 -0.00000000000E+00 -0.00000000000E+00 -0.15536141781E+02  0.15536141781E+02  0.00000000000E+00 0.  1.
          1    1    1    2  502    0  0.12123805619E+02 -0.21739814047E+02  0.11413221204E+03  0.11681510177E+03  0.00000000000E+00 0. -1.
         -1    1    1    2    0  501 -0.12123805619E+02  0.21739814047E+02 -0.32820620540E+01  0.25107331774E+02  0.00000000000E+00 0.  1.
</event>
<event>
 4    1  0.6718357E+001  0.2025919E+02  0.7546771E-02  0.1530110E+00
          2   -1    0    0  502    0  0.00000000000E+00  0.00000000000E+00  0.29693882057E+03  0.29693882057E+03  0.00000000000E+00 0. -1.
         -2   -1    0    0    0  501 -0.00000000000E+00 -0.00000000000E+00 -0.16370705627E+01  0.16370705627E+01  0.00000000000E+00 0.  1.
          1    1    1    2  502    0 -0.19868007520E+02  0.39619282536E+01  0.20655345962E+03  0.20754461274E+03  0.00000000000E+00 0. -1.
         -1    1    1    2    0  501  0.19868007520E+02 -0.39619282536E+01  0.88748290391E+02  0.91031278392E+02  0.00000000000E+00 0.  1.
</event>
<event>
 4    1  0.6718357E+001  0.2450869E+02  0.7546771E-02  0.1474375E+00
          2   -1    0    0  502    0  0.00000000000E+00  0.00000000000E+00  0.36307548461E+03  0.36307548461E+03  0.00000000000E+00 0.  1.
         -2   -1    0    0    0  501 -0.00000000000E+00 -0.00000000000E+00 -0.16950739498E+01  0.16950739498E+01  0.00000000000E+00 0. -1.
          1    1    1    2  502    0 -0.14695274622E+02  0.19614408805E+02  0.15244178856E+03  0.15439940100E+03  0.00000000000E+00 0. -1.
         -1    1    1    2    0  501  0.14695274622E+02 -0.19614408805E+02  0.20893862210E+03  0.21037115756E+03  0.00000000000E+00 0.  1.
</event>
<event>
 4    1  0.6718357E+001  0.3792879E+02  0.7546771E-02  0.1361070E+00
          2   -1    0    0  502    0  0.00000000000E+00  0.00000000000E+00  0.28271839533E+03  0.28271839533E+03  0.00000000000E+00 0.  1.
         -2   -1    0    0    0  501 -0.00000000000E+00 -0.00000000000E+00 -0.10489746447E+02  0.10489746447E+02  0.00000000000E+00 0. -1.
          1    1    1    2  502    0 -0.12877160231E+02 -0.35675928499E+02  0.30914916997E+02  0.48931842626E+02  0.00000000000E+00 0. -1.
         -1    1    1    2    0  501  0.12877160231E+02  0.35675928499E+02  0.24131373189E+03  0.24427629915E+03  0.00000000000E+00 0.  1.
</event>
<event>
 4    1  0.6718357E+001  0.2211200E+02  0.7546771E-02  0.1503960E+00
          2   -1    0    0  502    0  0.00000000000E+00  0.00000000000E+00  0.36695649582E+02  0.36695649582E+02  0.00000000000E+00 0.  1.
         -2   -1    0    0    0  501 -0.00000000000E+00 -0.00000000000E+00 -0.26629537809E+02  0.26629537809E+02  0.00000000000E+00 0. -1.
          1    1    1    2  502    0 -0.31194068320E+01 -0.21890865206E+02  0.27413948425E+02  0.35220239163E+02  0.00000000000E+00 0.  1.
         -1    1    1    2    0  501  0.31194068320E+01  0.21890865206E+02 -0.17347836652E+02  0.28104948228E+02  0.00000000000E+00 0. -1.
</event>
<event>
 4    1  0.6718357E+001  0.3315839E+02  0.7546771E-02  0.1393994E+00
          2   -1    0    0  502    0  0.00000000000E+00  0.00000000000E+00  0.55558792019E+03  0.55558792019E+03  0.00000000000E+00 0.  1.
         -2   -1    0    0    0  501 -0.00000000000E+00 -0.00000000000E+00 -0.26825968767E+01  0.26825968767E+01  0.00000000000E+00 0. -1.
          1    1    1    2  502    0  0.97521453113E+01  0.31691871847E+02  0.41941290553E+03  0.42072159964E+03  0.00000000000E+00 0. -1.
         -1    1    1    2    0  501 -0.97521453113E+01 -0.31691871847E+02  0.13349241778E+03  0.13754891742E+03  0.00000000000E+00 0.  1.
</event>
<event>
 4    1  0.6718357E+001  0.2110411E+02  0.7546771E-02  0.1517783E+00
          2   -1    0    0  502    0  0.00000000000E+00  0.00000000000E+00  0.14056055646E+03  0.14056055646E+03  0.00000000000E+00 0. -1.
         -2   -1    0    0    0  501 -0.00000000000E+00 -0.00000000000E+00 -0.32306391352E+01  0.32306391352E+01  0.00000000000E+00 0.  1.
          1    1    1    2  502    0  0.12639034008E+02  0.16900840615E+02  0.78626026268E+02  0.81409063383E+02  0.00000000000E+00 0.  1.
         -1    1    1    2    0  501 -0.12639034008E+02 -0.16900840615E+02  0.58703891054E+02  0.62382132209E+02  0.00000000000E+00 0. -1.
</event>
<event>
 4    1  0.6718357E+001  0.2753315E+02  0.7546771E-02  0.1442325E+00
          2   -1    0    0  502    0  0.00000000000E+00  0.00000000000E+00  0.22170344095E+03  0.22170344095E+03  0.00000000000E+00 0. -1.
         -2   -1    0    0    0  501 -0.00000000000E+00 -0.00000000000E+00 -0.34295654275E+01  0.34295654275E+01  0.00000000000E+00 0.  1.
          1    1    1    2  502    0 -0.25667338185E+02 -0.99630240468E+01  0.10298315949E+03  0.10660021218E+03  0.00000000000E+00 0. -1.
         -1    1    1    2    0  501  0.25667338185E+02  0.99630240468E+01  0.11529071603E+03  0.11853279420E+03  0.00000000000E+00 0.  1.
</event>
<event>
 4    1  0.6718357E+001  0.2629802E+02  0.7546771E-02  0.1454790E+00
          2   -1    0    0  502    0  0.00000000000E+00  0.00000000000E+00  0.57804614546E+02  0.57804614546E+02  0.00000000000E+00 0.  1.
         -2   -1    0    0    0  501 -0.00000000000E+00 -0.00000000000E+00 -0.12046484394E+02  0.12046484394E+02  0.00000000000E+00 0. -1.
          1    1    1    2  502    0 -0.15954659108E+02 -0.20905377613E+02  0.25765569528E+02  0.36816443792E+02  0.00000000000E+00 0.  1.
         -1    1    1    2    0  501  0.15954659108E+02  0.20905377613E+02  0.19992560625E+02  0.33034655148E+02  0.00000000000E+00 0. -1.
</event>
<event>
 4    1  0.6718357E+001  0.6886140E+02  0.7546771E-02  0.1232373E+00
          2   -1    0    0  502    0  0.00000000000E+00  0.00000000000E+00  0.11676973191E+03  0.11676973191E+03  0.00000000000E+00 0.  1.
         -2   -1    0    0    0  501 -0.00000000000E+00 -0.00000000000E+00 -0.40614258958E+02  0.40614258958E+02  0.00000000000E+00 0. -1.
          1    1    1    2  502    0  0.53666348783E+02 -0.43148763109E+02  0.38979936691E+02  0.79128554984E+02  0.00000000000E+00 0.  1.
         -1    1    1    2    0  501 -0.53666348783E+02  0.43148763109E+02  0.37175536266E+02  0.78255435889E+02  0.00000000000E+00 0. -1.
</event>
<event>
 4    1  0.6718357E+001  0.2789166E+02  0.7546771E-02  0.1438851E+00
          2   -1    0    0  502    0  0.00000000000E+00  0.00000000000E+00  0.31891593259E+03  0.31891593259E+03  0.00000000000E+00 0.  1.
         -2   -1    0    0    0  501 -0.00000000000E+00 -0.00000000000E+00 -0.24424205004E+01  0.24424205004E+01  0.00000000000E+00 0. -1.
          1    1    1    2  502    0 -0.75675381894E+01 -0.26845425538E+02  0.15253072056E+03  0.15505987624E+03  0.00000000000E+00 0. -1.
         -1    1    1    2    0  501  0.75675381894E+01  0.26845425538E+02  0.16394279153E+03  0.16629847685E+03  0.00000000000E+00 0.  1.
</event>
<event>
 4    1  0.6718357E+001  0.3275881E+02  0.7546771E-02  0.1397043E+00
          2   -1    0    0  502    0  0.00000000000E+00  0.00000000000E+00  0.44496331801E+02  0.44496331801E+02  0.00000000000E+00 0. -1.
         -2   -1    0    0    0  501 -0.00000000000E+00 -0.00000000000E+00 -0.39573939639E+02  0.39573939639E+02  0.00000000000E+00 0.  1.
          1    1    1    2  502    0 -0.31222649026E+02  0.99139060062E+01  0.28731363325E+02  0.43573278314E+02  0.00000000000E+00 0. -1.
         -1    1    1    2    0  501  0.31222649026E+02 -0.99139060062E+01 -0.23808971163E+02  0.40496993127E+02  0.00000000000E+00 0.  1.
</event>
<event>
 4    1  0.6718357E+001  0.2722838E+02  0.7546771E-02  0.1445327E+00
          2   -1    0    0  502    0  0.00000000000E+00  0.00000000000E+00  0.28644825666E+04  0.28644825666E+04  0.00000000000E+00 0.  1.
         -2   -1    0    0    0  501 -0.00000000000E+00 -0.00000000000E+00 -0.28424351416E+00  0.28424351416E+00  0.00000000000E+00 0. -1.
          1    1    1    2  502    0 -0.22179038587E+02 -0.15794778886E+02  0.18604834500E+04  0.18606826845E+04  0.00000000000E+00 0. -1.
         -1    1    1    2    0  501  0.22179038587E+02  0.15794778886E+02  0.10037148731E+04  0.10040841256E+04  0.00000000000E+00 0.  1.
</event>
<event>
 4    1  0.6718357E+001  0.2062402E+02  0.7546771E-02  0.1524701E+00
          2   -1    0    0  502    0  0.00000000000E+00  0.00000000000E+00  0.24260801794E+02  0.24260801794E+02  0.00000000000E+00 0.  1.
         -2   -1    0    0    0  501 -0.00000000000E+00 -0.00000000000E+00 -0.21486603792E+02  0.21486603792E+02  0.00000000000E+00 0. -1.
          1    1    1    2  502    0  0.17702917873E+02 -0.10580973003E+02  0.11199643424E+02  0.23468751644E+02  0.00000000000E+00 0.  1.
         -1    1    1    2    0  501 -0.17702917873E+02  0.10580973003E+02 -0.84254454215E+01  0.22278653942E+02  0.00000000000E+00 0. -1.
</event>
<event>
 4    1  0.6718357E+001  0.2893924E+02  0.7546771E-02  0.1429044E+00
          2   -1    0    0  502    0  0.00000000000E+00  0.00000000000E+00  0.79236525296E+03  0.79236525296E+03  0.00000000000E+00 0.  1.
         -2   -1    0    0    0  501 -0.00000000000E+00 -0.00000000000E+00 -0.10618969787E+01  0.10618969787E+01  0.00000000000E+00 0. -1.
          1    1    1    2  502    0 -0.23914413725E+02  0.16296641118E+02  0.36853721120E+03  0.36967168641E+03  0.00000000000E+00 0. -1.
         -1    1    1    2    0  501  0.23914413725E+02 -0.16296641118E+02  0.42276614478E+03  0.42375546352E+03  0.00000000000E+00 0.  1.
</event>
<event>
 4    1  0.6718357E+001  0.3758981E+02  0.7546771E-02  0.1363219E+00
          2   -1    0    0  502    0  0.00000000000E+00  0.00000000000E+00  0.10293306986E+04  0.10293306986E+04  0.00000000000E+00 0.  1.
         -2   -1    0    0    0  501 -0.00000000000E+00 -0.00000000000E+00 -0.32359627412E+01  0.32359627412E+01  0.00000000000E+00 0. -1.
          1    1    1    2  502    0  0.34332001181E+02 -0.15307096482E+02  0.90480715744E+03  0.90558764659E+03  0.00000000000E+00 0.  1.
         -1    1    1    2    0  501 -0.34332001181E+02  0.15307096482E+02  0.12128757844E+03  0.12697901476E+03  0.00000000000E+00 0. -1.
</event>
<event>
 4    1  0.6718357E+001  0.2109748E+02  0.7546771E-02  0.1517878E+00
          2   -1    0    0  502    0  0.00000000000E+00  0.00000000000E+00  0.10496999756E+02  0.10496999756E+02  0.00000000000E+00 0.  1.
         -2   -1    0    0    0  501 -0.00000000000E+00 -0.00000000000E+00 -0.97510319831E+02  0.97510319831E+02  0.00000000000E+00 0. -1.
          1    1    1    2  502    0 -0.86422049095E+01  0.19246194760E+02 -0.84104484179E+02  0.86710253012E+02  0.00000000000E+00 0. -1.
         -1    1    1    2    0  501  0.86422049095E+01 -0.19246194760E+02 -0.29088358962E+01  0.21297066575E+02  0.00000000000E+00 0.  1.
</event>
<event>
 4    1  0.6718357E+001  0.2554033E+02  0.7546771E-02  0.1462849E+00
          2   -1    0    0  502    0  0.00000000000E+00  0.00000000000E+00  0.19229109833E+01  0.19229109833E+01  0.00000000000E+00 0.  1.
         -2   -1    0    0    0  501 -0.00000000000E+00 -0.00000000000E+00 -0.34846729306E+03  0.34846729306E+03  0.00000000000E+00 0. -1.
          1    1    1    2  502    0 -0.19264052941E+02 -0.16769165030E+02 -0.20179675081E+03  0.20340658118E+03  0.00000000000E+00 0. -1.
         -1    1    1    2    0  501  0.19264052941E+02  0.16769165030E+02 -0.14474763127E+03  0.14698362286E+03  0.00000000000E+00 0.  1.
</event>
<event>
 4    1  0.6718357E+001  0.4614853E+02  0.7546771E-02  0.1315794E+00
          2   -1    0    0  502    0  0.00000000000E+00  0.00000000000E+00  0.39834383650E+03  0.39834383650E+03  0.00000000000E+00 0. -1.
         -2   -1    0    0    0  501 -0.00000000000E+00 -0.00000000000E+00 -0.10385416806E+02  0.10385416806E+02  0.00000000000E+00 0.  1.
          1    1    1    2  502    0  0.28662881751E+02  0.36168019183E+02  0.51625519970E+02  0.69245077183E+02  0.00000000000E+00 0.  1.
         -1    1    1    2    0  501 -0.28662881751E+02 -0.36168019183E+02  0.33633289972E+03  0.33948417612E+03  0.00000000000E+00 0. -1.
</event>
<event>
 4    1  0.6718357E+001  0.2790042E+02  0.7546771E-02  0.1438767E+00
          2   -1    0    0  502    0  0.00000000000E+00  0.00000000000E+00  0.24234328024E+02  0.24234328024E+02  0.00000000000E+00 0.  1.
         -2   -1    0    0    0  501 -0.00000000000E+00 -0.00000000000E+00 -0.35488360719E+02  0.35488360719E+02  0.00000000000E+00 0. -1.
          1    1    1    2  502    0  0.24393611841E+02  0.13541986656E+02 -0.14825232722E+02  0.31594639205E+02  0.00000000000E+00 0. -1.
         -1    1    1    2    0  501 -0.24393611841E+02 -0.13541986656E+02  0.35712000269E+01  0.28128049539E+02  0.00000000000E+00 0.  1.
</event>
<event>
 4    1  0.6718357E+001  0.2132124E+02  0.7546771E-02  0.1514727E+00
          2   -1    0    0  502    0  0.00000000000E+00  0.00000000000E+00  0.10838215473E+04  0.10838215473E+04  0.00000000000E+00 0.  1.
         -2   -1    0    0    0  501 -0.00000000000E+00 -0.00000000000E+00 -0.41947105167E+00  0.41947105167E+00  0.00000000000E+00 0. -1.
          1    1    1    2  502    0  0.19892658065E+02 -0.76731688451E+01  0.53685025110E+03  0.53727347550E+03  0.00000000000E+00 0. -1.
         -1    1    1    2    0  501 -0.19892658065E+02  0.76731688451E+01  0.54655182515E+03  0.54696754286E+03  0.00000000000E+00 0.  1.
</event>
<event>
 4    1  0.6718357E+001  0.3006502E+02  0.7546771E-02  0.1419032E+00
          2   -1    0    0  502    0  0.00000000000E+00  0.00000000000E+00  0.80217321290E+03  0.80217321290E+03  0.00000000000E+00 0. -1.
         -2   -1    0    0    0  501 -0.00000000000E+00 -0.00000000000E+00 -0.21054251315E+01  0.21054251315E+01  0.00000000000E+00 0.  1.
          1    1    1    2  502    0  0.29335588001E+02 -0.65824320880E+01  0.67419780936E+03  0.67486783245E+03  0.00000000000E+00 0. -1.
         -1    1    1    2    0  501 -0.29335588001E+02  0.65824320880E+01  0.12586997841E+03  0.12941080558E+03  0.00000000000E+00 0.  1.
</event>
<event>
 4    1  0.6718357E+001  0.3764353E+02  0.7546771E-02  0.1362877E+00
          2   -1    0    0  502    0  0.00000000000E+00  0.00000000000E+00  0.91002499290E+02  0.91002499290E+02  0.00000000000E+00 0.  1.
         -2   -1    0    0    0  501 -0.00000000000E+00 -0.00000000000E+00 -0.20315493305E+02  0.20315493305E+02  0.00000000000E+00 0. -1.
          1    1    1    2  502    0  0.35326665462E+02 -0.13002392541E+02  0.62240184730E+02  0.72738408696E+02  0.00000000000E+00 0.  1.
         -1    1    1    2    0  501 -0.35326665462E+02  0.13002392541E+02  0.84468212554E+01  0.38579583899E+02  0.00000000000E+00 0. -1.
</event>
<event>
 4    1  0.6718357E+001  0.2793419E+02  0.7546771E-02  0.1438443E+00
          2   -1    0    0  502    0  0.00000000000E+00  0.00000000000E+00  0.39122330285E+02  0.39122330285E+02  0.00000000000E+00 0.  1.
         -2   -1    0    0    0  501 -0.00000000000E+00 -0.00000000000E+00 -0.25309921464E+02  0.25309921464E+02  0.00000000000E+00 0. -1.
          1    1    1    2  502    0 -0.25274611989E+02  0.11895929201E+02 -0.79252756833E+01  0.29036686061E+02  0.00000000000E+00 0.  1.
         -1    1    1    2    0  501  0.25274611989E+02 -0.11895929201E+02  0.21737684504E+02  0.35395565688E+02  0.00000000000E+00 0. -1.
</event>
<event>
 4    1  0.6718357E+001  0.2707453E+02  0.7546771E-02  0.1446861E+00
          2   -1    0    0  502    0  0.00000000000E+00  0.00000000000E+00  0.84308154774E+03  0.84308154774E+03  0.00000000000E+00 0.  1.
         -2   -1    0    0    0  501 -0.00000000000E+00 -0.00000000000E+00 -0.99015879161E+00  0.99015879161E+00  0.00000000000E+00 0. -1.
          1    1    1    2  502    0  0.19046855333E+02 -0.19241818070E+02  0.27369960494E+03  0.27503545954E+03  0.00000000000E+00 0. -1.
         -1    1    1    2    0  501 -0.19046855333E+02  0.19241818070E+02  0.56839178400E+03  0.56903624698E+03  0.00000000000E+00 0.  1.
</event>
<event>
 4    1  0.6718357E+001  0.2416263E+02  0.7546771E-02  0.1478393E+00
          2   -1    0    0  502    0  0.00000000000E+00  0.00000000000E+00  0.36075018408E+01  0.36075018408E+01  0.00000000000E+00 0. -1.
         -2   -1    0    0    0  501 -0.00000000000E+00 -0.00000000000E+00 -0.19495077837E+03  0.19495077837E+03  0.00000000000E+00 0.  1.
          1    1    1    2  502    0 -0.24107549335E+02 -0.16305026458E+01 -0.13658738101E+03  0.13870812927E+03  0.00000000000E+00 0.  1.
         -1    1    1    2    0  501  0.24107549335E+02  0.16305026458E+01 -0.54755895520E+02  0.59850150944E+02  0.00000000000E+00 0. -1.
</event>
<event>
 4    1  0.6718357E+001  0.2090409E+02  0.7546771E-02  0.1520639E+00
          2   -1    0    0  502    0  0.00000000000E+00  0.00000000000E+00  0.90977049343E+02  0.90977049343E+02  0.00000000000E+00 0. -1.
         -2   -1    0    0    0  501 -0.00000000000E+00 -0.00000000000E+00 -0.83681759875E+01  0.83681759875E+01  0.00000000000E+00 0.  1.
          1    1    1    2  502    0 -0.20207285907E+02 -0.53522398966E+01  0.88831710652E+01  0.22713247320E+02  0.00000000000E+00 0.  1.
         -1    1    1    2    0  501  0.20207285907E+02  0.53522398966E+01  0.73725702290E+02  0.76631978011E+02  0.00000000000E+00 0. -1.
</event>
<event>
 4    1  0.6718357E+001  0.2519715E+02  0.7546771E-02  0.1466610E+00
          2   -1    0    0  502    0  0.00000000000E+00  0.00000000000E+00  0.12416389269E+03  0.12416389269E+03  0.00000000000E+00 0. -1.
         -2   -1    0    0    0  501 -0.00000000000E+00 -0.00000000000E+00 -0.85005292203E+01  0.85005292203E+01  0.00000000000E+00 0.  1.
          1    1    1    2  502    0  0.20010084262E+02 -0.15313161196E+02  0.99703234107E+02  0.10283788830E+03  0.00000000000E+00 0. -1.
         -1    1    1    2    0  501 -0.20010084262E+02  0.15313161196E+02  0.15960129358E+02  0.29826533609E+02  0.00000000000E+00 0.  1.
</event>
<event>
 4    1  0.6718357E+001  0.2109335E+02  0.7546771E-02  0.1517936E+00
          2   -1    0    0  502    0  0.00000000000E+00  0.00000000000E+00  0.12022135887E+02  0.12022135887E+02  0.00000000000E+00 0.  1.
         -2   -1    0    0    0  501 -0.00000000000E+00 -0.00000000000E+00 -0.39462344013E+02  0.39462344013E+02  0.00000000000E+00 0. -1.
          1    1    1    2  502    0  0.15704826360E+02 -0.14081467133E+02 -0.20138388341E+02  0.29163058354E+02  0.00000000000E+00 0. -1.
         -1    1    1    2    0  501 -0.15704826360E+02  0.14081467133E+02 -0.73018197851E+01  0.22321421545E+02  0.00000000000E+00 0.  1.
</event>
<event>
 4    1  0.6718357E+001  0.2058947E+02  0.7546771E-02  0.1525208E+00
          2   -1    0    0  502    0  0.00000000000E+00  0.00000000000E+00  0.63855967517E+01  0.63855967517E+01  0.00000000000E+00 0. -1.
         -2   -1    0    0    0  501 -0.00000000000E+00 -0.00000000000E+00 -0.10415497733E+03  0.10415497733E+03  0.00000000000E+00 0.  1.
          1    1    1    2  502    0  0.10379967478E+02  0.17781517587E+02 -0.15602750237E+02  0.25833542295E+02  0.00000000000E+00 0. -1.
         -1    1    1    2    0  501 -0.10379967478E+02 -0.17781517587E+02 -0.82166630344E+02  0.84707031790E+02  0.00000000000E+00 0.  1.
</event>
<event>
 4    1  0.6718357E+001  0.2770324E+02  0.7546771E-02  0.1440669E+00
          2   -1    0    0  502    0  0.00000000000E+00  0.00000000000E+00  0.67952780715E+03  0.67952780715E+03  0.00000000000E+00 0.  1.
         -2   -1    0    0    0  501 -0.00000000000E+00 -0.00000000000E+00 -0.12162400309E+01  0.12162400309E+01  0.00000000000E+00 0. -1.
          1    1    1    2  502    0 -0.26698462498E+02  0.73933507398E+01  0.43009774985E+03  0.43098902998E+03  0.00000000000E+00 0.  1.
         -1    1    1    2    0  501  0.26698462498E+02 -0.73933507398E+01  0.24821381726E+03  0.24975501720E+03  0.00000000000E+00 0. -1.
</event>
<event>
 4    1  0.6718357E+001  0.2059854E+02  0.7546771E-02  0.1525075E+00
          2   -1    0    0  502    0  0.00000000000E+00  0.00000000000E+00  0.11792664427E+04  0.11792664427E+04  0.00000000000E+00 0. -1.
         -2   -1    0    0    0  501 -0.00000000000E+00 -0.00000000000E+00 -0.47750272184E+00  0.47750272184E+00  0.00000000000E+00 0.  1.
          1    1    1    2  502    0 -0.12789521306E+02  0.16147071867E+02  0.29653212989E+03  0.29724670536E+03  0.00000000000E+00 0.  1.
         -1    1    1    2    0  501  0.12789521306E+02 -0.16147071867E+02  0.88225681010E+03  0.88249724008E+03  0.00000000000E+00 0. -1.
</event>
<event>
 4    1  0.6718357E+001  0.2048007E+02  0.7546771E-02  0.1526819E+00
          2   -1    0    0  502    0  0.00000000000E+00  0.00000000000E+00  0.16801006699E+02  0.16801006699E+02  0.00000000000E+00 0.  1.
         -2   -1    0    0    0  501 -0.00000000000E+00 -0.00000000000E+00 -0.39985987866E+02  0.39985987866E+02  0.00000000000E+00 0. -1.
          1    1    1    2  502    0  0.66758855560E+01 -0.19361447763E+02  0.58102515286E+01  0.21288309709E+02  0.00000000000E+00 0.  1.
         -1    1    1    2    0  501 -0.66758855560E+01  0.19361447763E+02 -0.28995232696E+02  0.35498684856E+02  0.00000000000E+00 0. -1.
</event>
<event>
 4    1  0.6718357E+001  0.2744503E+02  0.7546771E-02  0.1443188E+00
          2   -1    0    0  502    0  0.00000000000E+00  0.00000000000E+00  0.14717441293E+02  0.14717441293E+02  0.00000000000E+00 0.  1.
         -2   -1    0    0    0  501 -0.00000000000E+00 -0.00000000000E+00 -0.58780128021E+02  0.58780128021E+02  0.00000000000E+00 0. -1.
          1    1    1    2  502    0  0.74366910399E+01  0.26418276723E+02 -0.35245988345E+02  0.44671125048E+02  0.00000000000E+00 0. -1.
         -1    1    1    2    0  501 -0.74366910399E+01 -0.26418276723E+02 -0.88166983827E+01  0.28826444266E+02  0.00000000000E+00 0.  1.
</event>
<event>
 4    1  0.6718357E+001  0.2983614E+02  0.7546771E-02  0.1421026E+00
          2   -1    0    0  502    0  0.00000000000E+00  0.00000000000E+00  0.10502935241E+04  0.10502935241E+04  0.00000000000E+00 0. -1.
         -2   -1    0    0    0  501 -0.00000000000E+00 -0.00000000000E+00 -0.94336915763E+00  0.94336915763E+00  0.00000000000E+00 0.  1.
          1    1    1    2  502    0 -0.29659091602E+02  0.32455678605E+01  0.35717515357E+03  0.35841914814E+03  0.00000000000E+00 0.  1.
         -1    1    1    2    0  501  0.29659091602E+02 -0.32455678605E+01  0.69217500135E+03  0.69281774509E+03  0.00000000000E+00 0. -1.
</event>
<event>
 4    1  0.6718357E+001  0.2233128E+02  0.7546771E-02  0.1501070E+00
          2   -1    0    0  502    0  0.00000000000E+00  0.00000000000E+00  0.17920564074E+03  0.17920564074E+03  0.00000000000E+00 0.  1.
         -2   -1    0    0    0  501 -0.00000000000E+00 -0.00000000000E+00 -0.55683792852E+01  0.55683792852E+01  0.00000000000E+00 0. -1.
          1    1    1    2  502    0  0.11557678768E+02 -0.19107747681E+02  0.15216290375E+03  0.15379283220E+03  0.00000000000E+00 0.  1.
         -1    1    1    2    0  501 -0.11557678768E+02  0.19107747681E+02  0.21474357707E+02  0.30981187823E+02  0.00000000000E+00 0. -1.
</event>
<event>
 4    1  0.6718357E+001  0.4264857E+02  0.7546771E-02  0.1333627E+00
          2   -1    0    0  502    0  0.00000000000E+00  0.00000000000E+00  0.13387471705E+04  0.13387471705E+04  0.00000000000E+00 0. -1.
         -2   -1    0    0    0  501 -0.00000000000E+00 -0.00000000000E+00 -0.16781362395E+01  0.16781362395E+01  0.00000000000E+00 0.  1.
          1    1    1    2  502    0 -0.38133425712E+02 -0.19098225089E+02  0.96096271474E+03  0.96190864404E+03  0.00000000000E+00 0. -1.
         -1    1    1    2    0  501  0.38133425712E+02  0.19098225089E+02  0.37610631953E+03  0.37851666271E+03  0.00000000000E+00 0.  1.
</event>
<event>
 4    1  0.6718357E+001  0.2652541E+02  0.7546771E-02  0.1452435E+00
          2   -1    0    0  502    0  0.00000000000E+00  0.00000000000E+00  0.82581713580E+02  0.82581713580E+02  0.00000000000E+00 0. -1.
         -2   -1    0    0    0  501 -0.00000000000E+00 -0.00000000000E+00 -0.93434891432E+01  0.93434891432E+01  0.00000000000E+00 0.  1.
          1    1    1    2  502    0 -0.24491290071E+02 -0.10186959158E+02  0.50264160616E+02  0.56833821521E+02  0.00000000000E+00 0. -1.
         -1    1    1    2    0  501  0.24491290071E+02  0.10186959158E+02  0.22974063820E+02  0.35091381202E+02  0.00000000000E+00 0.  1.
</event>
<event>
 4    1  0.6718357E+001  0.3361187E+02  0.7546771E-02  0.1390594E+00
          2   -1    0    0  502    0  0.00000000000E+00  0.00000000000E+00  0.19754186234E+02  0.19754186234E+02  0.00000000000E+00 0.  1.
         -2   -1    0    0    0  501 -0.00000000000E+00 -0.00000000000E+00 -0.71295470613E+02  0.71295470613E+02  0.00000000000E+00 0. -1.
          1    1    1    2  502    0  0.31464675214E+02  0.11820836483E+02 -0.55218730426E+01  0.34062428618E+02  0.00000000000E+00 0.  1.
         -1    1    1    2    0  501 -0.31464675214E+02 -0.11820836483E+02 -0.46019411337E+02  0.56987228229E+02  0.00000000000E+00 0. -1.
</event>
<event>
 4    1  0.6718357E+001  0.3870044E+02  0.7546771E-02  0.1356274E+00
          2   -1    0    0  502    0  0.00000000000E+00  0.00000000000E+00  0.33216635371E+03  0.33216635371E+03  0.00000000000E+00 0. -1.
         -2   -1    0    0    0  501 -0.00000000000E+00 -0.00000000000E+00 -0.46898697622E+01  0.46898697622E+01  0.00000000000E+00 0.  1.
          1    1    1    2  502    0 -0.35149967683E+02 -0.16192719102E+02  0.13065814945E+03  0.13626913222E+03  0.00000000000E+00 0.  1.
         -1    1    1    2    0  501  0.35149967683E+02  0.16192719102E+02  0.19681833450E+03  0.20058709125E+03  0.00000000000E+00 0. -1.
</event>
<event>
 4    1  0.6718357E+001  0.2082939E+02  0.7546771E-02  0.1521715E+00
          2   -1    0    0  502    0  0.00000000000E+00  0.00000000000E+00  0.10750449659E+04  0.10750449659E+04  0.00000000000E+00 0. -1.
         -2   -1    0    0    0  501 -0.00000000000E+00 -0.00000000000E+00 -0.40611518345E+00  0.40611518345E+00  0.00000000000E+00 0.  1.
          1    1    1    2  502    0  0.14376814802E+02 -0.15072184293E+02  0.49480973674E+03  0.49524795720E+03  0.00000000000E+00 0.  1.
         -1    1    1    2    0  501 -0.14376814802E+02  0.15072184293E+02  0.57982911397E+03  0.58020312388E+03  0.00000000000E+00 0. -1.
</event>
<event>
 4    1  0.6718357E+001  0.2202379E+02  0.7546771E-02  0.1505134E+00
          2   -1    0    0  502    0  0.00000000000E+00  0.00000000000E+00  0.16974539184E+03  0.16974539184E+03  0.00000000000E+00 0.  1.
         -2   -1    0    0    0  501 -0.00000000000E+00 -0.00000000000E+00 -0.34235357136E+01  0.34235357136E+01  0.00000000000E+00 0. -1.
          1    1    1    2  502    0  0.91128924052E+01  0.20049999441E+02  0.11836758959E+03  0.12039905959E+03  0.00000000000E+00 0.  1.
         -1    1    1    2    0  501 -0.91128924052E+01 -0.20049999441E+02  0.47954266541E+02  0.52769867965E+02  0.00000000000E+00 0. -1.
</event>
<event>
 4    1  0.6718357E+001  0.2515688E+02  0.7546771E-02  0.1467056E+00
          2   -1    0    0  502    0  0.00000000000E+00  0.00000000000E+00  0.19411867264E+03  0.19411867264E+03  0.00000000000E+00 0.  1.
         -2   -1    0    0    0  501 -0.00000000000E+00 -0.00000000000E+00 -0.33332392903E+01  0.33332392903E+01  0.00000000000E+00 0. -1.
          1    1    1    2  502    0 -0.13466880692E+02  0.21248802865E+02  0.80779916279E+02  0.84606520864E+02  0.00000000000E+00 0. -1.
         -1    1    1    2    0  501  0.13466880692E+02 -0.21248802865E+02  0.11000551707E+03  0.11284539107E+03  0.00000000000E+00 0.  1.
</event>
<event>
 4    1  0.6718357E+001  0.6548482E+02  0.7546771E-02  0.1242255E+00
          2   -1    0    0  502    0  0.00000000000E+00  0.00000000000E+00  0.17256310250E+04  0.17256310250E+04  0.00000000000E+00 0. -1.
         -2   -1    0    0    0  501 -0.00000000000E+00 -0.00000000000E+00 -0.32268640696E+01  0.32268640696E+01  0.00000000000E+00 0.  1.
          1    1    1    2  502    0 -0.59186735031E+02 -0.28021288645E+02  0.12756685563E+04  0.12773482405E+04  0.00000000000E+00 0. -1.
         -1    1    1    2    0  501  0.59186735031E+02  0.28021288645E+02  0.44673560471E+03  0.45150964855E+03  0.00000000000E+00 0.  1.
</event>
<event>
 4    1  0.6718357E+001  0.2927840E+02  0.7546771E-02  0.1425972E+00
          2   -1    0    0  502    0  0.00000000000E+00  0.00000000000E+00  0.12084238839E+04  0.12084238839E+04  0.00000000000E+00 0.  1.
         -2   -1    0    0    0  501 -0.00000000000E+00 -0.00000000000E+00 -0.12750198815E+01  0.12750198815E+01  0.00000000000E+00 0. -1.
          1    1    1    2  502    0 -0.29150573665E+02  0.27329406152E+01  0.10064407809E+04  0.10068665604E+04  0.00000000000E+00 0.  1.
         -1    1    1    2    0  501  0.29150573665E+02 -0.27329406152E+01  0.20070808312E+03  0.20283234343E+03  0.00000000000E+00 0. -1.
</event>
<event>
 4    1  0.6718357E+001  0.3021666E+02  0.7546771E-02  0.1417723E+00
          2   -1    0    0  502    0  0.00000000000E+00  0.00000000000E+00  0.36326215715E+03  0.36326215715E+03  0.00000000000E+00 0.  1.
         -2   -1    0    0    0  501 -0.00000000000E+00 -0.00000000000E+00 -0.35575738082E+01  0.35575738082E+01  0.00000000000E+00 0. -1.
          1    1    1    2  502    0  0.28576548135E+02 -0.98197570446E+01  0.27921389816E+03  0.28084416971E+03  0.00000000000E+00 0.  1.
         -1    1    1    2    0  501 -0.28576548135E+02  0.98197570446E+01  0.80490685178E+02  0.85975561249E+02  0.00000000000E+00 0. -1.
</event>
<event>
 4    1  0.6718357E+001  0.2203432E+02  0.7546771E-02  0.1504994E+00
          2   -1    0    0  502    0  0.00000000000E+00  0.00000000000E+00  0.18658333930E+03  0.18658333930E+03  0.00000000000E+00 0. -1.
         -2   -1    0    0    0  501 -0.00000000000E+00 -0.00000000000E+00 -0.35379597700E+01  0.35379597700E+01  0.00000000000E+00 0.  1.
          1    1    1    2  502    0 -0.16963786611E+02 -0.14062047715E+02  0.14041339710E+03  0.14213174637E+03  0.00000000000E+00 0. -1.
         -1    1    1    2    0  501  0.16963786611E+02  0.14062047715E+02  0.42631982437E+02  0.47989552703E+02  0.00000000000E+00 0.  1.
</event>
<event>
 4    1  0.6718357E+001  0.2274912E+02  0.7546771E-02  0.1495673E+00
          2   -1    0    0  502    0  0.00000000000E+00  0.00000000000E+00  0.55047574393E+02  0.55047574393E+02  0.00000000000E+00 0. -1.
         -2   -1    0    0    0  501 -0.00000000000E+00 -0.00000000000E+00 -0.96709696482E+01  0.96709696482E+01  0.00000000000E+00 0.  1.
          1    1    1    2  502    0  0.88512757119E+01  0.20956555024E+02  0.28091219230E+02  0.36147460188E+02  0.00000000000E+00 0.  1.
         -1    1    1    2    0  501 -0.88512757119E+01 -0.20956555024E+02  0.17285385515E+02  0.28571083854E+02  0.00000000000E+00 0. -1.
</event>
<event>
 4    1  0.6718357E+001  0.2060200E+02  0.7546771E-02  0.1525024E+00
          2   -1    0    0  502    0  0.00000000000E+00  0.00000000000E+00  0.52146222183E+03  0.52146222183E+03  0.00000000000E+00 0.  1.
         -2   -1    0    0    0  501 -0.00000000000E+00 -0.00000000000E+00 -0.82940613688E+00  0.82940613688E+00  0.00000000000E+00 0. -1.
          1    1    1    2  502    0  0.18143513702E+02  0.97598755303E+01  0.22466296044E+03  0.22560560288E+03  0.00000000000E+00 0. -1.
         -1    1    1    2    0  501 -0.18143513702E+02 -0.97598755303E+01  0.29596985526E+03  0.29668602509E+03  0.00000000000E+00 0.  1.
</event>
<event>
 4    1  0.6718357E+001  0.2218149E+02  0.7546771E-02  0.1503040E+00
          2   -1    0    0  502    0  0.00000000000E+00  0.00000000000E+00  0.42291732158E+02  0.42291732158E+02  0.00000000000E+00 0.  1.
         -2   -1    0    0    0  501 -0.00000000000E+00 -0.00000000000E+00 -0.15930027401E+02  0.15930027401E+02  0.00000000000E+00 0. -1.
          1    1    1    2  502    0  0.90032369126E+01  0.20272159053E+02 -0.19368064447E+01  0.22265891556E+02  0.00000000000E+00 0. -1.
         -1    1    1    2    0  501 -0.90032369126E+01 -0.20272159053E+02  0.28298511202E+02  0.35955868003E+02  0.00000000000E+00 0.  1.
</event>
<event>
 4    1  0.6718357E+001  0.3408466E+02  0.7546771E-02  0.1387115E+00
          2   -1    0    0  502    0  0.00000000000E+00  0.00000000000E+00  0.36686982489E+04  0.36686982489E+04  0.00000000000E+00 0. -1.
         -2   -1    0    0    0  501 -0.00000000000E+00 -0.00000000000E+00 -0.36518336770E+00  0.36518336770E+00  0.00000000000E+00 0.  1.
          1    1    1    2  502    0  0.23044343968E+02  0.25114178675E+02  0.11655086051E+04  0.11660068921E+04  0.00000000000E+00 0. -1.
         -1    1    1    2    0  501 -0.23044343968E+02 -0.25114178675E+02  0.25028244605E+04  0.25030565403E+04  0.00000000000E+00 0.  1.
</event>
<event>
 4    1  0.6718357E+001  0.2150849E+02  0.7546771E-02  0.1512127E+00
          2   -1    0    0  502    0  0.00000000000E+00  0.00000000000E+00  0.16907223163E+02  0.16907223163E+02  0.00000000000E+00 0. -1.
         -2   -1    0    0    0  501 -0.00000000000E+00 -0.00000000000E+00 -0.27473957628E+02  0.27473957628E+02  0.00000000000E+00 0.  1.
          1    1    1    2  502    0 -0.20123005577E+02 -0.75947107922E+01 -0.38666367270E+01  0.21853280419E+02  0.00000000000E+00 0. -1.
         -1    1    1    2    0  501  0.20123005577E+02  0.75947107922E+01 -0.67000977375E+01  0.22527900372E+02  0.00000000000E+00 0.  1.
</event>
<event>
 4    1  0.6718357E+001  0.3832063E+02  0.7546771E-02  0.1358618E+00
          2   -1    0    0  502    0  0.00000000000E+00  0.00000000000E+00  0.64147572034E+00  0.64147572034E+00  0.00000000000E+00 0.  1.
         -2   -1    0    0    0  501 -0.00000000000E+00 -0.00000000000E+00 -0.23703652573E+04  0.23703652573E+04  0.00000000000E+00 0. -1.
          1    1    1    2  502    0 -0.27420099568E+02  0.26769553755E+02 -0.14042236131E+04  0.14047463923E+04  0.00000000000E+00 0. -1.
         -1    1    1    2    0  501  0.27420099568E+02 -0.26769553755E+02 -0.96550016842E+03  0.96626034074E+03  0.00000000000E+00 0.  1.
</event>
<event>
 4    1  0.6718357E+001  0.2047886E+02  0.7546771E-02  0.1526837E+00
          2   -1    0    0  502    0  0.00000000000E+00  0.00000000000E+00  0.75381134345E+03  0.75381134345E+03  0.00000000000E+00 0.  1.
         -2   -1    0    0    0  501 -0.00000000000E+00 -0.00000000000E+00 -0.57882394817E+00  0.57882394817E+00  0.00000000000E+00 0. -1.
          1    1    1    2  502    0  0.15967305730E+02 -0.12822973715E+02  0.45093959794E+03  0.45140436916E+03  0.00000000000E+00 0.  1.
         -1    1    1    2    0  501 -0.15967305730E+02  0.12822973715E+02  0.30229292156E+03  0.30298579824E+03  0.00000000000E+00 0. -1.
</event>
<event>
 4    1  0.6718357E+001  0.4478694E+02  0.7546771E-02  0.1322508E+00
          2   -1    0    0  502    0  0.00000000000E+00  0.00000000000E+00  0.98497828813E+03  0.98497828813E+03  0.00000000000E+00 0. -1.
         -2   -1    0    0    0  501 -0.00000000000E+00 -0.00000000000E+00 -0.32321598354E+01  0.32321598354E+01  0.00000000000E+00 0.  1.
          1    1    1    2  502    0 -0.16048951578E+02 -0.41812689696E+02  0.79140036767E+03  0.79266664608E+03  0.00000000000E+00 0.  1.
         -1    1    1    2    0  501  0.16048951578E+02  0.41812689696E+02  0.19034576062E+03  0.19554380188E+03  0.00000000000E+00 0. -1.
</event>
<event>
 4    1  0.6718357E+001  0.2239621E+02  0.7546771E-02  0.1500222E+00
          2   -1    0    0  502    0  0.00000000000E+00  0.00000000000E+00  0.12978709878E+04  0.12978709878E+04  0.00000000000E+00 0. -1.
         -2   -1    0    0    0  501 -0.00000000000E+00 -0.00000000000E+00 -0.58120020115E+00  0.58120020115E+00  0.00000000000E+00 0.  1.
          1    1    1    2  502    0  0.14816266502E+01 -0.22347143756E+02  0.27285235352E+03  0.27376997073E+03  0.00000000000E+00 0.  1.
         -1    1    1    2    0  501 -0.14816266502E+01  0.22347143756E+02  0.10244374341E+04  0.10246822173E+04  0.00000000000E+00 0. -1.
</event>
<event>
 4    1  0.6718357E+001  0.2396504E+02  0.7546771E-02  0.1480723E+00
          2   -1    0    0  502    0  0.00000000000E+00  0.00000000000E+00  0.17965111135E+03  0.17965111135E+03  0.00000000000E+00 0. -1.
         -2   -1    0    0    0  501 -0.00000000000E+00 -0.00000000000E+00 -0.32507273167E+01  0.32507273167E+01  0.00000000000E+00 0.  1.
          1    1    1    2  502    0 -0.61948863112E+01  0.23150517824E+02  0.99970254881E+02  0.10280260188E+03  0.00000000000E+00 0. -1.
         -1    1    1    2    0  501  0.61948863112E+01 -0.23150517824E+02  0.76430129156E+02  0.80099236792E+02  0.00000000000E+00 0.  1.
</event>
<event>
 4    1  0.6718357E+001  0.7460556E+02  0.7546771E-02  0.1216957E+00
          2   -1    0    0  502    0  0.00000000000E+00  0.00000000000E+00  0.11941362803E+03  0.11941362803E+03  0.00000000000E+00 0. -1.
         -2   -1    0    0    0  501 -0.00000000000E+00 -0.00000000000E+00 -0.47727079216E+02  0.47727079216E+02  0.00000000000E+00 0.  1.
          1    1    1    2  502    0 -0.69048996356E+02 -0.28252877056E+02  0.48622859731E+02  0.89051510084E+02  0.00000000000E+00 0.  1.
         -1    1    1    2    0  501  0.69048996356E+02  0.28252877056E+02  0.23063689087E+02  0.78089197166E+02  0.00000000000E+00 0. -1.
</event>
<event>
 4    1  0.6718357E+001  0.2045998E+02  0.7546771E-02  0.1527116E+00
          2   -1    0    0  502    0  0.00000000000E+00  0.00000000000E+00  0.72710461110E+01  0.72710461110E+01  0.00000000000E+00 0. -1.
         -2   -1    0    0    0  501 -0.00000000000E+00 -0.00000000000E+00 -0.61667096350E+02  0.61667096350E+02  0.00000000000E+00 0.  1.
          1    1    1    2  502    0  0.18753084666E+02 -0.81812337963E+01 -0.18315845578E+02  0.27460534776E+02  0.00000000000E+00 0. -1.
         -1    1    1    2    0  501 -0.18753084666E+02  0.81812337963E+01 -0.36080204661E+02  0.41477607685E+02  0.00000000000E+00 0.  1.
</event>
<event>
 4    1  0.6718357E+001  0.2217099E+02  0.7546771E-02  0.1503179E+00
          2   -1    0    0  502    0  0.00000000000E+00  0.00000000000E+00  0.14250603565E+04  0.14250603565E+04  0.00000000000E+00 0.  1.
         -2   -1    0    0    0  501 -0.00000000000E+00 -0.00000000000E+00 -0.42010462517E+00  0.42010462517E+00  0.00000000000E+00 0. -1.
          1    1    1    2  502    0  0.20848495763E+02 -0.75427427252E+01  0.10138113310E+04  0.10140537301E+04  0.00000000000E+00 0.  1.
         -1    1    1    2    0  501 -0.20848495763E+02  0.75427427252E+01  0.41082892092E+03  0.41142673104E+03  0.00000000000E+00 0. -1.
</event>
<event>
 4    1  0.6718357E+001  0.3421183E+02  0.7546771E-02  0.1386191E+00
          2   -1    0    0  502    0  0.00000000000E+00  0.00000000000E+00  0.17915081718E+04  0.17915081718E+04  0.00000000000E+00 0.  1.
         -2   -1    0    0    0  501 -0.00000000000E+00 -0.00000000000E+00 -0.70421651896E+00  0.70421651896E+00  0.00000000000E+00 0. -1.
          1    1    1    2  502    0 -0.24730172961E+02 -0.23640380249E+02  0.65452205518E+03  0.65541557027E+03  0.00000000000E+00 0. -1.
         -1    1    1    2    0  501  0.24730172961E+02  0.23640380249E+02  0.11362819001E+04  0.11367968180E+04  0.00000000000E+00 0.  1.
</event>
<event>
 4    1  0.6718357E+001  0.2446552E+02  0.7546771E-02  0.1474872E+00
          2   -1    0    0  502    0  0.00000000000E+00  0.00000000000E+00  0.13244905233E+02  0.13244905233E+02  0.00000000000E+00 0.  1.
         -2   -1    0    0    0  501 -0.00000000000E+00 -0.00000000000E+00 -0.48469328921E+02  0.48469328921E+02  0.00000000000E+00 0. -1.
          1    1    1    2  502    0 -0.11338557201E+02 -0.21679456599E+02 -0.25636232948E+02  0.35436960332E+02  0.00000000000E+00 0. -1.
         -1    1    1    2    0  501  0.11338557201E+02  0.21679456599E+02 -0.95881907405E+01  0.26277273822E+02  0.00000000000E+00 0.  1.
</event>
<event>
 4    1  0.6718357E+001  0.2053454E+02  0.7546771E-02  0.1526015E+00
          2   -1    0    0  502    0  0.00000000000E+00  0.00000000000E+00  0.44582389954E+03  0.44582389954E+03  0.00000000000E+00 0.  1.
         -2   -1    0    0    0  501 -0.00000000000E+00 -0.00000000000E+00 -0.10473472387E+01  0.10473472387E+01  0.00000000000E+00 0. -1.
          1    1    1    2  502    0 -0.13207992013E+01 -0.20492018251E+02  0.15282065144E+03  0.15419409467E+03  0.00000000000E+00 0. -1.
         -1    1    1    2    0  501  0.13207992013E+01  0.20492018251E+02  0.29195590086E+03  0.29267715211E+03  0.00000000000E+00 0.  1.
</event>
<event>
 4    1  0.6718357E+001  0.2481092E+02  0.7546771E-02  0.1470930E+00
          2   -1    0    0  502    0  0.00000000000E+00  0.00000000000E+00  0.56865131927E+02  0.56865131927E+02  0.00000000000E+00 0.  1.
         -2   -1    0    0    0  501 -0.00000000000E+00 -0.00000000000E+00 -0.16268586042E+02  0.16268586042E+02  0.00000000000E+00 0. -1.
          1    1    1    2  502    0  0.24792893849E+02  0.94554729217E+00 -0.85334820547E+00  0.24825588578E+02  0.00000000000E+00 0. -1.
         -1    1    1    2    0  501 -0.24792893849E+02 -0.94554729217E+00  0.41449894090E+02  0.48308129391E+02  0.00000000000E+00 0.  1.
</event>
<event>
 4    1  0.6718357E+001  0.2344928E+02  0.7546771E-02  0.1486932E+00
          2   -1    0    0  502    0  0.00000000000E+00  0.00000000000E+00  0.83677346761E+03  0.83677346761E+03  0.00000000000E+00 0. -1.
         -2   -1    0    0    0  501 -0.00000000000E+00 -0.00000000000E+00 -0.66931343446E+00  0.66931343446E+00  0.00000000000E+00 0.  1.
          1    1    1    2  502    0  0.23404547581E+02 -0.14476947353E+01  0.47454593493E+03  0.47512494465E+03  0.00000000000E+00 0.  1.
         -1    1    1    2    0  501 -0.23404547581E+02  0.14476947353E+01  0.36155821924E+03  0.36231783639E+03  0.00000000000E+00 0. -1.
</event>
<event>
 4    1  0.6718357E+001  0.2086931E+02  0.7546771E-02  0.1521139E+00
          2   -1    0    0  502    0  0.00000000000E+00  0.00000000000E+00  0.53656281026E+02  0.53656281026E+02  0.00000000000E+00 0.  1.
         -2   -1    0    0    0  501 -0.00000000000E+00 -0.00000000000E+00 -0.94777952641E+01  0.94777952641E+01  0.00000000000E+00 0. -1.
          1    1    1    2  502    0  0.10141102603E+02  0.18239685628E+02  0.34050487921E+02  0.39936998153E+02  0.00000000000E+00 0.  1.
         -1    1    1    2    0  501 -0.10141102603E+02 -0.18239685628E+02  0.10127997841E+02  0.23197078137E+02  0.00000000000E+00 0. -1.
</event>
<event>
 4    1  0.6718357E+001  0.5985735E+02  0.7546771E-02  0.1260318E+00
          2   -1    0    0  502    0  0.00000000000E+00  0.00000000000E+00  0.16349077968E+03  0.16349077968E+03  0.00000000000E+00 0. -1.
         -2   -1    0    0    0  501 -0.00000000000E+00 -0.00000000000E+00 -0.58724710726E+02  0.58724710726E+02  0.00000000000E+00 0.  1.
          1    1    1    2  502    0 -0.35979203454E+02  0.47837218125E+02  0.14034906974E+03  0.15258035226E+03  0.00000000000E+00 0. -1.
         -1    1    1    2    0  501  0.35979203454E+02 -0.47837218125E+02 -0.35583000788E+02  0.69635138143E+02  0.00000000000E+00 0.  1.
</event>
<event>
 4    1  0.6718357E+001  0.2408110E+02  0.7546771E-02  0.1479351E+00
          2   -1    0    0  502    0  0.00000000000E+00  0.00000000000E+00  0.45667986155E+00  0.45667986155E+00  0.00000000000E+00 0. -1.
         -2   -1    0    0    0  501 -0.00000000000E+00 -0.00000000000E+00 -0.15573689932E+04  0.15573689932E+04  0.00000000000E+00 0.  1.
          1    1    1    2  502    0 -0.18726014752E+02  0.15140530093E+02 -0.44375883594E+03  0.44441175024E+03  0.00000000000E+00 0. -1.
         -1    1    1    2    0  501  0.18726014752E+02 -0.15140530093E+02 -0.11131534774E+04  0.11134139228E+04  0.00000000000E+00 0.  1.
</event>
<event>
 4    1  0.6718357E+001  0.2285215E+02  0.7546771E-02  0.1494363E+00
          2   -1    0    0  502    0  0.00000000000E+00  0.00000000000E+00  0.39297353342E+02  0.39297353342E+02  0.00000000000E+00 0.  1.
         -2   -1    0    0    0  501 -0.00000000000E+00 -0.00000000000E+00 -0.13478310438E+02  0.13478310438E+02  0.00000000000E+00 0. -1.
          1    1    1    2  502    0  0.89405046337E+01  0.21030645057E+02  0.97818008371E+01  0.24857680548E+02  0.00000000000E+00 0.  1.
         -1    1    1    2    0  501 -0.89405046337E+01 -0.21030645057E+02  0.16037242066E+02  0.27917983232E+02  0.00000000000E+00 0. -1.
</event>
<event>
 4    1  0.6718357E+001  0.2349185E+02  0.7546771E-02  0.1486413E+00
          2   -1    0    0  502    0  0.00000000000E+00  0.00000000000E+00  0.46880318854E+03  0.46880318854E+03  0.00000000000E+00 0. -1.
         -2   -1    0    0    0  501 -0.00000000000E+00 -0.00000000000E+00 -0.13084498272E+01  0.13084498272E+01  0.00000000000E+00 0.  1.
          1    1    1    2  502    0  0.22199483497E+02 -0.76844012361E+01  0.30819830413E+03  0.30909231916E+03  0.00000000000E+00 0. -1.
         -1    1    1    2    0  501 -0.22199483497E+02  0.76844012361E+01  0.15929643458E+03  0.16101931921E+03  0.00000000000E+00 0.  1.
</event>
<event>
 4    1  0.6718357E+001  0.6309547E+02  0.7546771E-02  0.1249663E+00
          2   -1    0    0  502    0  0.00000000000E+00  0.00000000000E+00  0.67101757028E+03  0.67101757028E+03  0.00000000000E+00 0. -1.
         -2   -1    0    0    0  501 -0.00000000000E+00 -0.00000000000E+00 -0.71581560996E+01  0.71581560996E+01  0.00000000000E+00 0.  1.
          1    1    1    2  502    0 -0.21182454759E+02 -0.59433504390E+02  0.47222279486E+03  0.47641935919E+03  0.00000000000E+00 0. -1.
         -1    1    1    2    0  501  0.21182454759E+02  0.59433504390E+02  0.19163661932E+03  0.20175636718E+03  0.00000000000E+00 0.  1.
</event>
<event>
 4    1  0.6718357E+001  0.3535047E+02  0.7546771E-02  0.1378116E+00
          2   -1    0    0  502    0  0.00000000000E+00  0.00000000000E+00  0.10137670094E+04  0.10137670094E+04  0.00000000000E+00 0.  1.
         -2   -1    0    0    0  501 -0.00000000000E+00 -0.00000000000E+00 -0.13060704160E+01  0.13060704160E+01  0.00000000000E+00 0. -1.
          1    1    1    2  502    0  0.27678182839E+02  0.21990310783E+02  0.38592417482E+03  0.38753983574E+03  0.00000000000E+00 0.  1.
         -1    1    1    2    0  501 -0.27678182839E+02 -0.21990310783E+02  0.62653676421E+03  0.62753324412E+03  0.00000000000E+00 0. -1.
</event>
<event>
 4    1  0.6718357E+001  0.3701013E+02  0.7546771E-02  0.1366957E+00
          2   -1    0    0  502    0  0.00000000000E+00  0.00000000000E+00  0.22284054435E+04  0.22284054435E+04  0.00000000000E+00 0.  1.
         -2   -1    0    0    0  501 -0.00000000000E+00 -0.00000000000E+00 -0.69727021525E+00  0.69727021525E+00  0.00000000000E+00 0. -1.
          1    1    1    2  502    0  0.34420396916E+02 -0.13600967341E+02  0.73026065041E+03  0.73119789905E+03  0.00000000000E+00 0. -1.
         -1    1    1    2    0  501 -0.34420396916E+02  0.13600967341E+02  0.14974475229E+04  0.14979048147E+04  0.00000000000E+00 0.  1.
</event>
<event>
 4    1  0.6718357E+001  0.2761268E+02  0.7546771E-02  0.1441549E+00
          2   -1    0    0  502    0  0.00000000000E+00  0.00000000000E+00  0.29841127488E+03  0.29841127488E+03  0.00000000000E+00 0.  1.
         -2   -1    0    0    0  501 -0.00000000000E+00 -0.00000000000E+00 -0.25618938248E+01  0.25618938248E+01  0.00000000000E+00 0. -1.
          1    1    1    2  502    0  0.73926704010E+01 -0.26604671062E+02  0.15569434155E+03  0.15812396431E+03  0.00000000000E+00 0. -1.
         -1    1    1    2    0  501 -0.73926704010E+01  0.26604671062E+02  0.14015503950E+03  0.14284920439E+03  0.00000000000E+00 0.  1.
</event>
<event>
 4    1  0.6718357E+001  0.1542609E+03  0.7546771E-02  0.1093328E+00
          2   -1    0    0  502    0  0.00000000000E+00  0.00000000000E+00  0.15243116380E+04  0.15243116380E+04  0.00000000000E+00 0. -1.
         -2   -1    0    0    0  501 -0.00000000000E+00 -0.00000000000E+00 -0.35815159393E+02  0.35815159393E+02  0.00000000000E+00 0.  1.
          1    1    1    2  502    0  0.13373145883E+03  0.76891550100E+02  0.15836086639E+03  0.22107595428E+03  0.00000000000E+00 0.  1.
         -1    1    1    2    0  501 -0.13373145883E+03 -0.76891550100E+02  0.13301356122E+04  0.13390508431E+04  0.00000000000E+00 0. -1.
</event>
<event>
 4    1  0.6718357E+001  0.2053403E+02  0.7546771E-02  0.1526023E+00
          2   -1    0    0  502    0  0.00000000000E+00  0.00000000000E+00  0.40901215018E+01  0.40901215018E+01  0.00000000000E+00 0.  1.
         -2   -1    0    0    0  501 -0.00000000000E+00 -0.00000000000E+00 -0.12830565211E+03  0.12830565211E+03  0.00000000000E+00 0. -1.
          1    1    1    2  502    0 -0.27937248146E+01 -0.20343090436E+02 -0.32760638053E+02  0.38664009524E+02  0.00000000000E+00 0.  1.
         -1    1    1    2    0  501  0.27937248146E+01  0.20343090436E+02 -0.91454892559E+02  0.93731764092E+02  0.00000000000E+00 0. -1.
</event>
<event>
 4    1  0.6718357E+001  0.2569263E+02  0.7546771E-02  0.1461202E+00
          2   -1    0    0  502    0  0.00000000000E+00  0.00000000000E+00  0.41377360834E+02  0.41377360834E+02  0.00000000000E+00 0. -1.
         -2   -1    0    0    0  501 -0.00000000000E+00 -0.00000000000E+00 -0.17250123501E+02  0.17250123501E+02  0.00000000000E+00 0.  1.
          1    1    1    2  502    0  0.25583283707E+02 -0.23678257438E+01  0.20100602982E+02  0.32621239159E+02  0.00000000000E+00 0.  1.
         -1    1    1    2    0  501 -0.25583283707E+02  0.23678257438E+01  0.40266343506E+01  0.26006245177E+02  0.00000000000E+00 0. -1.
</event>
<event>
 4    1  0.6718357E+001  0.2728814E+02  0.7546771E-02  0.1444735E+00
          2   -1    0    0  502    0  0.00000000000E+00  0.00000000000E+00  0.14290843805E+04  0.14290843805E+04  0.00000000000E+00 0.  1.
         -2   -1    0    0    0  501 -0.00000000000E+00 -0.00000000000E+00 -0.53984233331E+00  0.53984233331E+00  0.00000000000E+00 0. -1.
          1    1    1    2  502    0  0.39719728649E+01  0.26997515029E+02  0.58094977159E+03  0.58159030210E+03  0.00000000000E+00 0. -1.
         -1    1    1    2    0  501 -0.39719728649E+01 -0.26997515029E+02  0.84759476653E+03  0.84803392069E+03  0.00000000000E+00 0.  1.
</event>
<event>
 4    1  0.6718357E+001  0.4655741E+02  0.7546771E-02  0.1313830E+00
          2   -1    0    0  502    0  0.00000000000E+00  0.00000000000E+00  0.89167066037E+02  0.89167066037E+02  0.00000000000E+00 0.  1.
         -2   -1    0    0    0  501 -0.00000000000E+00 -0.00000000000E+00 -0.27707670683E+02  0.27707670683E+02  0.00000000000E+00 0. -1.
          1    1    1    2  502    0  0.63097858028E+00  0.46553133051E+02  0.51195256078E+02  0.69199324966E+02  0.00000000000E+00 0.  1.
         -1    1    1    2    0  501 -0.63097858028E+00 -0.46553133051E+02  0.10264139276E+02  0.47675411754E+02  0.00000000000E+00 0. -1.
</event>
<event>
 4    1  0.6718357E+001  0.2196410E+02  0.7546771E-02  0.1505932E+00
          2   -1    0    0  502    0  0.00000000000E+00  0.00000000000E+00  0.19764908626E+04  0.19764908626E+04  0.00000000000E+00 0. -1.
         -2   -1    0    0    0  501 -0.00000000000E+00 -0.00000000000E+00 -0.24422439919E+00  0.24422439919E+00  0.00000000000E+00 0.  1.
          1    1    1    2  502    0  0.17097432199E+02 -0.13787654389E+02  0.10121683671E+04  0.10124066500E+04  0.00000000000E+00 0.  1.
         -1    1    1    2    0  501 -0.17097432199E+02  0.13787654389E+02  0.96407827112E+03  0.96432843702E+03  0.00000000000E+00 0. -1.
</event>
<event>
 4    1  0.6718357E+001  0.3054674E+02  0.7546771E-02  0.1414904E+00
          2   -1    0    0  502    0  0.00000000000E+00  0.00000000000E+00  0.32861642283E+03  0.32861642283E+03  0.00000000000E+00 0. -1.
         -2   -1    0    0    0  501 -0.00000000000E+00 -0.00000000000E+00 -0.62008004149E+01  0.62008004149E+01  0.00000000000E+00 0.  1.
          1    1    1    2  502    0 -0.18969924775E+02 -0.23942538247E+02  0.28446384874E+03  0.28609925624E+03  0.00000000000E+00 0. -1.
         -1    1    1    2    0  501  0.18969924775E+02  0.23942538247E+02  0.37951773679E+02  0.48717967005E+02  0.00000000000E+00 0.  1.
</event>
<event>
 4    1  0.6718357E+001  0.2222504E+02  0.7546771E-02  0.1502465E+00
          2   -1    0    0  502    0  0.00000000000E+00  0.00000000000E+00  0.73003381435E+00  0.73003381435E+00  0.00000000000E+00 0.  1.
         -2   -1    0    0    0  501 -0.00000000000E+00 -0.00000000000E+00 -0.70498854107E+03  0.70498854107E+03  0.00000000000E+00 0. -1.
          1    1    1    2  502    0 -0.19805187409E+02 -0.10084996064E+02 -0.28134131301E+03  0.28221780064E+03  0.00000000000E+00 0.  1.
         -1    1    1    2    0  501  0.19805187409E+02  0.10084996064E+02 -0.42291719425E+03  0.42350077425E+03  0.00000000000E+00 0. -1.
</event>
<event>
 4    1  0.6718357E+001  0.2785093E+02  0.7546771E-02  0.1439243E+00
          2   -1    0    0  502    0  0.00000000000E+00  0.00000000000E+00  0.80021264717E+03  0.80021264717E+03  0.00000000000E+00 0.  1.
         -2   -1    0    0    0  501 -0.00000000000E+00 -0.00000000000E+00 -0.99412990319E+00  0.99412990319E+00  0.00000000000E+00 0. -1.
          1    1    1    2  502    0  0.11788544934E+02 -0.25233000762E+02  0.46287583554E+03  0.46371296428E+03  0.00000000000E+00 0. -1.
         -1    1    1    2    0  501 -0.11788544934E+02  0.25233000762E+02  0.33634268173E+03  0.33749381279E+03  0.00000000000E+00 0.  1.
</event>
<event>
 4    1  0.6718357E+001  0.3077245E+02  0.7546771E-02  0.1413000E+00
          2   -1    0    0  502    0  0.00000000000E+00  0.00000000000E+00  0.25754468228E+04  0.25754468228E+04  0.00000000000E+00 0.  1.
         -2   -1    0    0    0  501 -0.00000000000E+00 -0.00000000000E+00 -0.38529205760E+00  0.38529205760E+00  0.00000000000E+00 0. -1.
          1    1    1    2  502    0 -0.25685370321E+02  0.16947128678E+02  0.15628791849E+04  0.15631821039E+04  0.00000000000E+00 0.  1.
         -1    1    1    2    0  501  0.25685370321E+02 -0.16947128678E+02  0.10121823459E+04  0.10126500110E+04  0.00000000000E+00 0. -1.
</event>
<event>
 4    1  0.6718357E+001  0.3310406E+02  0.7546771E-02  0.1394406E+00
          2   -1    0    0  502    0  0.00000000000E+00  0.00000000000E+00  0.21838919105E+04  0.21838919105E+04  0.00000000000E+00 0.  1.
         -2   -1    0    0    0  501 -0.00000000000E+00 -0.00000000000E+00 -0.88193589539E+00  0.88193589539E+00  0.00000000000E+00 0. -1.
          1    1    1    2  502    0  0.26101977109E+01 -0.33000999184E+02  0.18086828399E+04  0.18089857640E+04  0.00000000000E+00 0.  1.
         -1    1    1    2    0  501 -0.26101977109E+01  0.33000999184E+02  0.37432713479E+03  0.37578808246E+03  0.00000000000E+00 0. -1.
</event>
<event>
 4    1  0.6718357E+001  0.2161532E+02  0.7546771E-02  0.1510658E+00
          2   -1    0    0  502    0  0.00000000000E+00  0.00000000000E+00  0.12337363183E+04  0.12337363183E+04  0.00000000000E+00 0.  1.
         -2   -1    0    0    0  501 -0.00000000000E+00 -0.00000000000E+00 -0.21072431535E+01  0.21072431535E+01  0.00000000000E+00 0. -1.
          1    1    1    2  502    0  0.17660145840E+02 -0.12463603675E+02  0.11754634412E+04  0.11756621640E+04  0.00000000000E+00 0.  1.
         -1    1    1    2    0  501 -0.17660145840E+02  0.12463603675E+02  0.56165633936E+02  0.60181397484E+02  0.00000000000E+00 0. -1.
</event>
<event>
 4    1  0.6718357E+001  0.2069209E+02  0.7546771E-02  0.1523707E+00
          2   -1    0    0  502    0  0.00000000000E+00  0.00000000000E+00  0.18920273559E+02  0.18920273559E+02  0.00000000000E+00 0.  1.
         -2   -1    0    0    0  501 -0.00000000000E+00 -0.00000000000E+00 -0.22724383447E+02  0.22724383447E+02  0.00000000000E+00 0. -1.
          1    1    1    2  502    0 -0.14249082347E+02 -0.15004211107E+02 -0.32451501828E+01  0.20945016076E+02  0.00000000000E+00 0. -1.
         -1    1    1    2    0  501  0.14249082347E+02  0.15004211107E+02 -0.55895970473E+00  0.20699640930E+02  0.00000000000E+00 0.  1.
</event>
<event>
 4    1  0.6718357E+001  0.2333452E+02  0.7546771E-02  0.1488340E+00
          2   -1    0    0  502    0  0.00000000000E+00  0.00000000000E+00  0.36276712503E+01  0.36276712503E+01  0.00000000000E+00 0.  1.
         -2   -1    0    0    0  501 -0.00000000000E+00 -0.00000000000E+00 -0.15025573617E+03  0.15025573617E+03  0.00000000000E+00 0. -1.
          1    1    1    2  502    0  0.29150408748E+01 -0.23151720243E+02 -0.70806786875E+02  0.74552670516E+02  0.00000000000E+00 0.  1.
         -1    1    1    2    0  501 -0.29150408748E+01  0.23151720243E+02 -0.75821278049E+02  0.79330736908E+02  0.00000000000E+00 0. -1.
</event>
<event>
 4    1  0.6718357E+001  0.2071082E+02  0.7546771E-02  0.1523434E+00
          2   -1    0    0  502    0  0.00000000000E+00  0.00000000000E+00  0.15554357108E+04  0.15554357108E+04  0.00000000000E+00 0.  1.
         -2   -1    0    0    0  501 -0.00000000000E+00 -0.00000000000E+00 -0.83521471729E+00  0.83521471729E+00  0.00000000000E+00 0. -1.
          1    1    1    2  502    0  0.18356435853E+02  0.95905840565E+01  0.14045217035E+03  0.14197094843E+03  0.00000000000E+00 0. -1.
         -1    1    1    2    0  501 -0.18356435853E+02 -0.95905840565E+01  0.14141483257E+04  0.14142999770E+04  0.00000000000E+00 0.  1.
</event>
<event>
 4    1  0.6718357E+001  0.2147914E+02  0.7546771E-02  0.1512533E+00
          2   -1    0    0  502    0  0.00000000000E+00  0.00000000000E+00  0.65356556999E+03  0.65356556999E+03  0.00000000000E+00 0.  1.
         -2   -1    0    0    0  501 -0.00000000000E+00 -0.00000000000E+00 -0.82439982480E+00  0.82439982480E+00  0.00000000000E+00 0. -1.
          1    1    1    2  502    0  0.16631423482E+02 -0.13592241172E+02  0.45041945565E+03  0.45093130219E+03  0.00000000000E+00 0.  1.
         -1    1    1    2    0  501 -0.16631423482E+02  0.13592241172E+02  0.20232171451E+03  0.20345866762E+03  0.00000000000E+00 0. -1.
</event>
<event>
 4    1  0.6718357E+001  0.2878103E+02  0.7546771E-02  0.1430493E+00
          2   -1    0    0  502    0  0.00000000000E+00  0.00000000000E+00  0.91532524532E+03  0.91532524532E+03  0.00000000000E+00 0.  1.
         -2   -1    0    0    0  501 -0.00000000000E+00 -0.00000000000E+00 -0.97446356630E+00  0.97446356630E+00  0.00000000000E+00 0. -1.
          1    1    1    2  502    0  0.24197115945E+02  0.15583557769E+02  0.33483292491E+03  0.33606760524E+03  0.00000000000E+00 0. -1.
         -1    1    1    2    0  501 -0.24197115945E+02 -0.15583557769E+02  0.57951785685E+03  0.58023210364E+03  0.00000000000E+00 0.  1.
</event>
<event>
 4    1  0.6718357E+001  0.2604235E+02  0.7546771E-02  0.1457472E+00
          2   -1    0    0  502    0  0.00000000000E+00  0.00000000000E+00  0.22953026492E+03  0.22953026492E+03  0.00000000000E+00 0.  1.
         -2   -1    0    0    0  501 -0.00000000000E+00 -0.00000000000E+00 -0.39671166325E+01  0.39671166325E+01  0.00000000000E+00 0. -1.
          1    1    1    2  502    0  0.25664120492E+02  0.44223185610E+01  0.17175875061E+03  0.17372182475E+03  0.00000000000E+00 0.  1.
         -1    1    1    2    0  501 -0.25664120492E+02 -0.44223185610E+01  0.53804397678E+02  0.59775556806E+02  0.00000000000E+00 0. -1.
</event>
<event>
 4    1  0.6718357E+001  0.3544812E+02  0.7546771E-02  0.1377440E+00
          2   -1    0    0  502    0  0.00000000000E+00  0.00000000000E+00  0.23839123839E+03  0.23839123839E+03  0.00000000000E+00 0. -1.
         -2   -1    0    0    0  501 -0.00000000000E+00 -0.00000000000E+00 -0.11304291159E+02  0.11304291159E+02  0.00000000000E+00 0.  1.
          1    1    1    2  502    0  0.30999215577E+02 -0.17193549847E+02  0.22335072802E+02  0.41897792302E+02  0.00000000000E+00 0.  1.
         -1    1    1    2    0  501 -0.30999215577E+02  0.17193549847E+02  0.20475187443E+03  0.20779773725E+03  0.00000000000E+00 0. -1.
</event>
<event>
 4    1  0.6718357E+001  0.2321973E+02  0.7546771E-02  0.1489757E+00
          2   -1    0    0  502    0  0.00000000000E+00  0.00000000000E+00  0.34995842987E+01  0.34995842987E+01  0.00000000000E+00 0. -1.
         -2   -1    0    0    0  501 -0.00000000000E+00 -0.00000000000E+00 -0.16552753892E+03  0.16552753892E+03  0.00000000000E+00 0.  1.
          1    1    1    2  502    0  0.14764155631E+02 -0.17921370493E+02 -0.58772017226E+02  0.63192608909E+02  0.00000000000E+00 0. -1.
         -1    1    1    2    0  501 -0.14764155631E+02  0.17921370493E+02 -0.10325593739E+03  0.10583451431E+03  0.00000000000E+00 0.  1.
</event>
<event>
 4    1  0.6718357E+001  0.2691338E+02  0.7546771E-02  0.1448480E+00
          2   -1    0    0  502    0  0.00000000000E+00  0.00000000000E+00  0.95208767181E+02  0.95208767181E+02  0.00000000000E+00 0. -1.
         -2   -1    0    0    0  501 -0.00000000000E+00 -0.00000000000E+00 -0.78405994668E+01  0.78405994668E+01  0.00000000000E+00 0.  1.
          1    1    1    2  502    0  0.19665126240E+02  0.18374243749E+02  0.34805898697E+02  0.43997506832E+02  0.00000000000E+00 0.  1.
         -1    1    1    2    0  501 -0.19665126240E+02 -0.18374243749E+02  0.52562269017E+02  0.59051859815E+02  0.00000000000E+00 0. -1.
</event>
<event>
 4    1  0.6718357E+001  0.2184415E+02  0.7546771E-02  0.1507546E+00
          2   -1    0    0  502    0  0.00000000000E+00  0.00000000000E+00  0.72812561380E+02  0.72812561380E+02  0.00000000000E+00 0. -1.
         -2   -1    0    0    0  501 -0.00000000000E+00 -0.00000000000E+00 -0.30692030085E+02  0.30692030085E+02  0.00000000000E+00 0.  1.
          1    1    1    2  502    0 -0.19889259306E+02 -0.90324002692E+01 -0.24835591629E+02  0.33075270247E+02  0.00000000000E+00 0.  1.
         -1    1    1    2    0  501  0.19889259306E+02  0.90324002692E+01  0.66956122923E+02  0.70429321218E+02  0.00000000000E+00 0. -1.
</event>
<event>
 4    1  0.6718357E+001  0.2442657E+02  0.7546771E-02  0.1475322E+00
          2   -1    0    0  502    0  0.00000000000E+00  0.00000000000E+00  0.68452387528E+03  0.68452387528E+03  0.00000000000E+00 0.  1.
         -2   -1    0    0    0  501 -0.00000000000E+00 -0.00000000000E+00 -0.20295283638E+01  0.20295283638E+01  0.00000000000E+00 0. -1.
          1    1    1    2  502    0 -0.16617737227E+02  0.17902744640E+02  0.81960397845E+02  0.85522887411E+02  0.00000000000E+00 0. -1.
         -1    1    1    2    0  501  0.16617737227E+02 -0.17902744640E+02  0.60053394907E+03  0.60103051623E+03  0.00000000000E+00 0.  1.
</event>
<event>
 4    1  0.6718357E+001  0.3258745E+02  0.7546771E-02  0.1398367E+00
          2   -1    0    0  502    0  0.00000000000E+00  0.00000000000E+00  0.40104893676E+03  0.40104893676E+03  0.00000000000E+00 0. -1.
         -2   -1    0    0    0  501 -0.00000000000E+00 -0.00000000000E+00 -0.26915719861E+01  0.26915719861E+01  0.00000000000E+00 0.  1.
          1    1    1    2  502    0  0.32401655562E+02 -0.34748533487E+01  0.17346785053E+03  0.17650222961E+03  0.00000000000E+00 0.  1.
         -1    1    1    2    0  501 -0.32401655562E+02  0.34748533487E+01  0.22488951425E+03  0.22723827914E+03  0.00000000000E+00 0. -1.
</event>
<event>
 4    1  0.6718357E+001  0.2067906E+02  0.7546771E-02  0.1523897E+00
          2   -1    0    0  502    0  0.00000000000E+00  0.00000000000E+00  0.27539530572E+01  0.27539530572E+01  0.00000000000E+00 0. -1.
         -2   -1    0    0    0  501 -0.00000000000E+00 -0.00000000000E+00 -0.16155914534E+03  0.16155914534E+03  0.00000000000E+00 0.  1.
          1    1    1    2  502    0  0.71337984313E+01 -0.19409596953E+02 -0.63201069267E+02  0.66498110427E+02  0.00000000000E+00 0.  1.
         -1    1    1    2    0  501 -0.71337984313E+01  0.19409596953E+02 -0.95604123015E+02  0.97814987969E+02  0.00000000000E+00 0. -1.
</event>
<event>
 4    1  0.6718357E+001  0.4070165E+02  0.7546771E-02  0.1344422E+00
          2   -1    0    0  502    0  0.00000000000E+00  0.00000000000E+00  0.55402575552E+03  0.55402575552E+03  0.00000000000E+00 0. -1.
         -2   -1    0    0    0  501 -0.00000000000E+00 -0.00000000000E+00 -0.29940006092E+01  0.29940006092E+01  0.00000000000E+00 0.  1.
          1    1    1    2  502    0  0.36563756847E+02 -0.17880609258E+02  0.28549361657E+03  0.28838035579E+03  0.00000000000E+00 0.  1.
         -1    1    1    2    0  501 -0.36563756847E+02  0.17880609258E+02  0.26553813834E+03  0.26863940035E+03  0.00000000000E+00 0. -1.
</event>
<event>
 4    1  0.6718357E+001  0.2220226E+02  0.7546771E-02  0.1502766E+00
          2   -1    0    0  502    0  0.00000000000E+00  0.00000000000E+00  0.69012289486E+03  0.69012289486E+03  0.00000000000E+00 0.  1.
         -2   -1    0    0    0  501 -0.00000000000E+00 -0.00000000000E+00 -0.98645730156E+00  0.98645730156E+00  0.00000000000E+00 0. -1.
          1    1    1    2  502    0  0.17890101475E+02  0.13148557621E+02  0.52607981251E+03  0.52654810742E+03  0.00000000000E+00 0.  1.
         -1    1    1    2    0  501 -0.17890101475E+02 -0.13148557621E+02  0.16305662504E+03  0.16456124473E+03  0.00000000000E+00 0. -1.
</event>
<event>
 4    1  0.6718357E+001  0.2269000E+02  0.7546771E-02  0.1496428E+00
          2   -1    0    0  502    0  0.00000000000E+00  0.00000000000E+00  0.13767307092E+03  0.13767307092E+03  0.00000000000E+00 0. -1.
         -2   -1    0    0    0  501 -0.00000000000E+00 -0.00000000000E+00 -0.39190843877E+01  0.39190843877E+01  0.00000000000E+00 0.  1.
          1    1    1    2  502    0  0.13474584011E+02  0.18255734656E+02  0.51724554288E+02  0.56482437787E+02  0.00000000000E+00 0. -1.
         -1    1    1    2    0  501 -0.13474584011E+02 -0.18255734656E+02  0.82029432249E+02  0.85109717525E+02  0.00000000000E+00 0.  1.
</event>
<event>
 4    1  0.6718357E+001  0.3388008E+02  0.7546771E-02  0.1388612E+00
          2   -1    0    0  502    0  0.00000000000E+00  0.00000000000E+00  0.12346926970E+04  0.12346926970E+04  0.00000000000E+00 0.  1.
         -2   -1    0    0    0  501 -0.00000000000E+00 -0.00000000000E+00 -0.29789573711E+01  0.29789573711E+01  0.00000000000E+00 0. -1.
          1    1    1    2  502    0 -0.32451161552E+02  0.97356041331E+01  0.10258853821E+03  0.10803827121E+03  0.00000000000E+00 0. -1.
         -1    1    1    2    0  501  0.32451161552E+02 -0.97356041331E+01  0.11291252015E+04  0.11296333832E+04  0.00000000000E+00 0.  1.
</event>
<event>
 4    1  0.6718357E+001  0.2159397E+02  0.7546771E-02  0.1510951E+00
          2   -1    0    0  502    0  0.00000000000E+00  0.00000000000E+00  0.57609789013E+03  0.57609789013E+03  0.00000000000E+00 0.  1.
         -2   -1    0    0    0  501 -0.00000000000E+00 -0.00000000000E+00 -0.19374379603E+01  0.19374379603E+01  0.00000000000E+00 0. -1.
          1    1    1    2  502    0 -0.60091302614E+01  0.20741018086E+02  0.50761160263E+03  0.50807070236E+03  0.00000000000E+00 0.  1.
         -1    1    1    2    0  501  0.60091302614E+01 -0.20741018086E+02  0.66548849539E+02  0.69964625724E+02  0.00000000000E+00 0. -1.
</event>
<event>
 4    1  0.6718357E+001  0.2063085E+02  0.7546771E-02  0.1524601E+00
          2   -1    0    0  502    0  0.00000000000E+00  0.00000000000E+00  0.47543149921E+02  0.47543149921E+02  0.00000000000E+00 0. -1.
         -2   -1    0    0    0  501 -0.00000000000E+00 -0.00000000000E+00 -0.92267462542E+01  0.92267462542E+01  0.00000000000E+00 0.  1.
          1    1    1    2  502    0  0.19502336787E+02  0.67298502523E+01  0.24051495441E+02  0.31687638876E+02  0.00000000000E+00 0. -1.
         -1    1    1    2    0  501 -0.19502336787E+02 -0.67298502523E+01  0.14264908226E+02  0.25082257300E+02  0.00000000000E+00 0.  1.
</event>
<event>
 4    1  0.6718357E+001  0.2844421E+02  0.7546771E-02  0.1433616E+00
          2   -1    0    0  502    0  0.00000000000E+00  0.00000000000E+00  0.67314043080E+02  0.67314043080E+02  0.00000000000E+00 0. -1.
         -2   -1    0    0    0  501 -0.00000000000E+00 -0.00000000000E+00 -0.12137965607E+02  0.12137965607E+02  0.00000000000E+00 0.  1.
          1    1    1    2  502    0 -0.28082899794E+02  0.45192420807E+01  0.23661365030E+02  0.36999094650E+02  0.00000000000E+00 0.  1.
         -1    1    1    2    0  501  0.28082899794E+02 -0.45192420807E+01  0.31514712443E+02  0.42452914037E+02  0.00000000000E+00 0. -1.
</event>
<event>
 4    1  0.6718357E+001  0.2641246E+02  0.7546771E-02  0.1453601E+00
          2   -1    0    0  502    0  0.00000000000E+00  0.00000000000E+00  0.55383783868E+03  0.55383783868E+03  0.00000000000E+00 0.  1.
         -2   -1    0    0    0  501 -0.00000000000E+00 -0.00000000000E+00 -0.14031268082E+01  0.14031268082E+01  0.00000000000E+00 0. -1.
          1    1    1    2  502    0  0.15693939043E+01 -0.26365788398E+02  0.18742827167E+03  0.18928014903E+03  0.00000000000E+00 0.  1.
         -1    1    1    2    0  501 -0.15693939043E+01  0.26365788398E+02  0.36500644020E+03  0.36596081646E+03  0.00000000000E+00 0. -1.
</event>
<event>
 4    1  0.6718357E+001  0.2114910E+02  0.7546771E-02  0.1517147E+00
          2   -1    0    0  502    0  0.00000000000E+00  0.00000000000E+00  0.11836082206E+02  0.11836082206E+02  0.00000000000E+00 0.  1.
         -2   -1    0    0    0  501 -0.00000000000E+00 -0.00000000000E+00 -0.37849175109E+02  0.37849175109E+02  0.00000000000E+00 0. -1.
          1    1    1    2  502    0 -0.10277049444E+02  0.18484222499E+02 -0.12023333243E+02  0.24327859933E+02  0.00000000000E+00 0.  1.
         -1    1    1    2    0  501  0.10277049444E+02 -0.18484222499E+02 -0.13989759660E+02  0.25357397382E+02  0.00000000000E+00 0. -1.
</event>
<event>
 4    1  0.6718357E+001  0.2488915E+02  0.7546771E-02  0.1470047E+00
          2   -1    0    0  502    0  0.00000000000E+00  0.00000000000E+00  0.15147881319E+04  0.15147881319E+04  0.00000000000E+00 0. -1.
         -2   -1    0    0    0  501 -0.00000000000E+00 -0.00000000000E+00 -0.40907851721E+00  0.40907851721E+00  0.00000000000E+00 0.  1.
          1    1    1    2  502    0  0.14239214333E+02 -0.20413586404E+02  0.77071636670E+03  0.77111814116E+03  0.00000000000E+00 0. -1.
         -1    1    1    2    0  501 -0.14239214333E+02  0.20413586404E+02  0.74366268664E+03  0.74407906921E+03  0.00000000000E+00 0.  1.
</event>
<event>
 4    1  0.6718357E+001  0.2050940E+02  0.7546771E-02  0.1526386E+00
          2   -1    0    0  502    0  0.00000000000E+00  0.00000000000E+00  0.42551644616E+01  0.42551644616E+01  0.00000000000E+00 0.  1.
         -2   -1    0    0    0  501 -0.00000000000E+00 -0.00000000000E+00 -0.11408927957E+03  0.11408927957E+03  0.00000000000E+00 0. -1.
          1    1    1    2  502    0  0.13486177454E+02 -0.15451808185E+02 -0.76541071477E+02  0.79241220216E+02  0.00000000000E+00 0. -1.
         -1    1    1    2    0  501 -0.13486177454E+02  0.15451808185E+02 -0.33293043631E+02  0.39103223815E+02  0.00000000000E+00 0.  1.
</event>
<event>
 4    1  0.6718357E+001  0.2038488E+02  0.7546771E-02  0.1528231E+00
          2   -1    0    0  502    0  0.00000000000E+00  0.00000000000E+00  0.17112264142E+02  0.17112264142E+02  0.00000000000E+00 0. -1.
         -2   -1    0    0    0  501 -0.00000000000E+00 -0.00000000000E+00 -0.24734286794E+02  0.24734286794E+02  0.00000000000E+00 0.  1.
          1    1    1    2  502    0  0.20053543394E+02  0.36604113486E+01 -0.66361163183E+01  0.21437846293E+02  0.00000000000E+00 0. -1.
         -1    1    1    2    0  501 -0.20053543394E+02 -0.36604113486E+01 -0.98590633402E+00  0.20408704643E+02  0.00000000000E+00 0.  1.
</event>
<event>
 4    1  0.6718357E+001  0.2390169E+02  0.7546771E-02  0.1481476E+00
          2   -1    0    0  502    0  0.00000000000E+00  0.00000000000E+00  0.43711770029E+02  0.43711770029E+02  0.00000000000E+00 0.  1.
         -2   -1    0    0    0  501 -0.00000000000E+00 -0.00000000000E+00 -0.23628711620E+02  0.23628711620E+02  0.00000000000E+00 0. -1.
          1    1    1    2  502    0 -0.14842679927E+02 -0.18734607353E+02  0.32549798283E+02  0.40382917531E+02  0.00000000000E+00 0.  1.
         -1    1    1    2    0  501  0.14842679927E+02  0.18734607353E+02 -0.12466739874E+02  0.26957564118E+02  0.00000000000E+00 0. -1.
</event>
<event>
 4    1  0.6718357E+001  0.2648115E+02  0.7546771E-02  0.1452891E+00
          2   -1    0    0  502    0  0.00000000000E+00  0.00000000000E+00  0.72468271037E+02  0.72468271037E+02  0.00000000000E+00 0.  1.
         -2   -1    0    0    0  501 -0.00000000000E+00 -0.00000000000E+00 -0.10856874271E+02  0.10856874271E+02  0.00000000000E+00 0. -1.
          1    1    1    2  502    0 -0.25588221146E+02  0.68186530152E+01  0.44542114022E+02  0.51819407676E+02  0.00000000000E+00 0.  1.
         -1    1    1    2    0  501  0.25588221146E+02 -0.68186530152E+01  0.17069282744E+02  0.31505737632E+02  0.00000000000E+00 0. -1.
</event>
<event>
 4    1  0.6718357E+001  0.3560036E+02  0.7546771E-02  0.1376391E+00
          2   -1    0    0  502    0  0.00000000000E+00  0.00000000000E+00  0.11067769988E+04  0.11067769988E+04  0.00000000000E+00 0.  1.
         -2   -1    0    0    0  501 -0.00000000000E+00 -0.00000000000E+00 -0.12158784370E+01  0.12158784370E+01  0.00000000000E+00 0. -1.
          1    1    1    2  502    0  0.34322506492E+02  0.94525887946E+01  0.41913046196E+03  0.42063966768E+03  0.00000000000E+00 0. -1.
         -1    1    1    2    0  501 -0.34322506492E+02 -0.94525887946E+01  0.68643065839E+03  0.68735320954E+03  0.00000000000E+00 0.  1.
</event>
<event>
 4    1  0.6718357E+001  0.5141815E+02  0.7546771E-02  0.1292138E+00
          2   -1    0    0  502    0  0.00000000000E+00  0.00000000000E+00  0.58743773241E+03  0.58743773241E+03  0.00000000000E+00 0. -1.
         -2   -1    0    0    0  501 -0.00000000000E+00 -0.00000000000E+00 -0.46450651476E+01  0.46450651476E+01  0.00000000000E+00 0.  1.
          1    1    1    2  502    0 -0.76172864115E+01  0.50850787529E+02  0.34360341578E+03  0.34742932084E+03  0.00000000000E+00 0. -1.
         -1    1    1    2    0  501  0.76172864115E+01 -0.50850787529E+02  0.23918925149E+03  0.24465347672E+03  0.00000000000E+00 0.  1.
</event>
<event>
 4    1  0.6718357E+001  0.2715713E+02  0.7546771E-02  0.1446036E+00
          2   -1    0    0  502    0  0.00000000000E+00  0.00000000000E+00  0.18550123006E+04  0.18550123006E+04  0.00000000000E+00 0.  1.
         -2   -1    0    0    0  501 -0.00000000000E+00 -0.00000000000E+00 -0.39365369450E+01  0.39365369450E+01  0.00000000000E+00 0. -1.
          1    1    1    2  502    0  0.12984689512E+02  0.23851786578E+02  0.44249366604E+02  0.51918362162E+02  0.00000000000E+00 0. -1.
         -1    1    1    2    0  501 -0.12984689512E+02 -0.23851786578E+02  0.18068263970E+04  0.18070304754E+04  0.00000000000E+00 0.  1.
</event>
<event>
 4    1  0.6718357E+001  0.4289741E+02  0.7546771E-02  0.1332295E+00
          2   -1    0    0  502    0  0.00000000000E+00  0.00000000000E+00  0.22207667517E+03  0.22207667517E+03  0.00000000000E+00 0.  1.
         -2   -1    0    0    0  501 -0.00000000000E+00 -0.00000000000E+00 -0.82908589496E+01  0.82908589496E+01  0.00000000000E+00 0. -1.
          1    1    1    2  502    0 -0.79441503956E+01  0.42155407548E+02  0.10960195196E+03  0.11769781555E+03  0.00000000000E+00 0. -1.
         -1    1    1    2    0  501  0.79441503956E+01 -0.42155407548E+02  0.10418386426E+03  0.11266971857E+03  0.00000000000E+00 0.  1.
</event>
<event>
 4    1  0.6718357E+001  0.2499206E+02  0.7546771E-02  0.1468892E+00
          2   -1    0    0  502    0  0.00000000000E+00  0.00000000000E+00  0.19660485966E+04  0.19660485966E+04  0.00000000000E+00 0.  1.
         -2   -1    0    0    0  501 -0.00000000000E+00 -0.00000000000E+00 -0.36326418464E+00  0.36326418464E+00  0.00000000000E+00 0. -1.
          1    1    1    2  502    0  0.14278801921E+02  0.20511426943E+02  0.63460862282E+03  0.63510054871E+03  0.00000000000E+00 0. -1.
         -1    1    1    2    0  501 -0.14278801921E+02 -0.20511426943E+02  0.13310767096E+04  0.13313113120E+04  0.00000000000E+00 0.  1.
</event>
<event>
 4    1  0.6718357E+001  0.2308449E+02  0.7546771E-02  0.1491440E+00
          2   -1    0    0  502    0  0.00000000000E+00  0.00000000000E+00  0.12661653742E+04  0.12661653742E+04  0.00000000000E+00 0. -1.
         -2   -1    0    0    0  501 -0.00000000000E+00 -0.00000000000E+00 -0.58000680480E+00  0.58000680480E+00  0.00000000000E+00 0.  1.
          1    1    1    2  502    0  0.18033559663E+02  0.14411266832E+02  0.96455344494E+03  0.96482964404E+03  0.00000000000E+00 0.  1.
         -1    1    1    2    0  501 -0.18033559663E+02 -0.14411266832E+02  0.30103192245E+03  0.30191573696E+03  0.00000000000E+00 0. -1.
</event>
<event>
 4    1  0.6718357E+001  0.2140815E+02  0.7546771E-02  0.1513517E+00
          2   -1    0    0  502    0  0.00000000000E+00  0.00000000000E+00  0.11423325773E+01  0.11423325773E+01  0.00000000000E+00 0. -1.
         -2   -1    0    0    0  501 -0.00000000000E+00 -0.00000000000E+00 -0.65659753840E+03  0.65659753840E+03  0.00000000000E+00 0.  1.
          1    1    1    2  502    0 -0.13076620183E+02  0.16950246138E+02 -0.12262122134E+03  0.12447599272E+03  0.00000000000E+00 0. -1.
         -1    1    1    2    0  501  0.13076620183E+02 -0.16950246138E+02 -0.53283398448E+03  0.53326387826E+03  0.00000000000E+00 0.  1.
</event>
<event>
 4    1  0.6718357E+001  0.2162771E+02  0.7546771E-02  0.1510488E+00
          2   -1    0    0  502    0  0.00000000000E+00  0.00000000000E+00  0.54667297428E+03  0.54667297428E+03  0.00000000000E+00 0. -1.
         -2   -1    0    0    0  501 -0.00000000000E+00 -0.00000000000E+00 -0.88573831136E+00  0.88573831136E+00  0.00000000000E+00 0.  1.
          1    1    1    2  502    0 -0.93033241842E+01  0.19524499349E+02  0.32335789393E+03  0.32408036886E+03  0.00000000000E+00 0. -1.
         -1    1    1    2    0  501  0.93033241842E+01 -0.19524499349E+02  0.22242934204E+03  0.22347834373E+03  0.00000000000E+00 0.  1.
</event>
<event>
 4    1  0.6718357E+001  0.2972965E+02  0.7546771E-02  0.1421961E+00
          2   -1    0    0  502    0  0.00000000000E+00  0.00000000000E+00  0.13813179401E+04  0.13813179401E+04  0.00000000000E+00 0.  1.
         -2   -1    0    0    0  501 -0.00000000000E+00 -0.00000000000E+00 -0.83031470354E+00  0.83031470354E+00  0.00000000000E+00 0. -1.
          1    1    1    2  502    0  0.18817150402E+02  0.23016668743E+02  0.35926713354E+03  0.36049511152E+03  0.00000000000E+00 0. -1.
         -1    1    1    2    0  501 -0.18817150402E+02 -0.23016668743E+02  0.10212204919E+04  0.10216531433E+04  0.00000000000E+00 0.  1.
</event>
<event>
 4    1  0.6718357E+001  0.2354046E+02  0.7546771E-02  0.1485821E+00
          2   -1    0    0  502    0  0.00000000000E+00  0.00000000000E+00  0.13708475443E+04  0.13708475443E+04  0.00000000000E+00 0. -1.
         -2   -1    0    0    0  501 -0.00000000000E+00 -0.00000000000E+00 -0.44541330649E+00  0.44541330649E+00  0.00000000000E+00 0.  1.
          1    1    1    2  502    0  0.16442891643E+02  0.16845905234E+02  0.89365956797E+03  0.89396956136E+03  0.00000000000E+00 0. -1.
         -1    1    1    2    0  501 -0.16442891643E+02 -0.16845905234E+02  0.47674256298E+03  0.47732339621E+03  0.00000000000E+00 0.  1.
</event>
<event>
 4    1  0.6718357E+001  0.2555146E+02  0.7546771E-02  0.1462728E+00
          2   -1    0    0  502    0  0.00000000000E+00  0.00000000000E+00  0.13762834220E+04  0.13762834220E+04  0.00000000000E+00 0.  1.
         -2   -1    0    0    0  501 -0.00000000000E+00 -0.00000000000E+00 -0.47580938642E+00  0.47580938642E+00  0.00000000000E+00 0. -1.
          1    1    1    2  502    0 -0.11597128208E+02  0.22768038705E+02  0.72567555768E+03  0.72612525916E+03  0.00000000000E+00 0. -1.
         -1    1    1    2    0  501  0.11597128208E+02 -0.22768038705E+02  0.65013205498E+03  0.65063397228E+03  0.00000000000E+00 0.  1.
</event>
<event>
 4    1  0.6718357E+001  0.2009956E+02  0.7546771E-02  0.1532519E+00
          2   -1    0    0  502    0  0.00000000000E+00  0.00000000000E+00  0.63595366285E+03  0.63595366285E+03  0.00000000000E+00 0. -1.
         -2   -1    0    0    0  501 -0.00000000000E+00 -0.00000000000E+00 -0.63948245462E+00  0.63948245462E+00  0.00000000000E+00 0.  1.
          1    1    1    2  502    0  0.18050681956E+02 -0.88411170640E+01  0.34353798324E+03  0.34412546897E+03  0.00000000000E+00 0. -1.
         -1    1    1    2    0  501 -0.18050681956E+02  0.88411170640E+01  0.29177619715E+03  0.29246767633E+03  0.00000000000E+00 0.  1.
</event>
<event>
 4    1  0.6718357E+001  0.2729788E+02  0.7546771E-02  0.1444639E+00
          2   -1    0    0  502    0  0.00000000000E+00  0.00000000000E+00  0.14976712049E+04  0.14976712049E+04  0.00000000000E+00 0. -1.
         -2   -1    0    0    0  501 -0.00000000000E+00 -0.00000000000E+00 -0.63075290726E+00  0.63075290726E+00  0.00000000000E+00 0.  1.
          1    1    1    2  502    0  0.20465446090E+02 -0.18064872989E+02  0.40425903288E+03  0.40517963891E+03  0.00000000000E+00 0.  1.
         -1    1    1    2    0  501 -0.20465446090E+02  0.18064872989E+02  0.10927814191E+04  0.10931223189E+04  0.00000000000E+00 0. -1.
</event>
<event>
 4    1  0.6718357E+001  0.2514560E+02  0.7546771E-02  0.1467181E+00
          2   -1    0    0  502    0  0.00000000000E+00  0.00000000000E+00  0.79353215621E+02  0.79353215621E+02  0.00000000000E+00 0. -1.
         -2   -1    0    0    0  501 -0.00000000000E+00 -0.00000000000E+00 -0.41356928638E+02  0.41356928638E+02  0.00000000000E+00 0.  1.
          1    1    1    2  502    0  0.20266704164E+02  0.14884956806E+02  0.73228150655E+02  0.77425210915E+02  0.00000000000E+00 0. -1.
         -1    1    1    2    0  501 -0.20266704164E+02 -0.14884956806E+02 -0.35231863672E+02  0.43284933344E+02  0.00000000000E+00 0.  1.
</event>
<event>
 4    1  0.6718357E+001  0.3048414E+02  0.7546771E-02  0.1415435E+00
          2   -1    0    0  502    0  0.00000000000E+00  0.00000000000E+00  0.13403961518E+02  0.13403961518E+02  0.00000000000E+00 0. -1.
         -2   -1    0    0    0  501 -0.00000000000E+00 -0.00000000000E+00 -0.82521981066E+02  0.82521981066E+02  0.00000000000E+00 0.  1.
          1    1    1    2  502    0  0.34046232412E+01  0.30293421319E+02 -0.15381454894E+02  0.34144867686E+02  0.00000000000E+00 0. -1.
         -1    1    1    2    0  501 -0.34046232412E+01 -0.30293421319E+02 -0.53736564654E+02  0.61781074897E+02  0.00000000000E+00 0.  1.
</event>
<event>
 4    1  0.6718357E+001  0.2625989E+02  0.7546771E-02  0.1455188E+00
          2   -1    0    0  502    0  0.00000000000E+00  0.00000000000E+00  0.19613320634E+04  0.19613320634E+04  0.00000000000E+00 0.  1.
         -2   -1    0    0    0  501 -0.00000000000E+00 -0.00000000000E+00 -0.77146399039E+00  0.77146399039E+00  0.00000000000E+00 0. -1.
          1    1    1    2  502    0  0.20460605544E+02  0.16460414974E+02  0.17040399989E+04  0.17042423242E+04  0.00000000000E+00 0.  1.
         -1    1    1    2    0  501 -0.20460605544E+02 -0.16460414974E+02  0.25652060042E+03  0.25786120313E+03  0.00000000000E+00 0. -1.
</event>
<event>
 4    1  0.6718357E+001  0.2349963E+02  0.7546771E-02  0.1486318E+00
          2   -1    0    0  502    0  0.00000000000E+00  0.00000000000E+00  0.11270776730E+04  0.11270776730E+04  0.00000000000E+00 0. -1.
         -2   -1    0    0    0  501 -0.00000000000E+00 -0.00000000000E+00 -0.51362445960E+00  0.51362445960E+00  0.00000000000E+00 0.  1.
          1    1    1    2  502    0  0.19656741534E+02 -0.12878093786E+02  0.44228706470E+03  0.44291091699E+03  0.00000000000E+00 0.  1.
         -1    1    1    2    0  501 -0.19656741534E+02  0.12878093786E+02  0.68427698386E+03  0.68468038049E+03  0.00000000000E+00 0. -1.
</event>
<event>
 4    1  0.6718357E+001  0.2183357E+02  0.7546771E-02  0.1507688E+00
          2   -1    0    0  502    0  0.00000000000E+00  0.00000000000E+00  0.11156689637E+03  0.11156689637E+03  0.00000000000E+00 0. -1.
         -2   -1    0    0    0  501 -0.00000000000E+00 -0.00000000000E+00 -0.42829323598E+01  0.42829323598E+01  0.00000000000E+00 0.  1.
          1    1    1    2  502    0  0.19030852833E+02  0.10701944278E+02  0.56456978560E+02  0.60531771814E+02  0.00000000000E+00 0.  1.
         -1    1    1    2    0  501 -0.19030852833E+02 -0.10701944278E+02  0.50826985451E+02  0.55318056916E+02  0.00000000000E+00 0. -1.
</event>
<event>
 4    1  0.6718357E+001  0.2581122E+02  0.7546771E-02  0.1459929E+00
          2   -1    0    0  502    0  0.00000000000E+00  0.00000000000E+00  0.54609941420E+03  0.54609941420E+03  0.00000000000E+00 0. -1.
         -2   -1    0    0    0  501 -0.00000000000E+00 -0.00000000000E+00 -0.20873303936E+01  0.20873303936E+01  0.00000000000E+00 0.  1.
          1    1    1    2  502    0  0.24585092855E+02  0.78607916014E+01  0.44869341367E+03  0.44943519923E+03  0.00000000000E+00 0. -1.
         -1    1    1    2    0  501 -0.24585092855E+02 -0.78607916014E+01  0.95318670136E+02  0.98751545364E+02  0.00000000000E+00 0.  1.
</event>
<event>
 4    1  0.6718357E+001  0.2489423E+02  0.7546771E-02  0.1469990E+00
          2   -1    0    0  502    0  0.00000000000E+00  0.00000000000E+00  0.24759097049E+02  0.24759097049E+02  0.00000000000E+00 0. -1.
         -2   -1    0    0    0  501 -0.00000000000E+00 -0.00000000000E+00 -0.32069030694E+02  0.32069030694E+02  0.00000000000E+00 0.  1.
          1    1    1    2  502    0  0.19952648861E+02  0.14886728365E+02 -0.16966973518E+02  0.30126418114E+02  0.00000000000E+00 0.  1.
         -1    1    1    2    0  501 -0.19952648861E+02 -0.14886728365E+02  0.96570398731E+01  0.26701709629E+02  0.00000000000E+00 0. -1.
</event>
<event>
 4    1  0.6718357E+001  0.2556311E+02  0.7546771E-02  0.1462601E+00
          2   -1    0    0  502    0  0.00000000000E+00  0.00000000000E+00  0.33289030339E+04  0.33289030339E+04  0.00000000000E+00 0. -1.
         -2   -1    0    0    0  501 -0.00000000000E+00 -0.00000000000E+00 -0.19644121252E+00  0.19644121252E+00  0.00000000000E+00 0.  1.
          1    1    1    2  502    0  0.98283914897E+01 -0.23598210459E+02  0.17085457813E+04  0.17087370071E+04  0.00000000000E+00 0. -1.
         -1    1    1    2    0  501 -0.98283914897E+01  0.23598210459E+02  0.16201608115E+04  0.16203624680E+04  0.00000000000E+00 0.  1.
</event>
<event>
 4    1  0.6718357E+001  0.2151520E+02  0.7546771E-02  0.1512035E+00
          2   -1    0    0  502    0  0.00000000000E+00  0.00000000000E+00  0.84722184103E+02  0.84722184103E+02  0.00000000000E+00 0. -1.
         -2   -1    0    0    0  501 -0.00000000000E+00 -0.00000000000E+00 -0.28371270806E+02  0.28371270806E+02  0.00000000000E+00 0.  1.
          1    1    1    2  502    0 -0.19872454145E+02 -0.82455738821E+01 -0.22635430840E+02  0.31229259545E+02  0.00000000000E+00 0.  1.
         -1    1    1    2    0  501  0.19872454145E+02  0.82455738821E+01  0.78986344137E+02  0.81864195364E+02  0.00000000000E+00 0. -1.
</event>
<event>
 4    1  0.6718357E+001  0.2283559E+02  0.7546771E-02  0.1494573E+00
          2   -1    0    0  502    0  0.00000000000E+00  0.00000000000E+00  0.23692470707E+02  0.23692470707E+02  0.00000000000E+00 0.  1.
         -2   -1    0    0    0  501 -0.00000000000E+00 -0.00000000000E+00 -0.25320562129E+02  0.25320562129E+02  0.00000000000E+00 0. -1.
          1    1    1    2  502    0 -0.79460784947E+00 -0.22821757865E+02 -0.96757211930E+01  0.24800879305E+02  0.00000000000E+00 0. -1.
         -1    1    1    2    0  501  0.79460784947E+00  0.22821757865E+02  0.80476297703E+01  0.24212153531E+02  0.00000000000E+00 0.  1.
</event>
<event>
 4    1  0.6718357E+001  0.3983102E+02  0.7546771E-02  0.1349479E+00
          2   -1    0    0  502    0  0.00000000000E+00  0.00000000000E+00  0.22049791150E+02  0.22049791150E+02  0.00000000000E+00 0. -1.
         -2   -1    0    0    0  501 -0.00000000000E+00 -0.00000000000E+00 -0.72246218347E+02  0.72246218347E+02  0.00000000000E+00 0.  1.
          1    1    1    2  502    0  0.26939422984E+02 -0.29339006614E+02 -0.28110877367E+02  0.48751730700E+02  0.00000000000E+00 0. -1.
         -1    1    1    2    0  501 -0.26939422984E+02  0.29339006614E+02 -0.22085549831E+02  0.45544278797E+02  0.00000000000E+00 0.  1.
</event>
<event>
 4    1  0.6718357E+001  0.3933373E+02  0.7546771E-02  0.1352435E+00
          2   -1    0    0  502    0  0.00000000000E+00  0.00000000000E+00  0.11087185261E+02  0.11087185261E+02  0.00000000000E+00 0. -1.
         -2   -1    0    0    0  501 -0.00000000000E+00 -0.00000000000E+00 -0.14218600603E+03  0.14218600603E+03  0.00000000000E+00 0.  1.
          1    1    1    2  502    0  0.37440646815E+02  0.12055731325E+02 -0.55101482082E+02  0.67700192167E+02  0.00000000000E+00 0.  1.
         -1    1    1    2    0  501 -0.37440646815E+02 -0.12055731325E+02 -0.75997338686E+02  0.85572999124E+02  0.00000000000E+00 0. -1.
</event>
<event>
 4    1  0.6718357E+001  0.2245202E+02  0.7546771E-02  0.1499496E+00
          2   -1    0    0  502    0  0.00000000000E+00  0.00000000000E+00  0.41043744372E+01  0.41043744372E+01  0.00000000000E+00 0.  1.
         -2   -1    0    0    0  501 -0.00000000000E+00 -0.00000000000E+00 -0.13016786382E+03  0.13016786382E+03  0.00000000000E+00 0. -1.
          1    1    1    2  502    0 -0.10735840701E+02 -0.19718899328E+02 -0.78984220902E+02  0.82113338854E+02  0.00000000000E+00 0. -1.
         -1    1    1    2    0  501  0.10735840701E+02  0.19718899328E+02 -0.47079268480E+02  0.52158899402E+02  0.00000000000E+00 0.  1.
</event>
<event>
 4    1  0.6718357E+001  0.2855511E+02  0.7546771E-02  0.1432583E+00
          2   -1    0    0  502    0  0.00000000000E+00  0.00000000000E+00  0.91428605133E+02  0.91428605133E+02  0.00000000000E+00 0. -1.
         -2   -1    0    0    0  501 -0.00000000000E+00 -0.00000000000E+00 -0.97836454183E+01  0.97836454183E+01  0.00000000000E+00 0.  1.
          1    1    1    2  502    0  0.93228640168E+01 -0.26990337481E+02  0.55872253480E+02  0.62746337102E+02  0.00000000000E+00 0. -1.
         -1    1    1    2    0  501 -0.93228640168E+01  0.26990337481E+02  0.25772706235E+02  0.38465913449E+02  0.00000000000E+00 0.  1.
</event>
<event>
 4    1  0.6718357E+001  0.3002034E+02  0.7546771E-02  0.1419420E+00
          2   -1    0    0  502    0  0.00000000000E+00  0.00000000000E+00  0.67454016328E+01  0.67454016328E+01  0.00000000000E+00 0. -1.
         -2   -1    0    0    0  501 -0.00000000000E+00 -0.00000000000E+00 -0.14762647132E+03  0.14762647132E+03  0.00000000000E+00 0.  1.
          1    1    1    2  502    0  0.29719121522E+02  0.42419740291E+01 -0.46652956645E+02  0.55477192534E+02  0.00000000000E+00 0. -1.
         -1    1    1    2    0  501 -0.29719121522E+02 -0.42419740291E+01 -0.94228113039E+02  0.98894680416E+02  0.00000000000E+00 0.  1.
</event>
<event>
 4    1  0.6718357E+001  0.2139172E+02  0.7546771E-02  0.1513745E+00
          2   -1    0    0  502    0  0.00000000000E+00  0.00000000000E+00  0.91417916624E+03  0.91417916624E+03  0.00000000000E+00 0. -1.
         -2   -1    0    0    0  501 -0.00000000000E+00 -0.00000000000E+00 -0.61765468240E+00  0.61765468240E+00  0.00000000000E+00 0.  1.
          1    1    1    2  502    0 -0.19266266482E+02 -0.92960663599E+01  0.25763019067E+03  0.25851677125E+03  0.00000000000E+00 0. -1.
         -1    1    1    2    0  501  0.19266266482E+02  0.92960663599E+01  0.65593132088E+03  0.65628004967E+03  0.00000000000E+00 0.  1.
</event>
<event>
 4    1  0.6718357E+001  0.2852852E+02  0.7546771E-02  0.1432830E+00
          2   -1    0    0  502    0  0.00000000000E+00  0.00000000000E+00  0.60840458230E+03  0.60840458230E+03  0.00000000000E+00 0. -1.
         -2   -1    0    0    0  501 -0.00000000000E+00 -0.00000000000E+00 -0.55784058746E+01  0.55784058746E+01  0.00000000000E+00 0.  1.
          1    1    1    2  502    0  0.24587805389E+02  0.14467776705E+02  0.33749564193E+02  0.44191739271E+02  0.00000000000E+00 0.  1.
         -1    1    1    2    0  501 -0.24587805389E+02 -0.14467776705E+02  0.56907661223E+03  0.56979124890E+03  0.00000000000E+00 0. -1.
</event>
<event>
 4    1  0.6718357E+001  0.2053725E+02  0.7546771E-02  0.1525975E+00
          2   -1    0    0  502    0  0.00000000000E+00  0.00000000000E+00  0.18859713813E+03  0.18859713813E+03  0.00000000000E+00 0. -1.
         -2   -1    0    0    0  501 -0.00000000000E+00 -0.00000000000E+00 -0.29129107257E+01  0.29129107257E+01  0.00000000000E+00 0.  1.
          1    1    1    2  502    0 -0.18157875251E+02 -0.95953310841E+01  0.13898821698E+03  0.14049734258E+03  0.00000000000E+00 0. -1.
         -1    1    1    2    0  501  0.18157875251E+02  0.95953310841E+01  0.46696010424E+02  0.51012706278E+02  0.00000000000E+00 0.  1.
</event>
<event>
 4    1  0.6718357E+001  0.2308547E+02  0.7546771E-02  0.1491428E+00
          2   -1    0    0  502    0  0.00000000000E+00  0.00000000000E+00  0.68257959788E+01  0.68257959788E+01  0.00000000000E+00 0. -1.
         -2   -1    0    0    0  501 -0.00000000000E+00 -0.00000000000E+00 -0.81417374947E+02  0.81417374947E+02  0.00000000000E+00 0.  1.
          1    1    1    2  502    0 -0.22703543828E+02  0.41818676796E+01 -0.46232512434E+02  0.51675759555E+02  0.00000000000E+00 0. -1.
         -1    1    1    2    0  501  0.22703543828E+02 -0.41818676796E+01 -0.28359066535E+02  0.36567411371E+02  0.00000000000E+00 0.  1.
</event>
<event>
 4    1  0.6718357E+001  0.3179747E+02  0.7546771E-02  0.1404594E+00
          2   -1    0    0  502    0  0.00000000000E+00  0.00000000000E+00  0.12733682332E+03  0.12733682332E+03  0.00000000000E+00 0. -1.
         -2   -1    0    0    0  501 -0.00000000000E+00 -0.00000000000E+00 -0.18863161858E+02  0.18863161858E+02  0.00000000000E+00 0.  1.
          1    1    1    2  502    0 -0.11138574749E+02  0.29782731735E+02  0.10986316413E+03  0.11437217227E+03  0.00000000000E+00 0. -1.
         -1    1    1    2    0  501  0.11138574749E+02 -0.29782731735E+02 -0.13895026647E+01  0.31827812911E+02  0.00000000000E+00 0.  1.
</event>
<event>
 4    1  0.6718357E+001  0.3310478E+02  0.7546771E-02  0.1394400E+00
          2   -1    0    0  502    0  0.00000000000E+00  0.00000000000E+00  0.10218221432E+02  0.10218221432E+02  0.00000000000E+00 0. -1.
         -2   -1    0    0    0  501 -0.00000000000E+00 -0.00000000000E+00 -0.13319816144E+03  0.13319816144E+03  0.00000000000E+00 0.  1.
          1    1    1    2  502    0  0.26868510544E+02  0.19339331153E+02 -0.93138580926E+02  0.98846961740E+02  0.00000000000E+00 0.  1.
         -1    1    1    2    0  501 -0.26868510544E+02 -0.19339331153E+02 -0.29841359086E+02  0.44569421136E+02  0.00000000000E+00 0. -1.
</event>
<event>
 4    1  0.6718357E+001  0.3683836E+02  0.7546771E-02  0.1368080E+00
          2   -1    0    0  502    0  0.00000000000E+00  0.00000000000E+00  0.13052901255E+03  0.13052901255E+03  0.00000000000E+00 0.  1.
         -2   -1    0    0    0  501 -0.00000000000E+00 -0.00000000000E+00 -0.11532690082E+02  0.11532690082E+02  0.00000000000E+00 0. -1.
          1    1    1    2  502    0  0.31633603257E+02 -0.18878036611E+02  0.37204696707E+02  0.52356991685E+02  0.00000000000E+00 0. -1.
         -1    1    1    2    0  501 -0.31633603257E+02  0.18878036611E+02  0.81791625760E+02  0.89704710945E+02  0.00000000000E+00 0.  1.
</event>
<event>
 4    1  0.6718357E+001  0.2300218E+02  0.7546771E-02  0.1492471E+00
          2   -1    0    0  502    0  0.00000000000E+00  0.00000000000E+00  0.11590366904E+04  0.11590366904E+04  0.00000000000E+00 0. -1.
         -2   -1    0    0    0  501 -0.00000000000E+00 -0.00000000000E+00 -0.46188846825E+00  0.46188846825E+00  0.00000000000E+00 0.  1.
          1    1    1    2  502    0  0.20759221408E+02 -0.99073253397E+01  0.64190554153E+03  0.64231754189E+03  0.00000000000E+00 0.  1.
         -1    1    1    2    0  501 -0.20759221408E+02  0.99073253397E+01  0.51666926038E+03  0.51718103696E+03  0.00000000000E+00 0. -1.
</event>
<event>
 4    1  0.6718357E+001  0.2537289E+02  0.7546771E-02  0.1464675E+00
          2   -1    0    0  502    0  0.00000000000E+00  0.00000000000E+00  0.14338136151E+03  0.14338136151E+03  0.00000000000E+00 0.  1.
         -2   -1    0    0    0  501 -0.00000000000E+00 -0.00000000000E+00 -0.76728368111E+01  0.76728368111E+01  0.00000000000E+00 0. -1.
          1    1    1    2  502    0 -0.12986398370E+02 -0.21797634071E+02  0.19210014134E+02  0.31824645115E+02  0.00000000000E+00 0. -1.
         -1    1    1    2    0  501  0.12986398370E+02  0.21797634071E+02  0.11649851056E+03  0.11922955321E+03  0.00000000000E+00 0.  1.
</event>
<event>
 4    1  0.6718357E+001  0.2006677E+02  0.7546771E-02  0.1533017E+00
          2   -1    0    0  502    0  0.00000000000E+00  0.00000000000E+00  0.31148912881E+03  0.31148912881E+03  0.00000000000E+00 0.  1.
         -2   -1    0    0    0  501 -0.00000000000E+00 -0.00000000000E+00 -0.21744675972E+01  0.21744675972E+01  0.00000000000E+00 0. -1.
          1    1    1    2  502    0  0.12501183397E+01 -0.20027796021E+02  0.25452481615E+03  0.25531462442E+03  0.00000000000E+00 0.  1.
         -1    1    1    2    0  501 -0.12501183397E+01  0.20027796021E+02  0.54789845065E+02  0.58348971984E+02  0.00000000000E+00 0. -1.
</event>
<event>
 4    1  0.6718357E+001  0.2008189E+02  0.7546771E-02  0.1532788E+00
          2   -1    0    0  502    0  0.00000000000E+00  0.00000000000E+00  0.26132512914E+03  0.26132512914E+03  0.00000000000E+00 0. -1.
         -2   -1    0    0    0  501 -0.00000000000E+00 -0.00000000000E+00 -0.15819470909E+01  0.15819470909E+01  0.00000000000E+00 0.  1.
          1    1    1    2  502    0 -0.20008833384E+02  0.17113812734E+01  0.15043912215E+03  0.15177355406E+03  0.00000000000E+00 0.  1.
         -1    1    1    2    0  501  0.20008833384E+02 -0.17113812734E+01  0.10930405990E+03  0.11113352217E+03  0.00000000000E+00 0. -1.
</event>
<event>
 4    1  0.6718357E+001  0.2765013E+02  0.7546771E-02  0.1441185E+00
          2   -1    0    0  502    0  0.00000000000E+00  0.00000000000E+00  0.22300811976E+03  0.22300811976E+03  0.00000000000E+00 0. -1.
         -2   -1    0    0    0  501 -0.00000000000E+00 -0.00000000000E+00 -0.42789369565E+01  0.42789369565E+01  0.00000000000E+00 0.  1.
          1    1    1    2  502    0  0.46970869746E+01  0.27248246824E+02  0.16003557902E+03  0.16240663821E+03  0.00000000000E+00 0. -1.
         -1    1    1    2    0  501 -0.46970869746E+01 -0.27248246824E+02  0.58693603783E+02  0.64880418510E+02  0.00000000000E+00 0.  1.
</event>
<event>
 4    1  0.6718357E+001  0.2008975E+02  0.7546771E-02  0.1532668E+00
          2   -1    0    0  502    0  0.00000000000E+00  0.00000000000E+00  0.11981384055E+04  0.11981384055E+04  0.00000000000E+00 0. -1.
         -2   -1    0    0    0  501 -0.00000000000E+00 -0.00000000000E+00 -0.36220698978E+00  0.36220698978E+00  0.00000000000E+00 0.  1.
          1    1    1    2  502    0 -0.12802677660E+02 -0.15481906461E+02  0.75742943844E+03  0.75769581772E+03  0.00000000000E+00 0. -1.
         -1    1    1    2    0  501  0.12802677660E+02  0.15481906461E+02  0.44034676004E+03  0.44080479473E+03  0.00000000000E+00 0.  1.
</event>
<event>
 4    1  0.6718357E+001  0.2004727E+02  0.7546771E-02  0.1533314E+00
          2   -1    0    0  502    0  0.00000000000E+00  0.00000000000E+00  0.84370329923E+03  0.84370329923E+03  0.00000000000E+00 0.  1.
         -2   -1    0    0    0  501 -0.00000000000E+00 -0.00000000000E+00 -0.57424165079E+00  0.57424165079E+00  0.00000000000E+00 0. -1.
          1    1    1    2  502    0 -0.11037178159E+02 -0.16735401260E+02  0.24726582570E+03  0.24807716847E+03  0.00000000000E+00 0. -1.
         -1    1    1    2    0  501  0.11037178159E+02  0.16735401260E+02  0.59586323188E+03  0.59620037241E+03  0.00000000000E+00 0.  1.
</event>
<event>
 4    1  0.6718357E+001  0.2222859E+02  0.7546771E-02  0.1502419E+00
          2   -1    0    0  502    0  0.00000000000E+00  0.00000000000E+00  0.73802007931E+03  0.73802007931E+03  0.00000000000E+00 0. -1.
         -2   -1    0    0    0  501 -0.00000000000E+00 -0.00000000000E+00 -0.87464841600E+00  0.87464841600E+00  0.00000000000E+00 0.  1.
          1    1    1    2  502    0 -0.10907087456E+02 -0.19368672042E+02  0.54749395976E+03  0.54794502095E+03  0.00000000000E+00 0. -1.
         -1    1    1    2    0  501  0.10907087456E+02  0.19368672042E+02  0.18965147114E+03  0.19094970678E+03  0.00000000000E+00 0.  1.
</event>
<event>
 4    1  0.6718357E+001  0.2084495E+02  0.7546771E-02  0.1521490E+00
          2   -1    0    0  502    0  0.00000000000E+00  0.00000000000E+00  0.25042622743E+03  0.25042622743E+03  0.00000000000E+00 0.  1.
         -2   -1    0    0    0  501 -0.00000000000E+00 -0.00000000000E+00 -0.20896406352E+01  0.20896406352E+01  0.00000000000E+00 0. -1.
          1    1    1    2  502    0 -0.18492673978E+02 -0.96193950110E+01  0.17617540370E+03  0.17740429707E+03  0.00000000000E+00 0. -1.
         -1    1    1    2    0  501  0.18492673978E+02  0.96193950110E+01  0.72161183094E+02  0.75111570991E+02  0.00000000000E+00 0.  1.
</event>
<event>
 4    1  0.6718357E+001  0.3506536E+02  0.7546771E-02  0.1380104E+00
          2   -1    0    0  502    0  0.00000000000E+00  0.00000000000E+00  0.13012524269E+03  0.13012524269E+03  0.00000000000E+00 0.  1.
         -2   -1    0    0    0  501 -0.00000000000E+00 -0.00000000000E+00 -0.96114620461E+01  0.96114620461E+01  0.00000000000E+00 0. -1.
          1    1    1    2  502    0 -0.27324613745E+02  0.21976013108E+02  0.69334926976E+02  0.77697566032E+02  0.00000000000E+00 0.  1.
         -1    1    1    2    0  501  0.27324613745E+02 -0.21976013108E+02  0.51178853666E+02  0.62039138703E+02  0.00000000000E+00 0. -1.
</event>
<event>
 4    1  0.6718357E+001  0.2948675E+02  0.7546771E-02  0.1424110E+00
          2   -1    0    0  502    0  0.00000000000E+00  0.00000000000E+00  0.11194939535E+03  0.11194939535E+03  0.00000000000E+00 0.  1.
         -2   -1    0    0    0  501 -0.00000000000E+00 -0.00000000000E+00 -0.79922406651E+01  0.79922406651E+01  0.00000000000E+00 0. -1.
          1    1    1    2  502    0 -0.60960402573E+01 -0.28849723772E+02  0.41902386723E+02  0.51237469508E+02  0.00000000000E+00 0. -1.
         -1    1    1    2    0  501  0.60960402573E+01  0.28849723772E+02  0.62054767962E+02  0.68704166507E+02  0.00000000000E+00 0.  1.
</event>
<event>
 4    1  0.6718357E+001  0.2278210E+02  0.7546771E-02  0.1495253E+00
          2   -1    0    0  502    0  0.00000000000E+00  0.00000000000E+00  0.10449454236E+02  0.10449454236E+02  0.00000000000E+00 0.  1.
         -2   -1    0    0    0  501 -0.00000000000E+00 -0.00000000000E+00 -0.55308096179E+02  0.55308096179E+02  0.00000000000E+00 0. -1.
          1    1    1    2  502    0  0.19483537258E+02 -0.11807452621E+02 -0.32926880973E+02  0.40040025625E+02  0.00000000000E+00 0.  1.
         -1    1    1    2    0  501 -0.19483537258E+02  0.11807452621E+02 -0.11931760970E+02  0.25717524790E+02  0.00000000000E+00 0. -1.
</event>
<event>
 4    1  0.6718357E+001  0.2162133E+02  0.7546771E-02  0.1510576E+00
          2   -1    0    0  502    0  0.00000000000E+00  0.00000000000E+00  0.18384441928E+04  0.18384441928E+04  0.00000000000E+00 0.  1.
         -2   -1    0    0    0  501 -0.00000000000E+00 -0.00000000000E+00 -0.27462598162E+00  0.27462598162E+00  0.00000000000E+00 0. -1.
          1    1    1    2  502    0 -0.40230547822E+01 -0.21243746157E+02  0.66885357950E+03  0.66920295317E+03  0.00000000000E+00 0. -1.
         -1    1    1    2    0  501  0.40230547822E+01  0.21243746157E+02  0.11693159873E+04  0.11695158656E+04  0.00000000000E+00 0.  1.
</event>
<event>
 4    1  0.6718357E+001  0.3167665E+02  0.7546771E-02  0.1405565E+00
          2   -1    0    0  502    0  0.00000000000E+00  0.00000000000E+00  0.57796141908E+03  0.57796141908E+03  0.00000000000E+00 0.  1.
         -2   -1    0    0    0  501 -0.00000000000E+00 -0.00000000000E+00 -0.24373568084E+01  0.24373568084E+01  0.00000000000E+00 0. -1.
          1    1    1    2  502    0  0.29613793112E+02 -0.11244267341E+02  0.44341927496E+03  0.44454928152E+03  0.00000000000E+00 0.  1.
         -1    1    1    2    0  501 -0.29613793112E+02  0.11244267341E+02  0.13210478731E+03  0.13584949437E+03  0.00000000000E+00 0. -1.
</event>
<event>
 4    1  0.6718357E+001  0.2537081E+02  0.7546771E-02  0.1464698E+00
          2   -1    0    0  502    0  0.00000000000E+00  0.00000000000E+00  0.12903412515E+04  0.12903412515E+04  0.00000000000E+00 0. -1.
         -2   -1    0    0    0  501 -0.00000000000E+00 -0.00000000000E+00 -0.59567023939E+00  0.59567023939E+00  0.00000000000E+00 0.  1.
          1    1    1    2  502    0 -0.21126148303E+02 -0.14048616547E+02  0.90511080208E+03  0.90546631180E+03  0.00000000000E+00 0. -1.
         -1    1    1    2    0  501  0.21126148303E+02  0.14048616547E+02  0.38463477914E+03  0.38547060989E+03  0.00000000000E+00 0.  1.
</event>
<event>
 4    1  0.6718357E+001  0.2059074E+02  0.7546771E-02  0.1525189E+00
          2   -1    0    0  502    0  0.00000000000E+00  0.00000000000E+00  0.97705918296E+03  0.97705918296E+03  0.00000000000E+00 0.  1.
         -2   -1    0    0    0  501 -0.00000000000E+00 -0.00000000000E+00 -0.47743780667E+00  0.47743780667E+00  0.00000000000E+00 0. -1.
          1    1    1    2  502    0 -0.20426933370E+02 -0.25921025326E+01  0.34075034994E+03  0.34137190803E+03  0.00000000000E+00 0. -1.
         -1    1    1    2    0  501  0.20426933370E+02  0.25921025326E+01  0.63583139521E+03  0.63616471274E+03  0.00000000000E+00 0.  1.
</event>
<event>
 4    1  0.6718357E+001  0.2536679E+02  0.7546771E-02  0.1464742E+00
          2   -1    0    0  502    0  0.00000000000E+00  0.00000000000E+00  0.78042020140E+02  0.78042020140E+02  0.00000000000E+00 0. -1.
         -2   -1    0    0    0  501 -0.00000000000E+00 -0.00000000000E+00 -0.94284139631E+01  0.94284139631E+01  0.00000000000E+00 0.  1.
          1    1    1    2  502    0 -0.24875830363E+02  0.49666211887E+01  0.18813698966E+02  0.31582107768E+02  0.00000000000E+00 0.  1.
         -1    1    1    2    0  501  0.24875830363E+02 -0.49666211887E+01  0.49799907210E+02  0.55888326334E+02  0.00000000000E+00 0. -1.
</event>
<event>
 4    1  0.6718357E+001  0.3344039E+02  0.7546771E-02  0.1391872E+00
          2   -1    0    0  502    0  0.00000000000E+00  0.00000000000E+00  0.58982778119E+03  0.58982778119E+03  0.00000000000E+00 0.  1.
         -2   -1    0    0    0  501 -0.00000000000E+00 -0.00000000000E+00 -0.19916957325E+01  0.19916957325E+01  0.00000000000E+00 0. -1.
          1    1    1    2  502    0 -0.17044421080E+02 -0.28770594905E+02  0.35881164649E+03  0.36036655932E+03  0.00000000000E+00 0.  1.
         -1    1    1    2    0  501  0.17044421080E+02  0.28770594905E+02  0.22902443897E+03  0.23145291760E+03  0.00000000000E+00 0. -1.
</event>
<event>
 4    1  0.6718357E+001  0.2105769E+02  0.7546771E-02  0.1518443E+00
          2   -1    0    0  502    0  0.00000000000E+00  0.00000000000E+00  0.24178290510E+01  0.24178290510E+01  0.00000000000E+00 0.  1.
         -2   -1    0    0    0  501 -0.00000000000E+00 -0.00000000000E+00 -0.21065591618E+03  0.21065591618E+03  0.00000000000E+00 0. -1.
          1    1    1    2  502    0  0.15942166054E+02  0.13757680169E+02 -0.65796458734E+02  0.69084009757E+02  0.00000000000E+00 0.  1.
         -1    1    1    2    0  501 -0.15942166054E+02 -0.13757680169E+02 -0.14244162839E+03  0.14398973547E+03  0.00000000000E+00 0. -1.
</event>
<event>
 4    1  0.6718357E+001  0.2778634E+02  0.7546771E-02  0.1439865E+00
          2   -1    0    0  502    0  0.00000000000E+00  0.00000000000E+00  0.11048878855E+04  0.11048878855E+04  0.00000000000E+00 0. -1.
         -2   -1    0    0    0  501 -0.00000000000E+00 -0.00000000000E+00 -0.82466993633E+00  0.82466993633E+00  0.00000000000E+00 0.  1.
          1    1    1    2  502    0  0.22665419928E+02  0.16073568736E+02  0.33603036508E+03  0.33717723400E+03  0.00000000000E+00 0.  1.
         -1    1    1    2    0  501 -0.22665419928E+02 -0.16073568736E+02  0.76803285044E+03  0.76853532139E+03  0.00000000000E+00 0. -1.
</event>
<event>
 4    1  0.6718357E+001  0.2021619E+02  0.7546771E-02  0.1530756E+00
          2   -1    0    0  502    0  0.00000000000E+00  0.00000000000E+00  0.10791610361E+04  0.10791610361E+04  0.00000000000E+00 0. -1.
         -2   -1    0    0    0  501 -0.00000000000E+00 -0.00000000000E+00 -0.38229654037E+00  0.38229654037E+00  0.00000000000E+00 0.  1.
          1    1    1    2  502    0 -0.20039662389E+02 -0.26657315602E+01  0.48714247753E+03  0.48756177825E+03  0.00000000000E+00 0.  1.
         -1    1    1    2    0  501  0.20039662389E+02  0.26657315602E+01  0.59163626202E+03  0.59198155438E+03  0.00000000000E+00 0. -1.
</event>
<event>
 4    1  0.6718357E+001  0.2602002E+02  0.7546771E-02  0.1457709E+00
          2   -1    0    0  502    0  0.00000000000E+00  0.00000000000E+00  0.13314481042E+04  0.13314481042E+04  0.00000000000E+00 0.  1.
         -2   -1    0    0    0  501 -0.00000000000E+00 -0.00000000000E+00 -0.52129778126E+00  0.52129778126E+00  0.00000000000E+00 0. -1.
          1    1    1    2  502    0 -0.88892588777E+01 -0.24454495765E+02  0.56111408758E+03  0.56171706451E+03  0.00000000000E+00 0. -1.
         -1    1    1    2    0  501  0.88892588777E+01  0.24454495765E+02  0.76981271887E+03  0.77025233749E+03  0.00000000000E+00 0.  1.
</event>
<event>
 4    1  0.6718357E+001  0.2058235E+02  0.7546771E-02  0.1525312E+00
          2   -1    0    0  502    0  0.00000000000E+00  0.00000000000E+00  0.16366056709E+04  0.16366056709E+04  0.00000000000E+00 0.  1.
         -2   -1    0    0    0  501 -0.00000000000E+00 -0.00000000000E+00 -0.27821258618E+00  0.27821258618E+00  0.00000000000E+00 0. -1.
          1    1    1    2  502    0  0.97532836808E+01 -0.18124750455E+02  0.10340855993E+04  0.10342904137E+04  0.00000000000E+00 0. -1.
         -1    1    1    2    0  501 -0.97532836808E+01  0.18124750455E+02  0.60224185905E+03  0.60259346986E+03  0.00000000000E+00 0.  1.
</event>
<event>
 4    1  0.6718357E+001  0.4963606E+02  0.7546771E-02  0.1299758E+00
          2   -1    0    0  502    0  0.00000000000E+00  0.00000000000E+00  0.51887457861E+03  0.51887457861E+03  0.00000000000E+00 0. -1.
         -2   -1    0    0    0  501 -0.00000000000E+00 -0.00000000000E+00 -0.50435802938E+01  0.50435802938E+01  0.00000000000E+00 0.  1.
          1    1    1    2  502    0  0.48484510181E+02  0.10629700613E+02  0.32030674066E+03  0.32412982951E+03  0.00000000000E+00 0. -1.
         -1    1    1    2    0  501 -0.48484510181E+02 -0.10629700613E+02  0.19352425766E+03  0.19978832940E+03  0.00000000000E+00 0.  1.
</event>
<event>
 4    1  0.6718357E+001  0.3357575E+02  0.7546771E-02  0.1390862E+00
          2   -1    0    0  502    0  0.00000000000E+00  0.00000000000E+00  0.54795342519E+01  0.54795342519E+01  0.00000000000E+00 0. -1.
         -2   -1    0    0    0  501 -0.00000000000E+00 -0.00000000000E+00 -0.31770098206E+03  0.31770098206E+03  0.00000000000E+00 0.  1.
          1    1    1    2  502    0  0.20594179275E+02 -0.26518125406E+02 -0.25203957001E+03  0.25426615199E+03  0.00000000000E+00 0.  1.
         -1    1    1    2    0  501 -0.20594179275E+02  0.26518125406E+02 -0.60181877795E+02  0.68914364322E+02  0.00000000000E+00 0. -1.
</event>
<event>
 4    1  0.6718357E+001  0.2315654E+02  0.7546771E-02  0.1490542E+00
          2   -1    0    0  502    0  0.00000000000E+00  0.00000000000E+00  0.27014160630E+03  0.27014160630E+03  0.00000000000E+00 0.  1.
         -2   -1    0    0    0  501 -0.00000000000E+00 -0.00000000000E+00 -0.20367688627E+01  0.20367688627E+01  0.00000000000E+00 0. -1.
          1    1    1    2  502    0  0.20053973980E+02 -0.11578586806E+02  0.11235174981E+03  0.11471330015E+03  0.00000000000E+00 0. -1.
         -1    1    1    2    0  501 -0.20053973980E+02  0.11578586806E+02  0.15575308763E+03  0.15746507502E+03  0.00000000000E+00 0.  1.
</event>
<event>
 4    1  0.6718357E+001  0.2030349E+02  0.7546771E-02  0.1529446E+00
          2   -1    0    0  502    0  0.00000000000E+00  0.00000000000E+00  0.11216480902E+03  0.11216480902E+03  0.00000000000E+00 0.  1.
         -2   -1    0    0    0  501 -0.00000000000E+00 -0.00000000000E+00 -0.46729936767E+01  0.46729936767E+01  0.00000000000E+00 0. -1.
          1    1    1    2  502    0 -0.18427144504E+02  0.85247985229E+01  0.26751804165E+02  0.33584086567E+02  0.00000000000E+00 0. -1.
         -1    1    1    2    0  501  0.18427144504E+02 -0.85247985229E+01  0.80740011182E+02  0.83253716134E+02  0.00000000000E+00 0.  1.
</event>
<event>
 4    1  0.6718357E+001  0.2100567E+02  0.7546771E-02  0.1519184E+00
          2   -1    0    0  502    0  0.00000000000E+00  0.00000000000E+00  0.88193064718E+03  0.88193064718E+03  0.00000000000E+00 0.  1.
         -2   -1    0    0    0  501 -0.00000000000E+00 -0.00000000000E+00 -0.57412532321E+00  0.57412532321E+00  0.00000000000E+00 0. -1.
          1    1    1    2  502    0  0.29537294524E+01  0.20796960011E+02  0.28245906408E+03  0.28323905265E+03  0.00000000000E+00 0.  1.
         -1    1    1    2    0  501 -0.29537294524E+01 -0.20796960011E+02  0.59889745777E+03  0.59926571985E+03  0.00000000000E+00 0. -1.
</event>
<event>
 4    1  0.6718357E+001  0.2220613E+02  0.7546771E-02  0.1502715E+00
          2   -1    0    0  502    0  0.00000000000E+00  0.00000000000E+00  0.15252660501E+03  0.15252660501E+03  0.00000000000E+00 0.  1.
         -2   -1    0    0    0  501 -0.00000000000E+00 -0.00000000000E+00 -0.44635404774E+01  0.44635404774E+01  0.00000000000E+00 0. -1.
          1    1    1    2  502    0 -0.19204092843E+02 -0.11149671820E+02  0.32816302527E+02  0.39623504075E+02  0.00000000000E+00 0. -1.
         -1    1    1    2    0  501  0.19204092843E+02  0.11149671820E+02  0.11524676200E+03  0.11736664141E+03  0.00000000000E+00 0.  1.
</event>
<event>
 4    1  0.6718357E+001  0.2233048E+02  0.7546771E-02  0.1501081E+00
          2   -1    0    0  502    0  0.00000000000E+00  0.00000000000E+00  0.22954765255E+02  0.22954765255E+02  0.00000000000E+00 0. -1.
         -2   -1    0    0    0  501 -0.00000000000E+00 -0.00000000000E+00 -0.22650176079E+02  0.22650176079E+02  0.00000000000E+00 0.  1.
          1    1    1    2  502    0  0.79441700066E+01  0.20869603361E+02  0.47653459220E+01  0.22833280607E+02  0.00000000000E+00 0.  1.
         -1    1    1    2    0  501 -0.79441700066E+01 -0.20869603361E+02 -0.44607567455E+01  0.22771660727E+02  0.00000000000E+00 0. -1.
</event>
<event>
 4    1  0.6718357E+001  0.2251204E+02  0.7546771E-02  0.1498718E+00
          2   -1    0    0  502    0  0.00000000000E+00  0.00000000000E+00  0.86834285343E+02  0.86834285343E+02  0.00000000000E+00 0.  1.
         -2   -1    0    0    0  501 -0.00000000000E+00 -0.00000000000E+00 -0.75984922690E+01  0.75984922690E+01  0.00000000000E+00 0. -1.
          1    1    1    2  502    0  0.10725366301E+02 -0.19792890105E+02  0.16879793857E+02  0.28137509158E+02  0.00000000000E+00 0. -1.
         -1    1    1    2    0  501 -0.10725366301E+02  0.19792890105E+02  0.62355999217E+02  0.66295268454E+02  0.00000000000E+00 0.  1.
</event>
<event>
 4    1  0.6718357E+001  0.2352735E+02  0.7546771E-02  0.1485980E+00
          2   -1    0    0  502    0  0.00000000000E+00  0.00000000000E+00  0.30073883708E+03  0.30073883708E+03  0.00000000000E+00 0.  1.
         -2   -1    0    0    0  501 -0.00000000000E+00 -0.00000000000E+00 -0.20653428726E+01  0.20653428726E+01  0.00000000000E+00 0. -1.
          1    1    1    2  502    0  0.24406718470E+01  0.23400415969E+02  0.19928153593E+03  0.20066555985E+03  0.00000000000E+00 0.  1.
         -1    1    1    2    0  501 -0.24406718470E+01 -0.23400415969E+02  0.99391958280E+02  0.10213862011E+03  0.00000000000E+00 0. -1.
</event>
<event>
 4    1  0.6718357E+001  0.3439682E+02  0.7546771E-02  0.1384854E+00
          2   -1    0    0  502    0  0.00000000000E+00  0.00000000000E+00  0.27476103720E+04  0.27476103720E+04  0.00000000000E+00 0.  1.
         -2   -1    0    0    0  501 -0.00000000000E+00 -0.00000000000E+00 -0.69671805188E+00  0.69671805188E+00  0.00000000000E+00 0. -1.
          1    1    1    2  502    0 -0.32844323468E+02  0.10217219361E+02  0.52420220197E+03  0.52532950584E+03  0.00000000000E+00 0. -1.
         -1    1    1    2    0  501  0.32844323468E+02 -0.10217219361E+02  0.22227114520E+04  0.22229775843E+04  0.00000000000E+00 0.  1.
</event>
<event>
 4    1  0.6718357E+001  0.2496525E+02  0.7546771E-02  0.1469193E+00
          2   -1    0    0  502    0  0.00000000000E+00  0.00000000000E+00  0.19895855025E+03  0.19895855025E+03  0.00000000000E+00 0.  1.
         -2   -1    0    0    0  501 -0.00000000000E+00 -0.00000000000E+00 -0.40093109892E+01  0.40093109892E+01  0.00000000000E+00 0. -1.
          1    1    1    2  502    0  0.23967717987E+02 -0.69865586632E+01  0.50019483701E+02  0.55903597891E+02  0.00000000000E+00 0. -1.
         -1    1    1    2    0  501 -0.23967717987E+02  0.69865586632E+01  0.14492975556E+03  0.14706426335E+03  0.00000000000E+00 0.  1.
</event>
<event>
 4    1  0.6718357E+001  0.2811710E+02  0.7546771E-02  0.1436698E+00
          2   -1    0    0  502    0  0.00000000000E+00  0.00000000000E+00  0.36676918564E+03  0.36676918564E+03  0.00000000000E+00 0. -1.
         -2   -1    0    0    0  501 -0.00000000000E+00 -0.00000000000E+00 -0.22849856587E+01  0.22849856587E+01  0.00000000000E+00 0.  1.
          1    1    1    2  502    0 -0.25546750510E+02  0.11744576957E+02  0.13831559875E+03  0.14114452312E+03  0.00000000000E+00 0.  1.
         -1    1    1    2    0  501  0.25546750510E+02 -0.11744576957E+02  0.22616860124E+03  0.22790964818E+03  0.00000000000E+00 0. -1.
</event>
<event>
 4    1  0.6718357E+001  0.2006148E+02  0.7546771E-02  0.1533098E+00
          2   -1    0    0  502    0  0.00000000000E+00  0.00000000000E+00  0.86362306240E+03  0.86362306240E+03  0.00000000000E+00 0.  1.
         -2   -1    0    0    0  501 -0.00000000000E+00 -0.00000000000E+00 -0.46615324624E+00  0.46615324624E+00  0.00000000000E+00 0. -1.
          1    1    1    2  502    0  0.24546877148E+01  0.19910739258E+02  0.42419219096E+03  0.42466631359E+03  0.00000000000E+00 0.  1.
         -1    1    1    2    0  501 -0.24546877148E+01 -0.19910739258E+02  0.43896471820E+03  0.43942290206E+03  0.00000000000E+00 0. -1.
</event>
<event>
 4    1  0.6718357E+001  0.2382789E+02  0.7546771E-02  0.1482356E+00
          2   -1    0    0  502    0  0.00000000000E+00  0.00000000000E+00  0.64925423085E+02  0.64925423085E+02  0.00000000000E+00 0. -1.
         -2   -1    0    0    0  501 -0.00000000000E+00 -0.00000000000E+00 -0.10181685820E+02  0.10181685820E+02  0.00000000000E+00 0.  1.
          1    1    1    2  502    0  0.45703447356E+00 -0.23823511431E+02  0.13264955439E+02  0.27271369973E+02  0.00000000000E+00 0.  1.
         -1    1    1    2    0  501 -0.45703447356E+00  0.23823511431E+02  0.41478781826E+02  0.47835738932E+02  0.00000000000E+00 0. -1.
</event>
<event>
 4    1  0.6718357E+001  0.2145252E+02  0.7546771E-02  0.1512901E+00
          2   -1    0    0  502    0  0.00000000000E+00  0.00000000000E+00  0.13369908935E+04  0.13369908935E+04  0.00000000000E+00 0.  1.
         -2   -1    0    0    0  501 -0.00000000000E+00 -0.00000000000E+00 -0.43631947788E+00  0.43631947788E+00  0.00000000000E+00 0. -1.
          1    1    1    2  502    0  0.64076508210E+01  0.20473217399E+02  0.97551974504E+03  0.97575559623E+03  0.00000000000E+00 0.  1.
         -1    1    1    2    0  501 -0.64076508210E+01 -0.20473217399E+02  0.36103482896E+03  0.36167161672E+03  0.00000000000E+00 0. -1.
</event>
<event>
 4    1  0.6718357E+001  0.3622506E+02  0.7546771E-02  0.1372149E+00
          2   -1    0    0  502    0  0.00000000000E+00  0.00000000000E+00  0.23208027394E+04  0.23208027394E+04  0.00000000000E+00 0.  1.
         -2   -1    0    0    0  501 -0.00000000000E+00 -0.00000000000E+00 -0.56999016050E+00  0.56999016050E+00  0.00000000000E+00 0. -1.
          1    1    1    2  502    0  0.22603761966E+02 -0.28307684931E+02  0.10563163081E+04  0.10569372724E+04  0.00000000000E+00 0. -1.
         -1    1    1    2    0  501 -0.22603761966E+02  0.28307684931E+02  0.12639164412E+04  0.12644354572E+04  0.00000000000E+00 0.  1.
</event>
<event>
 4    1  0.6718357E+001  0.3512637E+02  0.7546771E-02  0.1379677E+00
          2   -1    0    0  502    0  0.00000000000E+00  0.00000000000E+00  0.49804020677E+03  0.49804020677E+03  0.00000000000E+00 0. -1.
         -2   -1    0    0    0  501 -0.00000000000E+00 -0.00000000000E+00 -0.29017605686E+01  0.29017605686E+01  0.00000000000E+00 0.  1.
          1    1    1    2  502    0 -0.14098767552E+02 -0.32172764868E+02  0.15178886992E+03  0.15580026661E+03  0.00000000000E+00 0. -1.
         -1    1    1    2    0  501  0.14098767552E+02  0.32172764868E+02  0.34334957629E+03  0.34514170073E+03  0.00000000000E+00 0.  1.
</event>
<event>
 4    1  0.6718357E+001  0.2419341E+02  0.7546771E-02  0.1478033E+00
          2   -1    0    0  502    0  0.00000000000E+00  0.00000000000E+00  0.63284964881E+03  0.63284964881E+03  0.00000000000E+00 0.  1.
         -2   -1    0    0    0  501 -0.00000000000E+00 -0.00000000000E+00 -0.21851044041E+01  0.21851044041E+01  0.00000000000E+00 0. -1.
          1    1    1    2  502    0  0.28235524890E+01  0.24028079518E+02  0.74201670473E+02  0.78046197569E+02  0.00000000000E+00 0. -1.
         -1    1    1    2    0  501 -0.28235524890E+01 -0.24028079518E+02  0.55646287393E+03  0.55698855565E+03  0.00000000000E+00 0.  1.
</event>
<event>
 4    1  0.6718357E+001  0.3083561E+02  0.7546771E-02  0.1412471E+00
          2   -1    0    0  502    0  0.00000000000E+00  0.00000000000E+00  0.31460649623E+03  0.31460649623E+03  0.00000000000E+00 0. -1.
         -2   -1    0    0    0  501 -0.00000000000E+00 -0.00000000000E+00 -0.32863193950E+01  0.32863193950E+01  0.00000000000E+00 0.  1.
          1    1    1    2  502    0 -0.29562757029E+02  0.87680264684E+01  0.11060803499E+03  0.11482583461E+03  0.00000000000E+00 0.  1.
         -1    1    1    2    0  501  0.29562757029E+02 -0.87680264684E+01  0.20071214185E+03  0.20306698101E+03  0.00000000000E+00 0. -1.
</event>
<event>
 4    1  0.6718357E+001  0.2407361E+02  0.7546771E-02  0.1479440E+00
          2   -1    0    0  502    0  0.00000000000E+00  0.00000000000E+00  0.30514970937E+01  0.30514970937E+01  0.00000000000E+00 0. -1.
         -2   -1    0    0    0  501 -0.00000000000E+00 -0.00000000000E+00 -0.19457436623E+03  0.19457436623E+03  0.00000000000E+00 0.  1.
          1    1    1    2  502    0  0.23944963662E+02  0.24854060881E+01 -0.11104514371E+03  0.11362465608E+03  0.00000000000E+00 0.  1.
         -1    1    1    2    0  501 -0.23944963662E+02 -0.24854060881E+01 -0.80477725419E+02  0.84001207235E+02  0.00000000000E+00 0. -1.
</event>
<event>
 4    1  0.6718357E+001  0.5941957E+02  0.7546771E-02  0.1261818E+00
          2   -1    0    0  502    0  0.00000000000E+00  0.00000000000E+00  0.13184355187E+04  0.13184355187E+04  0.00000000000E+00 0.  1.
         -2   -1    0    0    0  501 -0.00000000000E+00 -0.00000000000E+00 -0.34040008989E+01  0.34040008989E+01  0.00000000000E+00 0. -1.
          1    1    1    2  502    0 -0.49526689988E+02 -0.32829753911E+02  0.96275591301E+03  0.96458780513E+03  0.00000000000E+00 0.  1.
         -1    1    1    2    0  501  0.49526689988E+02  0.32829753911E+02  0.35227560484E+03  0.35725171452E+03  0.00000000000E+00 0. -1.
</event>
<event>
 4    1  0.6718357E+001  0.2346355E+02  0.7546771E-02  0.1486758E+00
          2   -1    0    0  502    0  0.00000000000E+00  0.00000000000E+00  0.74207133517E+02  0.74207133517E+02  0.00000000000E+00 0.  1.
         -2   -1    0    0    0  501 -0.00000000000E+00 -0.00000000000E+00 -0.77912973938E+01  0.77912973938E+01  0.00000000000E+00 0. -1.
          1    1    1    2  502    0  0.17722210454E+02 -0.15377302307E+02  0.24244958352E+02  0.33739534305E+02  0.00000000000E+00 0.  1.
         -1    1    1    2    0  501 -0.17722210454E+02  0.15377302307E+02  0.42170877770E+02  0.48258896605E+02  0.00000000000E+00 0. -1.
</event>
<event>
 4    1  0.6718357E+001  0.3020408E+02  0.7546771E-02  0.1417831E+00
          2   -1    0    0  502    0  0.00000000000E+00  0.00000000000E+00  0.15173361752E+04  0.15173361752E+04  0.00000000000E+00 0.  1.
         -2   -1    0    0    0  501 -0.00000000000E+00 -0.00000000000E+00 -0.13865861989E+01  0.13865861989E+01  0.00000000000E+00 0. -1.
          1    1    1    2  502    0  0.15942058922E+02 -0.25654183596E+02  0.18648949452E+03  0.18891960709E+03  0.00000000000E+00 0. -1.
         -1    1    1    2    0  501 -0.15942058922E+02  0.25654183596E+02  0.13294600945E+04  0.13298031543E+04  0.00000000000E+00 0.  1.
</event>
<event>
 4    1  0.6718357E+001  0.2457515E+02  0.7546771E-02  0.1473613E+00
          2   -1    0    0  502    0  0.00000000000E+00  0.00000000000E+00  0.18081794434E+03  0.18081794434E+03  0.00000000000E+00 0. -1.
         -2   -1    0    0    0  501 -0.00000000000E+00 -0.00000000000E+00 -0.34423700532E+01  0.34423700532E+01  0.00000000000E+00 0.  1.
          1    1    1    2  502    0  0.23500301941E+02  0.71884562849E+01  0.72802787419E+02  0.76838687853E+02  0.00000000000E+00 0.  1.
         -1    1    1    2    0  501 -0.23500301941E+02 -0.71884562849E+01  0.10457278686E+03  0.10742162654E+03  0.00000000000E+00 0. -1.
</event>
<event>
 4    1  0.6718357E+001  0.4016101E+02  0.7546771E-02  0.1347545E+00
          2   -1    0    0  502    0  0.00000000000E+00  0.00000000000E+00  0.24351755103E+03  0.24351755103E+03  0.00000000000E+00 0.  1.
         -2   -1    0    0    0  501 -0.00000000000E+00 -0.00000000000E+00 -0.69822589857E+01  0.69822589857E+01  0.00000000000E+00 0. -1.
          1    1    1    2  502    0 -0.32174755755E+02  0.24035215823E+02  0.14666385242E+03  0.15206311885E+03  0.00000000000E+00 0. -1.
         -1    1    1    2    0  501  0.32174755755E+02 -0.24035215823E+02  0.89871439622E+02  0.98436691164E+02  0.00000000000E+00 0.  1.
</event>
<event>
 4    1  0.6718357E+001  0.2015086E+02  0.7546771E-02  0.1531742E+00
          2   -1    0    0  502    0  0.00000000000E+00  0.00000000000E+00  0.20546834612E+03  0.20546834612E+03  0.00000000000E+00 0. -1.
         -2   -1    0    0    0  501 -0.00000000000E+00 -0.00000000000E+00 -0.29356789790E+01  0.29356789790E+01  0.00000000000E+00 0.  1.
          1    1    1    2  502    0 -0.20144091750E+02  0.52240850953E+00  0.16083634236E+03  0.16209375795E+03  0.00000000000E+00 0. -1.
         -1    1    1    2    0  501  0.20144091750E+02 -0.52240850953E+00  0.41696324785E+02  0.46310267151E+02  0.00000000000E+00 0.  1.
</event>
<event>
 4    1  0.6718357E+001  0.2941530E+02  0.7546771E-02  0.1424746E+00
          2   -1    0    0  502    0  0.00000000000E+00  0.00000000000E+00  0.40104603128E+03  0.40104603128E+03  0.00000000000E+00 0. -1.
         -2   -1    0    0    0  501 -0.00000000000E+00 -0.00000000000E+00 -0.21752417321E+01  0.21752417321E+01  0.00000000000E+00 0.  1.
          1    1    1    2  502    0 -0.29401845024E+02  0.88956231911E+00  0.18123142410E+03  0.18360307430E+03  0.00000000000E+00 0.  1.
         -1    1    1    2    0  501  0.29401845024E+02 -0.88956231911E+00  0.21763936545E+03  0.21961819872E+03  0.00000000000E+00 0. -1.
</event>
<event>
 4    1  0.6718357E+001  0.3787835E+02  0.7546771E-02  0.1361388E+00
          2   -1    0    0  502    0  0.00000000000E+00  0.00000000000E+00  0.30595441282E+04  0.30595441282E+04  0.00000000000E+00 0. -1.
         -2   -1    0    0    0  501 -0.00000000000E+00 -0.00000000000E+00 -0.66450325364E+00  0.66450325364E+00  0.00000000000E+00 0.  1.
          1    1    1    2  502    0  0.31674168160E+02 -0.20772968337E+02  0.23594940804E+04  0.23597981025E+04  0.00000000000E+00 0. -1.
         -1    1    1    2    0  501 -0.31674168160E+02  0.20772968337E+02  0.69938554456E+03  0.70041052896E+03  0.00000000000E+00 0.  1.
</event>
<event>
 4    1  0.6718357E+001  0.2955544E+02  0.7546771E-02  0.1423500E+00
          2   -1    0    0  502    0  0.00000000000E+00  0.00000000000E+00  0.22287704501E+04  0.22287704501E+04  0.00000000000E+00 0.  1.
         -2   -1    0    0    0  501 -0.00000000000E+00 -0.00000000000E+00 -0.71578646311E+00  0.71578646311E+00  0.00000000000E+00 0. -1.
          1    1    1    2  502    0 -0.52970659548E+01  0.29076878313E+02  0.36420423292E+03  0.36540148746E+03  0.00000000000E+00 0. -1.
         -1    1    1    2    0  501  0.52970659548E+01 -0.29076878313E+02  0.18638504307E+04  0.18640847491E+04  0.00000000000E+00 0.  1.
</event>
<event>
 4    1  0.6718357E+001  0.3789442E+02  0.7546771E-02  0.1361287E+00
          2   -1    0    0  502    0  0.00000000000E+00  0.00000000000E+00  0.70430194026E+02  0.70430194026E+02  0.00000000000E+00 0. -1.
         -2   -1    0    0    0  501 -0.00000000000E+00 -0.00000000000E+00 -0.28007825321E+02  0.28007825321E+02  0.00000000000E+00 0.  1.
          1    1    1    2  502    0  0.37865512745E+02  0.14799750652E+01  0.46882184381E+02  0.60282058640E+02  0.00000000000E+00 0. -1.
         -1    1    1    2    0  501 -0.37865512745E+02 -0.14799750652E+01 -0.44598156764E+01  0.38155960707E+02  0.00000000000E+00 0.  1.
</event>
<event>
 4    1  0.6718357E+001  0.6615536E+02  0.7546771E-02  0.1240240E+00
          2   -1    0    0  502    0  0.00000000000E+00  0.00000000000E+00  0.77069148601E+02  0.77069148601E+02  0.00000000000E+00 0.  1.
         -2   -1    0    0    0  501 -0.00000000000E+00 -0.00000000000E+00 -0.94768892508E+02  0.94768892508E+02  0.00000000000E+00 0. -1.
          1    1    1    2  502    0  0.60126004224E+02 -0.27593399265E+02  0.45543282502E+02  0.80316390905E+02  0.00000000000E+00 0.  1.
         -1    1    1    2    0  501 -0.60126004224E+02  0.27593399265E+02 -0.63243026408E+02  0.91521650205E+02  0.00000000000E+00 0. -1.
</event>
<event>
 4    1  0.6718357E+001  0.2126953E+02  0.7546771E-02  0.1515451E+00
          2   -1    0    0  502    0  0.00000000000E+00  0.00000000000E+00  0.84455108753E+03  0.84455108753E+03  0.00000000000E+00 0.  1.
         -2   -1    0    0    0  501 -0.00000000000E+00 -0.00000000000E+00 -0.56605446561E+00  0.56605446561E+00  0.00000000000E+00 0. -1.
          1    1    1    2  502    0 -0.11425198384E+02  0.17940398480E+02  0.32407776587E+03  0.32477498577E+03  0.00000000000E+00 0. -1.
         -1    1    1    2    0  501  0.11425198384E+02 -0.17940398480E+02  0.51990726720E+03  0.52034215622E+03  0.00000000000E+00 0.  1.
</event>
<event>
 4    1  0.6718357E+001  0.4951795E+02  0.7546771E-02  0.1300276E+00
          2   -1    0    0  502    0  0.00000000000E+00  0.00000000000E+00  0.33281415568E+04  0.33281415568E+04  0.00000000000E+00 0. -1.
         -2   -1    0    0    0  501 -0.00000000000E+00 -0.00000000000E+00 -0.73690447990E+00  0.73690447990E+00  0.00000000000E+00 0.  1.
          1    1    1    2  502    0 -0.48325387803E+02  0.10802039257E+02  0.16873549917E+04  0.16880814244E+04  0.00000000000E+00 0. -1.
         -1    1    1    2    0  501  0.48325387803E+02 -0.10802039257E+02  0.16400496606E+04  0.16407970369E+04  0.00000000000E+00 0.  1.
</event>
<event>
 4    1  0.6718357E+001  0.2061446E+02  0.7546771E-02  0.1524841E+00
          2   -1    0    0  502    0  0.00000000000E+00  0.00000000000E+00  0.87515614723E+01  0.87515614723E+01  0.00000000000E+00 0. -1.
         -2   -1    0    0    0  501 -0.00000000000E+00 -0.00000000000E+00 -0.62458879848E+02  0.62458879848E+02  0.00000000000E+00 0.  1.
          1    1    1    2  502    0  0.15321821072E+02 -0.13791221957E+02 -0.43651051602E+02  0.48273909205E+02  0.00000000000E+00 0.  1.
         -1    1    1    2    0  501 -0.15321821072E+02  0.13791221957E+02 -0.10056266774E+02  0.22936532115E+02  0.00000000000E+00 0. -1.
</event>
<event>
 4    1  0.6718357E+001  0.3863275E+02  0.7546771E-02  0.1356690E+00
          2   -1    0    0  502    0  0.00000000000E+00  0.00000000000E+00  0.31993416065E+02  0.31993416065E+02  0.00000000000E+00 0.  1.
         -2   -1    0    0    0  501 -0.00000000000E+00 -0.00000000000E+00 -0.15386540289E+03  0.15386540289E+03  0.00000000000E+00 0. -1.
          1    1    1    2  502    0 -0.16269863013E+02 -0.35039708277E+02 -0.13850915386E+03  0.14379595022E+03  0.00000000000E+00 0. -1.
         -1    1    1    2    0  501  0.16269863013E+02  0.35039708277E+02  0.16637167036E+02  0.42062868728E+02  0.00000000000E+00 0.  1.
</event>
<event>
 4    1  0.6718357E+001  0.3505752E+02  0.7546771E-02  0.1380159E+00
          2   -1    0    0  502    0  0.00000000000E+00  0.00000000000E+00  0.89050120991E+01  0.89050120991E+01  0.00000000000E+00 0.  1.
         -2   -1    0    0    0  501 -0.00000000000E+00 -0.00000000000E+00 -0.16272424480E+03  0.16272424480E+03  0.00000000000E+00 0. -1.
          1    1    1    2  502    0  0.15597010418E+02 -0.31396859741E+02 -0.11034918724E+03  0.11578416411E+03  0.00000000000E+00 0. -1.
         -1    1    1    2    0  501 -0.15597010418E+02  0.31396859741E+02 -0.43470045462E+02  0.55845092784E+02  0.00000000000E+00 0.  1.
</event>
<event>
 4    1  0.6718357E+001  0.4659025E+02  0.7546771E-02  0.1313674E+00
          2   -1    0    0  502    0  0.00000000000E+00  0.00000000000E+00  0.17242083523E+04  0.17242083523E+04  0.00000000000E+00 0.  1.
         -2   -1    0    0    0  501 -0.00000000000E+00 -0.00000000000E+00 -0.12747226966E+01  0.12747226966E+01  0.00000000000E+00 0. -1.
          1    1    1    2  502    0  0.46520258556E+02  0.25528674562E+01  0.76542749019E+03  0.76684411345E+03  0.00000000000E+00 0. -1.
         -1    1    1    2    0  501 -0.46520258556E+02 -0.25528674562E+01  0.95750613937E+03  0.95863896151E+03  0.00000000000E+00 0.  1.
</event>
<event>
 4    1  0.6718357E+001  0.2337696E+02  0.7546771E-02  0.1487818E+00
          2   -1    0    0  502    0  0.00000000000E+00  0.00000000000E+00  0.12518790754E+04  0.12518790754E+04  0.00000000000E+00 0. -1.
         -2   -1    0    0    0  501 -0.00000000000E+00 -0.00000000000E+00 -0.44290586881E+00  0.44290586881E+00  0.00000000000E+00 0.  1.
          1    1    1    2  502    0 -0.46930306477E+01  0.22901039538E+02  0.55058746742E+03  0.55108351584E+03  0.00000000000E+00 0. -1.
         -1    1    1    2    0  501  0.46930306477E+01 -0.22901039538E+02  0.70084870215E+03  0.70123846547E+03  0.00000000000E+00 0.  1.
</event>
<event>
 4    1  0.6718357E+001  0.3914185E+02  0.7546771E-02  0.1353589E+00
          2   -1    0    0  502    0  0.00000000000E+00  0.00000000000E+00  0.63468445278E+03  0.63468445278E+03  0.00000000000E+00 0. -1.
         -2   -1    0    0    0  501 -0.00000000000E+00 -0.00000000000E+00 -0.27726179143E+01  0.27726179143E+01  0.00000000000E+00 0.  1.
          1    1    1    2  502    0  0.38681148842E+02  0.59877518610E+01  0.43059527072E+03  0.43237064148E+03  0.00000000000E+00 0. -1.
         -1    1    1    2    0  501 -0.38681148842E+02 -0.59877518610E+01  0.20131656415E+03  0.20508642921E+03  0.00000000000E+00 0.  1.
</event>
<event>
 4    1  0.6718357E+001  0.2139148E+02  0.7546771E-02  0.1513748E+00
          2   -1    0    0  502    0  0.00000000000E+00  0.00000000000E+00  0.32682791924E+02  0.32682791924E+02  0.00000000000E+00 0.  1.
         -2   -1    0    0    0  501 -0.00000000000E+00 -0.00000000000E+00 -0.14130154398E+02  0.14130154398E+02  0.00000000000E+00 0. -1.
          1    1    1    2  502    0  0.16337612876E+02 -0.13808616875E+02  0.70395276529E+01  0.22520000979E+02  0.00000000000E+00 0. -1.
         -1    1    1    2    0  501 -0.16337612876E+02  0.13808616875E+02  0.11513109873E+02  0.24292945343E+02  0.00000000000E+00 0.  1.
</event>
<event>
 4    1  0.6718357E+001  0.3221053E+02  0.7546771E-02  0.1401312E+00
          2   -1    0    0  502    0  0.00000000000E+00  0.00000000000E+00  0.12272949170E+03  0.12272949170E+03  0.00000000000E+00 0.  1.
         -2   -1    0    0    0  501 -0.00000000000E+00 -0.00000000000E+00 -0.85265406323E+01  0.85265406323E+01  0.00000000000E+00 0. -1.
          1    1    1    2  502    0 -0.18029092680E+02  0.26692134907E+02  0.63167316763E+02  0.70905769553E+02  0.00000000000E+00 0. -1.
         -1    1    1    2    0  501  0.18029092680E+02 -0.26692134907E+02  0.51035634304E+02  0.60350262780E+02  0.00000000000E+00 0.  1.
</event>
<event>
 4    1  0.6718357E+001  0.2737460E+02  0.7546771E-02  0.1443881E+00
          2   -1    0    0  502    0  0.00000000000E+00  0.00000000000E+00  0.67693381756E+02  0.67693381756E+02  0.00000000000E+00 0. -1.
         -2   -1    0    0    0  501 -0.00000000000E+00 -0.00000000000E+00 -0.11880258799E+02  0.11880258799E+02  0.00000000000E+00 0.  1.
          1    1    1    2  502    0 -0.24389284940E+02  0.12431071493E+02  0.17516306776E+02  0.32499073240E+02  0.00000000000E+00 0.  1.
         -1    1    1    2    0  501  0.24389284940E+02 -0.12431071493E+02  0.38296816181E+02  0.47074567315E+02  0.00000000000E+00 0. -1.
</event>
<event>
 4    1  0.6718357E+001  0.3133015E+02  0.7546771E-02  0.1408379E+00
          2   -1    0    0  502    0  0.00000000000E+00  0.00000000000E+00  0.53267685049E+02  0.53267685049E+02  0.00000000000E+00 0.  1.
         -2   -1    0    0    0  501 -0.00000000000E+00 -0.00000000000E+00 -0.20563056584E+02  0.20563056584E+02  0.00000000000E+00 0. -1.
          1    1    1    2  502    0 -0.57232478288E+01  0.30802962324E+02  0.28249445482E+02  0.42185414822E+02  0.00000000000E+00 0.  1.
         -1    1    1    2    0  501  0.57232478288E+01 -0.30802962324E+02  0.44551829831E+01  0.31645326812E+02  0.00000000000E+00 0. -1.
</event>
<event>
 4    1  0.6718357E+001  0.2253856E+02  0.7546771E-02  0.1498375E+00
          2   -1    0    0  502    0  0.00000000000E+00  0.00000000000E+00  0.12999680340E+03  0.12999680340E+03  0.00000000000E+00 0.  1.
         -2   -1    0    0    0  501 -0.00000000000E+00 -0.00000000000E+00 -0.59272268600E+01  0.59272268600E+01  0.00000000000E+00 0. -1.
          1    1    1    2  502    0  0.53309060845E+01  0.21899039406E+02  0.10170522321E+03  0.10417263995E+03  0.00000000000E+00 0.  1.
         -1    1    1    2    0  501 -0.53309060845E+01 -0.21899039406E+02  0.22364353333E+02  0.31751390310E+02  0.00000000000E+00 0. -1.
</event>
<event>
 4    1  0.6718357E+001  0.2256975E+02  0.7546771E-02  0.1497973E+00
          2   -1    0    0  502    0  0.00000000000E+00  0.00000000000E+00  0.46270151550E+03  0.46270151550E+03  0.00000000000E+00 0. -1.
         -2   -1    0    0    0  501 -0.00000000000E+00 -0.00000000000E+00 -0.11232651542E+01  0.11232651542E+01  0.00000000000E+00 0.  1.
          1    1    1    2  502    0  0.84850942445E+01 -0.20914036484E+02  0.26350437264E+03  0.26446918185E+03  0.00000000000E+00 0. -1.
         -1    1    1    2    0  501 -0.84850942445E+01  0.20914036484E+02  0.19807387770E+03  0.19935559880E+03  0.00000000000E+00 0.  1.
</event>
<event>
 4    1  0.6718357E+001  0.5636391E+02  0.7546771E-02  0.1272714E+00
          2   -1    0    0  502    0  0.00000000000E+00  0.00000000000E+00  0.11355188101E+04  0.11355188101E+04  0.00000000000E+00 0.  1.
         -2   -1    0    0    0  501 -0.00000000000E+00 -0.00000000000E+00 -0.32748564839E+01  0.32748564839E+01  0.00000000000E+00 0. -1.
          1    1    1    2  502    0 -0.41474173840E+02 -0.38167825952E+02  0.34878698062E+03  0.35331182811E+03  0.00000000000E+00 0. -1.
         -1    1    1    2    0  501  0.41474173840E+02  0.38167825952E+02  0.78345697303E+03  0.78548183851E+03  0.00000000000E+00 0.  1.
</event>
<event>
 4    1  0.6718357E+001  0.2230072E+02  0.7546771E-02  0.1501471E+00
          2   -1    0    0  502    0  0.00000000000E+00  0.00000000000E+00  0.50761085098E+03  0.50761085098E+03  0.00000000000E+00 0. -1.
         -2   -1    0    0    0  501 -0.00000000000E+00 -0.00000000000E+00 -0.10080783892E+01  0.10080783892E+01  0.00000000000E+00 0.  1.
          1    1    1    2  502    0 -0.89021226159E+01  0.20446860599E+02  0.29594704142E+03  0.29678607316E+03  0.00000000000E+00 0. -1.
         -1    1    1    2    0  501  0.89021226159E+01 -0.20446860599E+02  0.21065573118E+03  0.21183285622E+03  0.00000000000E+00 0.  1.
</event>
<event>
 4    1  0.6718357E+001  0.2181354E+02  0.7546771E-02  0.1507959E+00
          2   -1    0    0  502    0  0.00000000000E+00  0.00000000000E+00  0.24597088861E+03  0.24597088861E+03  0.00000000000E+00 0. -1.
         -2   -1    0    0    0  501 -0.00000000000E+00 -0.00000000000E+00 -0.19353511769E+01  0.19353511769E+01  0.00000000000E+00 0.  1.
          1    1    1    2  502    0 -0.20881804485E+02 -0.63071853706E+01  0.12461935312E+03  0.12651408426E+03  0.00000000000E+00 0. -1.
         -1    1    1    2    0  501  0.20881804485E+02  0.63071853706E+01  0.11941618431E+03  0.12139215552E+03  0.00000000000E+00 0.  1.
</event>
<event>
 4    1  0.6718357E+001  0.2168144E+02  0.7546771E-02  0.1509754E+00
          2   -1    0    0  502    0  0.00000000000E+00  0.00000000000E+00  0.16724735961E+04  0.16724735961E+04  0.00000000000E+00 0. -1.
         -2   -1    0    0    0  501 -0.00000000000E+00 -0.00000000000E+00 -0.34281483267E+00  0.34281483267E+00  0.00000000000E+00 0.  1.
          1    1    1    2  502    0 -0.21679807640E+02 -0.26636677031E+00  0.11910281436E+04  0.11912254715E+04  0.00000000000E+00 0. -1.
         -1    1    1    2    0  501  0.21679807640E+02  0.26636677031E+00  0.48110263761E+03  0.48159093941E+03  0.00000000000E+00 0.  1.
</event>
<event>
 4    1  0.6718357E+001  0.2046591E+02  0.7546771E-02  0.1527029E+00
          2   -1    0    0  502    0  0.00000000000E+00  0.00000000000E+00  0.17646432023E+04  0.17646432023E+04  0.00000000000E+00 0. -1.
         -2   -1    0    0    0  501 -0.00000000000E+00 -0.00000000000E+00 -0.24590819894E+00  0.24590819894E+00  0.00000000000E+00 0.  1.
          1    1    1    2  502    0 -0.20240653494E+02 -0.30280976984E+01  0.10467384856E+04  0.10469385419E+04  0.00000000000E+00 0.  1.
         -1    1    1    2    0  501  0.20240653494E+02  0.30280976984E+01  0.71765880859E+03  0.71795056862E+03  0.00000000000E+00 0. -1.
</event>
<event>
 4    1  0.6718357E+001  0.3840489E+02  0.7546771E-02  0.1358095E+00
          2   -1    0    0  502    0  0.00000000000E+00  0.00000000000E+00  0.18496106978E+04  0.18496106978E+04  0.00000000000E+00 0. -1.
         -2   -1    0    0    0  501 -0.00000000000E+00 -0.00000000000E+00 -0.82250292097E+00  0.82250292097E+00  0.00000000000E+00 0.  1.
          1    1    1    2  502    0  0.38223399162E+02  0.37292980163E+01  0.10859315333E+04  0.10866104320E+04  0.00000000000E+00 0.  1.
         -1    1    1    2    0  501 -0.38223399162E+02 -0.37292980163E+01  0.76285666158E+03  0.76382276872E+03  0.00000000000E+00 0. -1.
</event>
<event>
 4    1  0.6718357E+001  0.2077109E+02  0.7546771E-02  0.1522558E+00
          2   -1    0    0  502    0  0.00000000000E+00  0.00000000000E+00  0.21619013194E+02  0.21619013194E+02  0.00000000000E+00 0.  1.
         -2   -1    0    0    0  501 -0.00000000000E+00 -0.00000000000E+00 -0.21199783097E+02  0.21199783097E+02  0.00000000000E+00 0. -1.
          1    1    1    2  502    0 -0.14959347036E+02 -0.14410272489E+02  0.53944921475E+01  0.21460162219E+02  0.00000000000E+00 0.  1.
         -1    1    1    2    0  501  0.14959347036E+02  0.14410272489E+02 -0.49752620505E+01  0.21358634072E+02  0.00000000000E+00 0. -1.
</event>
<event>
 4    1  0.6718357E+001  0.2685809E+02  0.7546771E-02  0.1449039E+00
          2   -1    0    0  502    0  0.00000000000E+00  0.00000000000E+00  0.56502764456E+02  0.56502764456E+02  0.00000000000E+00 0. -1.
         -2   -1    0    0    0  501 -0.00000000000E+00 -0.00000000000E+00 -0.18506030700E+02  0.18506030700E+02  0.00000000000E+00 0.  1.
          1    1    1    2  502    0  0.33212570262E+01 -0.26651948816E+02  0.39884304786E+02  0.48084455827E+02  0.00000000000E+00 0. -1.
         -1    1    1    2    0  501 -0.33212570262E+01  0.26651948816E+02 -0.18875710292E+01  0.26924339329E+02  0.00000000000E+00 0.  1.
</event>
<event>
 4    1  0.6718357E+001  0.3004442E+02  0.7546771E-02  0.1419211E+00
          2   -1    0    0  502    0  0.00000000000E+00  0.00000000000E+00  0.19390425982E+03  0.19390425982E+03  0.00000000000E+00 0. -1.
         -2   -1    0    0    0  501 -0.00000000000E+00 -0.00000000000E+00 -0.54945176941E+01  0.54945176941E+01  0.00000000000E+00 0.  1.
          1    1    1    2  502    0 -0.12330669911E+02 -0.27397482388E+02  0.55238937014E+02  0.62880900312E+02  0.00000000000E+00 0.  1.
         -1    1    1    2    0  501  0.12330669911E+02  0.27397482388E+02  0.13317080512E+03  0.13651787721E+03  0.00000000000E+00 0. -1.
</event>
<event>
 4    1  0.6718357E+001  0.2289711E+02  0.7546771E-02  0.1493794E+00
          2   -1    0    0  502    0  0.00000000000E+00  0.00000000000E+00  0.11001214477E+03  0.11001214477E+03  0.00000000000E+00 0. -1.
         -2   -1    0    0    0  501 -0.00000000000E+00 -0.00000000000E+00 -0.91626694687E+01  0.91626694687E+01  0.00000000000E+00 0.  1.
          1    1    1    2  502    0 -0.77871614907E+01  0.21532245878E+02  0.91703200518E+02  0.94518540414E+02  0.00000000000E+00 0. -1.
         -1    1    1    2    0  501  0.77871614907E+01 -0.21532245878E+02  0.91462747871E+01  0.24656273829E+02  0.00000000000E+00 0.  1.
</event>
<event>
 4    1  0.6718357E+001  0.2071414E+02  0.7546771E-02  0.1523386E+00
          2   -1    0    0  502    0  0.00000000000E+00  0.00000000000E+00  0.59396477901E+02  0.59396477901E+02  0.00000000000E+00 0. -1.
         -2   -1    0    0    0  501 -0.00000000000E+00 -0.00000000000E+00 -0.10121179771E+02  0.10121179771E+02  0.00000000000E+00 0.  1.
          1    1    1    2  502    0  0.10713525142E+02 -0.17728393626E+02  0.43234657396E+02  0.47940704643E+02  0.00000000000E+00 0. -1.
         -1    1    1    2    0  501 -0.10713525142E+02  0.17728393626E+02  0.60406407343E+01  0.21576953029E+02  0.00000000000E+00 0.  1.
</event>
<event>
 4    1  0.6718357E+001  0.4211363E+02  0.7546771E-02  0.1336526E+00
          2   -1    0    0  502    0  0.00000000000E+00  0.00000000000E+00  0.38699617067E+02  0.38699617067E+02  0.00000000000E+00 0.  1.
         -2   -1    0    0    0  501 -0.00000000000E+00 -0.00000000000E+00 -0.48539499590E+02  0.48539499590E+02  0.00000000000E+00 0. -1.
          1    1    1    2  502    0 -0.53353486294E+00 -0.42110253129E+02  0.53880039611E+01  0.42456903616E+02  0.00000000000E+00 0.  1.
         -1    1    1    2    0  501  0.53353486294E+00  0.42110253129E+02 -0.15227886485E+02  0.44782213040E+02  0.00000000000E+00 0. -1.
</event>
<event>
 4    1  0.6718357E+001  0.5226388E+02  0.7546771E-02  0.1288644E+00
          2   -1    0    0  502    0  0.00000000000E+00  0.00000000000E+00  0.95568890013E+02  0.95568890013E+02  0.00000000000E+00 0.  1.
         -2   -1    0    0    0  501 -0.00000000000E+00 -0.00000000000E+00 -0.29599865026E+02  0.29599865026E+02  0.00000000000E+00 0. -1.
          1    1    1    2  502    0  0.16083127385E+02 -0.49727723996E+02  0.21376773951E+02  0.56466627178E+02  0.00000000000E+00 0. -1.
         -1    1    1    2    0  501 -0.16083127385E+02  0.49727723996E+02  0.44592251037E+02  0.68702127862E+02  0.00000000000E+00 0.  1.
</event>
<event>
 4    1  0.6718357E+001  0.5815058E+02  0.7546771E-02  0.1266249E+00
          2   -1    0    0  502    0  0.00000000000E+00  0.00000000000E+00  0.37581398662E+03  0.37581398662E+03  0.00000000000E+00 0. -1.
         -2   -1    0    0    0  501 -0.00000000000E+00 -0.00000000000E+00 -0.10226439555E+02  0.10226439555E+02  0.00000000000E+00 0.  1.
          1    1    1    2  502    0  0.38706876372E+02 -0.43396629963E+02  0.11588898669E+03  0.12966012111E+03  0.00000000000E+00 0.  1.
         -1    1    1    2    0  501 -0.38706876372E+02  0.43396629963E+02  0.24969856037E+03  0.25638030506E+03  0.00000000000E+00 0. -1.
</event>
<event>
 4    1  0.6718357E+001  0.2592491E+02  0.7546771E-02  0.1458717E+00
          2   -1    0    0  502    0  0.00000000000E+00  0.00000000000E+00  0.85958797930E+01  0.85958797930E+01  0.00000000000E+00 0. -1.
         -2   -1    0    0    0  501 -0.00000000000E+00 -0.00000000000E+00 -0.86056122212E+02  0.86056122212E+02  0.00000000000E+00 0.  1.
          1    1    1    2  502    0  0.88649188380E+01  0.24362143429E+02 -0.53039627924E+02  0.59036454405E+02  0.00000000000E+00 0.  1.
         -1    1    1    2    0  501 -0.88649188380E+01 -0.24362143429E+02 -0.24420614495E+02  0.35615547599E+02  0.00000000000E+00 0. -1.
</event>
<event>
 4    1  0.6718357E+001  0.2026058E+02  0.7546771E-02  0.1530089E+00
          2   -1    0    0  502    0  0.00000000000E+00  0.00000000000E+00  0.14348257273E+04  0.14348257273E+04  0.00000000000E+00 0. -1.
         -2   -1    0    0    0  501 -0.00000000000E+00 -0.00000000000E+00 -0.28645344110E+00  0.28645344110E+00  0.00000000000E+00 0.  1.
          1    1    1    2  502    0 -0.15347205805E+02  0.13227029969E+02  0.74278569720E+03  0.74306196445E+03  0.00000000000E+00 0.  1.
         -1    1    1    2    0  501  0.15347205805E+02 -0.13227029969E+02  0.69175357670E+03  0.69205021633E+03  0.00000000000E+00 0. -1.
</event>
<event>
 4    1  0.6718357E+001  0.3091562E+02  0.7546771E-02  0.1411803E+00
          2   -1    0    0  502    0  0.00000000000E+00  0.00000000000E+00  0.13211347614E+02  0.13211347614E+02  0.00000000000E+00 0. -1.
         -2   -1    0    0    0  501 -0.00000000000E+00 -0.00000000000E+00 -0.85975573109E+02  0.85975573109E+02  0.00000000000E+00 0.  1.
          1    1    1    2  502    0 -0.85671266410E+01 -0.29704883276E+02 -0.16635484127E+02  0.35107194155E+02  0.00000000000E+00 0. -1.
         -1    1    1    2    0  501  0.85671266410E+01  0.29704883276E+02 -0.56128741369E+02  0.64079726568E+02  0.00000000000E+00 0.  1.
</event>
<event>
 4    1  0.6718357E+001  0.2736597E+02  0.7546771E-02  0.1443966E+00
          2   -1    0    0  502    0  0.00000000000E+00  0.00000000000E+00  0.77678693201E+03  0.77678693201E+03  0.00000000000E+00 0. -1.
         -2   -1    0    0    0  501 -0.00000000000E+00 -0.00000000000E+00 -0.10085583432E+01  0.10085583432E+01  0.00000000000E+00 0.  1.
          1    1    1    2  502    0  0.17529681575E+02  0.21014437343E+02  0.46954488543E+03  0.47034167979E+03  0.00000000000E+00 0. -1.
         -1    1    1    2    0  501 -0.17529681575E+02 -0.21014437343E+02  0.30623348824E+03  0.30745381056E+03  0.00000000000E+00 0.  1.
</event>
<event>
 4    1  0.6718357E+001  0.5763437E+02  0.7546771E-02  0.1268089E+00
          2   -1    0    0  502    0  0.00000000000E+00  0.00000000000E+00  0.20738489300E+04  0.20738489300E+04  0.00000000000E+00 0. -1.
         -2   -1    0    0    0  501 -0.00000000000E+00 -0.00000000000E+00 -0.16025036146E+01  0.16025036146E+01  0.00000000000E+00 0.  1.
          1    1    1    2  502    0  0.37378614585E+01 -0.57513038229E+02  0.10131466043E+04  0.10147845894E+04  0.00000000000E+00 0. -1.
         -1    1    1    2    0  501 -0.37378614585E+01  0.57513038229E+02  0.10590998221E+04  0.10606668441E+04  0.00000000000E+00 0.  1.
</event>
<event>
 4    1  0.6718357E+001  0.2046455E+02  0.7546771E-02  0.1527049E+00
          2   -1    0    0  502    0  0.00000000000E+00  0.00000000000E+00  0.18272210522E+03  0.18272210522E+03  0.00000000000E+00 0. -1.
         -2   -1    0    0    0  501 -0.00000000000E+00 -0.00000000000E+00 -0.50010166478E+01  0.50010166478E+01  0.00000000000E+00 0.  1.
          1    1    1    2  502    0 -0.45055791476E+01  0.19962404643E+02  0.19778529478E+02  0.28460289368E+02  0.00000000000E+00 0.  1.
         -1    1    1    2    0  501  0.45055791476E+01 -0.19962404643E+02  0.15794255909E+03  0.15926283250E+03  0.00000000000E+00 0. -1.
</event>
<event>
 4    1  0.6718357E+001  0.2010120E+02  0.7546771E-02  0.1532494E+00
          2   -1    0    0  502    0  0.00000000000E+00  0.00000000000E+00  0.77580592801E+03  0.77580592801E+03  0.00000000000E+00 0. -1.
         -2   -1    0    0    0  501 -0.00000000000E+00 -0.00000000000E+00 -0.86182258147E+00  0.86182258147E+00  0.00000000000E+00 0.  1.
          1    1    1    2  502    0  0.10670301599E+02  0.17035344959E+02  0.14320063386E+03  0.14460456373E+03  0.00000000000E+00 0.  1.
         -1    1    1    2    0  501 -0.10670301599E+02 -0.17035344959E+02  0.63174347157E+03  0.63206318686E+03  0.00000000000E+00 0. -1.
</event>
<event>
 4    1  0.6718357E+001  0.4553052E+02  0.7546771E-02  0.1318808E+00
          2   -1    0    0  502    0  0.00000000000E+00  0.00000000000E+00  0.12653058441E+04  0.12653058441E+04  0.00000000000E+00 0. -1.
         -2   -1    0    0    0  501 -0.00000000000E+00 -0.00000000000E+00 -0.17348301006E+01  0.17348301006E+01  0.00000000000E+00 0.  1.
          1    1    1    2  502    0  0.44255430842E+02  0.10699780214E+02  0.78117668178E+03  0.78250241956E+03  0.00000000000E+00 0. -1.
         -1    1    1    2    0  501 -0.44255430842E+02 -0.10699780214E+02  0.48239433219E+03  0.48453825462E+03  0.00000000000E+00 0.  1.
</event>
<event>
 4    1  0.6718357E+001  0.2109703E+02  0.7546771E-02  0.1517884E+00
          2   -1    0    0  502    0  0.00000000000E+00  0.00000000000E+00  0.52747428478E+03  0.52747428478E+03  0.00000000000E+00 0. -1.
         -2   -1    0    0    0  501 -0.00000000000E+00 -0.00000000000E+00 -0.16996459951E+01  0.16996459951E+01  0.00000000000E+00 0.  1.
          1    1    1    2  502    0 -0.58499848595E+01  0.20269741845E+02  0.45063997058E+03  0.45113353660E+03  0.00000000000E+00 0. -1.
         -1    1    1    2    0  501  0.58499848595E+01 -0.20269741845E+02  0.75134668202E+02  0.78040394176E+02  0.00000000000E+00 0.  1.
</event>
<event>
 4    1  0.6718357E+001  0.2430183E+02  0.7546771E-02  0.1476768E+00
          2   -1    0    0  502    0  0.00000000000E+00  0.00000000000E+00  0.33616766358E+00  0.33616766358E+00  0.00000000000E+00 0. -1.
         -2   -1    0    0    0  501 -0.00000000000E+00 -0.00000000000E+00 -0.19369434510E+04  0.19369434510E+04  0.00000000000E+00 0.  1.
          1    1    1    2  502    0 -0.79045089790E+01 -0.22980373671E+02 -0.67290062284E+03  0.67333931049E+03  0.00000000000E+00 0. -1.
         -1    1    1    2    0  501  0.79045089790E+01  0.22980373671E+02 -0.12637066605E+04  0.12639403082E+04  0.00000000000E+00 0.  1.
</event>
<event>
 4    1  0.6718357E+001  0.3848130E+02  0.7546771E-02  0.1357623E+00
          2   -1    0    0  502    0  0.00000000000E+00  0.00000000000E+00  0.19058927937E+04  0.19058927937E+04  0.00000000000E+00 0. -1.
         -2   -1    0    0    0  501 -0.00000000000E+00 -0.00000000000E+00 -0.16912129979E+01  0.16912129979E+01  0.00000000000E+00 0.  1.
          1    1    1    2  502    0  0.11808257777E+02  0.36624795137E+02  0.25082845040E+03  0.25376312203E+03  0.00000000000E+00 0.  1.
         -1    1    1    2    0  501 -0.11808257777E+02 -0.36624795137E+02  0.16533731303E+04  0.16538208847E+04  0.00000000000E+00 0. -1.
</event>
<event>
 4    1  0.6718357E+001  0.3063372E+02  0.7546771E-02  0.1414168E+00
          2   -1    0    0  502    0  0.00000000000E+00  0.00000000000E+00  0.72812737840E+03  0.72812737840E+03  0.00000000000E+00 0.  1.
         -2   -1    0    0    0  501 -0.00000000000E+00 -0.00000000000E+00 -0.13963494540E+01  0.13963494540E+01  0.00000000000E+00 0. -1.
          1    1    1    2  502    0 -0.29551429725E+02  0.80708083186E+01  0.46458790551E+03  0.46559676427E+03  0.00000000000E+00 0.  1.
         -1    1    1    2    0  501  0.29551429725E+02 -0.80708083186E+01  0.26214312343E+03  0.26392696358E+03  0.00000000000E+00 0. -1.
</event>
<event>
 4    1  0.6718357E+001  0.2182373E+02  0.7546771E-02  0.1507821E+00
          2   -1    0    0  502    0  0.00000000000E+00  0.00000000000E+00  0.10671962976E+02  0.10671962976E+02  0.00000000000E+00 0.  1.
         -2   -1    0    0    0  501 -0.00000000000E+00 -0.00000000000E+00 -0.93146432951E+02  0.93146432951E+02  0.00000000000E+00 0. -1.
          1    1    1    2  502    0  0.19238952316E+02  0.10302332050E+02 -0.78701021082E+02  0.81670839663E+02  0.00000000000E+00 0. -1.
         -1    1    1    2    0  501 -0.19238952316E+02 -0.10302332050E+02 -0.37734488932E+01  0.22147556264E+02  0.00000000000E+00 0.  1.
</event>
<event>
 4    1  0.6718357E+001  0.2937017E+02  0.7546771E-02  0.1425150E+00
          2   -1    0    0  502    0  0.00000000000E+00  0.00000000000E+00  0.15492132698E+02  0.15492132698E+02  0.00000000000E+00 0. -1.
         -2   -1    0    0    0  501 -0.00000000000E+00 -0.00000000000E+00 -0.10285644597E+03  0.10285644597E+03  0.00000000000E+00 0.  1.
          1    1    1    2  502    0  0.12889503487E+02 -0.26390674561E+02 -0.83757606115E+02  0.88757780426E+02  0.00000000000E+00 0.  1.
         -1    1    1    2    0  501 -0.12889503487E+02  0.26390674561E+02 -0.36067071527E+01  0.29590798239E+02  0.00000000000E+00 0. -1.
</event>
<event>
 4    1  0.6718357E+001  0.2454673E+02  0.7546771E-02  0.1473938E+00
          2   -1    0    0  502    0  0.00000000000E+00  0.00000000000E+00  0.76402759882E+02  0.76402759882E+02  0.00000000000E+00 0.  1.
         -2   -1    0    0    0  501 -0.00000000000E+00 -0.00000000000E+00 -0.13156750086E+02  0.13156750086E+02  0.00000000000E+00 0. -1.
          1    1    1    2  502    0  0.17518789563E+02 -0.17194012417E+02  0.32812004982E+01  0.24765062638E+02  0.00000000000E+00 0. -1.
         -1    1    1    2    0  501 -0.17518789563E+02  0.17194012417E+02  0.59964809298E+02  0.64794447331E+02  0.00000000000E+00 0.  1.
</event>
<event>
 4    1  0.6718357E+001  0.8189218E+02  0.7546771E-02  0.1199522E+00
          2   -1    0    0  502    0  0.00000000000E+00  0.00000000000E+00  0.13306395827E+02  0.13306395827E+02  0.00000000000E+00 0.  1.
         -2   -1    0    0    0  501 -0.00000000000E+00 -0.00000000000E+00 -0.75769846525E+03  0.75769846525E+03  0.00000000000E+00 0. -1.
          1    1    1    2  502    0  0.81361930333E+02 -0.93040745097E+01 -0.14912464016E+03  0.17013079619E+03  0.00000000000E+00 0. -1.
         -1    1    1    2    0  501 -0.81361930333E+02  0.93040745097E+01 -0.59526742926E+03  0.60087406488E+03  0.00000000000E+00 0.  1.
</event>
<event>
 4    1  0.6718357E+001  0.2411917E+02  0.7546771E-02  0.1478903E+00
          2   -1    0    0  502    0  0.00000000000E+00  0.00000000000E+00  0.69409008326E+02  0.69409008326E+02  0.00000000000E+00 0.  1.
         -2   -1    0    0    0  501 -0.00000000000E+00 -0.00000000000E+00 -0.85854364026E+01  0.85854364026E+01  0.00000000000E+00 0. -1.
          1    1    1    2  502    0  0.22379619513E+02 -0.89937266870E+01  0.24397802275E+02  0.34307247706E+02  0.00000000000E+00 0.  1.
         -1    1    1    2    0  501 -0.22379619513E+02  0.89937266870E+01  0.36425769648E+02  0.43687197023E+02  0.00000000000E+00 0. -1.
</event>
<event>
 4    1  0.6718357E+001  0.2757947E+02  0.7546771E-02  0.1441872E+00
          2   -1    0    0  502    0  0.00000000000E+00  0.00000000000E+00  0.29513154772E+02  0.29513154772E+02  0.00000000000E+00 0. -1.
         -2   -1    0    0    0  501 -0.00000000000E+00 -0.00000000000E+00 -0.32791502172E+02  0.32791502172E+02  0.00000000000E+00 0.  1.
          1    1    1    2  502    0  0.65403787489E+01 -0.26792735872E+02  0.12773617771E+02  0.30393955988E+02  0.00000000000E+00 0. -1.
         -1    1    1    2    0  501 -0.65403787489E+01  0.26792735872E+02 -0.16051965171E+02  0.31910700956E+02  0.00000000000E+00 0.  1.
</event>
<event>
 4    1  0.6718357E+001  0.2054861E+02  0.7546771E-02  0.1525808E+00
          2   -1    0    0  502    0  0.00000000000E+00  0.00000000000E+00  0.50763726005E+03  0.50763726005E+03  0.00000000000E+00 0. -1.
         -2   -1    0    0    0  501 -0.00000000000E+00 -0.00000000000E+00 -0.13284818929E+01  0.13284818929E+01  0.00000000000E+00 0.  1.
          1    1    1    2  502    0  0.14506399050E+02  0.14553690147E+02  0.40876029214E+03  0.40927646150E+03  0.00000000000E+00 0. -1.
         -1    1    1    2    0  501 -0.14506399050E+02 -0.14553690147E+02  0.97548486012E+02  0.99689280435E+02  0.00000000000E+00 0.  1.
</event>
<event>
 4    1  0.6718357E+001  0.2034972E+02  0.7546771E-02  0.1528755E+00
          2   -1    0    0  502    0  0.00000000000E+00  0.00000000000E+00  0.79814137604E+00  0.79814137604E+00  0.00000000000E+00 0.  1.
         -2   -1    0    0    0  501 -0.00000000000E+00 -0.00000000000E+00 -0.52807047638E+03  0.52807047638E+03  0.00000000000E+00 0. -1.
          1    1    1    2  502    0  0.94993283748E+01  0.17996496453E+02 -0.29858897997E+03  0.29928162336E+03  0.00000000000E+00 0.  1.
         -1    1    1    2    0  501 -0.94993283748E+01 -0.17996496453E+02 -0.22868335503E+03  0.22958699439E+03  0.00000000000E+00 0. -1.
</event>
<event>
 4    1  0.6718357E+001  0.3364090E+02  0.7546771E-02  0.1390378E+00
          2   -1    0    0  502    0  0.00000000000E+00  0.00000000000E+00  0.14166652002E+03  0.14166652002E+03  0.00000000000E+00 0. -1.
         -2   -1    0    0    0  501 -0.00000000000E+00 -0.00000000000E+00 -0.79909523502E+01  0.79909523502E+01  0.00000000000E+00 0.  1.
          1    1    1    2  502    0  0.28950051527E+02 -0.17134903878E+02  0.68134583645E+02  0.75987050889E+02  0.00000000000E+00 0. -1.
         -1    1    1    2    0  501 -0.28950051527E+02  0.17134903878E+02  0.65540984027E+02  0.73670421483E+02  0.00000000000E+00 0.  1.
</event>
<event>
 4    1  0.6718357E+001  0.2587403E+02  0.7546771E-02  0.1459259E+00
          2   -1    0    0  502    0  0.00000000000E+00  0.00000000000E+00  0.95333060303E+01  0.95333060303E+01  0.00000000000E+00 0. -1.
         -2   -1    0    0    0  501 -0.00000000000E+00 -0.00000000000E+00 -0.70754142872E+02  0.70754142872E+02  0.00000000000E+00 0.  1.
          1    1    1    2  502    0 -0.13740325233E+02  0.21924164663E+02 -0.27135087685E+02  0.37493713038E+02  0.00000000000E+00 0.  1.
         -1    1    1    2    0  501  0.13740325233E+02 -0.21924164663E+02 -0.34085749156E+02  0.42793735864E+02  0.00000000000E+00 0. -1.
</event>
<event>
 4    1  0.6718357E+001  0.5900158E+02  0.7546771E-02  0.1263263E+00
          2   -1    0    0  502    0  0.00000000000E+00  0.00000000000E+00  0.28120379993E+02  0.28120379993E+02  0.00000000000E+00 0.  1.
         -2   -1    0    0    0  501 -0.00000000000E+00 -0.00000000000E+00 -0.12479288047E+03  0.12479288047E+03  0.00000000000E+00 0. -1.
          1    1    1    2  502    0 -0.56308568344E+01 -0.58732276572E+02 -0.41502321208E+02  0.72136187352E+02  0.00000000000E+00 0.  1.
         -1    1    1    2    0  501  0.56308568344E+01  0.58732276572E+02 -0.55170179271E+02  0.80777073114E+02  0.00000000000E+00 0. -1.
</event>
<event>
 4    1  0.6718357E+001  0.2438432E+02  0.7546771E-02  0.1475810E+00
          2   -1    0    0  502    0  0.00000000000E+00  0.00000000000E+00  0.58346433829E+02  0.58346433829E+02  0.00000000000E+00 0. -1.
         -2   -1    0    0    0  501 -0.00000000000E+00 -0.00000000000E+00 -0.10206318284E+02  0.10206318284E+02  0.00000000000E+00 0.  1.
          1    1    1    2  502    0 -0.13478804315E+02 -0.20320352270E+02  0.25408041163E+02  0.35215954309E+02  0.00000000000E+00 0. -1.
         -1    1    1    2    0  501  0.13478804315E+02  0.20320352270E+02  0.22732074382E+02  0.33336797805E+02  0.00000000000E+00 0.  1.
</event>
<event>
 4    1  0.6718357E+001  0.3145722E+02  0.7546771E-02  0.1407342E+00
          2   -1    0    0  502    0  0.00000000000E+00  0.00000000000E+00  0.50255972463E+03  0.50255972463E+03  0.00000000000E+00 0. -1.
         -2   -1    0    0    0  501 -0.00000000000E+00 -0.00000000000E+00 -0.26791721451E+01  0.26791721451E+01  0.00000000000E+00 0.  1.
          1    1    1    2  502    0  0.26753243548E+02  0.16547534013E+02  0.11988198214E+03  0.12394049607E+03  0.00000000000E+00 0.  1.
         -1    1    1    2    0  501 -0.26753243548E+02 -0.16547534013E+02  0.37999857034E+03  0.38129840071E+03  0.00000000000E+00 0. -1.
</event>
<event>
 4    1  0.6718357E+001  0.2012880E+02  0.7546771E-02  0.1532076E+00
          2   -1    0    0  502    0  0.00000000000E+00  0.00000000000E+00  0.27761065190E+03  0.27761065190E+03  0.00000000000E+00 0. -1.
         -2   -1    0    0    0  501 -0.00000000000E+00 -0.00000000000E+00 -0.15931780773E+01  0.15931780773E+01  0.00000000000E+00 0.  1.
          1    1    1    2  502    0  0.19570611706E+02  0.47074328825E+01  0.97568602098E+02  0.99623294878E+02  0.00000000000E+00 0. -1.
         -1    1    1    2    0  501 -0.19570611706E+02 -0.47074328825E+01  0.17844887173E+03  0.17958053510E+03  0.00000000000E+00 0.  1.
</event>
<event>
 4    1  0.6718357E+001  0.2367451E+02  0.7546771E-02  0.1484198E+00
          2   -1    0    0  502    0  0.00000000000E+00  0.00000000000E+00  0.63798319118E+03  0.63798319118E+03  0.00000000000E+00 0. -1.
         -2   -1    0    0    0  501 -0.00000000000E+00 -0.00000000000E+00 -0.10035295687E+01  0.10035295687E+01  0.00000000000E+00 0.  1.
          1    1    1    2  502    0  0.53756183738E+01  0.23056131523E+02  0.20572742120E+03  0.20708513782E+03  0.00000000000E+00 0. -1.
         -1    1    1    2    0  501 -0.53756183738E+01 -0.23056131523E+02  0.43125224041E+03  0.43190158293E+03  0.00000000000E+00 0.  1.
</event>
<event>
 4    1  0.6718357E+001  0.2259871E+02  0.7546771E-02  0.1497600E+00
          2   -1    0    0  502    0  0.00000000000E+00  0.00000000000E+00  0.79430860491E+03  0.79430860491E+03  0.00000000000E+00 0.  1.
         -2   -1    0    0    0  501 -0.00000000000E+00 -0.00000000000E+00 -0.66915370505E+00  0.66915370505E+00  0.00000000000E+00 0. -1.
          1    1    1    2  502    0 -0.21000014513E+02 -0.83487071618E+01  0.47547629659E+03  0.47601303568E+03  0.00000000000E+00 0.  1.
         -1    1    1    2    0  501  0.21000014513E+02  0.83487071618E+01  0.31816315462E+03  0.31896472293E+03  0.00000000000E+00 0. -1.
</event>
<event>
 4    1  0.6718357E+001  0.6080136E+02  0.7546771E-02  0.1257134E+00
          2   -1    0    0  502    0  0.00000000000E+00  0.00000000000E+00  0.14636875630E+04  0.14636875630E+04  0.00000000000E+00 0.  1.
         -2   -1    0    0    0  501 -0.00000000000E+00 -0.00000000000E+00 -0.31822852158E+01  0.31822852158E+01  0.00000000000E+00 0. -1.
          1    1    1    2  502    0 -0.56412248893E+02 -0.22681797257E+02  0.10634061134E+04  0.10651428861E+04  0.00000000000E+00 0.  1.
         -1    1    1    2    0  501  0.56412248893E+02  0.22681797257E+02  0.39709916443E+03  0.40172696218E+03  0.00000000000E+00 0. -1.
</event>
<event>
 4    1  0.6718357E+001  0.4510682E+02  0.7546771E-02  0.1320906E+00
          2   -1    0    0  502    0  0.00000000000E+00  0.00000000000E+00  0.21982990784E+03  0.21982990784E+03  0.00000000000E+00 0.  1.
         -2   -1    0    0    0  501 -0.00000000000E+00 -0.00000000000E+00 -0.99367995492E+01  0.99367995492E+01  0.00000000000E+00 0. -1.
          1    1    1    2  502    0 -0.43664297015E+02 -0.11316117562E+02  0.13502933041E+03  0.14236412969E+03  0.00000000000E+00 0. -1.
         -1    1    1    2    0  501  0.43664297015E+02  0.11316117562E+02  0.74863777879E+02  0.87402577701E+02  0.00000000000E+00 0.  1.
</event>
<event>
 4    1  0.6718357E+001  0.2455160E+02  0.7546771E-02  0.1473883E+00
          2   -1    0    0  502    0  0.00000000000E+00  0.00000000000E+00  0.83259054969E+01  0.83259054969E+01  0.00000000000E+00 0.  1.
         -2   -1    0    0    0  501 -0.00000000000E+00 -0.00000000000E+00 -0.16816750620E+03  0.16816750620E+03  0.00000000000E+00 0. -1.
          1    1    1    2  502    0  0.10946273676E+01  0.24527187762E+02 -0.13325976572E+02  0.27934974497E+02  0.00000000000E+00 0.  1.
         -1    1    1    2    0  501 -0.10946273676E+01 -0.24527187762E+02 -0.14651562413E+03  0.14855843720E+03  0.00000000000E+00 0. -1.
</event>
<event>
 4    1  0.6718357E+001  0.2425554E+02  0.7546771E-02  0.1477307E+00
          2   -1    0    0  502    0  0.00000000000E+00  0.00000000000E+00  0.27424519823E+04  0.27424519823E+04  0.00000000000E+00 0.  1.
         -2   -1    0    0    0  501 -0.00000000000E+00 -0.00000000000E+00 -0.21545282650E+00  0.21545282650E+00  0.00000000000E+00 0. -1.
          1    1    1    2  502    0 -0.24243263107E+02  0.77162051355E+00  0.12812454112E+04  0.12814749842E+04  0.00000000000E+00 0. -1.
         -1    1    1    2    0  501  0.24243263107E+02 -0.77162051355E+00  0.14609911182E+04  0.14611924509E+04  0.00000000000E+00 0.  1.
</event>
<event>
 4    1  0.6718357E+001  0.3547733E+02  0.7546771E-02  0.1377238E+00
          2   -1    0    0  502    0  0.00000000000E+00  0.00000000000E+00  0.10719562459E+04  0.10719562459E+04  0.00000000000E+00 0.  1.
         -2   -1    0    0    0  501 -0.00000000000E+00 -0.00000000000E+00 -0.11742494405E+01  0.11742494405E+01  0.00000000000E+00 0. -1.
          1    1    1    2  502    0 -0.34839121237E+02 -0.66989724772E+01  0.53052739091E+03  0.53171228414E+03  0.00000000000E+00 0. -1.
         -1    1    1    2    0  501  0.34839121237E+02  0.66989724772E+01  0.54025460552E+03  0.54141821117E+03  0.00000000000E+00 0.  1.
</event>
<event>
 4    1  0.6718357E+001  0.2590371E+02  0.7546771E-02  0.1458942E+00
          2   -1    0    0  502    0  0.00000000000E+00  0.00000000000E+00  0.13726879507E+04  0.13726879507E+04  0.00000000000E+00 0.  1.
         -2   -1    0    0    0  501 -0.00000000000E+00 -0.00000000000E+00 -0.52249961822E+00  0.52249961822E+00  0.00000000000E+00 0. -1.
          1    1    1    2  502    0 -0.24461383885E+02 -0.85230947208E+01  0.51177218876E+03  0.51242733693E+03  0.00000000000E+00 0. -1.
         -1    1    1    2    0  501  0.24461383885E+02  0.85230947208E+01  0.86039326231E+03  0.86078311338E+03  0.00000000000E+00 0.  1.
</event>
<event>
 4    1  0.6718357E+001  0.2019816E+02  0.7546771E-02  0.1531028E+00
          2   -1    0    0  502    0  0.00000000000E+00  0.00000000000E+00  0.44646248257E+02  0.44646248257E+02  0.00000000000E+00 0.  1.
         -2   -1    0    0    0  501 -0.00000000000E+00 -0.00000000000E+00 -0.16548741079E+02  0.16548741079E+02  0.00000000000E+00 0. -1.
          1    1    1    2  502    0  0.69999796129E+01  0.18946398802E+02  0.34524600275E+02  0.39998922064E+02  0.00000000000E+00 0.  1.
         -1    1    1    2    0  501 -0.69999796129E+01 -0.18946398802E+02 -0.64270930973E+01  0.21196067273E+02  0.00000000000E+00 0. -1.
</event>
<event>
 4    1  0.6718357E+001  0.2640578E+02  0.7546771E-02  0.1453670E+00
          2   -1    0    0  502    0  0.00000000000E+00  0.00000000000E+00  0.10545606818E+02  0.10545606818E+02  0.00000000000E+00 0.  1.
         -2   -1    0    0    0  501 -0.00000000000E+00 -0.00000000000E+00 -0.66128682634E+02  0.66128682634E+02  0.00000000000E+00 0. -1.
          1    1    1    2  502    0 -0.13332777185E+02  0.22792586956E+02 -0.27327619117E+02  0.38000838599E+02  0.00000000000E+00 0. -1.
         -1    1    1    2    0  501  0.13332777185E+02 -0.22792586956E+02 -0.28255456699E+02  0.38673450853E+02  0.00000000000E+00 0.  1.
</event>
<event>
 4    1  0.6718357E+001  0.2815393E+02  0.7546771E-02  0.1436349E+00
          2   -1    0    0  502    0  0.00000000000E+00  0.00000000000E+00  0.89488610256E+03  0.89488610256E+03  0.00000000000E+00 0. -1.
         -2   -1    0    0    0  501 -0.00000000000E+00 -0.00000000000E+00 -0.99727974724E+00  0.99727974724E+00  0.00000000000E+00 0.  1.
          1    1    1    2  502    0 -0.81304433169E+01 -0.26954404772E+02  0.29714461716E+03  0.29847540528E+03  0.00000000000E+00 0.  1.
         -1    1    1    2    0  501  0.81304433169E+01  0.26954404772E+02  0.59674420565E+03  0.59740797703E+03  0.00000000000E+00 0. -1.
</event>
<event>
 4    1  0.6718357E+001  0.2144515E+02  0.7546771E-02  0.1513003E+00
          2   -1    0    0  502    0  0.00000000000E+00  0.00000000000E+00  0.13501900126E+04  0.13501900126E+04  0.00000000000E+00 0.  1.
         -2   -1    0    0    0  501 -0.00000000000E+00 -0.00000000000E+00 -0.42898828901E+00  0.42898828901E+00  0.00000000000E+00 0. -1.
          1    1    1    2  502    0 -0.19260795445E+02  0.94295389553E+01  0.36837265910E+03  0.36899635556E+03  0.00000000000E+00 0.  1.
         -1    1    1    2    0  501  0.19260795445E+02 -0.94295389553E+01  0.98138836523E+03  0.98162264534E+03  0.00000000000E+00 0. -1.
</event>
<event>
 4    1  0.6718357E+001  0.2073526E+02  0.7546771E-02  0.1523078E+00
          2   -1    0    0  502    0  0.00000000000E+00  0.00000000000E+00  0.38637940535E+01  0.38637940535E+01  0.00000000000E+00 0. -1.
         -2   -1    0    0    0  501 -0.00000000000E+00 -0.00000000000E+00 -0.11188380733E+03  0.11188380733E+03  0.00000000000E+00 0.  1.
          1    1    1    2  502    0  0.17556241479E+02 -0.11033108133E+02 -0.49747613357E+02  0.53895975032E+02  0.00000000000E+00 0. -1.
         -1    1    1    2    0  501 -0.17556241479E+02  0.11033108133E+02 -0.58272399920E+02  0.61851626352E+02  0.00000000000E+00 0.  1.
</event>
<event>
 4    1  0.6718357E+001  0.2691218E+02  0.7546771E-02  0.1448492E+00
          2   -1    0    0  502    0  0.00000000000E+00  0.00000000000E+00  0.22914009936E+04  0.22914009936E+04  0.00000000000E+00 0.  1.
         -2   -1    0    0    0  501 -0.00000000000E+00 -0.00000000000E+00 -0.35211731477E+00  0.35211731477E+00  0.00000000000E+00 0. -1.
          1    1    1    2  502    0  0.49765448364E+01 -0.26448056611E+02  0.77894236743E+03  0.77940713204E+03  0.00000000000E+00 0.  1.
         -1    1    1    2    0  501 -0.49765448364E+01  0.26448056611E+02  0.15121065089E+04  0.15123459789E+04  0.00000000000E+00 0. -1.
</event>
<event>
 4    1  0.6718357E+001  0.2214353E+02  0.7546771E-02  0.1503542E+00
          2   -1    0    0  502    0  0.00000000000E+00  0.00000000000E+00  0.13111337904E+02  0.13111337904E+02  0.00000000000E+00 0.  1.
         -2   -1    0    0    0  501 -0.00000000000E+00 -0.00000000000E+00 -0.37408447250E+02  0.37408447250E+02  0.00000000000E+00 0. -1.
          1    1    1    2  502    0 -0.21544320098E+02 -0.51164801151E+01 -0.11723784771E+02  0.25055602699E+02  0.00000000000E+00 0. -1.
         -1    1    1    2    0  501  0.21544320098E+02  0.51164801151E+01 -0.12573324574E+02  0.25464182455E+02  0.00000000000E+00 0.  1.
</event>
<event>
 4    1  0.6718357E+001  0.2298249E+02  0.7546771E-02  0.1492718E+00
          2   -1    0    0  502    0  0.00000000000E+00  0.00000000000E+00  0.88027346059E+03  0.88027346059E+03  0.00000000000E+00 0.  1.
         -2   -1    0    0    0  501 -0.00000000000E+00 -0.00000000000E+00 -0.60173205810E+00  0.60173205810E+00  0.00000000000E+00 0. -1.
          1    1    1    2  502    0  0.19533507100E+02  0.12109372145E+02  0.46322663964E+03  0.46379641489E+03  0.00000000000E+00 0.  1.
         -1    1    1    2    0  501 -0.19533507100E+02 -0.12109372145E+02  0.41644508890E+03  0.41707877776E+03  0.00000000000E+00 0. -1.
</event>
<event>
 4    1  0.6718357E+001  0.2732652E+02  0.7546771E-02  0.1444355E+00
          2   -1    0    0  502    0  0.00000000000E+00  0.00000000000E+00  0.38236908615E+03  0.38236908615E+03  0.00000000000E+00 0. -1.
         -2   -1    0    0    0  501 -0.00000000000E+00 -0.00000000000E+00 -0.21590595584E+01  0.21590595584E+01  0.00000000000E+00 0.  1.
          1    1    1    2  502    0 -0.87584307022E+01 -0.25884906286E+02  0.13069764560E+03  0.13352382951E+03  0.00000000000E+00 0.  1.
         -1    1    1    2    0  501  0.87584307022E+01  0.25884906286E+02  0.24951238099E+03  0.25100431620E+03  0.00000000000E+00 0. -1.
</event>
<event>
 4    1  0.6718357E+001  0.2466685E+02  0.7546771E-02  0.1472565E+00
          2   -1    0    0  502    0  0.00000000000E+00  0.00000000000E+00  0.57722546309E+02  0.57722546309E+02  0.00000000000E+00 0. -1.
         -2   -1    0    0    0  501 -0.00000000000E+00 -0.00000000000E+00 -0.86478388986E+02  0.86478388986E+02  0.00000000000E+00 0.  1.
          1    1    1    2  502    0 -0.74161515727E+01 -0.23525603649E+02 -0.81941418023E+02  0.85573648507E+02  0.00000000000E+00 0.  1.
         -1    1    1    2    0  501  0.74161515727E+01  0.23525603649E+02  0.53185575346E+02  0.58627286788E+02  0.00000000000E+00 0. -1.
</event>
<event>
 4    1  0.6718357E+001  0.2664986E+02  0.7546771E-02  0.1451157E+00
          2   -1    0    0  502    0  0.00000000000E+00  0.00000000000E+00  0.24307784661E+03  0.24307784661E+03  0.00000000000E+00 0. -1.
         -2   -1    0    0    0  501 -0.00000000000E+00 -0.00000000000E+00 -0.29425167719E+01  0.29425167719E+01  0.00000000000E+00 0.  1.
          1    1    1    2  502    0 -0.25230904066E+02 -0.85800003620E+01  0.10973600207E+03  0.11292566173E+03  0.00000000000E+00 0.  1.
         -1    1    1    2    0  501  0.25230904066E+02  0.85800003620E+01  0.13039932777E+03  0.13309470166E+03  0.00000000000E+00 0. -1.
</event>
<event>
 4    1  0.6718357E+001  0.2078520E+02  0.7546771E-02  0.1522354E+00
          2   -1    0    0  502    0  0.00000000000E+00  0.00000000000E+00  0.44484292096E+03  0.44484292096E+03  0.00000000000E+00 0. -1.
         -2   -1    0    0    0  501 -0.00000000000E+00 -0.00000000000E+00 -0.10751469391E+01  0.10751469391E+01  0.00000000000E+00 0.  1.
          1    1    1    2  502    0  0.11075096476E+02  0.17588820307E+02  0.29121533578E+03  0.29195615451E+03  0.00000000000E+00 0.  1.
         -1    1    1    2    0  501 -0.11075096476E+02 -0.17588820307E+02  0.15255243824E+03  0.15396191339E+03  0.00000000000E+00 0. -1.
</event>
<event>
 4    1  0.6718357E+001  0.2748339E+02  0.7546771E-02  0.1442812E+00
          2   -1    0    0  502    0  0.00000000000E+00  0.00000000000E+00  0.13155298346E+04  0.13155298346E+04  0.00000000000E+00 0. -1.
         -2   -1    0    0    0  501 -0.00000000000E+00 -0.00000000000E+00 -0.13702596008E+01  0.13702596008E+01  0.00000000000E+00 0.  1.
          1    1    1    2  502    0  0.19406712005E+02  0.19460636142E+02  0.11589628918E+04  0.11592887136E+04  0.00000000000E+00 0. -1.
         -1    1    1    2    0  501 -0.19406712005E+02 -0.19460636142E+02  0.15519668320E+03  0.15761138064E+03  0.00000000000E+00 0.  1.
</event>
<event>
 4    1  0.6718357E+001  0.2203128E+02  0.7546771E-02  0.1505034E+00
          2   -1    0    0  502    0  0.00000000000E+00  0.00000000000E+00  0.90875446318E+01  0.90875446318E+01  0.00000000000E+00 0.  1.
         -2   -1    0    0    0  501 -0.00000000000E+00 -0.00000000000E+00 -0.55643404709E+02  0.55643404709E+02  0.00000000000E+00 0. -1.
          1    1    1    2  502    0  0.11720035323E+02  0.18655243633E+02 -0.29760315811E+02  0.37027742844E+02  0.00000000000E+00 0.  1.
         -1    1    1    2    0  501 -0.11720035323E+02 -0.18655243633E+02 -0.16795544266E+02  0.27703206496E+02  0.00000000000E+00 0. -1.
</event>
<event>
 4    1  0.6718357E+001  0.5181177E+02  0.7546771E-02  0.1290503E+00
          2   -1    0    0  502    0  0.00000000000E+00  0.00000000000E+00  0.24530421851E+03  0.24530421851E+03  0.00000000000E+00 0. -1.
         -2   -1    0    0    0  501 -0.00000000000E+00 -0.00000000000E+00 -0.12043894478E+02  0.12043894478E+02  0.00000000000E+00 0.  1.
          1    1    1    2  502    0  0.10551469567E+02 -0.50725991739E+02  0.77734298679E+02  0.93418846808E+02  0.00000000000E+00 0.  1.
         -1    1    1    2    0  501 -0.10551469567E+02  0.50725991739E+02  0.15552602535E+03  0.16392926617E+03  0.00000000000E+00 0. -1.
</event>
<event>
 4    1  0.6718357E+001  0.2477420E+02  0.7546771E-02  0.1471345E+00
          2   -1    0    0  502    0  0.00000000000E+00  0.00000000000E+00  0.67738503433E+03  0.67738503433E+03  0.00000000000E+00 0. -1.
         -2   -1    0    0    0  501 -0.00000000000E+00 -0.00000000000E+00 -0.91313456691E+00  0.91313456691E+00  0.00000000000E+00 0.  1.
          1    1    1    2  502    0  0.21366763015E+02  0.12538844787E+02  0.36805768652E+03  0.36889052820E+03  0.00000000000E+00 0. -1.
         -1    1    1    2    0  501 -0.21366763015E+02 -0.12538844787E+02  0.30841421324E+03  0.30940764069E+03  0.00000000000E+00 0.  1.
</event>
<event>
 4    1  0.6718357E+001  0.3062515E+02  0.7546771E-02  0.1414240E+00
          2   -1    0    0  502    0  0.00000000000E+00  0.00000000000E+00  0.21999011804E+03  0.21999011804E+03  0.00000000000E+00 0. -1.
         -2   -1    0    0    0  501 -0.00000000000E+00 -0.00000000000E+00 -0.45121018079E+01  0.45121018079E+01  0.00000000000E+00 0.  1.
          1    1    1    2  502    0  0.22551208945E+02  0.20720586998E+02  0.13409412543E+03  0.13754684375E+03  0.00000000000E+00 0. -1.
         -1    1    1    2    0  501 -0.22551208945E+02 -0.20720586998E+02  0.81383890803E+02  0.86955376100E+02  0.00000000000E+00 0.  1.
</event>
<event>
 4    1  0.6718357E+001  0.3432941E+02  0.7546771E-02  0.1385340E+00
          2   -1    0    0  502    0  0.00000000000E+00  0.00000000000E+00  0.29454520029E+04  0.29454520029E+04  0.00000000000E+00 0.  1.
         -2   -1    0    0    0  501 -0.00000000000E+00 -0.00000000000E+00 -0.46825544216E+00  0.46825544216E+00  0.00000000000E+00 0. -1.
          1    1    1    2  502    0 -0.31255846224E+02 -0.14197902976E+02  0.20343984538E+04  0.20346880786E+04  0.00000000000E+00 0. -1.
         -1    1    1    2    0  501  0.31255846224E+02  0.14197902976E+02  0.91058529358E+03  0.91123217966E+03  0.00000000000E+00 0.  1.
</event>
<event>
 4    1  0.6718357E+001  0.2812579E+02  0.7546771E-02  0.1436616E+00
          2   -1    0    0  502    0  0.00000000000E+00  0.00000000000E+00  0.24560817291E+04  0.24560817291E+04  0.00000000000E+00 0.  1.
         -2   -1    0    0    0  501 -0.00000000000E+00 -0.00000000000E+00 -0.42916626469E+00  0.42916626469E+00  0.00000000000E+00 0. -1.
          1    1    1    2  502    0 -0.14495963775E+02  0.24102427299E+02  0.18413601365E+04  0.18415749272E+04  0.00000000000E+00 0.  1.
         -1    1    1    2    0  501  0.14495963775E+02 -0.24102427299E+02  0.61429242630E+03  0.61493596819E+03  0.00000000000E+00 0. -1.
</event>
<event>
 4    1  0.6718357E+001  0.3204652E+02  0.7546771E-02  0.1402608E+00
          2   -1    0    0  502    0  0.00000000000E+00  0.00000000000E+00  0.18106718501E+04  0.18106718501E+04  0.00000000000E+00 0. -1.
         -2   -1    0    0    0  501 -0.00000000000E+00 -0.00000000000E+00 -0.69656984583E+00  0.69656984583E+00  0.00000000000E+00 0.  1.
          1    1    1    2  502    0 -0.62625238812E+01 -0.31428650563E+02  0.12953269719E+04  0.12957233282E+04  0.00000000000E+00 0. -1.
         -1    1    1    2    0  501  0.62625238812E+01  0.31428650563E+02  0.51464830840E+03  0.51564509173E+03  0.00000000000E+00 0.  1.
</event>
<event>
 4    1  0.6718357E+001  0.2690694E+02  0.7546771E-02  0.1448545E+00
          2   -1    0    0  502    0  0.00000000000E+00  0.00000000000E+00  0.14606630286E+02  0.14606630286E+02  0.00000000000E+00 0.  1.
         -2   -1    0    0    0  501 -0.00000000000E+00 -0.00000000000E+00 -0.67060778540E+02  0.67060778540E+02  0.00000000000E+00 0. -1.
          1    1    1    2  502    0  0.20183091046E+02 -0.17793988286E+02 -0.53703352972E+01  0.27437632633E+02  0.00000000000E+00 0.  1.
         -1    1    1    2    0  501 -0.20183091046E+02  0.17793988286E+02 -0.47083812957E+02  0.54229776193E+02  0.00000000000E+00 0. -1.
</event>
<event>
 4    1  0.6718357E+001  0.2620728E+02  0.7546771E-02  0.1455738E+00
          2   -1    0    0  502    0  0.00000000000E+00  0.00000000000E+00  0.24135280302E+01  0.24135280302E+01  0.00000000000E+00 0.  1.
         -2   -1    0    0    0  501 -0.00000000000E+00 -0.00000000000E+00 -0.46159040252E+03  0.46159040252E+03  0.00000000000E+00 0. -1.
          1    1    1    2  502    0  0.26161750321E+02  0.15441271836E+01 -0.85916155073E+02  0.89824313029E+02  0.00000000000E+00 0.  1.
         -1    1    1    2    0  501 -0.26161750321E+02 -0.15441271836E+01 -0.37326071941E+03  0.37417961752E+03  0.00000000000E+00 0. -1.
</event>
<event>
 4    1  0.6718357E+001  0.2179946E+02  0.7546771E-02  0.1508150E+00
          2   -1    0    0  502    0  0.00000000000E+00  0.00000000000E+00  0.63248727103E+03  0.63248727103E+03  0.00000000000E+00 0.  1.
         -2   -1    0    0    0  501 -0.00000000000E+00 -0.00000000000E+00 -0.10413849683E+01  0.10413849683E+01  0.00000000000E+00 0. -1.
          1    1    1    2  502    0  0.19790961637E+02 -0.91397035193E+01  0.14855257047E+03  0.15014353978E+03  0.00000000000E+00 0. -1.
         -1    1    1    2    0  501 -0.19790961637E+02  0.91397035193E+01  0.48289331559E+03  0.48338511623E+03  0.00000000000E+00 0.  1.
</event>
<event>
 4    1  0.6718357E+001  0.2667044E+02  0.7546771E-02  0.1450947E+00
          2   -1    0    0  502    0  0.00000000000E+00  0.00000000000E+00  0.42433846585E+03  0.42433846585E+03  0.00000000000E+00 0.  1.
         -2   -1    0    0    0  501 -0.00000000000E+00 -0.00000000000E+00 -0.16915640467E+01  0.16915640467E+01  0.00000000000E+00 0. -1.
          1    1    1    2  502    0  0.26469274188E+02  0.32695595872E+01  0.19107907525E+03  0.19293140101E+03  0.00000000000E+00 0. -1.
         -1    1    1    2    0  501 -0.26469274188E+02 -0.32695595872E+01  0.23156782655E+03  0.23309862889E+03  0.00000000000E+00 0.  1.
</event>
<event>
 4    1  0.6718357E+001  0.2172792E+02  0.7546771E-02  0.1509121E+00
          2   -1    0    0  502    0  0.00000000000E+00  0.00000000000E+00  0.71403753661E+03  0.71403753661E+03  0.00000000000E+00 0.  1.
         -2   -1    0    0    0  501 -0.00000000000E+00 -0.00000000000E+00 -0.10786804865E+01  0.10786804865E+01  0.00000000000E+00 0. -1.
          1    1    1    2  502    0  0.21727916826E+02 -0.14518850509E-01  0.57892930959E+03  0.57933690378E+03  0.00000000000E+00 0.  1.
         -1    1    1    2    0  501 -0.21727916826E+02  0.14518850509E-01  0.13402954654E+03  0.13577931332E+03  0.00000000000E+00 0. -1.
</event>
<event>
 4    1  0.6718357E+001  0.2347539E+02  0.7546771E-02  0.1486613E+00
          2   -1    0    0  502    0  0.00000000000E+00  0.00000000000E+00  0.57512392363E+03  0.57512392363E+03  0.00000000000E+00 0. -1.
         -2   -1    0    0    0  501 -0.00000000000E+00 -0.00000000000E+00 -0.96166059970E+00  0.96166059970E+00  0.00000000000E+00 0.  1.
          1    1    1    2  502    0  0.15522128815E+02  0.17611285154E+02  0.26984592163E+03  0.27086512376E+03  0.00000000000E+00 0.  1.
         -1    1    1    2    0  501 -0.15522128815E+02 -0.17611285154E+02  0.30431634140E+03  0.30522046048E+03  0.00000000000E+00 0. -1.
</event>
<event>
 4    1  0.6718357E+001  0.2809696E+02  0.7546771E-02  0.1436890E+00
          2   -1    0    0  502    0  0.00000000000E+00  0.00000000000E+00  0.24226063110E+04  0.24226063110E+04  0.00000000000E+00 0. -1.
         -2   -1    0    0    0  501 -0.00000000000E+00 -0.00000000000E+00 -0.34141968054E+00  0.34141968054E+00  0.00000000000E+00 0.  1.
          1    1    1    2  502    0 -0.27846277488E+02  0.37448938767E+01  0.14697266532E+04  0.14699951954E+04  0.00000000000E+00 0. -1.
         -1    1    1    2    0  501  0.27846277488E+02 -0.37448938767E+01  0.95253823818E+03  0.95295253533E+03  0.00000000000E+00 0.  1.
</event>
<event>
 4    1  0.6718357E+001  0.2317050E+02  0.7546771E-02  0.1490368E+00
          2   -1    0    0  502    0  0.00000000000E+00  0.00000000000E+00  0.22871875878E+02  0.22871875878E+02  0.00000000000E+00 0. -1.
         -2   -1    0    0    0  501 -0.00000000000E+00 -0.00000000000E+00 -0.26149021929E+02  0.26149021929E+02  0.00000000000E+00 0.  1.
          1    1    1    2  502    0 -0.22048590254E+02  0.71226283774E+01  0.62023313662E+01  0.23986268605E+02  0.00000000000E+00 0.  1.
         -1    1    1    2    0  501  0.22048590254E+02 -0.71226283774E+01 -0.94794774173E+01  0.25034629203E+02  0.00000000000E+00 0. -1.
</event>
<event>
 4    1  0.6718357E+001  0.2327703E+02  0.7546771E-02  0.1489048E+00
          2   -1    0    0  502    0  0.00000000000E+00  0.00000000000E+00  0.25792168620E+01  0.25792168620E+01  0.00000000000E+00 0. -1.
         -2   -1    0    0    0  501 -0.00000000000E+00 -0.00000000000E+00 -0.21176219979E+03  0.21176219979E+03  0.00000000000E+00 0.  1.
          1    1    1    2  502    0  0.22928690826E+02 -0.40119098057E+01 -0.11416715294E+03  0.11651591777E+03  0.00000000000E+00 0.  1.
         -1    1    1    2    0  501 -0.22928690826E+02  0.40119098057E+01 -0.95015829990E+02  0.97825498884E+02  0.00000000000E+00 0. -1.
</event>
<event>
 4    1  0.6718357E+001  0.2950177E+02  0.7546771E-02  0.1423976E+00
          2   -1    0    0  502    0  0.00000000000E+00  0.00000000000E+00  0.16904161855E+01  0.16904161855E+01  0.00000000000E+00 0.  1.
         -2   -1    0    0    0  501 -0.00000000000E+00 -0.00000000000E+00 -0.54094370073E+03  0.54094370073E+03  0.00000000000E+00 0. -1.
          1    1    1    2  502    0 -0.38288235510E+01  0.29252258791E+02 -0.32918646063E+03  0.33050579480E+03  0.00000000000E+00 0. -1.
         -1    1    1    2    0  501  0.38288235510E+01 -0.29252258791E+02 -0.21006682392E+03  0.21212832212E+03  0.00000000000E+00 0.  1.
</event>
<event>
 4    1  0.6718357E+001  0.2193412E+02  0.7546771E-02  0.1506334E+00
          2   -1    0    0  502    0  0.00000000000E+00  0.00000000000E+00  0.11479765616E+02  0.11479765616E+02  0.00000000000E+00 0.  1.
         -2   -1    0    0    0  501 -0.00000000000E+00 -0.00000000000E+00 -0.61417232761E+02  0.61417232761E+02  0.00000000000E+00 0. -1.
          1    1    1    2  502    0  0.69784442869E+00  0.21923013579E+02 -0.44266979138E+01  0.22376352823E+02  0.00000000000E+00 0.  1.
         -1    1    1    2    0  501 -0.69784442869E+00 -0.21923013579E+02 -0.45510769231E+02  0.50520645554E+02  0.00000000000E+00 0. -1.
</event>
<event>
 4    1  0.6718357E+001  0.2940039E+02  0.7546771E-02  0.1424880E+00
          2   -1    0    0  502    0  0.00000000000E+00  0.00000000000E+00  0.48962177335E+03  0.48962177335E+03  0.00000000000E+00 0.  1.
         -2   -1    0    0    0  501 -0.00000000000E+00 -0.00000000000E+00 -0.31492245303E+01  0.31492245303E+01  0.00000000000E+00 0. -1.
          1    1    1    2  502    0  0.28763976607E+02 -0.60841104179E+01  0.40656117796E+03  0.40762283324E+03  0.00000000000E+00 0.  1.
         -1    1    1    2    0  501 -0.28763976607E+02  0.60841104179E+01  0.79911370857E+02  0.85148164643E+02  0.00000000000E+00 0. -1.
</event>
<event>
 4    1  0.6718357E+001  0.2680514E+02  0.7546771E-02  0.1449575E+00
          2   -1    0    0  502    0  0.00000000000E+00  0.00000000000E+00  0.82661022189E+03  0.82661022189E+03  0.00000000000E+00 0. -1.
         -2   -1    0    0    0  501 -0.00000000000E+00 -0.00000000000E+00 -0.87683024701E+00  0.87683024701E+00  0.00000000000E+00 0.  1.
          1    1    1    2  502    0 -0.25669844734E+01 -0.26681948216E+02  0.45138259654E+03  0.45217780156E+03  0.00000000000E+00 0.  1.
         -1    1    1    2    0  501  0.25669844734E+01  0.26681948216E+02  0.37435079511E+03  0.37530925057E+03  0.00000000000E+00 0. -1.
</event>
<event>
 4    1  0.6718357E+001  0.2107769E+02  0.7546771E-02  0.1518158E+00
          2   -1    0    0  502    0  0.00000000000E+00  0.00000000000E+00  0.23364437837E+03  0.23364437837E+03  0.00000000000E+00 0.  1.
         -2   -1    0    0    0  501 -0.00000000000E+00 -0.00000000000E+00 -0.42245093137E+01  0.42245093137E+01  0.00000000000E+00 0. -1.
          1    1    1    2  502    0 -0.20329334545E+02 -0.55666102531E+01  0.20290561253E+03  0.20399744260E+03  0.00000000000E+00 0.  1.
         -1    1    1    2    0  501  0.20329334545E+02  0.55666102531E+01  0.26514256534E+02  0.33871445088E+02  0.00000000000E+00 0. -1.
</event>
<event>
 4    1  0.6718357E+001  0.2134617E+02  0.7546771E-02  0.1514379E+00
          2   -1    0    0  502    0  0.00000000000E+00  0.00000000000E+00  0.38539243250E+02  0.38539243250E+02  0.00000000000E+00 0. -1.
         -2   -1    0    0    0  501 -0.00000000000E+00 -0.00000000000E+00 -0.11918661048E+02  0.11918661048E+02  0.00000000000E+00 0.  1.
          1    1    1    2  502    0 -0.20166019008E+02 -0.69993382563E+01  0.11052999268E+02  0.24038050076E+02  0.00000000000E+00 0.  1.
         -1    1    1    2    0  501  0.20166019008E+02  0.69993382563E+01  0.15567582935E+02  0.26419854222E+02  0.00000000000E+00 0. -1.
</event>
<event>
 4    1  0.6718357E+001  0.2080491E+02  0.7546771E-02  0.1522069E+00
          2   -1    0    0  502    0  0.00000000000E+00  0.00000000000E+00  0.40954747015E+03  0.40954747015E+03  0.00000000000E+00 0.  1.
         -2   -1    0    0    0  501 -0.00000000000E+00 -0.00000000000E+00 -0.12396973483E+01  0.12396973483E+01  0.00000000000E+00 0. -1.
          1    1    1    2  502    0  0.19739361481E+02 -0.65728126767E+01  0.12528009314E+03  0.12699585031E+03  0.00000000000E+00 0. -1.
         -1    1    1    2    0  501 -0.19739361481E+02  0.65728126767E+01  0.28302767966E+03  0.28379131719E+03  0.00000000000E+00 0.  1.
</event>
<event>
 4    1  0.6718357E+001  0.4993212E+02  0.7546771E-02  0.1298467E+00
          2   -1    0    0  502    0  0.00000000000E+00  0.00000000000E+00  0.11464627249E+03  0.11464627249E+03  0.00000000000E+00 0.  1.
         -2   -1    0    0    0  501 -0.00000000000E+00 -0.00000000000E+00 -0.22933653319E+02  0.22933653319E+02  0.00000000000E+00 0. -1.
          1    1    1    2  502    0  0.20926154814E+02 -0.45335558330E+02  0.30208862453E+02  0.58359165305E+02  0.00000000000E+00 0. -1.
         -1    1    1    2    0  501 -0.20926154814E+02  0.45335558330E+02  0.61503756721E+02  0.79220760506E+02  0.00000000000E+00 0.  1.
</event>
<event>
 4    1  0.6718357E+001  0.5387222E+02  0.7546771E-02  0.1282204E+00
          2   -1    0    0  502    0  0.00000000000E+00  0.00000000000E+00  0.30348934459E+03  0.30348934459E+03  0.00000000000E+00 0.  1.
         -2   -1    0    0    0  501 -0.00000000000E+00 -0.00000000000E+00 -0.11529538206E+02  0.11529538206E+02  0.00000000000E+00 0. -1.
          1    1    1    2  502    0  0.21212635232E+02 -0.49520093692E+02  0.21103347135E+03  0.21780115152E+03  0.00000000000E+00 0.  1.
         -1    1    1    2    0  501 -0.21212635232E+02  0.49520093692E+02  0.80926335035E+02  0.97217731278E+02  0.00000000000E+00 0. -1.
</event>
<event>
 4    1  0.6718357E+001  0.3772752E+02  0.7546771E-02  0.1362343E+00
          2   -1    0    0  502    0  0.00000000000E+00  0.00000000000E+00  0.86781359510E+03  0.86781359510E+03  0.00000000000E+00 0. -1.
         -2   -1    0    0    0  501 -0.00000000000E+00 -0.00000000000E+00 -0.17824211810E+01  0.17824211810E+01  0.00000000000E+00 0.  1.
          1    1    1    2  502    0  0.17981418131E+02 -0.33166763964E+02  0.55584535308E+03  0.55712424303E+03  0.00000000000E+00 0. -1.
         -1    1    1    2    0  501 -0.17981418131E+02  0.33166763964E+02  0.31018582084E+03  0.31247177325E+03  0.00000000000E+00 0.  1.
</event>
<event>
 4    1  0.6718357E+001  0.3480621E+02  0.7546771E-02  0.1381931E+00
          2   -1    0    0  502    0  0.00000000000E+00  0.00000000000E+00  0.81875206657E+02  0.81875206657E+02  0.00000000000E+00 0. -1.
         -2   -1    0    0    0  501 -0.00000000000E+00 -0.00000000000E+00 -0.67982166829E+02  0.67982166829E+02  0.00000000000E+00 0.  1.
          1    1    1    2  502    0  0.17236758156E+01 -0.34763503880E+02 -0.59328159600E+02  0.68784466138E+02  0.00000000000E+00 0.  1.
         -1    1    1    2    0  501 -0.17236758156E+01  0.34763503880E+02  0.73221199428E+02  0.81072907349E+02  0.00000000000E+00 0. -1.
</event>
<event>
 4    1  0.6718357E+001  0.2161111E+02  0.7546771E-02  0.1510716E+00
          2   -1    0    0  502    0  0.00000000000E+00  0.00000000000E+00  0.16346896472E+02  0.16346896472E+02  0.00000000000E+00 0.  1.
         -2   -1    0    0    0  501 -0.00000000000E+00 -0.00000000000E+00 -0.38317297933E+02  0.38317297933E+02  0.00000000000E+00 0. -1.
          1    1    1    2  502    0 -0.20147588257E+02 -0.78175818493E+01  0.27997520568E+01  0.21791707371E+02  0.00000000000E+00 0.  1.
         -1    1    1    2    0  501  0.20147588257E+02  0.78175818493E+01 -0.24770153518E+02  0.32872487035E+02  0.00000000000E+00 0. -1.
</event>
<event>
 4    1  0.6718357E+001  0.2405098E+02  0.7546771E-02  0.1479706E+00
          2   -1    0    0  502    0  0.00000000000E+00  0.00000000000E+00  0.82098793031E+03  0.82098793031E+03  0.00000000000E+00 0. -1.
         -2   -1    0    0    0  501 -0.00000000000E+00 -0.00000000000E+00 -0.70566725864E+00  0.70566725864E+00  0.00000000000E+00 0.  1.
          1    1    1    2  502    0 -0.19637204905E+02 -0.13886313858E+02  0.42628724504E+03  0.42696517986E+03  0.00000000000E+00 0. -1.
         -1    1    1    2    0  501  0.19637204905E+02  0.13886313858E+02  0.39399501802E+03  0.39472841771E+03  0.00000000000E+00 0.  1.
</event>
<event>
 4    1  0.6718357E+001  0.2184340E+02  0.7546771E-02  0.1507556E+00
          2   -1    0    0  502    0  0.00000000000E+00  0.00000000000E+00  0.27624026793E+02  0.27624026793E+02  0.00000000000E+00 0.  1.
         -2   -1    0    0    0  501 -0.00000000000E+00 -0.00000000000E+00 -0.18958352712E+02  0.18958352712E+02  0.00000000000E+00 0. -1.
          1    1    1    2  502    0 -0.20518576122E+02  0.74914761591E+01  0.11278435667E+02  0.24583272609E+02  0.00000000000E+00 0.  1.
         -1    1    1    2    0  501  0.20518576122E+02 -0.74914761591E+01 -0.26127615854E+01  0.21999106896E+02  0.00000000000E+00 0. -1.
</event>
<event>
 4    1  0.6718357E+001  0.3539199E+02  0.7546771E-02  0.1377828E+00
          2   -1    0    0  502    0  0.00000000000E+00  0.00000000000E+00  0.19244308572E+01  0.19244308572E+01  0.00000000000E+00 0. -1.
         -2   -1    0    0    0  501 -0.00000000000E+00 -0.00000000000E+00 -0.67928215969E+03  0.67928215969E+03  0.00000000000E+00 0.  1.
          1    1    1    2  502    0 -0.31269385404E+02  0.16577648961E+02 -0.40831305416E+03  0.40984404730E+03  0.00000000000E+00 0.  1.
         -1    1    1    2    0  501  0.31269385404E+02 -0.16577648961E+02 -0.26904467467E+03  0.27136254325E+03  0.00000000000E+00 0. -1.
</event>
<event>
 4    1  0.6718357E+001  0.2026305E+02  0.7546771E-02  0.1530052E+00
          2   -1    0    0  502    0  0.00000000000E+00  0.00000000000E+00  0.40252463696E+02  0.40252463696E+02  0.00000000000E+00 0. -1.
         -2   -1    0    0    0  501 -0.00000000000E+00 -0.00000000000E+00 -0.10382627282E+02  0.10382627282E+02  0.00000000000E+00 0.  1.
          1    1    1    2  502    0 -0.20256638791E+02 -0.50949210545E+00  0.11580775212E+02  0.23338923537E+02  0.00000000000E+00 0. -1.
         -1    1    1    2    0  501  0.20256638791E+02  0.50949210545E+00  0.18289061202E+02  0.27296167441E+02  0.00000000000E+00 0.  1.
</event>
<event>
 4    1  0.6718357E+001  0.2809731E+02  0.7546771E-02  0.1436886E+00
          2   -1    0    0  502    0  0.00000000000E+00  0.00000000000E+00  0.14143629915E+04  0.14143629915E+04  0.00000000000E+00 0. -1.
         -2   -1    0    0    0  501 -0.00000000000E+00 -0.00000000000E+00 -0.55843049710E+00  0.55843049710E+00  0.00000000000E+00 0.  1.
          1    1    1    2  502    0  0.19639517712E+02  0.20093489447E+02  0.69170524593E+03  0.69227567213E+03  0.00000000000E+00 0. -1.
         -1    1    1    2    0  501 -0.19639517712E+02 -0.20093489447E+02  0.72209931509E+03  0.72264574988E+03  0.00000000000E+00 0.  1.
</event>
<event>
 4    1  0.6718357E+001  0.3543011E+02  0.7546771E-02  0.1377564E+00
          2   -1    0    0  502    0  0.00000000000E+00  0.00000000000E+00  0.27386081493E+03  0.27386081493E+03  0.00000000000E+00 0. -1.
         -2   -1    0    0    0  501 -0.00000000000E+00 -0.00000000000E+00 -0.61319013461E+01  0.61319013461E+01  0.00000000000E+00 0.  1.
          1    1    1    2  502    0 -0.16173050154E+02  0.31523404635E+02  0.63519246654E+02  0.72732298785E+02  0.00000000000E+00 0.  1.
         -1    1    1    2    0  501  0.16173050154E+02 -0.31523404635E+02  0.20420966693E+03  0.20726041749E+03  0.00000000000E+00 0. -1.
</event>
<event>
 4    1  0.6718357E+001  0.4665893E+02  0.7546771E-02  0.1313346E+00
          2   -1    0    0  502    0  0.00000000000E+00  0.00000000000E+00  0.19800129880E+04  0.19800129880E+04  0.00000000000E+00 0. -1.
         -2   -1    0    0    0  501 -0.00000000000E+00 -0.00000000000E+00 -0.12089841055E+01  0.12089841055E+01  0.00000000000E+00 0.  1.
          1    1    1    2  502    0 -0.14873559835E+02 -0.44224801079E+02  0.69131928672E+03  0.69289206375E+03  0.00000000000E+00 0. -1.
         -1    1    1    2    0  501  0.14873559835E+02  0.44224801079E+02  0.12874847171E+04  0.12883299083E+04  0.00000000000E+00 0.  1.
</event>
<event>
 4    1  0.6718357E+001  0.1616059E+03  0.7546771E-02  0.1086283E+00
          2   -1    0    0  502    0  0.00000000000E+00  0.00000000000E+00  0.75214386869E+03  0.75214386869E+03  0.00000000000E+00 0.  1.
         -2   -1    0    0    0  501 -0.00000000000E+00 -0.00000000000E+00 -0.47972475925E+02  0.47972475925E+02  0.00000000000E+00 0. -1.
          1    1    1    2  502    0  0.13455704746E+03  0.89503367013E+02  0.14183780175E+03  0.21502189129E+03  0.00000000000E+00 0. -1.
         -1    1    1    2    0  501 -0.13455704746E+03 -0.89503367013E+02  0.56233359101E+03  0.58509445332E+03  0.00000000000E+00 0.  1.
</event>
<event>
 4    1  0.6718357E+001  0.3827672E+02  0.7546771E-02  0.1358891E+00
          2   -1    0    0  502    0  0.00000000000E+00  0.00000000000E+00  0.79245872431E+01  0.79245872431E+01  0.00000000000E+00 0. -1.
         -2   -1    0    0    0  501 -0.00000000000E+00 -0.00000000000E+00 -0.63969817973E+03  0.63969817973E+03  0.00000000000E+00 0.  1.
          1    1    1    2  502    0 -0.37807173433E+02  0.59770333986E+01 -0.42848928263E+02  0.57455530147E+02  0.00000000000E+00 0. -1.
         -1    1    1    2    0  501  0.37807173433E+02 -0.59770333986E+01 -0.58892466422E+03  0.59016723682E+03  0.00000000000E+00 0.  1.
</event>
<event>
 4    1  0.6718357E+001  0.2241434E+02  0.7546771E-02  0.1499986E+00
          2   -1    0    0  502    0  0.00000000000E+00  0.00000000000E+00  0.33636784450E+03  0.33636784450E+03  0.00000000000E+00 0. -1.
         -2   -1    0    0    0  501 -0.00000000000E+00 -0.00000000000E+00 -0.43478448515E+01  0.43478448515E+01  0.00000000000E+00 0.  1.
          1    1    1    2  502    0 -0.10614924017E+02  0.19741476313E+02  0.27981126723E+02  0.35851721739E+02  0.00000000000E+00 0.  1.
         -1    1    1    2    0  501  0.10614924017E+02 -0.19741476313E+02  0.30403887292E+03  0.30486396761E+03  0.00000000000E+00 0. -1.
</event>
<event>
 4    1  0.6718357E+001  0.2019290E+02  0.7546771E-02  0.1531107E+00
          2   -1    0    0  502    0  0.00000000000E+00  0.00000000000E+00  0.33938913884E+02  0.33938913884E+02  0.00000000000E+00 0. -1.
         -2   -1    0    0    0  501 -0.00000000000E+00 -0.00000000000E+00 -0.12094179326E+02  0.12094179326E+02  0.00000000000E+00 0.  1.
          1    1    1    2  502    0  0.72554583394E+01 -0.18844402899E+02  0.12792604926E+02  0.23904056918E+02  0.00000000000E+00 0. -1.
         -1    1    1    2    0  501 -0.72554583394E+01  0.18844402899E+02  0.90521296319E+01  0.22129036292E+02  0.00000000000E+00 0.  1.
</event>
<event>
 4    1  0.6718357E+001  0.2154246E+02  0.7546771E-02  0.1511659E+00
          2   -1    0    0  502    0  0.00000000000E+00  0.00000000000E+00  0.17338648826E+03  0.17338648826E+03  0.00000000000E+00 0.  1.
         -2   -1    0    0    0  501 -0.00000000000E+00 -0.00000000000E+00 -0.36521994188E+01  0.36521994188E+01  0.00000000000E+00 0. -1.
          1    1    1    2  502    0  0.16887415548E+02  0.13375078412E+02  0.13061891868E+03  0.13238345608E+03  0.00000000000E+00 0.  1.
         -1    1    1    2    0  501 -0.16887415548E+02 -0.13375078412E+02  0.39115370168E+02  0.44655231606E+02  0.00000000000E+00 0. -1.
</event>
<event>
 4    1  0.6718357E+001  0.2317417E+02  0.7546771E-02  0.1490323E+00
          2   -1    0    0  502    0  0.00000000000E+00  0.00000000000E+00  0.87336401675E+01  0.87336401675E+01  0.00000000000E+00 0.  1.
         -2   -1    0    0    0  501 -0.00000000000E+00 -0.00000000000E+00 -0.87248197151E+02  0.87248197151E+02  0.00000000000E+00 0. -1.
          1    1    1    2  502    0  0.22213190215E+02  0.66042749872E+01 -0.13182045184E+02  0.26660993659E+02  0.00000000000E+00 0.  1.
         -1    1    1    2    0  501 -0.22213190215E+02 -0.66042749872E+01 -0.65332511799E+02  0.69320843660E+02  0.00000000000E+00 0. -1.
</event>
<event>
 4    1  0.6718357E+001  0.3463745E+02  0.7546771E-02  0.1383130E+00
          2   -1    0    0  502    0  0.00000000000E+00  0.00000000000E+00  0.25822760218E+01  0.25822760218E+01  0.00000000000E+00 0. -1.
         -2   -1    0    0    0  501 -0.00000000000E+00 -0.00000000000E+00 -0.78354728051E+03  0.78354728051E+03  0.00000000000E+00 0.  1.
          1    1    1    2  502    0  0.29685417356E+02  0.17847383585E+02 -0.13970782319E+03  0.14393758705E+03  0.00000000000E+00 0. -1.
         -1    1    1    2    0  501 -0.29685417356E+02 -0.17847383585E+02 -0.64125718130E+03  0.64219196948E+03  0.00000000000E+00 0.  1.
</event>
<event>
 4    1  0.6718357E+001  0.2592353E+02  0.7546771E-02  0.1458732E+00
          2   -1    0    0  502    0  0.00000000000E+00  0.00000000000E+00  0.41233889171E+03  0.41233889171E+03  0.00000000000E+00 0.  1.
         -2   -1    0    0    0  501 -0.00000000000E+00 -0.00000000000E+00 -0.17277660343E+01  0.17277660343E+01  0.00000000000E+00 0. -1.
          1    1    1    2  502    0 -0.25587706284E+02 -0.41591995491E+01  0.25460443968E+03  0.25592078923E+03  0.00000000000E+00 0.  1.
         -1    1    1    2    0  501  0.25587706284E+02  0.41591995491E+01  0.15600668600E+03  0.15814586852E+03  0.00000000000E+00 0. -1.
</event>
<event>
 4    1  0.6718357E+001  0.3160686E+02  0.7546771E-02  0.1406128E+00
          2   -1    0    0  502    0  0.00000000000E+00  0.00000000000E+00  0.28268301402E+03  0.28268301402E+03  0.00000000000E+00 0. -1.
         -2   -1    0    0    0  501 -0.00000000000E+00 -0.00000000000E+00 -0.39013593399E+01  0.39013593399E+01  0.00000000000E+00 0.  1.
          1    1    1    2  502    0  0.23141361835E+01  0.31522032130E+02  0.18336289410E+03  0.18606704348E+03  0.00000000000E+00 0. -1.
         -1    1    1    2    0  501 -0.23141361835E+01 -0.31522032130E+02  0.95418760573E+02  0.10051732987E+03  0.00000000000E+00 0.  1.
</event>
<event>
 4    1  0.6718357E+001  0.2338465E+02  0.7546771E-02  0.1487724E+00
          2   -1    0    0  502    0  0.00000000000E+00  0.00000000000E+00  0.38037325398E+03  0.38037325398E+03  0.00000000000E+00 0. -1.
         -2   -1    0    0    0  501 -0.00000000000E+00 -0.00000000000E+00 -0.24135220185E+01  0.24135220185E+01  0.00000000000E+00 0.  1.
          1    1    1    2  502    0 -0.14635666136E+02  0.18238390878E+02  0.31068219538E+03  0.31156101834E+03  0.00000000000E+00 0. -1.
         -1    1    1    2    0  501  0.14635666136E+02 -0.18238390878E+02  0.67277536585E+02  0.71225757659E+02  0.00000000000E+00 0.  1.
</event>
<event>
 4    1  0.6718357E+001  0.3952490E+02  0.7546771E-02  0.1351293E+00
          2   -1    0    0  502    0  0.00000000000E+00  0.00000000000E+00  0.13790447334E+04  0.13790447334E+04  0.00000000000E+00 0.  1.
         -2   -1    0    0    0  501 -0.00000000000E+00 -0.00000000000E+00 -0.13106401621E+01  0.13106401621E+01  0.00000000000E+00 0. -1.
          1    1    1    2  502    0  0.52806677919E+01  0.39170552763E+02  0.43465131812E+03  0.43644471127E+03  0.00000000000E+00 0. -1.
         -1    1    1    2    0  501 -0.52806677919E+01 -0.39170552763E+02  0.94308277507E+03  0.94391066224E+03  0.00000000000E+00 0.  1.
</event>
<event>
 4    1  0.6718357E+001  0.2694373E+02  0.7546771E-02  0.1448174E+00
          2   -1    0    0  502    0  0.00000000000E+00  0.00000000000E+00  0.12966021759E+04  0.12966021759E+04  0.00000000000E+00 0. -1.
         -2   -1    0    0    0  501 -0.00000000000E+00 -0.00000000000E+00 -0.80531735786E+00  0.80531735786E+00  0.00000000000E+00 0.  1.
          1    1    1    2  502    0 -0.26829304538E+02 -0.24805303290E+01  0.10060093164E+04  0.10063700658E+04  0.00000000000E+00 0.  1.
         -1    1    1    2    0  501  0.26829304538E+02  0.24805303290E+01  0.28978754216E+03  0.29103742749E+03  0.00000000000E+00 0. -1.
</event>
<event>
 4    1  0.6718357E+001  0.2039778E+02  0.7546771E-02  0.1528039E+00
          2   -1    0    0  502    0  0.00000000000E+00  0.00000000000E+00  0.10294634526E+04  0.10294634526E+04  0.00000000000E+00 0. -1.
         -2   -1    0    0    0  501 -0.00000000000E+00 -0.00000000000E+00 -0.43665214019E+00  0.43665214019E+00  0.00000000000E+00 0.  1.
          1    1    1    2  502    0 -0.71770127459E+00  0.20385147228E+02  0.37404535080E+03  0.37460111289E+03  0.00000000000E+00 0.  1.
         -1    1    1    2    0  501  0.71770127459E+00 -0.20385147228E+02  0.65498144963E+03  0.65529899183E+03  0.00000000000E+00 0. -1.
</event>
<event>
 4    1  0.6718357E+001  0.3032338E+02  0.7546771E-02  0.1416807E+00
          2   -1    0    0  502    0  0.00000000000E+00  0.00000000000E+00  0.57791355532E+02  0.57791355532E+02  0.00000000000E+00 0.  1.
         -2   -1    0    0    0  501 -0.00000000000E+00 -0.00000000000E+00 -0.15933578878E+02  0.15933578878E+02  0.00000000000E+00 0. -1.
          1    1    1    2  502    0 -0.27560939296E+02 -0.12645224391E+02  0.22322468643E+02  0.37653680844E+02  0.00000000000E+00 0.  1.
         -1    1    1    2    0  501  0.27560939296E+02  0.12645224391E+02  0.19535308010E+02  0.36071253566E+02  0.00000000000E+00 0. -1.
</event>
<event>
 4    1  0.6718357E+001  0.2332278E+02  0.7546771E-02  0.1488484E+00
          2   -1    0    0  502    0  0.00000000000E+00  0.00000000000E+00  0.77443814059E+03  0.77443814059E+03  0.00000000000E+00 0.  1.
         -2   -1    0    0    0  501 -0.00000000000E+00 -0.00000000000E+00 -0.71316946115E+00  0.71316946115E+00  0.00000000000E+00 0. -1.
          1    1    1    2  502    0 -0.13528126523E+02 -0.18998470300E+02  0.43452778259E+03  0.43515324418E+03  0.00000000000E+00 0.  1.
         -1    1    1    2    0  501  0.13528126523E+02  0.18998470300E+02  0.33919718854E+03  0.33999806587E+03  0.00000000000E+00 0. -1.
</event>
<event>
 4    1  0.6718357E+001  0.2222443E+02  0.7546771E-02  0.1502474E+00
          2   -1    0    0  502    0  0.00000000000E+00  0.00000000000E+00  0.30630276594E+02  0.30630276594E+02  0.00000000000E+00 0. -1.
         -2   -1    0    0    0  501 -0.00000000000E+00 -0.00000000000E+00 -0.16843089230E+02  0.16843089230E+02  0.00000000000E+00 0.  1.
          1    1    1    2  502    0 -0.52168920346E+01 -0.21603455657E+02  0.19937821341E+01  0.22313682484E+02  0.00000000000E+00 0.  1.
         -1    1    1    2    0  501  0.52168920346E+01  0.21603455657E+02  0.11793405229E+02  0.25159683339E+02  0.00000000000E+00 0. -1.
</event>
<event>
 4    1  0.6718357E+001  0.2364333E+02  0.7546771E-02  0.1484574E+00
          2   -1    0    0  502    0  0.00000000000E+00  0.00000000000E+00  0.24924886866E+02  0.24924886866E+02  0.00000000000E+00 0. -1.
         -2   -1    0    0    0  501 -0.00000000000E+00 -0.00000000000E+00 -0.36602463337E+02  0.36602463337E+02  0.00000000000E+00 0.  1.
          1    1    1    2  502    0  0.10994447151E+02  0.20931540804E+02 -0.24983170004E+02  0.34397180873E+02  0.00000000000E+00 0.  1.
         -1    1    1    2    0  501 -0.10994447151E+02 -0.20931540804E+02  0.13305593533E+02  0.27130169329E+02  0.00000000000E+00 0. -1.
</event>
<event>
 4    1  0.6718357E+001  0.2391355E+02  0.7546771E-02  0.1481335E+00
          2   -1    0    0  502    0  0.00000000000E+00  0.00000000000E+00  0.15626683730E+02  0.15626683730E+02  0.00000000000E+00 0.  1.
         -2   -1    0    0    0  501 -0.00000000000E+00 -0.00000000000E+00 -0.49016050838E+02  0.49016050838E+02  0.00000000000E+00 0. -1.
          1    1    1    2  502    0  0.23129630952E+02 -0.60727414841E+01 -0.42420730079E+00  0.23917315254E+02  0.00000000000E+00 0.  1.
         -1    1    1    2    0  501 -0.23129630952E+02  0.60727414841E+01 -0.32965159807E+02  0.40725419313E+02  0.00000000000E+00 0. -1.
</event>
<event>
 4    1  0.6718357E+001  0.2435600E+02  0.7546771E-02  0.1476138E+00
          2   -1    0    0  502    0  0.00000000000E+00  0.00000000000E+00  0.21559236135E+04  0.21559236135E+04  0.00000000000E+00 0.  1.
         -2   -1    0    0    0  501 -0.00000000000E+00 -0.00000000000E+00 -0.27984948200E+00  0.27984948200E+00  0.00000000000E+00 0. -1.
          1    1    1    2  502    0 -0.37007795277E+01  0.24073202397E+02  0.12174443347E+04  0.12176879416E+04  0.00000000000E+00 0. -1.
         -1    1    1    2    0  501  0.37007795277E+01 -0.24073202397E+02  0.93819942930E+03  0.93851552144E+03  0.00000000000E+00 0.  1.
</event>
<event>
 4    1  0.6718357E+001  0.3582990E+02  0.7546771E-02  0.1374821E+00
          2   -1    0    0  502    0  0.00000000000E+00  0.00000000000E+00  0.23640492387E+03  0.23640492387E+03  0.00000000000E+00 0. -1.
         -2   -1    0    0    0  501 -0.00000000000E+00 -0.00000000000E+00 -0.55496684308E+01  0.55496684308E+01  0.00000000000E+00 0.  1.
          1    1    1    2  502    0  0.47967178114E+01 -0.35507368299E+02  0.13316006183E+03  0.13789627903E+03  0.00000000000E+00 0. -1.
         -1    1    1    2    0  501 -0.47967178114E+01  0.35507368299E+02  0.97695193614E+02  0.10405831327E+03  0.00000000000E+00 0.  1.
</event>
<event>
 4    1  0.6718357E+001  0.2314164E+02  0.7546771E-02  0.1490727E+00
          2   -1    0    0  502    0  0.00000000000E+00  0.00000000000E+00  0.60689559818E+01  0.60689559818E+01  0.00000000000E+00 0.  1.
         -2   -1    0    0    0  501 -0.00000000000E+00 -0.00000000000E+00 -0.89791842104E+02  0.89791842104E+02  0.00000000000E+00 0. -1.
          1    1    1    2  502    0  0.23011337277E+02  0.24523609031E+01 -0.48158848337E+02  0.53430425699E+02  0.00000000000E+00 0. -1.
         -1    1    1    2    0  501 -0.23011337277E+02 -0.24523609031E+01 -0.35564037786E+02  0.42430372387E+02  0.00000000000E+00 0.  1.
</event>
<event>
 4    1  0.6718357E+001  0.2093091E+02  0.7546771E-02  0.1520254E+00
          2   -1    0    0  502    0  0.00000000000E+00  0.00000000000E+00  0.17180708354E+02  0.17180708354E+02  0.00000000000E+00 0.  1.
         -2   -1    0    0    0  501 -0.00000000000E+00 -0.00000000000E+00 -0.45937262717E+02  0.45937262717E+02  0.00000000000E+00 0. -1.
          1    1    1    2  502    0 -0.14530574119E+02 -0.15065369567E+02  0.66718637179E+01  0.21968539093E+02  0.00000000000E+00 0.  1.
         -1    1    1    2    0  501  0.14530574119E+02  0.15065369567E+02 -0.35428418081E+02  0.41149431978E+02  0.00000000000E+00 0. -1.
</event>
<event>
 4    1  0.6718357E+001  0.2954728E+02  0.7546771E-02  0.1423572E+00
          2   -1    0    0  502    0  0.00000000000E+00  0.00000000000E+00  0.18701181477E+03  0.18701181477E+03  0.00000000000E+00 0.  1.
         -2   -1    0    0    0  501 -0.00000000000E+00 -0.00000000000E+00 -0.61974023749E+01  0.61974023749E+01  0.00000000000E+00 0. -1.
          1    1    1    2  502    0  0.73346848872E+01 -0.28622439628E+02  0.42422775557E+02  0.51698486812E+02  0.00000000000E+00 0. -1.
         -1    1    1    2    0  501 -0.73346848872E+01  0.28622439628E+02  0.13839163684E+03  0.14151073034E+03  0.00000000000E+00 0.  1.
</event>
<event>
 4    1  0.6718357E+001  0.2014827E+02  0.7546771E-02  0.1531781E+00
          2   -1    0    0  502    0  0.00000000000E+00  0.00000000000E+00  0.90139714664E+01  0.90139714664E+01  0.00000000000E+00 0. -1.
         -2   -1    0    0    0  501 -0.00000000000E+00 -0.00000000000E+00 -0.59712874877E+02  0.59712874877E+02  0.00000000000E+00 0.  1.
          1    1    1    2  502    0 -0.11750697845E+02  0.16366851855E+02 -0.83129660169E+01  0.21795828580E+02  0.00000000000E+00 0.  1.
         -1    1    1    2    0  501  0.11750697845E+02 -0.16366851855E+02 -0.42385937393E+02  0.46931017763E+02  0.00000000000E+00 0. -1.
</event>
<event>
 4    1  0.6718357E+001  0.2335694E+02  0.7546771E-02  0.1488064E+00
          2   -1    0    0  502    0  0.00000000000E+00  0.00000000000E+00  0.10304592504E+01  0.10304592504E+01  0.00000000000E+00 0. -1.
         -2   -1    0    0    0  501 -0.00000000000E+00 -0.00000000000E+00 -0.60133668995E+03  0.60133668995E+03  0.00000000000E+00 0.  1.
          1    1    1    2  502    0  0.22986819508E+02  0.41415643077E+01 -0.40430934640E+03  0.40498344906E+03  0.00000000000E+00 0.  1.
         -1    1    1    2    0  501 -0.22986819508E+02 -0.41415643077E+01 -0.19599688430E+03  0.19738370014E+03  0.00000000000E+00 0. -1.
</event>
<event>
 4    1  0.6718357E+001  0.4161988E+02  0.7546771E-02  0.1339246E+00
          2   -1    0    0  502    0  0.00000000000E+00  0.00000000000E+00  0.84507093690E+01  0.84507093690E+01  0.00000000000E+00 0.  1.
         -2   -1    0    0    0  501 -0.00000000000E+00 -0.00000000000E+00 -0.28728033857E+03  0.28728033857E+03  0.00000000000E+00 0. -1.
          1    1    1    2  502    0 -0.39456616419E+02  0.13243494874E+02 -0.21855889355E+03  0.22248641461E+03  0.00000000000E+00 0. -1.
         -1    1    1    2    0  501  0.39456616419E+02 -0.13243494874E+02 -0.60270735651E+02  0.73244633330E+02  0.00000000000E+00 0.  1.
</event>
<event>
 4    1  0.6718357E+001  0.2360529E+02  0.7546771E-02  0.1485034E+00
          2   -1    0    0  502    0  0.00000000000E+00  0.00000000000E+00  0.21077079680E+03  0.21077079680E+03  0.00000000000E+00 0.  1.
         -2   -1    0    0    0  501 -0.00000000000E+00 -0.00000000000E+00 -0.31265756207E+01  0.31265756207E+01  0.00000000000E+00 0. -1.
          1    1    1    2  502    0  0.19798072961E+02  0.12854811640E+02  0.14585304422E+03  0.14775087270E+03  0.00000000000E+00 0.  1.
         -1    1    1    2    0  501 -0.19798072961E+02 -0.12854811640E+02  0.61791176959E+02  0.66146499720E+02  0.00000000000E+00 0. -1.
</event>
<event>
 4    1  0.6718357E+001  0.2024810E+02  0.7546771E-02  0.1530276E+00
          2   -1    0    0  502    0  0.00000000000E+00  0.00000000000E+00  0.11223266503E+04  0.11223266503E+04  0.00000000000E+00 0. -1.
         -2   -1    0    0    0  501 -0.00000000000E+00 -0.00000000000E+00 -0.10096178257E+01  0.10096178257E+01  0.00000000000E+00 0.  1.
          1    1    1    2  502    0 -0.73060666516E+01  0.18884043783E+02  0.10093537077E+04  0.10095567805E+04  0.00000000000E+00 0. -1.
         -1    1    1    2    0  501  0.73060666516E+01 -0.18884043783E+02  0.11196332475E+03  0.11377948764E+03  0.00000000000E+00 0.  1.
</event>
<event>
 4    1  0.6718357E+001  0.2004157E+02  0.7546771E-02  0.1533401E+00
          2   -1    0    0  502    0  0.00000000000E+00  0.00000000000E+00  0.14265296609E+03  0.14265296609E+03  0.00000000000E+00 0. -1.
         -2   -1    0    0    0  501 -0.00000000000E+00 -0.00000000000E+00 -0.34191812879E+01  0.34191812879E+01  0.00000000000E+00 0.  1.
          1    1    1    2  502    0  0.91427788460E+01 -0.17834634416E+02  0.10030122987E+03  0.10228392495E+03  0.00000000000E+00 0. -1.
         -1    1    1    2    0  501 -0.91427788460E+01  0.17834634416E+02  0.38932554926E+02  0.43788222422E+02  0.00000000000E+00 0.  1.
</event>
<event>
 4    1  0.6718357E+001  0.5247751E+02  0.7546771E-02  0.1287774E+00
          2   -1    0    0  502    0  0.00000000000E+00  0.00000000000E+00  0.16141873199E+04  0.16141873199E+04  0.00000000000E+00 0. -1.
         -2   -1    0    0    0  501 -0.00000000000E+00 -0.00000000000E+00 -0.17744433657E+01  0.17744433657E+01  0.00000000000E+00 0.  1.
          1    1    1    2  502    0 -0.34350047680E+02 -0.39673211298E+02  0.64758320918E+03  0.64970601219E+03  0.00000000000E+00 0.  1.
         -1    1    1    2    0  501  0.34350047680E+02  0.39673211298E+02  0.96482966733E+03  0.96625575105E+03  0.00000000000E+00 0. -1.
</event>
<event>
 4    1  0.6718357E+001  0.3844615E+02  0.7546771E-02  0.1357840E+00
          2   -1    0    0  502    0  0.00000000000E+00  0.00000000000E+00  0.22879959483E+03  0.22879959483E+03  0.00000000000E+00 0.  1.
         -2   -1    0    0    0  501 -0.00000000000E+00 -0.00000000000E+00 -0.10332952966E+02  0.10332952966E+02  0.00000000000E+00 0. -1.
          1    1    1    2  502    0  0.14998549735E+02  0.35399861403E+02  0.18243188449E+03  0.18643899581E+03  0.00000000000E+00 0.  1.
         -1    1    1    2    0  501 -0.14998549735E+02 -0.35399861403E+02  0.36034757376E+02  0.52693551984E+02  0.00000000000E+00 0. -1.
</event>
<event>
 4    1  0.6718357E+001  0.2164534E+02  0.7546771E-02  0.1510247E+00
          2   -1    0    0  502    0  0.00000000000E+00  0.00000000000E+00  0.58621253296E+03  0.58621253296E+03  0.00000000000E+00 0. -1.
         -2   -1    0    0    0  501 -0.00000000000E+00 -0.00000000000E+00 -0.87425066528E+00  0.87425066528E+00  0.00000000000E+00 0.  1.
          1    1    1    2  502    0  0.13928180460E+02  0.16568840721E+02  0.37865650807E+03  0.37927466538E+03  0.00000000000E+00 0.  1.
         -1    1    1    2    0  501 -0.13928180460E+02 -0.16568840721E+02  0.20668177423E+03  0.20781211825E+03  0.00000000000E+00 0. -1.
</event>
<event>
 4    1  0.6718357E+001  0.7166085E+02  0.7546771E-02  0.1224654E+00
          2   -1    0    0  502    0  0.00000000000E+00  0.00000000000E+00  0.12477944529E+04  0.12477944529E+04  0.00000000000E+00 0.  1.
         -2   -1    0    0    0  501 -0.00000000000E+00 -0.00000000000E+00 -0.50778352514E+01  0.50778352514E+01  0.00000000000E+00 0. -1.
          1    1    1    2  502    0  0.45895481010E+02  0.55035278140E+02  0.34864614505E+03  0.35593456067E+03  0.00000000000E+00 0. -1.
         -1    1    1    2    0  501 -0.45895481010E+02 -0.55035278140E+02  0.89407047261E+03  0.89693772750E+03  0.00000000000E+00 0.  1.
</event>
<event>
 4    1  0.6718357E+001  0.2009687E+02  0.7546771E-02  0.1532560E+00
          2   -1    0    0  502    0  0.00000000000E+00  0.00000000000E+00  0.32947892669E+03  0.32947892669E+03  0.00000000000E+00 0. -1.
         -2   -1    0    0    0  501 -0.00000000000E+00 -0.00000000000E+00 -0.18917756565E+01  0.18917756565E+01  0.00000000000E+00 0.  1.
          1    1    1    2  502    0 -0.90818508836E+01 -0.17927750966E+02  0.65489943264E+02  0.68504138115E+02  0.00000000000E+00 0.  1.
         -1    1    1    2    0  501  0.90818508836E+01  0.17927750966E+02  0.26209720777E+03  0.26286656423E+03  0.00000000000E+00 0. -1.
</event>
<event>
 4    1  0.6718357E+001  0.2092873E+02  0.7546771E-02  0.1520285E+00
          2   -1    0    0  502    0  0.00000000000E+00  0.00000000000E+00  0.88729446312E+03  0.88729446312E+03  0.00000000000E+00 0.  1.
         -2   -1    0    0    0  501 -0.00000000000E+00 -0.00000000000E+00 -0.49365470640E+00  0.49365470640E+00  0.00000000000E+00 0. -1.
          1    1    1    2  502    0 -0.20689882042E+02 -0.31528747804E+01  0.44493710415E+03  0.44542904990E+03  0.00000000000E+00 0. -1.
         -1    1    1    2    0  501  0.20689882042E+02  0.31528747804E+01  0.44186370426E+03  0.44235906793E+03  0.00000000000E+00 0.  1.
</event>
<event>
 4    1  0.6718357E+001  0.2927464E+02  0.7546771E-02  0.1426006E+00
          2   -1    0    0  502    0  0.00000000000E+00  0.00000000000E+00  0.17118269241E+03  0.17118269241E+03  0.00000000000E+00 0.  1.
         -2   -1    0    0    0  501 -0.00000000000E+00 -0.00000000000E+00 -0.50064103874E+01  0.50064103874E+01  0.00000000000E+00 0. -1.
          1    1    1    2  502    0 -0.11104976717E+02 -0.27086602441E+02  0.83326416519E+02  0.88319285717E+02  0.00000000000E+00 0. -1.
         -1    1    1    2    0  501  0.11104976717E+02  0.27086602441E+02  0.82849865500E+02  0.87869817077E+02  0.00000000000E+00 0.  1.
</event>
<event>
 4    1  0.6718357E+001  0.2476642E+02  0.7546771E-02  0.1471434E+00
          2   -1    0    0  502    0  0.00000000000E+00  0.00000000000E+00  0.11333692300E+04  0.11333692300E+04  0.00000000000E+00 0. -1.
         -2   -1    0    0    0  501 -0.00000000000E+00 -0.00000000000E+00 -0.63220834015E+00  0.63220834015E+00  0.00000000000E+00 0.  1.
          1    1    1    2  502    0  0.23963510583E+02  0.62550426389E+01  0.78149930413E+03  0.78189164067E+03  0.00000000000E+00 0. -1.
         -1    1    1    2    0  501 -0.23963510583E+02 -0.62550426389E+01  0.35123771749E+03  0.35210979763E+03  0.00000000000E+00 0.  1.
</event>
<event>
 4    1  0.6718357E+001  0.3283849E+02  0.7546771E-02  0.1396431E+00
          2   -1    0    0  502    0  0.00000000000E+00  0.00000000000E+00  0.16032085211E+04  0.16032085211E+04  0.00000000000E+00 0.  1.
         -2   -1    0    0    0  501 -0.00000000000E+00 -0.00000000000E+00 -0.10025097094E+01  0.10025097094E+01  0.00000000000E+00 0. -1.
          1    1    1    2  502    0 -0.32833967540E+02 -0.54510949146E+00  0.34098965223E+03  0.34256723354E+03  0.00000000000E+00 0. -1.
         -1    1    1    2    0  501  0.32833967540E+02  0.54510949146E+00  0.12612163591E+04  0.12616437972E+04  0.00000000000E+00 0.  1.
</event>
<event>
 4    1  0.6718357E+001  0.2155952E+02  0.7546771E-02  0.1511424E+00
          2   -1    0    0  502    0  0.00000000000E+00  0.00000000000E+00  0.46455611413E+02  0.46455611413E+02  0.00000000000E+00 0. -1.
         -2   -1    0    0    0  501 -0.00000000000E+00 -0.00000000000E+00 -0.10355328980E+02  0.10355328980E+02  0.00000000000E+00 0.  1.
          1    1    1    2  502    0 -0.20745452978E+02  0.58684811280E+01  0.12829414576E+02  0.25087980556E+02  0.00000000000E+00 0.  1.
         -1    1    1    2    0  501  0.20745452978E+02 -0.58684811280E+01  0.23270867858E+02  0.31722959837E+02  0.00000000000E+00 0. -1.
</event>
<event>
 4    1  0.6718357E+001  0.3056288E+02  0.7546771E-02  0.1414767E+00
          2   -1    0    0  502    0  0.00000000000E+00  0.00000000000E+00  0.27048229601E+01  0.27048229601E+01  0.00000000000E+00 0. -1.
         -2   -1    0    0    0  501 -0.00000000000E+00 -0.00000000000E+00 -0.52195096624E+03  0.52195096624E+03  0.00000000000E+00 0.  1.
          1    1    1    2  502    0 -0.23533317887E+01 -0.30472143302E+02 -0.10702970007E+03  0.11130789003E+03  0.00000000000E+00 0. -1.
         -1    1    1    2    0  501  0.23533317887E+01  0.30472143302E+02 -0.41221644321E+03  0.41334789916E+03  0.00000000000E+00 0.  1.
</event>
<event>
 4    1  0.6718357E+001  0.3454754E+02  0.7546771E-02  0.1383772E+00
          2   -1    0    0  502    0  0.00000000000E+00  0.00000000000E+00  0.25327491371E+03  0.25327491371E+03  0.00000000000E+00 0.  1.
         -2   -1    0    0    0  501 -0.00000000000E+00 -0.00000000000E+00 -0.47417189604E+01  0.47417189604E+01  0.00000000000E+00 0. -1.
          1    1    1    2  502    0  0.15529450879E+02  0.30860466704E+02  0.13441125395E+03  0.13878010462E+03  0.00000000000E+00 0.  1.
         -1    1    1    2    0  501 -0.15529450879E+02 -0.30860466704E+02  0.11412194080E+03  0.11923652805E+03  0.00000000000E+00 0. -1.
</event>
<event>
 4    1  0.6718357E+001  0.2267527E+02  0.7546771E-02  0.1496616E+00
          2   -1    0    0  502    0  0.00000000000E+00  0.00000000000E+00  0.15227011833E+03  0.15227011833E+03  0.00000000000E+00 0.  1.
         -2   -1    0    0    0  501 -0.00000000000E+00 -0.00000000000E+00 -0.34119496316E+01  0.34119496316E+01  0.00000000000E+00 0. -1.
          1    1    1    2  502    0 -0.22660119775E+02 -0.82887611638E+00  0.66515313617E+02  0.70274141826E+02  0.00000000000E+00 0. -1.
         -1    1    1    2    0  501  0.22660119775E+02  0.82887611638E+00  0.82342855085E+02  0.85407926139E+02  0.00000000000E+00 0.  1.
</event>
<event>
 4    1  0.6718357E+001  0.6314843E+02  0.7546771E-02  0.1249495E+00
          2   -1    0    0  502    0  0.00000000000E+00  0.00000000000E+00  0.30854956017E+03  0.30854956017E+03  0.00000000000E+00 0. -1.
         -2   -1    0    0    0  501 -0.00000000000E+00 -0.00000000000E+00 -0.20450136082E+02  0.20450136082E+02  0.00000000000E+00 0.  1.
          1    1    1    2  502    0  0.53346272378E+02 -0.33792002408E+02  0.44256579066E+02  0.77112703195E+02  0.00000000000E+00 0.  1.
         -1    1    1    2    0  501 -0.53346272378E+02  0.33792002408E+02  0.24384284503E+03  0.25188699306E+03  0.00000000000E+00 0. -1.
</event>
<event>
 4    1  0.6718357E+001  0.2135304E+02  0.7546771E-02  0.1514284E+00
          2   -1    0    0  502    0  0.00000000000E+00  0.00000000000E+00  0.23390499569E+02  0.23390499569E+02  0.00000000000E+00 0.  1.
         -2   -1    0    0    0  501 -0.00000000000E+00 -0.00000000000E+00 -0.20891400109E+02  0.20891400109E+02  0.00000000000E+00 0. -1.
          1    1    1    2  502    0  0.15045038272E+02 -0.15152530785E+02  0.69777630865E+01  0.22464228086E+02  0.00000000000E+00 0.  1.
         -1    1    1    2    0  501 -0.15045038272E+02  0.15152530785E+02 -0.44786636265E+01  0.21817671592E+02  0.00000000000E+00 0. -1.
</event>
<event>
 4    1  0.6718357E+001  0.3469219E+02  0.7546771E-02  0.1382740E+00
          2   -1    0    0  502    0  0.00000000000E+00  0.00000000000E+00  0.87429918513E+03  0.87429918513E+03  0.00000000000E+00 0. -1.
         -2   -1    0    0    0  501 -0.00000000000E+00 -0.00000000000E+00 -0.25525030625E+01  0.25525030625E+01  0.00000000000E+00 0.  1.
          1    1    1    2  502    0 -0.10024748285E+02  0.33212235919E+02  0.73345168319E+03  0.73427169343E+03  0.00000000000E+00 0. -1.
         -1    1    1    2    0  501  0.10024748285E+02 -0.33212235919E+02  0.13829499887E+03  0.14257999476E+03  0.00000000000E+00 0.  1.
</event>
<event>
 4    1  0.6718357E+001  0.2460656E+02  0.7546771E-02  0.1473253E+00
          2   -1    0    0  502    0  0.00000000000E+00  0.00000000000E+00  0.15664653535E+03  0.15664653535E+03  0.00000000000E+00 0. -1.
         -2   -1    0    0    0  501 -0.00000000000E+00 -0.00000000000E+00 -0.40271189093E+01  0.40271189093E+01  0.00000000000E+00 0.  1.
          1    1    1    2  502    0  0.16678336263E+02  0.18091878504E+02  0.92414562324E+02  0.95634378221E+02  0.00000000000E+00 0. -1.
         -1    1    1    2    0  501 -0.16678336263E+02 -0.18091878504E+02  0.60204854118E+02  0.65039276039E+02  0.00000000000E+00 0.  1.
</event>
<event>
 4    1  0.6718357E+001  0.2291892E+02  0.7546771E-02  0.1493519E+00
          2   -1    0    0  502    0  0.00000000000E+00  0.00000000000E+00  0.97362289983E+02  0.97362289983E+02  0.00000000000E+00 0.  1.
         -2   -1    0    0    0  501 -0.00000000000E+00 -0.00000000000E+00 -0.97055402431E+01  0.97055402431E+01  0.00000000000E+00 0. -1.
          1    1    1    2  502    0 -0.22496749543E+02 -0.43787027189E+01  0.81519552544E+01  0.24325524701E+02  0.00000000000E+00 0. -1.
         -1    1    1    2    0  501  0.22496749543E+02  0.43787027189E+01  0.79504794485E+02  0.82742305525E+02  0.00000000000E+00 0.  1.
</event>
<event>
 4    1  0.6718357E+001  0.2382370E+02  0.7546771E-02  0.1482406E+00
          2   -1    0    0  502    0  0.00000000000E+00  0.00000000000E+00  0.38225856901E+03  0.38225856901E+03  0.00000000000E+00 0.  1.
         -2   -1    0    0    0  501 -0.00000000000E+00 -0.00000000000E+00 -0.15286472974E+01  0.15286472974E+01  0.00000000000E+00 0. -1.
          1    1    1    2  502    0 -0.21934743647E+02 -0.92970697549E+01  0.15785657971E+03  0.15964419264E+03  0.00000000000E+00 0.  1.
         -1    1    1    2    0  501  0.21934743647E+02  0.92970697549E+01  0.22287334200E+03  0.22414302367E+03  0.00000000000E+00 0. -1.
</event>
<event>
 4    1  0.6718357E+001  0.2210554E+02  0.7546771E-02  0.1504046E+00
          2   -1    0    0  502    0  0.00000000000E+00  0.00000000000E+00  0.91934085551E+02  0.91934085551E+02  0.00000000000E+00 0.  1.
         -2   -1    0    0    0  501 -0.00000000000E+00 -0.00000000000E+00 -0.58602793641E+01  0.58602793641E+01  0.00000000000E+00 0. -1.
          1    1    1    2  502    0  0.29150545504E+01 -0.21912488892E+02  0.28125253842E+02  0.35772679745E+02  0.00000000000E+00 0.  1.
         -1    1    1    2    0  501 -0.29150545504E+01  0.21912488892E+02  0.57948552344E+02  0.62021685170E+02  0.00000000000E+00 0. -1.
</event>
<event>
 4    1  0.6718357E+001  0.3183575E+02  0.7546771E-02  0.1404287E+00
          2   -1    0    0  502    0  0.00000000000E+00  0.00000000000E+00  0.37385611411E+04  0.37385611411E+04  0.00000000000E+00 0.  1.
         -2   -1    0    0    0  501 -0.00000000000E+00 -0.00000000000E+00 -0.27174902135E+00  0.27174902135E+00  0.00000000000E+00 0. -1.
          1    1    1    2  502    0  0.13131978137E+02 -0.29001142982E+02  0.19606689095E+04  0.19609273541E+04  0.00000000000E+00 0.  1.
         -1    1    1    2    0  501 -0.13131978137E+02  0.29001142982E+02  0.17776204826E+04  0.17779055361E+04  0.00000000000E+00 0. -1.
</event>
<event>
 4    1  0.6718357E+001  0.4110171E+02  0.7546771E-02  0.1342148E+00
          2   -1    0    0  502    0  0.00000000000E+00  0.00000000000E+00  0.23840763587E+03  0.23840763587E+03  0.00000000000E+00 0. -1.
         -2   -1    0    0    0  501 -0.00000000000E+00 -0.00000000000E+00 -0.79675442763E+01  0.79675442763E+01  0.00000000000E+00 0.  1.
          1    1    1    2  502    0  0.13826692646E+02 -0.38706242777E+02  0.15619635363E+03  0.16151362651E+03  0.00000000000E+00 0. -1.
         -1    1    1    2    0  501 -0.13826692646E+02  0.38706242777E+02  0.74243737956E+02  0.84861553633E+02  0.00000000000E+00 0.  1.
</event>
<event>
 4    1  0.6718357E+001  0.3396734E+02  0.7546771E-02  0.1387972E+00
          2   -1    0    0  502    0  0.00000000000E+00  0.00000000000E+00  0.26423051246E+02  0.26423051246E+02  0.00000000000E+00 0. -1.
         -2   -1    0    0    0  501 -0.00000000000E+00 -0.00000000000E+00 -0.47089330005E+02  0.47089330005E+02  0.00000000000E+00 0.  1.
          1    1    1    2  502    0  0.31207244919E+02 -0.13412239553E+02 -0.42220984556E+00  0.33969965652E+02  0.00000000000E+00 0. -1.
         -1    1    1    2    0  501 -0.31207244919E+02  0.13412239553E+02 -0.20244068914E+02  0.39542415599E+02  0.00000000000E+00 0.  1.
</event>
<event>
 4    1  0.6718357E+001  0.4628846E+02  0.7546771E-02  0.1315119E+00
          2   -1    0    0  502    0  0.00000000000E+00  0.00000000000E+00  0.12461775772E+02  0.12461775772E+02  0.00000000000E+00 0. -1.
         -2   -1    0    0    0  501 -0.00000000000E+00 -0.00000000000E+00 -0.19530679514E+03  0.19530679514E+03  0.00000000000E+00 0.  1.
          1    1    1    2  502    0 -0.78742030108E+01 -0.45613793329E+02 -0.12735877104E+03  0.13550969625E+03  0.00000000000E+00 0. -1.
         -1    1    1    2    0  501  0.78742030108E+01  0.45613793329E+02 -0.55486248327E+02  0.72258874668E+02  0.00000000000E+00 0.  1.
</event>
<event>
 4    1  0.6718357E+001  0.4647239E+02  0.7546771E-02  0.1314237E+00
          2   -1    0    0  502    0  0.00000000000E+00  0.00000000000E+00  0.35433390976E+03  0.35433390976E+03  0.00000000000E+00 0. -1.
         -2   -1    0    0    0  501 -0.00000000000E+00 -0.00000000000E+00 -0.84404242336E+01  0.84404242336E+01  0.00000000000E+00 0.  1.
          1    1    1    2  502    0 -0.45703797141E+01  0.46247100440E+02  0.77330746597E+02  0.90220435818E+02  0.00000000000E+00 0.  1.
         -1    1    1    2    0  501  0.45703797141E+01 -0.46247100440E+02  0.26856273893E+03  0.27255389818E+03  0.00000000000E+00 0. -1.
</event>
<event>
 4    1  0.6718357E+001  0.3441443E+02  0.7546771E-02  0.1384727E+00
          2   -1    0    0  502    0  0.00000000000E+00  0.00000000000E+00  0.26209815403E+03  0.26209815403E+03  0.00000000000E+00 0.  1.
         -2   -1    0    0    0  501 -0.00000000000E+00 -0.00000000000E+00 -0.55775537359E+01  0.55775537359E+01  0.00000000000E+00 0. -1.
          1    1    1    2  502    0 -0.33206713960E+02  0.90369818832E+01  0.18657355351E+03  0.18972096290E+03  0.00000000000E+00 0. -1.
         -1    1    1    2    0  501  0.33206713960E+02 -0.90369818832E+01  0.69947046781E+02  0.77954744865E+02  0.00000000000E+00 0.  1.
</event>
<event>
 4    1  0.6718357E+001  0.3046083E+02  0.7546771E-02  0.1415633E+00
          2   -1    0    0  502    0  0.00000000000E+00  0.00000000000E+00  0.12652961228E+04  0.12652961228E+04  0.00000000000E+00 0.  1.
         -2   -1    0    0    0  501 -0.00000000000E+00 -0.00000000000E+00 -0.10506967013E+01  0.10506967013E+01  0.00000000000E+00 0. -1.
          1    1    1    2  502    0  0.30332941298E+02 -0.27883583127E+01  0.98011854088E+03  0.98059176850E+03  0.00000000000E+00 0.  1.
         -1    1    1    2    0  501 -0.30332941298E+02  0.27883583127E+01  0.28412688526E+03  0.28575505105E+03  0.00000000000E+00 0. -1.
</event>
<event>
 4    1  0.6718357E+001  0.2055803E+02  0.7546771E-02  0.1525670E+00
          2   -1    0    0  502    0  0.00000000000E+00  0.00000000000E+00  0.35118030004E+01  0.35118030004E+01  0.00000000000E+00 0. -1.
         -2   -1    0    0    0  501 -0.00000000000E+00 -0.00000000000E+00 -0.26875883727E+03  0.26875883727E+03  0.00000000000E+00 0.  1.
          1    1    1    2  502    0 -0.15480125227E+01 -0.20499661986E+02 -0.31459808844E+02  0.37581272688E+02  0.00000000000E+00 0. -1.
         -1    1    1    2    0  501  0.15480125227E+01  0.20499661986E+02 -0.23378722543E+03  0.23468936758E+03  0.00000000000E+00 0.  1.
</event>
<event>
 4    1  0.6718357E+001  0.2363523E+02  0.7546771E-02  0.1484672E+00
          2   -1    0    0  502    0  0.00000000000E+00  0.00000000000E+00  0.17245550974E+02  0.17245550974E+02  0.00000000000E+00 0. -1.
         -2   -1    0    0    0  501 -0.00000000000E+00 -0.00000000000E+00 -0.32835598723E+02  0.32835598723E+02  0.00000000000E+00 0.  1.
          1    1    1    2  502    0  0.10101899774E+02 -0.21367628310E+02 -0.10704372046E+02  0.25946242494E+02  0.00000000000E+00 0. -1.
         -1    1    1    2    0  501 -0.10101899774E+02  0.21367628310E+02 -0.48856757031E+01  0.24134907203E+02  0.00000000000E+00 0.  1.
</event>
<event>
 4    1  0.6718357E+001  0.2323955E+02  0.7546771E-02  0.1489512E+00
          2   -1    0    0  502    0  0.00000000000E+00  0.00000000000E+00  0.39083715930E+03  0.39083715930E+03  0.00000000000E+00 0.  1.
         -2   -1    0    0    0  501 -0.00000000000E+00 -0.00000000000E+00 -0.14306234178E+01  0.14306234178E+01  0.00000000000E+00 0. -1.
          1    1    1    2  502    0  0.10125107808E+02 -0.20917910620E+02  0.15848738577E+03  0.16018217204E+03  0.00000000000E+00 0. -1.
         -1    1    1    2    0  501 -0.10125107808E+02  0.20917910620E+02  0.23091915011E+03  0.23208561067E+03  0.00000000000E+00 0.  1.
</event>
<event>
 4    1  0.6718357E+001  0.2240885E+02  0.7546771E-02  0.1500058E+00
          2   -1    0    0  502    0  0.00000000000E+00  0.00000000000E+00  0.15258963978E+04  0.15258963978E+04  0.00000000000E+00 0. -1.
         -2   -1    0    0    0  501 -0.00000000000E+00 -0.00000000000E+00 -0.10436162118E+01  0.10436162118E+01  0.00000000000E+00 0.  1.
          1    1    1    2  502    0  0.16304173701E+02  0.15373047457E+02  0.13941553261E+04  0.13943354080E+04  0.00000000000E+00 0. -1.
         -1    1    1    2    0  501 -0.16304173701E+02 -0.15373047457E+02  0.13069745542E+03  0.13260460596E+03  0.00000000000E+00 0.  1.
</event>
<event>
 4    1  0.6718357E+001  0.3368653E+02  0.7546771E-02  0.1390040E+00
          2   -1    0    0  502    0  0.00000000000E+00  0.00000000000E+00  0.11591427719E+02  0.11591427719E+02  0.00000000000E+00 0. -1.
         -2   -1    0    0    0  501 -0.00000000000E+00 -0.00000000000E+00 -0.10230899269E+03  0.10230899269E+03  0.00000000000E+00 0.  1.
          1    1    1    2  502    0  0.31853784887E+02  0.10959866407E+02 -0.57183388140E+02  0.66368080901E+02  0.00000000000E+00 0.  1.
         -1    1    1    2    0  501 -0.31853784887E+02 -0.10959866407E+02 -0.33534176826E+02  0.47532339504E+02  0.00000000000E+00 0. -1.
</event>
<event>
 4    1  0.6718357E+001  0.2339078E+02  0.7546771E-02  0.1487648E+00
          2   -1    0    0  502    0  0.00000000000E+00  0.00000000000E+00  0.21758951539E+03  0.21758951539E+03  0.00000000000E+00 0.  1.
         -2   -1    0    0    0  501 -0.00000000000E+00 -0.00000000000E+00 -0.42836408148E+01  0.42836408148E+01  0.00000000000E+00 0. -1.
          1    1    1    2  502    0 -0.87954992927E+01  0.21674131716E+02  0.35359514276E+02  0.42396038061E+02  0.00000000000E+00 0. -1.
         -1    1    1    2    0  501  0.87954992927E+01 -0.21674131716E+02  0.17794636030E+03  0.17947711814E+03  0.00000000000E+00 0.  1.
</event>
<event>
 4    1  0.6718357E+001  0.2303548E+02  0.7546771E-02  0.1492053E+00
          2   -1    0    0  502    0  0.00000000000E+00  0.00000000000E+00  0.38868905090E+03  0.38868905090E+03  0.00000000000E+00 0. -1.
         -2   -1    0    0    0  501 -0.00000000000E+00 -0.00000000000E+00 -0.26734208412E+01  0.26734208412E+01  0.00000000000E+00 0.  1.
          1    1    1    2  502    0 -0.22810641291E+02 -0.32106035688E+01  0.32989354246E+03  0.33069681385E+03  0.00000000000E+00 0. -1.
         -1    1    1    2    0  501  0.22810641291E+02  0.32106035688E+01  0.56122087603E+02  0.60665657899E+02  0.00000000000E+00 0.  1.
</event>
<event>
 4    1  0.6718357E+001  0.2305357E+02  0.7546771E-02  0.1491827E+00
          2   -1    0    0  502    0  0.00000000000E+00  0.00000000000E+00  0.63103879914E+02  0.63103879914E+02  0.00000000000E+00 0. -1.
         -2   -1    0    0    0  501 -0.00000000000E+00 -0.00000000000E+00 -0.10901470969E+02  0.10901470969E+02  0.00000000000E+00 0.  1.
          1    1    1    2  502    0 -0.22818869337E+02 -0.32812173735E+01  0.84545926141E+01  0.24554985676E+02  0.00000000000E+00 0.  1.
         -1    1    1    2    0  501  0.22818869337E+02  0.32812173735E+01  0.43747816331E+02  0.49450365206E+02  0.00000000000E+00 0. -1.
</event>
<event>
 4    1  0.6718357E+001  0.3210963E+02  0.7546771E-02  0.1402108E+00
          2   -1    0    0  502    0  0.00000000000E+00  0.00000000000E+00  0.17597156662E+02  0.17597156662E+02  0.00000000000E+00 0. -1.
         -2   -1    0    0    0  501 -0.00000000000E+00 -0.00000000000E+00 -0.72416136894E+02  0.72416136894E+02  0.00000000000E+00 0.  1.
          1    1    1    2  502    0  0.21874460106E+02  0.23506094376E+02 -0.47074742630E+02  0.56982978787E+02  0.00000000000E+00 0.  1.
         -1    1    1    2    0  501 -0.21874460106E+02 -0.23506094376E+02 -0.77442376020E+01  0.33030314769E+02  0.00000000000E+00 0. -1.
</event>
<event>
 4    1  0.6718357E+001  0.2066288E+02  0.7546771E-02  0.1524133E+00
          2   -1    0    0  502    0  0.00000000000E+00  0.00000000000E+00  0.15971894486E+04  0.15971894486E+04  0.00000000000E+00 0. -1.
         -2   -1    0    0    0  501 -0.00000000000E+00 -0.00000000000E+00 -0.45569971423E+00  0.45569971423E+00  0.00000000000E+00 0.  1.
          1    1    1    2  502    0 -0.10683633825E+02  0.17686569436E+02  0.28475827614E+03  0.28550697120E+03  0.00000000000E+00 0.  1.
         -1    1    1    2    0  501  0.10683633825E+02 -0.17686569436E+02  0.13119754728E+04  0.13121381771E+04  0.00000000000E+00 0. -1.
</event>
<event>
 4    1  0.6718357E+001  0.2744839E+02  0.7546771E-02  0.1443155E+00
          2   -1    0    0  502    0  0.00000000000E+00  0.00000000000E+00  0.56924191915E+02  0.56924191915E+02  0.00000000000E+00 0. -1.
         -2   -1    0    0    0  501 -0.00000000000E+00 -0.00000000000E+00 -0.13243388876E+02  0.13243388876E+02  0.00000000000E+00 0.  1.
          1    1    1    2  502    0 -0.27441452257E+02 -0.61696671231E+00  0.22702562343E+02  0.35620503743E+02  0.00000000000E+00 0. -1.
         -1    1    1    2    0  501  0.27441452257E+02  0.61696671231E+00  0.20978240695E+02  0.34547077049E+02  0.00000000000E+00 0.  1.
</event>
<event>
 4    1  0.6718357E+001  0.2313086E+02  0.7546771E-02  0.1490861E+00
          2   -1    0    0  502    0  0.00000000000E+00  0.00000000000E+00  0.94160261837E+03  0.94160261837E+03  0.00000000000E+00 0.  1.
         -2   -1    0    0    0  501 -0.00000000000E+00 -0.00000000000E+00 -0.60867130140E+00  0.60867130140E+00  0.00000000000E+00 0. -1.
          1    1    1    2  502    0 -0.26141637440E+01 -0.22982661551E+02  0.34904683256E+03  0.34981241816E+03  0.00000000000E+00 0. -1.
         -1    1    1    2    0  501  0.26141637440E+01  0.22982661551E+02  0.59194711452E+03  0.59239887151E+03  0.00000000000E+00 0.  1.
</event>
<event>
 4    1  0.6718357E+001  0.2452336E+02  0.7546771E-02  0.1474207E+00
          2   -1    0    0  502    0  0.00000000000E+00  0.00000000000E+00  0.10033088680E+01  0.10033088680E+01  0.00000000000E+00 0.  1.
         -2   -1    0    0    0  501 -0.00000000000E+00 -0.00000000000E+00 -0.72693330572E+03  0.72693330572E+03  0.00000000000E+00 0. -1.
          1    1    1    2  502    0  0.83132265794E+01 -0.23071312773E+02 -0.21052183852E+03  0.21194536962E+03  0.00000000000E+00 0.  1.
         -1    1    1    2    0  501 -0.83132265794E+01  0.23071312773E+02 -0.51540815832E+03  0.51599124496E+03  0.00000000000E+00 0. -1.
</event>
<event>
 4    1  0.6718357E+001  0.2391646E+02  0.7546771E-02  0.1481300E+00
          2   -1    0    0  502    0  0.00000000000E+00  0.00000000000E+00  0.17589795651E+01  0.17589795651E+01  0.00000000000E+00 0.  1.
         -2   -1    0    0    0  501 -0.00000000000E+00 -0.00000000000E+00 -0.33671928636E+03  0.33671928636E+03  0.00000000000E+00 0. -1.
          1    1    1    2  502    0  0.23126766819E+02 -0.60950441576E+01 -0.19880064596E+03  0.20023409734E+03  0.00000000000E+00 0.  1.
         -1    1    1    2    0  501 -0.23126766819E+02  0.60950441576E+01 -0.13615966084E+03  0.13824416858E+03  0.00000000000E+00 0. -1.
</event>
<event>
 4    1  0.6718357E+001  0.2182535E+02  0.7546771E-02  0.1507799E+00
          2   -1    0    0  502    0  0.00000000000E+00  0.00000000000E+00  0.67262176155E+00  0.67262176155E+00  0.00000000000E+00 0.  1.
         -2   -1    0    0    0  501 -0.00000000000E+00 -0.00000000000E+00 -0.90343918604E+03  0.90343918604E+03  0.00000000000E+00 0. -1.
          1    1    1    2  502    0 -0.17039502554E+02 -0.13638235155E+02 -0.24123113715E+03  0.24221644791E+03  0.00000000000E+00 0.  1.
         -1    1    1    2    0  501  0.17039502554E+02  0.13638235155E+02 -0.66153542713E+03  0.66189535989E+03  0.00000000000E+00 0. -1.
</event>
<event>
 4    1  0.6718357E+001  0.2228766E+02  0.7546771E-02  0.1501642E+00
          2   -1    0    0  502    0  0.00000000000E+00  0.00000000000E+00  0.11398493980E+03  0.11398493980E+03  0.00000000000E+00 0. -1.
         -2   -1    0    0    0  501 -0.00000000000E+00 -0.00000000000E+00 -0.63610855037E+02  0.63610855037E+02  0.00000000000E+00 0.  1.
          1    1    1    2  502    0 -0.22099115154E+02  0.28928673898E+01 -0.60515148635E+02  0.64488935382E+02  0.00000000000E+00 0.  1.
         -1    1    1    2    0  501  0.22099115154E+02 -0.28928673898E+01  0.11088923339E+03  0.11310685945E+03  0.00000000000E+00 0. -1.
</event>
<event>
 4    1  0.6718357E+001  0.2502816E+02  0.7546771E-02  0.1468489E+00
          2   -1    0    0  502    0  0.00000000000E+00  0.00000000000E+00  0.81921505646E+03  0.81921505646E+03  0.00000000000E+00 0. -1.
         -2   -1    0    0    0  501 -0.00000000000E+00 -0.00000000000E+00 -0.77017748610E+00  0.77017748610E+00  0.00000000000E+00 0.  1.
          1    1    1    2  502    0 -0.24143872889E+02  0.65941163698E+01  0.44397027552E+03  0.44467517866E+03  0.00000000000E+00 0.  1.
         -1    1    1    2    0  501  0.24143872889E+02 -0.65941163698E+01  0.37447460345E+03  0.37531005528E+03  0.00000000000E+00 0. -1.
</event>
<event>
 4    1  0.6718357E+001  0.2608440E+02  0.7546771E-02  0.1457029E+00
          2   -1    0    0  502    0  0.00000000000E+00  0.00000000000E+00  0.27870864839E+03  0.27870864839E+03  0.00000000000E+00 0. -1.
         -2   -1    0    0    0  501 -0.00000000000E+00 -0.00000000000E+00 -0.49262585915E+01  0.49262585915E+01  0.00000000000E+00 0.  1.
          1    1    1    2  502    0  0.25252359143E+02 -0.65356016732E+01  0.23761580110E+03  0.23904322761E+03  0.00000000000E+00 0. -1.
         -1    1    1    2    0  501 -0.25252359143E+02  0.65356016732E+01  0.36166588699E+02  0.44591679376E+02  0.00000000000E+00 0.  1.
</event>
<event>
 4    1  0.6718357E+001  0.2217751E+02  0.7546771E-02  0.1503093E+00
          2   -1    0    0  502    0  0.00000000000E+00  0.00000000000E+00  0.28190846911E+03  0.28190846911E+03  0.00000000000E+00 0.  1.
         -2   -1    0    0    0  501 -0.00000000000E+00 -0.00000000000E+00 -0.43076099806E+01  0.43076099806E+01  0.00000000000E+00 0. -1.
          1    1    1    2  502    0 -0.20434963232E+02  0.86170909221E+01  0.24918633940E+03  0.25017128877E+03  0.00000000000E+00 0.  1.
         -1    1    1    2    0  501  0.20434963232E+02 -0.86170909221E+01  0.28414519732E+02  0.36044790329E+02  0.00000000000E+00 0. -1.
</event>
<event>
 4    1  0.6718357E+001  0.2904800E+02  0.7546771E-02  0.1428054E+00
          2   -1    0    0  502    0  0.00000000000E+00  0.00000000000E+00  0.24867269986E+02  0.24867269986E+02  0.00000000000E+00 0. -1.
         -2   -1    0    0    0  501 -0.00000000000E+00 -0.00000000000E+00 -0.50836276329E+02  0.50836276329E+02  0.00000000000E+00 0.  1.
          1    1    1    2  502    0 -0.26026934489E+02 -0.12899028720E+02  0.88429362438E+01  0.30364185848E+02  0.00000000000E+00 0. -1.
         -1    1    1    2    0  501  0.26026934489E+02  0.12899028720E+02 -0.34811942587E+02  0.45339360466E+02  0.00000000000E+00 0.  1.
</event>
<event>
 4    1  0.6718357E+001  0.7276603E+02  0.7546771E-02  0.1221717E+00
          2   -1    0    0  502    0  0.00000000000E+00  0.00000000000E+00  0.19558958859E+04  0.19558958859E+04  0.00000000000E+00 0. -1.
         -2   -1    0    0    0  501 -0.00000000000E+00 -0.00000000000E+00 -0.38289891406E+01  0.38289891406E+01  0.00000000000E+00 0.  1.
          1    1    1    2  502    0 -0.63960149250E+02  0.34698623762E+02  0.15064159216E+04  0.15081723456E+04  0.00000000000E+00 0. -1.
         -1    1    1    2    0  501  0.63960149250E+02 -0.34698623762E+02  0.44565097513E+03  0.45155252941E+03  0.00000000000E+00 0.  1.
</event>
<event>
 4    1  0.6718357E+001  0.2791099E+02  0.7546771E-02  0.1438666E+00
          2   -1    0    0  502    0  0.00000000000E+00  0.00000000000E+00  0.18549213312E+02  0.18549213312E+02  0.00000000000E+00 0. -1.
         -2   -1    0    0    0  501 -0.00000000000E+00 -0.00000000000E+00 -0.42933430430E+02  0.42933430430E+02  0.00000000000E+00 0.  1.
          1    1    1    2  502    0  0.22818995317E+01 -0.27817556007E+02 -0.16730586521E+02  0.32541297039E+02  0.00000000000E+00 0.  1.
         -1    1    1    2    0  501 -0.22818995317E+01  0.27817556007E+02 -0.76536305974E+01  0.28941346703E+02  0.00000000000E+00 0. -1.
</event>
<event>
 4    1  0.6718357E+001  0.2638210E+02  0.7546771E-02  0.1453916E+00
          2   -1    0    0  502    0  0.00000000000E+00  0.00000000000E+00  0.11303654682E+04  0.11303654682E+04  0.00000000000E+00 0.  1.
         -2   -1    0    0    0  501 -0.00000000000E+00 -0.00000000000E+00 -0.68823329188E+00  0.68823329188E+00  0.00000000000E+00 0. -1.
          1    1    1    2  502    0 -0.10643237399E+02  0.24139940889E+02  0.74837563148E+03  0.74884050441E+03  0.00000000000E+00 0.  1.
         -1    1    1    2    0  501  0.10643237399E+02 -0.24139940889E+02  0.38130160341E+03  0.38221319706E+03  0.00000000000E+00 0. -1.
</event>
<event>
 4    1  0.6718357E+001  0.2318926E+02  0.7546771E-02  0.1490135E+00
          2   -1    0    0  502    0  0.00000000000E+00  0.00000000000E+00  0.31436318956E+01  0.31436318956E+01  0.00000000000E+00 0. -1.
         -2   -1    0    0    0  501 -0.00000000000E+00 -0.00000000000E+00 -0.18511416870E+03  0.18511416870E+03  0.00000000000E+00 0.  1.
          1    1    1    2  502    0 -0.20424404144E+02  0.10981146483E+02 -0.11692372403E+03  0.11920108684E+03  0.00000000000E+00 0.  1.
         -1    1    1    2    0  501  0.20424404144E+02 -0.10981146483E+02 -0.65046812780E+02  0.69056713762E+02  0.00000000000E+00 0. -1.
</event>
<event>
 4    1  0.6718357E+001  0.2292672E+02  0.7546771E-02  0.1493420E+00
          2   -1    0    0  502    0  0.00000000000E+00  0.00000000000E+00  0.60892353963E+03  0.60892353963E+03  0.00000000000E+00 0.  1.
         -2   -1    0    0    0  501 -0.00000000000E+00 -0.00000000000E+00 -0.97229872507E+00  0.97229872507E+00  0.00000000000E+00 0. -1.
          1    1    1    2  502    0  0.22476459403E+02  0.45214086709E+01  0.40611609019E+03  0.40676272331E+03  0.00000000000E+00 0.  1.
         -1    1    1    2    0  501 -0.22476459403E+02 -0.45214086709E+01  0.20183515072E+03  0.20313311505E+03  0.00000000000E+00 0. -1.
</event>
<event>
 4    1  0.6718357E+001  0.2629468E+02  0.7546771E-02  0.1454825E+00
          2   -1    0    0  502    0  0.00000000000E+00  0.00000000000E+00  0.45077487899E+03  0.45077487899E+03  0.00000000000E+00 0.  1.
         -2   -1    0    0    0  501 -0.00000000000E+00 -0.00000000000E+00 -0.15759139512E+01  0.15759139512E+01  0.00000000000E+00 0. -1.
          1    1    1    2  502    0 -0.20316263078E+02  0.16693100381E+02  0.26156178028E+03  0.26288015339E+03  0.00000000000E+00 0.  1.
         -1    1    1    2    0  501  0.20316263078E+02 -0.16693100381E+02  0.18763718476E+03  0.18947063954E+03  0.00000000000E+00 0. -1.
</event>
<event>
 4    1  0.6718357E+001  0.2278049E+02  0.7546771E-02  0.1495273E+00
          2   -1    0    0  502    0  0.00000000000E+00  0.00000000000E+00  0.76061735093E+02  0.76061735093E+02  0.00000000000E+00 0.  1.
         -2   -1    0    0    0  501 -0.00000000000E+00 -0.00000000000E+00 -0.91008111011E+01  0.91008111011E+01  0.00000000000E+00 0. -1.
          1    1    1    2  502    0  0.22017865414E+02  0.58450414680E+01  0.54784424726E+02  0.59331982098E+02  0.00000000000E+00 0. -1.
         -1    1    1    2    0  501 -0.22017865414E+02 -0.58450414680E+01  0.12176499266E+02  0.25830564096E+02  0.00000000000E+00 0.  1.
</event>
<event>
 4    1  0.6718357E+001  0.3627906E+02  0.7546771E-02  0.1371787E+00
          2   -1    0    0  502    0  0.00000000000E+00  0.00000000000E+00  0.16795408778E+04  0.16795408778E+04  0.00000000000E+00 0.  1.
         -2   -1    0    0    0  501 -0.00000000000E+00 -0.00000000000E+00 -0.17364036716E+01  0.17364036716E+01  0.00000000000E+00 0. -1.
          1    1    1    2  502    0 -0.10312576524E+01 -0.36264395000E+02  0.14615961760E+04  0.14620463576E+04  0.00000000000E+00 0.  1.
         -1    1    1    2    0  501  0.10312576524E+01  0.36264395000E+02  0.21620829806E+03  0.21923092388E+03  0.00000000000E+00 0. -1.
</event>
<event>
 4    1  0.6718357E+001  0.2736495E+02  0.7546771E-02  0.1443976E+00
          2   -1    0    0  502    0  0.00000000000E+00  0.00000000000E+00  0.11154270817E+04  0.11154270817E+04  0.00000000000E+00 0. -1.
         -2   -1    0    0    0  501 -0.00000000000E+00 -0.00000000000E+00 -0.78129208468E+00  0.78129208468E+00  0.00000000000E+00 0.  1.
          1    1    1    2  502    0  0.23586413423E+02  0.13875205693E+02  0.76668285812E+03  0.76717106643E+03  0.00000000000E+00 0. -1.
         -1    1    1    2    0  501 -0.23586413423E+02 -0.13875205693E+02  0.34796293154E+03  0.34903730740E+03  0.00000000000E+00 0.  1.
</event>
<event>
 4    1  0.6718357E+001  0.2313116E+02  0.7546771E-02  0.1490858E+00
          2   -1    0    0  502    0  0.00000000000E+00  0.00000000000E+00  0.11499954859E+04  0.11499954859E+04  0.00000000000E+00 0. -1.
         -2   -1    0    0    0  501 -0.00000000000E+00 -0.00000000000E+00 -0.51734042731E+00  0.51734042731E+00  0.00000000000E+00 0.  1.
          1    1    1    2  502    0  0.88455420800E+01  0.21373038900E+02  0.39222438690E+03  0.39290586670E+03  0.00000000000E+00 0.  1.
         -1    1    1    2    0  501 -0.88455420800E+01 -0.21373038900E+02  0.75725375861E+03  0.75760695967E+03  0.00000000000E+00 0. -1.
</event>
<event>
 4    1  0.6718357E+001  0.2337504E+02  0.7546771E-02  0.1487842E+00
          2   -1    0    0  502    0  0.00000000000E+00  0.00000000000E+00  0.14161008131E+02  0.14161008131E+02  0.00000000000E+00 0. -1.
         -2   -1    0    0    0  501 -0.00000000000E+00 -0.00000000000E+00 -0.39772890545E+02  0.39772890545E+02  0.00000000000E+00 0.  1.
          1    1    1    2  502    0 -0.13202239563E+02 -0.19289726375E+02 -0.81441453242E+01  0.24753177092E+02  0.00000000000E+00 0.  1.
         -1    1    1    2    0  501  0.13202239563E+02  0.19289726375E+02 -0.17467737089E+02  0.29180721583E+02  0.00000000000E+00 0. -1.
</event>
<event>
 4    1  0.6718357E+001  0.3217044E+02  0.7546771E-02  0.1401628E+00
          2   -1    0    0  502    0  0.00000000000E+00  0.00000000000E+00  0.23440226502E+03  0.23440226502E+03  0.00000000000E+00 0. -1.
         -2   -1    0    0    0  501 -0.00000000000E+00 -0.00000000000E+00 -0.46907538033E+01  0.46907538033E+01  0.00000000000E+00 0.  1.
          1    1    1    2  502    0 -0.31097771482E+02 -0.82380702969E+01  0.14382947738E+03  0.14738336323E+03  0.00000000000E+00 0. -1.
         -1    1    1    2    0  501  0.31097771482E+02  0.82380702969E+01  0.85882033843E+02  0.91709655601E+02  0.00000000000E+00 0.  1.
</event>
<event>
 4    1  0.6718357E+001  0.3322061E+02  0.7546771E-02  0.1393524E+00
          2   -1    0    0  502    0  0.00000000000E+00  0.00000000000E+00  0.18602294007E+04  0.18602294007E+04  0.00000000000E+00 0. -1.
         -2   -1    0    0    0  501 -0.00000000000E+00 -0.00000000000E+00 -0.60742568183E+00  0.60742568183E+00  0.00000000000E+00 0.  1.
          1    1    1    2  502    0  0.33040578477E+02  0.34538640730E+01  0.78775035608E+03  0.78845052635E+03  0.00000000000E+00 0.  1.
         -1    1    1    2    0  501 -0.33040578477E+02 -0.34538640730E+01  0.10718716189E+04  0.10723863000E+04  0.00000000000E+00 0. -1.
</event>
<event>
 4    1  0.6718357E+001  0.2452825E+02  0.7546771E-02  0.1474151E+00
          2   -1    0    0  502    0  0.00000000000E+00  0.00000000000E+00  0.93543578875E+01  0.93543578875E+01  0.00000000000E+00 0.  1.
         -2   -1    0    0    0  501 -0.00000000000E+00 -0.00000000000E+00 -0.13015446728E+03  0.13015446728E+03  0.00000000000E+00 0. -1.
          1    1    1    2  502    0  0.24516950566E+02  0.74447476348E+00 -0.11001150495E+03  0.11271276028E+03  0.00000000000E+00 0. -1.
         -1    1    1    2    0  501 -0.24516950566E+02 -0.74447476348E+00 -0.10788604440E+02  0.26796064888E+02  0.00000000000E+00 0.  1.
</event>
<event>
 4    1  0.6718357E+001  0.2133798E+02  0.7546771E-02  0.1514494E+00
          2   -1    0    0  502    0  0.00000000000E+00  0.00000000000E+00  0.11910467287E+04  0.11910467287E+04  0.00000000000E+00 0.  1.
         -2   -1    0    0    0  501 -0.00000000000E+00 -0.00000000000E+00 -0.38533627110E+00  0.38533627110E+00  0.00000000000E+00 0. -1.
          1    1    1    2  502    0 -0.20640489589E+02 -0.54110462284E+01  0.54224709019E+03  0.54266676335E+03  0.00000000000E+00 0.  1.
         -1    1    1    2    0  501  0.20640489589E+02  0.54110462284E+01  0.64841430221E+03  0.64876530159E+03  0.00000000000E+00 0. -1.
</event>
<event>
 4    1  0.6718357E+001  0.3258919E+02  0.7546771E-02  0.1398353E+00
          2   -1    0    0  502    0  0.00000000000E+00  0.00000000000E+00  0.10686380423E+04  0.10686380423E+04  0.00000000000E+00 0.  1.
         -2   -1    0    0    0  501 -0.00000000000E+00 -0.00000000000E+00 -0.37447458292E+01  0.37447458292E+01  0.00000000000E+00 0. -1.
          1    1    1    2  502    0  0.32091566016E+02  0.56733186442E+01  0.72882084131E+02  0.79836416133E+02  0.00000000000E+00 0. -1.
         -1    1    1    2    0  501 -0.32091566016E+02 -0.56733186442E+01  0.99201121231E+03  0.99254637197E+03  0.00000000000E+00 0.  1.
</event>
<event>
 4    1  0.6718357E+001  0.2016404E+02  0.7546771E-02  0.1531543E+00
          2   -1    0    0  502    0  0.00000000000E+00  0.00000000000E+00  0.11167994419E+03  0.11167994419E+03  0.00000000000E+00 0. -1.
         -2   -1    0    0    0  501 -0.00000000000E+00 -0.00000000000E+00 -0.40662600755E+01  0.40662600755E+01  0.00000000000E+00 0.  1.
          1    1    1    2  502    0  0.12239057568E+02  0.16024798633E+02  0.72530041060E+02  0.75280778141E+02  0.00000000000E+00 0. -1.
         -1    1    1    2    0  501 -0.12239057568E+02 -0.16024798633E+02  0.35083643050E+02  0.40465426120E+02  0.00000000000E+00 0.  1.
</event>
<event>
 4    1  0.6718357E+001  0.2322133E+02  0.7546771E-02  0.1489737E+00
          2   -1    0    0  502    0  0.00000000000E+00  0.00000000000E+00  0.29618913209E+02  0.29618913209E+02  0.00000000000E+00 0. -1.
         -2   -1    0    0    0  501 -0.00000000000E+00 -0.00000000000E+00 -0.21126885217E+02  0.21126885217E+02  0.00000000000E+00 0.  1.
          1    1    1    2  502    0 -0.23189178002E+02  0.12216404182E+01  0.13680942143E+02  0.26951782124E+02  0.00000000000E+00 0. -1.
         -1    1    1    2    0  501  0.23189178002E+02 -0.12216404182E+01 -0.51889141516E+01  0.23794016302E+02  0.00000000000E+00 0.  1.
</event>
<event>
 4    1  0.6718357E+001  0.3158538E+02  0.7546771E-02  0.1406302E+00
          2   -1    0    0  502    0  0.00000000000E+00  0.00000000000E+00  0.31854674139E+04  0.31854674139E+04  0.00000000000E+00 0. -1.
         -2   -1    0    0    0  501 -0.00000000000E+00 -0.00000000000E+00 -0.33118666624E+00  0.33118666624E+00  0.00000000000E+00 0.  1.
          1    1    1    2  502    0 -0.28030491141E+02  0.14557744292E+02  0.12211830942E+04  0.12215914971E+04  0.00000000000E+00 0.  1.
         -1    1    1    2    0  501  0.28030491141E+02 -0.14557744292E+02  0.19639531330E+04  0.19642071034E+04  0.00000000000E+00 0. -1.
</event>
<event>
 4    1  0.6718357E+001  0.2730782E+02  0.7546771E-02  0.1444540E+00
          2   -1    0    0  502    0  0.00000000000E+00  0.00000000000E+00  0.25062601806E+01  0.25062601806E+01  0.00000000000E+00 0.  1.
         -2   -1    0    0    0  501 -0.00000000000E+00 -0.00000000000E+00 -0.65092435395E+03  0.65092435395E+03  0.00000000000E+00 0. -1.
          1    1    1    2  502    0  0.15476804562E+02 -0.22498569978E+02 -0.56493714407E+03  0.56559675908E+03  0.00000000000E+00 0. -1.
         -1    1    1    2    0  501 -0.15476804562E+02  0.22498569978E+02 -0.83480949695E+02  0.87833855048E+02  0.00000000000E+00 0.  1.
</event>
<event>
 4    1  0.6718357E+001  0.3106997E+02  0.7546771E-02  0.1410521E+00
          2   -1    0    0  502    0  0.00000000000E+00  0.00000000000E+00  0.70655793746E+03  0.70655793746E+03  0.00000000000E+00 0. -1.
         -2   -1    0    0    0  501 -0.00000000000E+00 -0.00000000000E+00 -0.23501127708E+01  0.23501127708E+01  0.00000000000E+00 0.  1.
          1    1    1    2  502    0  0.20190452582E+02  0.23615438369E+02  0.12276372520E+03  0.12663441685E+03  0.00000000000E+00 0.  1.
         -1    1    1    2    0  501 -0.20190452582E+02 -0.23615438369E+02  0.58144409949E+03  0.58227363338E+03  0.00000000000E+00 0. -1.
</event>
<event>
 4    1  0.6718357E+001  0.2174634E+02  0.7546771E-02  0.1508870E+00
          2   -1    0    0  502    0  0.00000000000E+00  0.00000000000E+00  0.20925741945E+01  0.20925741945E+01  0.00000000000E+00 0. -1.
         -2   -1    0    0    0  501 -0.00000000000E+00 -0.00000000000E+00 -0.22735126150E+03  0.22735126150E+03  0.00000000000E+00 0.  1.
          1    1    1    2  502    0  0.27994505671E-01 -0.21746319451E+02 -0.12150272591E+03  0.12343344602E+03  0.00000000000E+00 0.  1.
         -1    1    1    2    0  501 -0.27994505671E-01  0.21746319451E+02 -0.10375596140E+03  0.10601038968E+03  0.00000000000E+00 0. -1.
</event>
<event>
 4    1  0.6718357E+001  0.2800461E+02  0.7546771E-02  0.1437769E+00
          2   -1    0    0  502    0  0.00000000000E+00  0.00000000000E+00  0.66947297637E+02  0.66947297637E+02  0.00000000000E+00 0.  1.
         -2   -1    0    0    0  501 -0.00000000000E+00 -0.00000000000E+00 -0.12530236951E+02  0.12530236951E+02  0.00000000000E+00 0. -1.
          1    1    1    2  502    0 -0.27835387320E+02  0.30740034461E+01  0.17069574067E+02  0.32796777941E+02  0.00000000000E+00 0. -1.
         -1    1    1    2    0  501  0.27835387320E+02 -0.30740034461E+01  0.37347486618E+02  0.46680756647E+02  0.00000000000E+00 0.  1.
</event>
<event>
 4    1  0.6718357E+001  0.2000607E+02  0.7546771E-02  0.1533943E+00
          2   -1    0    0  502    0  0.00000000000E+00  0.00000000000E+00  0.49010765314E+03  0.49010765314E+03  0.00000000000E+00 0. -1.
         -2   -1    0    0    0  501 -0.00000000000E+00 -0.00000000000E+00 -0.82356713352E+00  0.82356713352E+00  0.00000000000E+00 0.  1.
          1    1    1    2  502    0 -0.76206978971E+01 -0.18497781559E+02  0.22213463526E+03  0.22303371750E+03  0.00000000000E+00 0.  1.
         -1    1    1    2    0  501  0.76206978971E+01  0.18497781559E+02  0.26714945074E+03  0.26789750277E+03  0.00000000000E+00 0. -1.
</event>
<event>
 4    1  0.6718357E+001  0.3763182E+02  0.7546771E-02  0.1362951E+00
          2   -1    0    0  502    0  0.00000000000E+00  0.00000000000E+00  0.10866139722E+02  0.10866139722E+02  0.00000000000E+00 0.  1.
         -2   -1    0    0    0  501 -0.00000000000E+00 -0.00000000000E+00 -0.15105681960E+03  0.15105681960E+03  0.00000000000E+00 0. -1.
          1    1    1    2  502    0 -0.33831809865E+02 -0.16479159832E+02 -0.10008720339E+03  0.10692802416E+03  0.00000000000E+00 0.  1.
         -1    1    1    2    0  501  0.33831809865E+02  0.16479159832E+02 -0.40103476490E+02  0.54994935168E+02  0.00000000000E+00 0. -1.
</event>
<event>
 4    1  0.6718357E+001  0.3308372E+02  0.7546771E-02  0.1394560E+00
          2   -1    0    0  502    0  0.00000000000E+00  0.00000000000E+00  0.29070971180E+04  0.29070971180E+04  0.00000000000E+00 0. -1.
         -2   -1    0    0    0  501 -0.00000000000E+00 -0.00000000000E+00 -0.38620162144E+00  0.38620162144E+00  0.00000000000E+00 0.  1.
          1    1    1    2  502    0 -0.29720635340E+02 -0.14533288105E+02  0.12229880653E+04  0.12234354664E+04  0.00000000000E+00 0. -1.
         -1    1    1    2    0  501  0.29720635340E+02  0.14533288105E+02  0.16837228510E+04  0.16840478531E+04  0.00000000000E+00 0.  1.
</event>
<event>
 4    1  0.6718357E+001  0.2064356E+02  0.7546771E-02  0.1524415E+00
          2   -1    0    0  502    0  0.00000000000E+00  0.00000000000E+00  0.40256791028E+02  0.40256791028E+02  0.00000000000E+00 0.  1.
         -2   -1    0    0    0  501 -0.00000000000E+00 -0.00000000000E+00 -0.13093523567E+02  0.13093523567E+02  0.00000000000E+00 0. -1.
          1    1    1    2  502    0 -0.96396251643E+01  0.18254700221E+02  0.25255249616E+02  0.32618768932E+02  0.00000000000E+00 0.  1.
         -1    1    1    2    0  501  0.96396251643E+01 -0.18254700221E+02  0.19080178451E+01  0.20731545663E+02  0.00000000000E+00 0. -1.
</event>
<event>
 4    1  0.6718357E+001  0.2230560E+02  0.7546771E-02  0.1501407E+00
          2   -1    0    0  502    0  0.00000000000E+00  0.00000000000E+00  0.11333623068E+03  0.11333623068E+03  0.00000000000E+00 0. -1.
         -2   -1    0    0    0  501 -0.00000000000E+00 -0.00000000000E+00 -0.47849353041E+01  0.47849353041E+01  0.00000000000E+00 0.  1.
          1    1    1    2  502    0  0.12083457247E+01 -0.22272841799E+02  0.71244562383E+02  0.74654720215E+02  0.00000000000E+00 0. -1.
         -1    1    1    2    0  501 -0.12083457247E+01  0.22272841799E+02  0.37306732994E+02  0.43466445770E+02  0.00000000000E+00 0.  1.
</event>
<event>
 4    1  0.6718357E+001  0.2283514E+02  0.7546771E-02  0.1494579E+00
          2   -1    0    0  502    0  0.00000000000E+00  0.00000000000E+00  0.11508206528E+03  0.11508206528E+03  0.00000000000E+00 0.  1.
         -2   -1    0    0    0  501 -0.00000000000E+00 -0.00000000000E+00 -0.59761864333E+01  0.59761864333E+01  0.00000000000E+00 0. -1.
          1    1    1    2  502    0  0.91238161906E+01 -0.20933212769E+02  0.24787953679E+02  0.33702908870E+02  0.00000000000E+00 0. -1.
         -1    1    1    2    0  501 -0.91238161906E+01  0.20933212769E+02  0.84317925165E+02  0.87355342841E+02  0.00000000000E+00 0.  1.
</event>
<event>
 4    1  0.6718357E+001  0.2108052E+02  0.7546771E-02  0.1518118E+00
          2   -1    0    0  502    0  0.00000000000E+00  0.00000000000E+00  0.70221148031E+03  0.70221148031E+03  0.00000000000E+00 0. -1.
         -2   -1    0    0    0  501 -0.00000000000E+00 -0.00000000000E+00 -0.15781367765E+01  0.15781367765E+01  0.00000000000E+00 0.  1.
          1    1    1    2  502    0  0.46127161280E+01 -0.20569670840E+02  0.77968601544E+02  0.80768133167E+02  0.00000000000E+00 0.  1.
         -1    1    1    2    0  501 -0.46127161280E+01  0.20569670840E+02  0.62266474198E+03  0.62302148391E+03  0.00000000000E+00 0. -1.
</event>
<event>
 4    1  0.6718357E+001  0.3328199E+02  0.7546771E-02  0.1393061E+00
          2   -1    0    0  502    0  0.00000000000E+00  0.00000000000E+00  0.67563616148E+02  0.67563616148E+02  0.00000000000E+00 0. -1.
         -2   -1    0    0    0  501 -0.00000000000E+00 -0.00000000000E+00 -0.23110324056E+02  0.23110324056E+02  0.00000000000E+00 0.  1.
          1    1    1    2  502    0 -0.18735058726E+02 -0.27507976015E+02  0.46666005237E+02  0.57318471846E+02  0.00000000000E+00 0. -1.
         -1    1    1    2    0  501  0.18735058726E+02  0.27507976015E+02 -0.22127131457E+01  0.33355468358E+02  0.00000000000E+00 0.  1.
</event>
<event>
 4    1  0.6718357E+001  0.3466516E+02  0.7546771E-02  0.1382933E+00
          2   -1    0    0  502    0  0.00000000000E+00  0.00000000000E+00  0.14177267035E+03  0.14177267035E+03  0.00000000000E+00 0.  1.
         -2   -1    0    0    0  501 -0.00000000000E+00 -0.00000000000E+00 -0.12014269029E+02  0.12014269029E+02  0.00000000000E+00 0. -1.
          1    1    1    2  502    0 -0.28538150534E+02 -0.19678593965E+02  0.10660770024E+03  0.11210207334E+03  0.00000000000E+00 0.  1.
         -1    1    1    2    0  501  0.28538150534E+02  0.19678593965E+02  0.23150701081E+02  0.41684866041E+02  0.00000000000E+00 0. -1.
</event>
<event>
 4    1  0.6718357E+001  0.2280791E+02  0.7546771E-02  0.1494924E+00
          2   -1    0    0  502    0  0.00000000000E+00  0.00000000000E+00  0.13310979819E+01  0.13310979819E+01  0.00000000000E+00 0. -1.
         -2   -1    0    0    0  501 -0.00000000000E+00 -0.00000000000E+00 -0.39145260960E+03  0.39145260960E+03  0.00000000000E+00 0.  1.
          1    1    1    2  502    0 -0.21835177874E+02 -0.65898244426E+01 -0.18707749432E+03  0.18846270098E+03  0.00000000000E+00 0. -1.
         -1    1    1    2    0  501  0.21835177874E+02  0.65898244426E+01 -0.20304401729E+03  0.20432100660E+03  0.00000000000E+00 0.  1.
</event>
<event>
 4    1  0.6718357E+001  0.5181857E+02  0.7546771E-02  0.1290475E+00
          2   -1    0    0  502    0  0.00000000000E+00  0.00000000000E+00  0.47600472802E+03  0.47600472802E+03  0.00000000000E+00 0.  1.
         -2   -1    0    0    0  501 -0.00000000000E+00 -0.00000000000E+00 -0.56710864822E+01  0.56710864822E+01  0.00000000000E+00 0. -1.
          1    1    1    2  502    0 -0.48079293423E+02  0.19327324018E+02  0.25269573997E+03  0.25795406744E+03  0.00000000000E+00 0. -1.
         -1    1    1    2    0  501  0.48079293423E+02 -0.19327324018E+02  0.21763790156E+03  0.22372174706E+03  0.00000000000E+00 0.  1.
</event>
<event>
 4    1  0.6718357E+001  0.2592407E+02  0.7546771E-02  0.1458726E+00
          2   -1    0    0  502    0  0.00000000000E+00  0.00000000000E+00  0.10733541804E+03  0.10733541804E+03  0.00000000000E+00 0.  1.
         -2   -1    0    0    0  501 -0.00000000000E+00 -0.00000000000E+00 -0.63207127961E+01  0.63207127961E+01  0.00000000000E+00 0. -1.
          1    1    1    2  502    0 -0.92664849574E+01  0.24211352293E+02  0.44996922029E+02  0.51930533556E+02  0.00000000000E+00 0. -1.
         -1    1    1    2    0  501  0.92664849574E+01 -0.24211352293E+02  0.56017783219E+02  0.61725597285E+02  0.00000000000E+00 0.  1.
</event>
<event>
 4    1  0.6718357E+001  0.3132848E+02  0.7546771E-02  0.1408393E+00
          2   -1    0    0  502    0  0.00000000000E+00  0.00000000000E+00  0.17703241484E+04  0.17703241484E+04  0.00000000000E+00 0.  1.
         -2   -1    0    0    0  501 -0.00000000000E+00 -0.00000000000E+00 -0.83620107538E+00  0.83620107538E+00  0.00000000000E+00 0. -1.
          1    1    1    2  502    0 -0.24236959998E+02 -0.19850519915E+02  0.13988366095E+04  0.13991873832E+04  0.00000000000E+00 0.  1.
         -1    1    1    2    0  501  0.24236959998E+02  0.19850519915E+02  0.37065133787E+03  0.37197296627E+03  0.00000000000E+00 0. -1.
</event>
<event>
 4    1  0.6718357E+001  0.2121833E+02  0.7546771E-02  0.1516170E+00
          2   -1    0    0  502    0  0.00000000000E+00  0.00000000000E+00  0.49433474642E+03  0.49433474642E+03  0.00000000000E+00 0. -1.
         -2   -1    0    0    0  501 -0.00000000000E+00 -0.00000000000E+00 -0.11712189080E+01  0.11712189080E+01  0.00000000000E+00 0.  1.
          1    1    1    2  502    0 -0.21011753104E+02 -0.29536035381E+01  0.12974644828E+03  0.13146999043E+03  0.00000000000E+00 0.  1.
         -1    1    1    2    0  501  0.21011753104E+02  0.29536035381E+01  0.36341707923E+03  0.36403597490E+03  0.00000000000E+00 0. -1.
</event>
<event>
 4    1  0.6718357E+001  0.2309047E+02  0.7546771E-02  0.1491365E+00
          2   -1    0    0  502    0  0.00000000000E+00  0.00000000000E+00  0.32372490627E+03  0.32372490627E+03  0.00000000000E+00 0. -1.
         -2   -1    0    0    0  501 -0.00000000000E+00 -0.00000000000E+00 -0.27182612747E+01  0.27182612747E+01  0.00000000000E+00 0.  1.
          1    1    1    2  502    0 -0.22711346755E+02 -0.41670793132E+01  0.58036590737E+02  0.62461313513E+02  0.00000000000E+00 0.  1.
         -1    1    1    2    0  501  0.22711346755E+02  0.41670793132E+01  0.26297005426E+03  0.26398185403E+03  0.00000000000E+00 0. -1.
</event>
<event>
 4    1  0.6718357E+001  0.3290239E+02  0.7546771E-02  0.1395942E+00
          2   -1    0    0  502    0  0.00000000000E+00  0.00000000000E+00  0.18648381813E+04  0.18648381813E+04  0.00000000000E+00 0.  1.
         -2   -1    0    0    0  501 -0.00000000000E+00 -0.00000000000E+00 -0.62473025782E+00  0.62473025782E+00  0.00000000000E+00 0. -1.
          1    1    1    2  502    0 -0.30637153377E+02  0.11997183593E+02  0.11802449575E+04  0.11807034883E+04  0.00000000000E+00 0.  1.
         -1    1    1    2    0  501  0.30637153377E+02 -0.11997183593E+02  0.68396849359E+03  0.68475942330E+03  0.00000000000E+00 0. -1.
</event>
<event>
 4    1  0.6718357E+001  0.2670181E+02  0.7546771E-02  0.1450627E+00
          2   -1    0    0  502    0  0.00000000000E+00  0.00000000000E+00  0.16766584014E+03  0.16766584014E+03  0.00000000000E+00 0. -1.
         -2   -1    0    0    0  501 -0.00000000000E+00 -0.00000000000E+00 -0.10571957461E+02  0.10571957461E+02  0.00000000000E+00 0.  1.
          1    1    1    2  502    0 -0.26688433869E+02  0.84503581759E+00  0.14744937253E+03  0.14984760275E+03  0.00000000000E+00 0. -1.
         -1    1    1    2    0  501  0.26688433869E+02 -0.84503581759E+00  0.96445101431E+01  0.28390194853E+02  0.00000000000E+00 0.  1.
</event>
<event>
 4    1  0.6718357E+001  0.2032011E+02  0.7546771E-02  0.1529197E+00
          2   -1    0    0  502    0  0.00000000000E+00  0.00000000000E+00  0.12263316993E+04  0.12263316993E+04  0.00000000000E+00 0. -1.
         -2   -1    0    0    0  501 -0.00000000000E+00 -0.00000000000E+00 -0.36337532026E+00  0.36337532026E+00  0.00000000000E+00 0.  1.
          1    1    1    2  502    0 -0.18648109775E+02  0.80718676368E+01  0.77916311506E+03  0.77942803832E+03  0.00000000000E+00 0. -1.
         -1    1    1    2    0  501  0.18648109775E+02 -0.80718676368E+01  0.44680520893E+03  0.44726703631E+03  0.00000000000E+00 0.  1.
</event>
<event>
 4    1  0.6718357E+001  0.2300589E+02  0.7546771E-02  0.1492424E+00
          2   -1    0    0  502    0  0.00000000000E+00  0.00000000000E+00  0.17567664564E+02  0.17567664564E+02  0.00000000000E+00 0. -1.
         -2   -1    0    0    0  501 -0.00000000000E+00 -0.00000000000E+00 -0.30600367072E+02  0.30600367072E+02  0.00000000000E+00 0.  1.
          1    1    1    2  502    0 -0.11033062038E+02  0.20187687437E+02 -0.95099898135E+01  0.24893997032E+02  0.00000000000E+00 0. -1.
         -1    1    1    2    0  501  0.11033062038E+02 -0.20187687437E+02 -0.35227126944E+01  0.23274034603E+02  0.00000000000E+00 0.  1.
</event>
<event>
 4    1  0.6718357E+001  0.2485322E+02  0.7546771E-02  0.1470452E+00
          2   -1    0    0  502    0  0.00000000000E+00  0.00000000000E+00  0.25386391278E+03  0.25386391278E+03  0.00000000000E+00 0.  1.
         -2   -1    0    0    0  501 -0.00000000000E+00 -0.00000000000E+00 -0.24414364419E+01  0.24414364419E+01  0.00000000000E+00 0. -1.
          1    1    1    2  502    0 -0.22429852987E+02 -0.10704393401E+02  0.11823345337E+03  0.12081734908E+03  0.00000000000E+00 0. -1.
         -1    1    1    2    0  501  0.22429852987E+02  0.10704393401E+02  0.13318902297E+03  0.13548800014E+03  0.00000000000E+00 0.  1.
</event>
<event>
 4    1  0.6718357E+001  0.2541061E+02  0.7546771E-02  0.1464262E+00
          2   -1    0    0  502    0  0.00000000000E+00  0.00000000000E+00  0.21226294069E+02  0.21226294069E+02  0.00000000000E+00 0.  1.
         -2   -1    0    0    0  501 -0.00000000000E+00 -0.00000000000E+00 -0.20129764695E+03  0.20129764695E+03  0.00000000000E+00 0. -1.
          1    1    1    2  502    0 -0.51289144162E+01 -0.24887614576E+02 -0.19254663856E+03  0.19421613512E+03  0.00000000000E+00 0. -1.
         -1    1    1    2    0  501  0.51289144162E+01  0.24887614576E+02  0.12475285671E+02  0.28307805901E+02  0.00000000000E+00 0.  1.
</event>
<event>
 4    1  0.6718357E+001  0.4032043E+02  0.7546771E-02  0.1346618E+00
          2   -1    0    0  502    0  0.00000000000E+00  0.00000000000E+00  0.21496347864E+02  0.21496347864E+02  0.00000000000E+00 0.  1.
         -2   -1    0    0    0  501 -0.00000000000E+00 -0.00000000000E+00 -0.18544323145E+03  0.18544323145E+03  0.00000000000E+00 0. -1.
          1    1    1    2  502    0 -0.39164739535E+02  0.95843686035E+01 -0.23504782063E+01  0.40388880798E+02  0.00000000000E+00 0.  1.
         -1    1    1    2    0  501  0.39164739535E+02 -0.95843686035E+01 -0.16159640537E+03  0.16655069851E+03  0.00000000000E+00 0. -1.
</event>
<event>
 4    1  0.6718357E+001  0.3084035E+02  0.7546771E-02  0.1412431E+00
          2   -1    0    0  502    0  0.00000000000E+00  0.00000000000E+00  0.14177853647E+01  0.14177853647E+01  0.00000000000E+00 0. -1.
         -2   -1    0    0    0  501 -0.00000000000E+00 -0.00000000000E+00 -0.76334033116E+03  0.76334033116E+03  0.00000000000E+00 0.  1.
          1    1    1    2  502    0 -0.23359976307E+02 -0.20135513194E+02 -0.24786278992E+03  0.24977407794E+03  0.00000000000E+00 0. -1.
         -1    1    1    2    0  501  0.23359976307E+02  0.20135513194E+02 -0.51405975588E+03  0.51498403858E+03  0.00000000000E+00 0.  1.
</event>
<event>
 4    1  0.6718357E+001  0.2961528E+02  0.7546771E-02  0.1422969E+00
          2   -1    0    0  502    0  0.00000000000E+00  0.00000000000E+00  0.19064926041E+03  0.19064926041E+03  0.00000000000E+00 0.  1.
         -2   -1    0    0    0  501 -0.00000000000E+00 -0.00000000000E+00 -0.49285550929E+01  0.49285550929E+01  0.00000000000E+00 0. -1.
          1    1    1    2  502    0  0.24041439291E+02 -0.17293760667E+02  0.67627749328E+02  0.73828026117E+02  0.00000000000E+00 0. -1.
         -1    1    1    2    0  501 -0.24041439291E+02  0.17293760667E+02  0.11809295599E+03  0.12174978938E+03  0.00000000000E+00 0.  1.
</event>
<event>
 4    1  0.6718357E+001  0.2821057E+02  0.7546771E-02  0.1435813E+00
          2   -1    0    0  502    0  0.00000000000E+00  0.00000000000E+00  0.12610240279E+04  0.12610240279E+04  0.00000000000E+00 0.  1.
         -2   -1    0    0    0  501 -0.00000000000E+00 -0.00000000000E+00 -0.10460591113E+01  0.10460591113E+01  0.00000000000E+00 0. -1.
          1    1    1    2  502    0  0.22658096971E+02  0.16806156858E+02  0.23254460844E+03  0.23424950626E+03  0.00000000000E+00 0. -1.
         -1    1    1    2    0  501 -0.22658096971E+02 -0.16806156858E+02  0.10274333603E+04  0.10278205808E+04  0.00000000000E+00 0.  1.
</event>
<event>
 4    1  0.6718357E+001  0.2581625E+02  0.7546771E-02  0.1459876E+00
          2   -1    0    0  502    0  0.00000000000E+00  0.00000000000E+00  0.36732114262E+02  0.36732114262E+02  0.00000000000E+00 0.  1.
         -2   -1    0    0    0  501 -0.00000000000E+00 -0.00000000000E+00 -0.21439355196E+02  0.21439355196E+02  0.00000000000E+00 0. -1.
          1    1    1    2  502    0  0.14366946297E+02  0.21449233635E+02 -0.37562507788E+01  0.26088085199E+02  0.00000000000E+00 0. -1.
         -1    1    1    2    0  501 -0.14366946297E+02 -0.21449233635E+02  0.19049009845E+02  0.32083384259E+02  0.00000000000E+00 0.  1.
</event>
<event>
 4    1  0.6718357E+001  0.2424755E+02  0.7546771E-02  0.1477400E+00
          2   -1    0    0  502    0  0.00000000000E+00  0.00000000000E+00  0.66183700582E+01  0.66183700582E+01  0.00000000000E+00 0. -1.
         -2   -1    0    0    0  501 -0.00000000000E+00 -0.00000000000E+00 -0.10876206738E+03  0.10876206738E+03  0.00000000000E+00 0.  1.
          1    1    1    2  502    0  0.23495515404E+02 -0.59920241268E+01 -0.26378271240E+02  0.35829551921E+02  0.00000000000E+00 0. -1.
         -1    1    1    2    0  501 -0.23495515404E+02  0.59920241268E+01 -0.75765426079E+02  0.79550885514E+02  0.00000000000E+00 0.  1.
</event>
<event>
 4    1  0.6718357E+001  0.2513202E+02  0.7546771E-02  0.1467332E+00
          2   -1    0    0  502    0  0.00000000000E+00  0.00000000000E+00  0.11300112253E+01  0.11300112253E+01  0.00000000000E+00 0.  1.
         -2   -1    0    0    0  501 -0.00000000000E+00 -0.00000000000E+00 -0.70232983252E+03  0.70232983252E+03  0.00000000000E+00 0. -1.
          1    1    1    2  502    0 -0.17937566655E+02  0.17602907691E+02 -0.19167781260E+03  0.19331839669E+03  0.00000000000E+00 0.  1.
         -1    1    1    2    0  501  0.17937566655E+02 -0.17602907691E+02 -0.50952200869E+03  0.51014144705E+03  0.00000000000E+00 0. -1.
</event>
<event>
 4    1  0.6718357E+001  0.2104335E+02  0.7546771E-02  0.1518647E+00
          2   -1    0    0  502    0  0.00000000000E+00  0.00000000000E+00  0.28890241483E+03  0.28890241483E+03  0.00000000000E+00 0.  1.
         -2   -1    0    0    0  501 -0.00000000000E+00 -0.00000000000E+00 -0.20067731420E+01  0.20067731420E+01  0.00000000000E+00 0. -1.
          1    1    1    2  502    0 -0.20668690477E+02 -0.39531770758E+01  0.21413923342E+03  0.21517070819E+03  0.00000000000E+00 0.  1.
         -1    1    1    2    0  501  0.20668690477E+02  0.39531770758E+01  0.72756408271E+02  0.75738479781E+02  0.00000000000E+00 0. -1.
</event>
<event>
 4    1  0.6718357E+001  0.2031176E+02  0.7546771E-02  0.1529322E+00
          2   -1    0    0  502    0  0.00000000000E+00  0.00000000000E+00  0.32521115225E+03  0.32521115225E+03  0.00000000000E+00 0. -1.
         -2   -1    0    0    0  501 -0.00000000000E+00 -0.00000000000E+00 -0.13970583053E+01  0.13970583053E+01  0.00000000000E+00 0.  1.
          1    1    1    2  502    0 -0.45082556556E+01  0.19805133610E+02  0.11239100951E+03  0.11421167500E+03  0.00000000000E+00 0. -1.
         -1    1    1    2    0  501  0.45082556556E+01 -0.19805133610E+02  0.21142308444E+03  0.21239653556E+03  0.00000000000E+00 0.  1.
</event>
<event>
 4    1  0.6718357E+001  0.5284062E+02  0.7546771E-02  0.1286305E+00
          2   -1    0    0  502    0  0.00000000000E+00  0.00000000000E+00  0.78265571541E+02  0.78265571541E+02  0.00000000000E+00 0.  1.
         -2   -1    0    0    0  501 -0.00000000000E+00 -0.00000000000E+00 -0.36601127749E+02  0.36601127749E+02  0.00000000000E+00 0. -1.
          1    1    1    2  502    0 -0.25503420232E+01  0.52779038268E+02  0.11696732698E+02  0.54119725431E+02  0.00000000000E+00 0.  1.
         -1    1    1    2    0  501  0.25503420232E+01 -0.52779038268E+02  0.29967711093E+02  0.60746973859E+02  0.00000000000E+00 0. -1.
</event>
<event>
 4    1  0.6718357E+001  0.3895537E+02  0.7546771E-02  0.1354718E+00
          2   -1    0    0  502    0  0.00000000000E+00  0.00000000000E+00  0.54545153841E+02  0.54545153841E+02  0.00000000000E+00 0. -1.
         -2   -1    0    0    0  501 -0.00000000000E+00 -0.00000000000E+00 -0.27958202052E+02  0.27958202052E+02  0.00000000000E+00 0.  1.
          1    1    1    2  502    0 -0.38228051544E+02 -0.74924321985E+01  0.10407492908E+02  0.40321661347E+02  0.00000000000E+00 0. -1.
         -1    1    1    2    0  501  0.38228051544E+02  0.74924321985E+01  0.16179458880E+02  0.42181694546E+02  0.00000000000E+00 0.  1.
</event>
<event>
 4    1  0.6718357E+001  0.3132265E+02  0.7546771E-02  0.1408441E+00
          2   -1    0    0  502    0  0.00000000000E+00  0.00000000000E+00  0.12503327618E+02  0.12503327618E+02  0.00000000000E+00 0. -1.
         -2   -1    0    0    0  501 -0.00000000000E+00 -0.00000000000E+00 -0.16977671243E+03  0.16977671243E+03  0.00000000000E+00 0.  1.
          1    1    1    2  502    0 -0.31144093430E+02 -0.33397223059E+01 -0.11798191018E+02  0.33470966702E+02  0.00000000000E+00 0. -1.
         -1    1    1    2    0  501  0.31144093430E+02  0.33397223059E+01 -0.14547519380E+03  0.14880907335E+03  0.00000000000E+00 0.  1.
</event>
<event>
 4    1  0.6718357E+001  0.3154968E+02  0.7546771E-02  0.1406591E+00
          2   -1    0    0  502    0  0.00000000000E+00  0.00000000000E+00  0.68568041298E+03  0.68568041298E+03  0.00000000000E+00 0. -1.
         -2   -1    0    0    0  501 -0.00000000000E+00 -0.00000000000E+00 -0.17061858018E+01  0.17061858018E+01  0.00000000000E+00 0.  1.
          1    1    1    2  502    0  0.15496504115E+02 -0.27481637752E+02  0.47473108932E+03  0.47577829839E+03  0.00000000000E+00 0.  1.
         -1    1    1    2    0  501 -0.15496504115E+02  0.27481637752E+02  0.20924313786E+03  0.21160830039E+03  0.00000000000E+00 0. -1.
</event>
<event>
 4    1  0.6718357E+001  0.4396467E+02  0.7546771E-02  0.1326698E+00
          2   -1    0    0  502    0  0.00000000000E+00  0.00000000000E+00  0.36347999704E+03  0.36347999704E+03  0.00000000000E+00 0. -1.
         -2   -1    0    0    0  501 -0.00000000000E+00 -0.00000000000E+00 -0.55006776195E+01  0.55006776195E+01  0.00000000000E+00 0.  1.
          1    1    1    2  502    0 -0.31972141321E+02  0.30177375246E+02  0.14534484880E+03  0.15184866437E+03  0.00000000000E+00 0.  1.
         -1    1    1    2    0  501  0.31972141321E+02 -0.30177375246E+02  0.21263447062E+03  0.21713201029E+03  0.00000000000E+00 0. -1.
</event>
<event>
 4    1  0.6718357E+001  0.2012578E+02  0.7546771E-02  0.1532122E+00
          2   -1    0    0  502    0  0.00000000000E+00  0.00000000000E+00  0.65504970548E+02  0.65504970548E+02  0.00000000000E+00 0. -1.
         -2   -1    0    0    0  501 -0.00000000000E+00 -0.00000000000E+00 -0.10095961701E+02  0.10095961701E+02  0.00000000000E+00 0.  1.
          1    1    1    2  502    0  0.15200066314E+02 -0.13191094644E+02  0.41729350440E+01  0.20553841022E+02  0.00000000000E+00 0.  1.
         -1    1    1    2    0  501 -0.15200066314E+02  0.13191094644E+02  0.51236073803E+02  0.55047091227E+02  0.00000000000E+00 0. -1.
</event>
<event>
 4    1  0.6718357E+001  0.3021767E+02  0.7546771E-02  0.1417714E+00
          2   -1    0    0  502    0  0.00000000000E+00  0.00000000000E+00  0.13126289606E+03  0.13126289606E+03  0.00000000000E+00 0. -1.
         -2   -1    0    0    0  501 -0.00000000000E+00 -0.00000000000E+00 -0.79375310217E+01  0.79375310217E+01  0.00000000000E+00 0.  1.
          1    1    1    2  502    0 -0.96232052468E+01  0.28644399607E+02  0.86133438092E+02  0.91280210701E+02  0.00000000000E+00 0. -1.
         -1    1    1    2    0  501  0.96232052468E+01 -0.28644399607E+02  0.37191926949E+02  0.47920216383E+02  0.00000000000E+00 0.  1.
</event>
<event>
 4    1  0.6718357E+001  0.3020219E+02  0.7546771E-02  0.1417847E+00
          2   -1    0    0  502    0  0.00000000000E+00  0.00000000000E+00  0.11428647483E+04  0.11428647483E+04  0.00000000000E+00 0.  1.
         -2   -1    0    0    0  501 -0.00000000000E+00 -0.00000000000E+00 -0.19738767757E+01  0.19738767757E+01  0.00000000000E+00 0. -1.
          1    1    1    2  502    0  0.44272387719E+01  0.29875942794E+02  0.10122277108E+04  0.10126781873E+04  0.00000000000E+00 0.  1.
         -1    1    1    2    0  501 -0.44272387719E+01 -0.29875942794E+02  0.12866316068E+03  0.13216043779E+03  0.00000000000E+00 0. -1.
</event>
<event>
 4    1  0.6718357E+001  0.2083712E+02  0.7546771E-02  0.1521603E+00
          2   -1    0    0  502    0  0.00000000000E+00  0.00000000000E+00  0.32566106521E+02  0.32566106521E+02  0.00000000000E+00 0. -1.
         -2   -1    0    0    0  501 -0.00000000000E+00 -0.00000000000E+00 -0.22707586803E+02  0.22707586803E+02  0.00000000000E+00 0.  1.
          1    1    1    2  502    0 -0.17147528005E+02  0.11838397826E+02  0.22687185622E+02  0.30804119387E+02  0.00000000000E+00 0. -1.
         -1    1    1    2    0  501  0.17147528005E+02 -0.11838397826E+02 -0.12828665905E+02  0.24469573937E+02  0.00000000000E+00 0.  1.
</event>
<event>
 4    1  0.6718357E+001  0.2203627E+02  0.7546771E-02  0.1504968E+00
          2   -1    0    0  502    0  0.00000000000E+00  0.00000000000E+00  0.94973253788E+01  0.94973253788E+01  0.00000000000E+00 0.  1.
         -2   -1    0    0    0  501 -0.00000000000E+00 -0.00000000000E+00 -0.77826559085E+02  0.77826559085E+02  0.00000000000E+00 0. -1.
          1    1    1    2  502    0  0.11225540967E+02  0.18962712498E+02 -0.59736790597E+02  0.63671668630E+02  0.00000000000E+00 0. -1.
         -1    1    1    2    0  501 -0.11225540967E+02 -0.18962712498E+02 -0.85924431093E+01  0.23652215834E+02  0.00000000000E+00 0.  1.
</event>
<event>
 4    1  0.6718357E+001  0.2010990E+02  0.7546771E-02  0.1532362E+00
          2   -1    0    0  502    0  0.00000000000E+00  0.00000000000E+00  0.80476114192E+03  0.80476114192E+03  0.00000000000E+00 0.  1.
         -2   -1    0    0    0  501 -0.00000000000E+00 -0.00000000000E+00 -0.50389284264E+00  0.50389284264E+00  0.00000000000E+00 0. -1.
          1    1    1    2  502    0 -0.19657205442E+02 -0.42429108906E+01  0.38110738661E+03  0.38163758744E+03  0.00000000000E+00 0. -1.
         -1    1    1    2    0  501  0.19657205442E+02  0.42429108906E+01  0.42314986247E+03  0.42362744733E+03  0.00000000000E+00 0.  1.
</event>
<event>
 4    1  0.6718357E+001  0.4078437E+02  0.7546771E-02  0.1343950E+00
          2   -1    0    0  502    0  0.00000000000E+00  0.00000000000E+00  0.12988347003E+04  0.12988347003E+04  0.00000000000E+00 0.  1.
         -2   -1    0    0    0  501 -0.00000000000E+00 -0.00000000000E+00 -0.13064571058E+01  0.13064571058E+01  0.00000000000E+00 0. -1.
          1    1    1    2  502    0  0.18423830366E+02 -0.36385809800E+02  0.74011330999E+03  0.74123618119E+03  0.00000000000E+00 0. -1.
         -1    1    1    2    0  501 -0.18423830366E+02  0.36385809800E+02  0.55741493316E+03  0.55890497617E+03  0.00000000000E+00 0.  1.
</event>
<event>
 4    1  0.6718357E+001  0.2320476E+02  0.7546771E-02  0.1489943E+00
          2   -1    0    0  502    0  0.00000000000E+00  0.00000000000E+00  0.11910935590E+01  0.11910935590E+01  0.00000000000E+00 0.  1.
         -2   -1    0    0    0  501 -0.00000000000E+00 -0.00000000000E+00 -0.57311726271E+03  0.57311726271E+03  0.00000000000E+00 0. -1.
          1    1    1    2  502    0 -0.11403854255E+02  0.20209233951E+02 -0.15399594134E+03  0.15573442451E+03  0.00000000000E+00 0.  1.
         -1    1    1    2    0  501  0.11403854255E+02 -0.20209233951E+02 -0.41793022781E+03  0.41857393176E+03  0.00000000000E+00 0. -1.
</event>
<event>
 4    1  0.6718357E+001  0.2019632E+02  0.7546771E-02  0.1531056E+00
          2   -1    0    0  502    0  0.00000000000E+00  0.00000000000E+00  0.79699770304E+01  0.79699770304E+01  0.00000000000E+00 0. -1.
         -2   -1    0    0    0  501 -0.00000000000E+00 -0.00000000000E+00 -0.98282649286E+02  0.98282649286E+02  0.00000000000E+00 0.  1.
          1    1    1    2  502    0 -0.12316625548E+02 -0.16005999912E+02 -0.81935422105E+02  0.84387823135E+02  0.00000000000E+00 0.  1.
         -1    1    1    2    0  501  0.12316625548E+02  0.16005999912E+02 -0.83772501514E+01  0.21864803181E+02  0.00000000000E+00 0. -1.
</event>
<event>
 4    1  0.6718357E+001  0.2216153E+02  0.7546771E-02  0.1503304E+00
          2   -1    0    0  502    0  0.00000000000E+00  0.00000000000E+00  0.35110272276E+03  0.35110272276E+03  0.00000000000E+00 0.  1.
         -2   -1    0    0    0  501 -0.00000000000E+00 -0.00000000000E+00 -0.15742031532E+01  0.15742031532E+01  0.00000000000E+00 0. -1.
          1    1    1    2  502    0 -0.74845687802E+01 -0.20859401123E+02  0.11590742052E+03  0.11800704859E+03  0.00000000000E+00 0.  1.
         -1    1    1    2    0  501  0.74845687802E+01  0.20859401123E+02  0.23362109909E+03  0.23466987732E+03  0.00000000000E+00 0. -1.
</event>
<event>
 4    1  0.6718357E+001  0.2950511E+02  0.7546771E-02  0.1423946E+00
          2   -1    0    0  502    0  0.00000000000E+00  0.00000000000E+00  0.12696199374E+04  0.12696199374E+04  0.00000000000E+00 0.  1.
         -2   -1    0    0    0  501 -0.00000000000E+00 -0.00000000000E+00 -0.70929411934E+00  0.70929411934E+00  0.00000000000E+00 0. -1.
          1    1    1    2  502    0  0.94100886895E+00  0.29490101926E+02  0.51855915912E+03  0.51939787554E+03  0.00000000000E+00 0. -1.
         -1    1    1    2    0  501 -0.94100886895E+00 -0.29490101926E+02  0.75035148418E+03  0.75093135600E+03  0.00000000000E+00 0.  1.
</event>
<event>
 4    1  0.6718357E+001  0.4568958E+02  0.7546771E-02  0.1318027E+00
          2   -1    0    0  502    0  0.00000000000E+00  0.00000000000E+00  0.58111398327E+03  0.58111398327E+03  0.00000000000E+00 0.  1.
         -2   -1    0    0    0  501 -0.00000000000E+00 -0.00000000000E+00 -0.51172268343E+01  0.51172268343E+01  0.00000000000E+00 0. -1.
          1    1    1    2  502    0 -0.78796615377E+01  0.45004988253E+02  0.44800779887E+03  0.45033157327E+03  0.00000000000E+00 0.  1.
         -1    1    1    2    0  501  0.78796615377E+01 -0.45004988253E+02  0.12798895757E+03  0.13589963684E+03  0.00000000000E+00 0. -1.
</event>
<event>
 4    1  0.6718357E+001  0.2384263E+02  0.7546771E-02  0.1482180E+00
          2   -1    0    0  502    0  0.00000000000E+00  0.00000000000E+00  0.19547441988E+04  0.19547441988E+04  0.00000000000E+00 0.  1.
         -2   -1    0    0    0  501 -0.00000000000E+00 -0.00000000000E+00 -0.31369592529E+00  0.31369592529E+00  0.00000000000E+00 0. -1.
          1    1    1    2  502    0 -0.14699358632E+02 -0.18772318151E+02  0.71321666853E+03  0.71361508346E+03  0.00000000000E+00 0. -1.
         -1    1    1    2    0  501  0.14699358632E+02  0.18772318151E+02  0.12412138343E+04  0.12414428113E+04  0.00000000000E+00 0.  1.
</event>
<event>
 4    1  0.6718357E+001  0.2450702E+02  0.7546771E-02  0.1474394E+00
          2   -1    0    0  502    0  0.00000000000E+00  0.00000000000E+00  0.10120950339E+04  0.10120950339E+04  0.00000000000E+00 0. -1.
         -2   -1    0    0    0  501 -0.00000000000E+00 -0.00000000000E+00 -0.75744952933E+00  0.75744952933E+00  0.00000000000E+00 0.  1.
          1    1    1    2  502    0  0.17534343456E+02  0.17121360594E+02  0.74133896312E+03  0.74174392645E+03  0.00000000000E+00 0. -1.
         -1    1    1    2    0  501 -0.17534343456E+02 -0.17121360594E+02  0.26999862129E+03  0.27110855702E+03  0.00000000000E+00 0.  1.
</event>
<event>
 4    1  0.6718357E+001  0.2622318E+02  0.7546771E-02  0.1455571E+00
          2   -1    0    0  502    0  0.00000000000E+00  0.00000000000E+00  0.12264405888E+04  0.12264405888E+04  0.00000000000E+00 0.  1.
         -2   -1    0    0    0  501 -0.00000000000E+00 -0.00000000000E+00 -0.80940376229E+00  0.80940376229E+00  0.00000000000E+00 0. -1.
          1    1    1    2  502    0  0.19266285888E+02  0.17789470616E+02  0.95296433764E+03  0.95332506725E+03  0.00000000000E+00 0.  1.
         -1    1    1    2    0  501 -0.19266285888E+02 -0.17789470616E+02  0.27266684742E+03  0.27392492533E+03  0.00000000000E+00 0. -1.
</event>
<event>
 4    1  0.6718357E+001  0.2020098E+02  0.7546771E-02  0.1530985E+00
          2   -1    0    0  502    0  0.00000000000E+00  0.00000000000E+00  0.51771286997E+02  0.51771286997E+02  0.00000000000E+00 0.  1.
         -2   -1    0    0    0  501 -0.00000000000E+00 -0.00000000000E+00 -0.96050713258E+01  0.96050713258E+01  0.00000000000E+00 0. -1.
          1    1    1    2  502    0 -0.17168351977E+02  0.10645536994E+02  0.80865766284E+01  0.21759422995E+02  0.00000000000E+00 0. -1.
         -1    1    1    2    0  501  0.17168351977E+02 -0.10645536994E+02  0.34079639043E+02  0.39616935328E+02  0.00000000000E+00 0.  1.
</event>
<event>
 4    1  0.6718357E+001  0.2198348E+02  0.7546771E-02  0.1505673E+00
          2   -1    0    0  502    0  0.00000000000E+00  0.00000000000E+00  0.17465411628E+02  0.17465411628E+02  0.00000000000E+00 0. -1.
         -2   -1    0    0    0  501 -0.00000000000E+00 -0.00000000000E+00 -0.41292102467E+02  0.41292102467E+02  0.00000000000E+00 0.  1.
          1    1    1    2  502    0 -0.17949827654E+02 -0.12691609231E+02  0.49606193178E+01  0.22536215337E+02  0.00000000000E+00 0. -1.
         -1    1    1    2    0  501  0.17949827654E+02  0.12691609231E+02 -0.28787310156E+02  0.36221298758E+02  0.00000000000E+00 0.  1.
</event>
<event>
 4    1  0.6718357E+001  0.2306201E+02  0.7546771E-02  0.1491721E+00
          2   -1    0    0  502    0  0.00000000000E+00  0.00000000000E+00  0.24258887693E+02  0.24258887693E+02  0.00000000000E+00 0. -1.
         -2   -1    0    0    0  501 -0.00000000000E+00 -0.00000000000E+00 -0.59882722278E+02  0.59882722278E+02  0.00000000000E+00 0.  1.
          1    1    1    2  502    0  0.12963111824E+01  0.23025549547E+02 -0.51307287761E+02  0.56252058914E+02  0.00000000000E+00 0.  1.
         -1    1    1    2    0  501 -0.12963111824E+01 -0.23025549547E+02  0.15683453176E+02  0.27889551057E+02  0.00000000000E+00 0. -1.
</event>
<event>
 4    1  0.6718357E+001  0.5015674E+02  0.7546771E-02  0.1297494E+00
          2   -1    0    0  502    0  0.00000000000E+00  0.00000000000E+00  0.13058673145E+03  0.13058673145E+03  0.00000000000E+00 0.  1.
         -2   -1    0    0    0  501 -0.00000000000E+00 -0.00000000000E+00 -0.23730333225E+02  0.23730333225E+02  0.00000000000E+00 0. -1.
          1    1    1    2  502    0  0.12369148668E+02 -0.48607639234E+02  0.19956370514E+02  0.53981062927E+02  0.00000000000E+00 0. -1.
         -1    1    1    2    0  501 -0.12369148668E+02  0.48607639234E+02  0.86900027713E+02  0.10033600175E+03  0.00000000000E+00 0.  1.
</event>
<event>
 4    1  0.6718357E+001  0.3125529E+02  0.7546771E-02  0.1408993E+00
          2   -1    0    0  502    0  0.00000000000E+00  0.00000000000E+00  0.34729061176E+03  0.34729061176E+03  0.00000000000E+00 0. -1.
         -2   -1    0    0    0  501 -0.00000000000E+00 -0.00000000000E+00 -0.86884629866E+01  0.86884629866E+01  0.00000000000E+00 0.  1.
          1    1    1    2  502    0 -0.19880098006E+02  0.24117937417E+02  0.22932514682E+02  0.38765879735E+02  0.00000000000E+00 0.  1.
         -1    1    1    2    0  501  0.19880098006E+02 -0.24117937417E+02  0.31566963409E+03  0.31721319501E+03  0.00000000000E+00 0. -1.
</event>
<event>
 4    1  0.6718357E+001  0.2869596E+02  0.7546771E-02  0.1431277E+00
          2   -1    0    0  502    0  0.00000000000E+00  0.00000000000E+00  0.84592955604E+03  0.84592955604E+03  0.00000000000E+00 0. -1.
         -2   -1    0    0    0  501 -0.00000000000E+00 -0.00000000000E+00 -0.99509928149E+00  0.99509928149E+00  0.00000000000E+00 0.  1.
          1    1    1    2  502    0  0.19234437326E+02 -0.21295412308E+02  0.35998664124E+03  0.36112856442E+03  0.00000000000E+00 0.  1.
         -1    1    1    2    0  501 -0.19234437326E+02  0.21295412308E+02  0.48494781551E+03  0.48579609090E+03  0.00000000000E+00 0. -1.
</event>
<event>
 4    1  0.6718357E+001  0.2805662E+02  0.7546771E-02  0.1437273E+00
          2   -1    0    0  502    0  0.00000000000E+00  0.00000000000E+00  0.11798229772E+04  0.11798229772E+04  0.00000000000E+00 0.  1.
         -2   -1    0    0    0  501 -0.00000000000E+00 -0.00000000000E+00 -0.66719786781E+00  0.66719786781E+00  0.00000000000E+00 0. -1.
          1    1    1    2  502    0 -0.79964827930E+01  0.26892939854E+02  0.58878408625E+03  0.58945218142E+03  0.00000000000E+00 0. -1.
         -1    1    1    2    0  501  0.79964827930E+01 -0.26892939854E+02  0.59037169307E+03  0.59103799364E+03  0.00000000000E+00 0.  1.
</event>
<event>
 4    1  0.6718357E+001  0.2359511E+02  0.7546771E-02  0.1485158E+00
          2   -1    0    0  502    0  0.00000000000E+00  0.00000000000E+00  0.22406543953E+04  0.22406543953E+04  0.00000000000E+00 0.  1.
         -2   -1    0    0    0  501 -0.00000000000E+00 -0.00000000000E+00 -0.26135757483E+00  0.26135757483E+00  0.00000000000E+00 0. -1.
          1    1    1    2  502    0  0.12740615009E+02 -0.19859652643E+02  0.87136170799E+03  0.87168110868E+03  0.00000000000E+00 0. -1.
         -1    1    1    2    0  501 -0.12740615009E+02  0.19859652643E+02  0.13690313297E+04  0.13692346442E+04  0.00000000000E+00 0.  1.
</event>
<event>
 4    1  0.6718357E+001  0.3343410E+02  0.7546771E-02  0.1391919E+00
          2   -1    0    0  502    0  0.00000000000E+00  0.00000000000E+00  0.58901626986E+03  0.58901626986E+03  0.00000000000E+00 0.  1.
         -2   -1    0    0    0  501 -0.00000000000E+00 -0.00000000000E+00 -0.19344895909E+01  0.19344895909E+01  0.00000000000E+00 0. -1.
          1    1    1    2  502    0  0.20780591619E+02  0.26191718531E+02  0.25285263829E+03  0.25505351556E+03  0.00000000000E+00 0. -1.
         -1    1    1    2    0  501 -0.20780591619E+02 -0.26191718531E+02  0.33422914198E+03  0.33589724390E+03  0.00000000000E+00 0.  1.
</event>
<event>
 4    1  0.6718357E+001  0.2163476E+02  0.7546771E-02  0.1510392E+00
          2   -1    0    0  502    0  0.00000000000E+00  0.00000000000E+00  0.16242278310E+03  0.16242278310E+03  0.00000000000E+00 0. -1.
         -2   -1    0    0    0  501 -0.00000000000E+00 -0.00000000000E+00 -0.29409019986E+01  0.29409019986E+01  0.00000000000E+00 0.  1.
          1    1    1    2  502    0  0.12880675387E+02 -0.17382488867E+02  0.91466540907E+02  0.93990376227E+02  0.00000000000E+00 0. -1.
         -1    1    1    2    0  501 -0.12880675387E+02  0.17382488867E+02  0.68015340194E+02  0.71373308872E+02  0.00000000000E+00 0.  1.
</event>
<event>
 4    1  0.6718357E+001  0.3351377E+02  0.7546771E-02  0.1391324E+00
          2   -1    0    0  502    0  0.00000000000E+00  0.00000000000E+00  0.14266336001E+03  0.14266336001E+03  0.00000000000E+00 0. -1.
         -2   -1    0    0    0  501 -0.00000000000E+00 -0.00000000000E+00 -0.78745195866E+01  0.78745195866E+01  0.00000000000E+00 0.  1.
          1    1    1    2  502    0  0.31987409846E+00  0.33512242672E+02  0.66311140840E+02  0.74298991432E+02  0.00000000000E+00 0.  1.
         -1    1    1    2    0  501 -0.31987409846E+00 -0.33512242672E+02  0.68477699588E+02  0.76238888169E+02  0.00000000000E+00 0. -1.
</event>
<event>
 4    1  0.6718357E+001  0.2237060E+02  0.7546771E-02  0.1500556E+00
          2   -1    0    0  502    0  0.00000000000E+00  0.00000000000E+00  0.25200965315E+03  0.25200965315E+03  0.00000000000E+00 0.  1.
         -2   -1    0    0    0  501 -0.00000000000E+00 -0.00000000000E+00 -0.21667884670E+01  0.21667884670E+01  0.00000000000E+00 0. -1.
          1    1    1    2  502    0  0.20731346705E+01 -0.22274334673E+02  0.16165031512E+03  0.16319089512E+03  0.00000000000E+00 0. -1.
         -1    1    1    2    0  501 -0.20731346705E+01  0.22274334673E+02  0.88192549566E+02  0.90985546498E+02  0.00000000000E+00 0.  1.
</event>
<event>
 4    1  0.6718357E+001  0.2292664E+02  0.7546771E-02  0.1493421E+00
          2   -1    0    0  502    0  0.00000000000E+00  0.00000000000E+00  0.10918104955E+04  0.10918104955E+04  0.00000000000E+00 0.  1.
         -2   -1    0    0    0  501 -0.00000000000E+00 -0.00000000000E+00 -0.49515700666E+00  0.49515700666E+00  0.00000000000E+00 0. -1.
          1    1    1    2  502    0  0.69157825603E+01  0.21858696003E+02  0.45472370706E+03  0.45530130727E+03  0.00000000000E+00 0.  1.
         -1    1    1    2    0  501 -0.69157825603E+01 -0.21858696003E+02  0.63659163142E+03  0.63700434522E+03  0.00000000000E+00 0. -1.
</event>
<event>
 4    1  0.6718357E+001  0.2978575E+02  0.7546771E-02  0.1421468E+00
          2   -1    0    0  502    0  0.00000000000E+00  0.00000000000E+00  0.26827345333E+02  0.26827345333E+02  0.00000000000E+00 0.  1.
         -2   -1    0    0    0  501 -0.00000000000E+00 -0.00000000000E+00 -0.37451076269E+02  0.37451076269E+02  0.00000000000E+00 0. -1.
          1    1    1    2  502    0  0.35444887565E+01  0.29574098066E+02  0.56800735328E+01  0.30322498451E+02  0.00000000000E+00 0.  1.
         -1    1    1    2    0  501 -0.35444887565E+01 -0.29574098066E+02 -0.16303804469E+02  0.33955923152E+02  0.00000000000E+00 0. -1.
</event>
<event>
 4    1  0.6718357E+001  0.6442716E+02  0.7546771E-02  0.1245490E+00
          2   -1    0    0  502    0  0.00000000000E+00  0.00000000000E+00  0.68829079838E+03  0.68829079838E+03  0.00000000000E+00 0. -1.
         -2   -1    0    0    0  501 -0.00000000000E+00 -0.00000000000E+00 -0.71861667435E+01  0.71861667435E+01  0.00000000000E+00 0.  1.
          1    1    1    2  502    0 -0.41094720153E+02  0.49619382981E+02  0.20111235963E+03  0.21118011362E+03  0.00000000000E+00 0. -1.
         -1    1    1    2    0  501  0.41094720153E+02 -0.49619382981E+02  0.47999227201E+03  0.48429685150E+03  0.00000000000E+00 0.  1.
</event>
<event>
 4    1  0.6718357E+001  0.2676427E+02  0.7546771E-02  0.1449991E+00
          2   -1    0    0  502    0  0.00000000000E+00  0.00000000000E+00  0.14487776729E+04  0.14487776729E+04  0.00000000000E+00 0. -1.
         -2   -1    0    0    0  501 -0.00000000000E+00 -0.00000000000E+00 -0.49475095134E+00  0.49475095134E+00  0.00000000000E+00 0.  1.
          1    1    1    2  502    0  0.26596134013E+02 -0.29953266138E+01  0.70582816197E+03  0.70633541647E+03  0.00000000000E+00 0.  1.
         -1    1    1    2    0  501 -0.26596134013E+02  0.29953266138E+01  0.74245476001E+03  0.74293700742E+03  0.00000000000E+00 0. -1.
</event>
<event>
 4    1  0.6718357E+001  0.2003736E+02  0.7546771E-02  0.1533465E+00
          2   -1    0    0  502    0  0.00000000000E+00  0.00000000000E+00  0.61019258036E+02  0.61019258036E+02  0.00000000000E+00 0. -1.
         -2   -1    0    0    0  501 -0.00000000000E+00 -0.00000000000E+00 -0.68689867560E+01  0.68689867560E+01  0.00000000000E+00 0.  1.
          1    1    1    2  502    0 -0.19829909101E+02 -0.28758666064E+01  0.20110629212E+02  0.28388964599E+02  0.00000000000E+00 0.  1.
         -1    1    1    2    0  501  0.19829909101E+02  0.28758666064E+01  0.34039642068E+02  0.39499280193E+02  0.00000000000E+00 0. -1.
</event>
<event>
 4    1  0.6718357E+001  0.4291446E+02  0.7546771E-02  0.1332204E+00
          2   -1    0    0  502    0  0.00000000000E+00  0.00000000000E+00  0.90381632386E+03  0.90381632386E+03  0.00000000000E+00 0.  1.
         -2   -1    0    0    0  501 -0.00000000000E+00 -0.00000000000E+00 -0.26238549874E+01  0.26238549874E+01  0.00000000000E+00 0. -1.
          1    1    1    2  502    0 -0.35560765115E+02 -0.24022542149E+02  0.23637209226E+03  0.24023616827E+03  0.00000000000E+00 0. -1.
         -1    1    1    2    0  501  0.35560765115E+02  0.24022542149E+02  0.66482037661E+03  0.66620401057E+03  0.00000000000E+00 0.  1.
</event>
<event>
 4    1  0.6718357E+001  0.2803023E+02  0.7546771E-02  0.1437525E+00
          2   -1    0    0  502    0  0.00000000000E+00  0.00000000000E+00  0.92908862573E+02  0.92908862573E+02  0.00000000000E+00 0.  1.
         -2   -1    0    0    0  501 -0.00000000000E+00 -0.00000000000E+00 -0.85239595798E+01  0.85239595798E+01  0.00000000000E+00 0. -1.
          1    1    1    2  502    0 -0.38770973112E+01 -0.27760799851E+02  0.37684288764E+02  0.46965939909E+02  0.00000000000E+00 0. -1.
         -1    1    1    2    0  501  0.38770973112E+01  0.27760799851E+02  0.46700614230E+02  0.54466882244E+02  0.00000000000E+00 0.  1.
</event>
<event>
 4    1  0.6718357E+001  0.3132647E+02  0.7546771E-02  0.1408409E+00
          2   -1    0    0  502    0  0.00000000000E+00  0.00000000000E+00  0.14732937988E+02  0.14732937988E+02  0.00000000000E+00 0. -1.
         -2   -1    0    0    0  501 -0.00000000000E+00 -0.00000000000E+00 -0.66267520730E+03  0.66267520730E+03  0.00000000000E+00 0.  1.
          1    1    1    2  502    0 -0.13240961964E+02 -0.28390569468E+02 -0.64520200712E+03  0.64596205578E+03  0.00000000000E+00 0.  1.
         -1    1    1    2    0  501  0.13240961964E+02  0.28390569468E+02 -0.27402621851E+01  0.31446089507E+02  0.00000000000E+00 0. -1.
</event>
<event>
 4    1  0.6718357E+001  0.2187593E+02  0.7546771E-02  0.1507117E+00
          2   -1    0    0  502    0  0.00000000000E+00  0.00000000000E+00  0.22975363943E+02  0.22975363943E+02  0.00000000000E+00 0.  1.
         -2   -1    0    0    0  501 -0.00000000000E+00 -0.00000000000E+00 -0.25286803175E+02  0.25286803175E+02  0.00000000000E+00 0. -1.
          1    1    1    2  502    0 -0.32179476169E+01 -0.21637959325E+02 -0.11287476489E+02  0.24616327835E+02  0.00000000000E+00 0. -1.
         -1    1    1    2    0  501  0.32179476169E+01  0.21637959325E+02  0.89760372570E+01  0.23645839284E+02  0.00000000000E+00 0.  1.
</event>
<event>
 4    1  0.6718357E+001  0.2390854E+02  0.7546771E-02  0.1481394E+00
          2   -1    0    0  502    0  0.00000000000E+00  0.00000000000E+00  0.17346855344E+04  0.17346855344E+04  0.00000000000E+00 0. -1.
         -2   -1    0    0    0  501 -0.00000000000E+00 -0.00000000000E+00 -0.72039863256E+00  0.72039863256E+00  0.00000000000E+00 0.  1.
          1    1    1    2  502    0  0.12470094034E+02 -0.20398895728E+02  0.22783060124E+03  0.22908164713E+03  0.00000000000E+00 0.  1.
         -1    1    1    2    0  501 -0.12470094034E+02  0.20398895728E+02  0.15061345346E+04  0.15063242859E+04  0.00000000000E+00 0. -1.
</event>
<event>
 4    1  0.6718357E+001  0.2147452E+02  0.7546771E-02  0.1512597E+00
          2   -1    0    0  502    0  0.00000000000E+00  0.00000000000E+00  0.28489307303E+02  0.28489307303E+02  0.00000000000E+00 0. -1.
         -2   -1    0    0    0  501 -0.00000000000E+00 -0.00000000000E+00 -0.38461019800E+02  0.38461019800E+02  0.00000000000E+00 0.  1.
          1    1    1    2  502    0 -0.11875563428E+02  0.17892068652E+02  0.20489018179E+02  0.29680885993E+02  0.00000000000E+00 0. -1.
         -1    1    1    2    0  501  0.11875563428E+02 -0.17892068652E+02 -0.30460730675E+02  0.37269441110E+02  0.00000000000E+00 0.  1.
</event>
<event>
 4    1  0.6718357E+001  0.2176188E+02  0.7546771E-02  0.1508659E+00
          2   -1    0    0  502    0  0.00000000000E+00  0.00000000000E+00  0.39595625355E+03  0.39595625355E+03  0.00000000000E+00 0.  1.
         -2   -1    0    0    0  501 -0.00000000000E+00 -0.00000000000E+00 -0.77138372347E+01  0.77138372347E+01  0.00000000000E+00 0. -1.
          1    1    1    2  502    0  0.19108166457E+02 -0.10414286784E+02  0.85922206798E+01  0.23396701707E+02  0.00000000000E+00 0. -1.
         -1    1    1    2    0  501 -0.19108166457E+02  0.10414286784E+02  0.37965019564E+03  0.38027338908E+03  0.00000000000E+00 0.  1.
</event>
<event>
 4    1  0.6718357E+001  0.2149290E+02  0.7546771E-02  0.1512343E+00
          2   -1    0    0  502    0  0.00000000000E+00  0.00000000000E+00  0.82680062643E+03  0.82680062643E+03  0.00000000000E+00 0.  1.
         -2   -1    0    0    0  501 -0.00000000000E+00 -0.00000000000E+00 -0.56726054777E+00  0.56726054777E+00  0.00000000000E+00 0. -1.
          1    1    1    2  502    0  0.20434053819E+02  0.66628974466E+01  0.46389552534E+03  0.46439315584E+03  0.00000000000E+00 0.  1.
         -1    1    1    2    0  501 -0.20434053819E+02 -0.66628974466E+01  0.36233784054E+03  0.36297473114E+03  0.00000000000E+00 0. -1.
</event>
<event>
 4    1  0.6718357E+001  0.2575005E+02  0.7546771E-02  0.1460585E+00
          2   -1    0    0  502    0  0.00000000000E+00  0.00000000000E+00  0.47161217688E+03  0.47161217688E+03  0.00000000000E+00 0.  1.
         -2   -1    0    0    0  501 -0.00000000000E+00 -0.00000000000E+00 -0.14819892757E+01  0.14819892757E+01  0.00000000000E+00 0. -1.
          1    1    1    2  502    0  0.11512416945E+02  0.23033220957E+02  0.18148509254E+03  0.18330276546E+03  0.00000000000E+00 0.  1.
         -1    1    1    2    0  501 -0.11512416945E+02 -0.23033220957E+02  0.28864509506E+03  0.28979140069E+03  0.00000000000E+00 0. -1.
</event>
<event>
 4    1  0.6718357E+001  0.4059237E+02  0.7546771E-02  0.1345049E+00
          2   -1    0    0  502    0  0.00000000000E+00  0.00000000000E+00  0.71600050385E+03  0.71600050385E+03  0.00000000000E+00 0.  1.
         -2   -1    0    0    0  501 -0.00000000000E+00 -0.00000000000E+00 -0.25569784848E+01  0.25569784848E+01  0.00000000000E+00 0. -1.
          1    1    1    2  502    0  0.23232084686E+02  0.33286792455E+02  0.24311474240E+03  0.24648025942E+03  0.00000000000E+00 0.  1.
         -1    1    1    2    0  501 -0.23232084686E+02 -0.33286792455E+02  0.47032878296E+03  0.47207722291E+03  0.00000000000E+00 0. -1.
</event>
<event>
 4    1  0.6718357E+001  0.2156515E+02  0.7546771E-02  0.1511347E+00
          2   -1    0    0  502    0  0.00000000000E+00  0.00000000000E+00  0.25355083646E+01  0.25355083646E+01  0.00000000000E+00 0.  1.
         -2   -1    0    0    0  501 -0.00000000000E+00 -0.00000000000E+00 -0.18407190681E+03  0.18407190681E+03  0.00000000000E+00 0. -1.
          1    1    1    2  502    0  0.13945323853E+02 -0.16449431711E+02 -0.96332703266E+02  0.98716997419E+02  0.00000000000E+00 0. -1.
         -1    1    1    2    0  501 -0.13945323853E+02  0.16449431711E+02 -0.85203695182E+02  0.87890417758E+02  0.00000000000E+00 0.  1.
</event>
<event>
 4    1  0.6718357E+001  0.3076655E+02  0.7546771E-02  0.1413050E+00
          2   -1    0    0  502    0  0.00000000000E+00  0.00000000000E+00  0.25951483578E+04  0.25951483578E+04  0.00000000000E+00 0.  1.
         -2   -1    0    0    0  501 -0.00000000000E+00 -0.00000000000E+00 -0.38805978807E+00  0.38805978807E+00  0.00000000000E+00 0. -1.
          1    1    1    2  502    0 -0.67692238544E+01 -0.30012638345E+02  0.16154446635E+04  0.16157376153E+04  0.00000000000E+00 0. -1.
         -1    1    1    2    0  501  0.67692238544E+01  0.30012638345E+02  0.97931563448E+03  0.97979880220E+03  0.00000000000E+00 0.  1.
</event>
<event>
 4    1  0.6718357E+001  0.2808411E+02  0.7546771E-02  0.1437012E+00
          2   -1    0    0  502    0  0.00000000000E+00  0.00000000000E+00  0.12609171326E+03  0.12609171326E+03  0.00000000000E+00 0.  1.
         -2   -1    0    0    0  501 -0.00000000000E+00 -0.00000000000E+00 -0.83040206868E+01  0.83040206868E+01  0.00000000000E+00 0. -1.
          1    1    1    2  502    0  0.19519694181E+02  0.20191548719E+02  0.92272833621E+02  0.96452023955E+02  0.00000000000E+00 0.  1.
         -1    1    1    2    0  501 -0.19519694181E+02 -0.20191548719E+02  0.25514858953E+02  0.37943709992E+02  0.00000000000E+00 0. -1.
</event>
<event>
 4    1  0.6718357E+001  0.2643833E+02  0.7546771E-02  0.1453333E+00
          2   -1    0    0  502    0  0.00000000000E+00  0.00000000000E+00  0.23393190507E+03  0.23393190507E+03  0.00000000000E+00 0. -1.
         -2   -1    0    0    0  501 -0.00000000000E+00 -0.00000000000E+00 -0.29921232790E+01  0.29921232790E+01  0.00000000000E+00 0.  1.
          1    1    1    2  502    0 -0.14317539352E+02  0.22225955813E+02  0.11106439880E+03  0.11416779636E+03  0.00000000000E+00 0.  1.
         -1    1    1    2    0  501  0.14317539352E+02 -0.22225955813E+02  0.11987538299E+03  0.12275623199E+03  0.00000000000E+00 0. -1.
</event>
<event>
 4    1  0.6718357E+001  0.2272740E+02  0.7546771E-02  0.1495950E+00
          2   -1    0    0  502    0  0.00000000000E+00  0.00000000000E+00  0.13675300517E+03  0.13675300517E+03  0.00000000000E+00 0.  1.
         -2   -1    0    0    0  501 -0.00000000000E+00 -0.00000000000E+00 -0.41888417796E+01  0.41888417796E+01  0.00000000000E+00 0. -1.
          1    1    1    2  502    0  0.21299337527E+02 -0.79292496971E+01  0.88375156057E+02  0.91250769793E+02  0.00000000000E+00 0.  1.
         -1    1    1    2    0  501 -0.21299337527E+02  0.79292496971E+01  0.44189007336E+02  0.49691077159E+02  0.00000000000E+00 0. -1.
</event>
<event>
 4    1  0.6718357E+001  0.2184943E+02  0.7546771E-02  0.1507474E+00
          2   -1    0    0  502    0  0.00000000000E+00  0.00000000000E+00  0.32934044013E+03  0.32934044013E+03  0.00000000000E+00 0. -1.
         -2   -1    0    0    0  501 -0.00000000000E+00 -0.00000000000E+00 -0.16126938008E+01  0.16126938008E+01  0.00000000000E+00 0.  1.
          1    1    1    2  502    0 -0.11857000000E+02 -0.18352358468E+02  0.11123337943E+03  0.11335899703E+03  0.00000000000E+00 0.  1.
         -1    1    1    2    0  501  0.11857000000E+02  0.18352358468E+02  0.21649436690E+03  0.21759413689E+03  0.00000000000E+00 0. -1.
</event>
<event>
 4    1  0.6718357E+001  0.2760906E+02  0.7546771E-02  0.1441584E+00
          2   -1    0    0  502    0  0.00000000000E+00  0.00000000000E+00  0.21186519450E+04  0.21186519450E+04  0.00000000000E+00 0.  1.
         -2   -1    0    0    0  501 -0.00000000000E+00 -0.00000000000E+00 -0.41518673884E+00  0.41518673884E+00  0.00000000000E+00 0. -1.
          1    1    1    2  502    0  0.23756274222E+02  0.14067680259E+02  0.14461556828E+04  0.14464192059E+04  0.00000000000E+00 0.  1.
         -1    1    1    2    0  501 -0.23756274222E+02 -0.14067680259E+02  0.67208107538E+03  0.67264792579E+03  0.00000000000E+00 0. -1.
</event>
<event>
 4    1  0.6718357E+001  0.2567682E+02  0.7546771E-02  0.1461372E+00
          2   -1    0    0  502    0  0.00000000000E+00  0.00000000000E+00  0.54268006657E+01  0.54268006657E+01  0.00000000000E+00 0.  1.
         -2   -1    0    0    0  501 -0.00000000000E+00 -0.00000000000E+00 -0.28504512666E+03  0.28504512666E+03  0.00000000000E+00 0. -1.
          1    1    1    2  502    0  0.25644012705E+02 -0.12974751737E+01 -0.29794589316E+02  0.39332129130E+02  0.00000000000E+00 0.  1.
         -1    1    1    2    0  501 -0.25644012705E+02  0.12974751737E+01 -0.24982373668E+03  0.25113979820E+03  0.00000000000E+00 0. -1.
</event>
<event>
 4    1  0.6718357E+001  0.2514135E+02  0.7546771E-02  0.1467228E+00
          2   -1    0    0  502    0  0.00000000000E+00  0.00000000000E+00  0.60204664137E+02  0.60204664137E+02  0.00000000000E+00 0.  1.
         -2   -1    0    0    0  501 -0.00000000000E+00 -0.00000000000E+00 -0.10639955471E+02  0.10639955471E+02  0.00000000000E+00 0. -1.
          1    1    1    2  502    0 -0.25101727898E+02 -0.14109945081E+01  0.28859691190E+02  0.38274919001E+02  0.00000000000E+00 0.  1.
         -1    1    1    2    0  501  0.25101727898E+02  0.14109945081E+01  0.20705017476E+02  0.32569700607E+02  0.00000000000E+00 0. -1.
</event>
<event>
 4    1  0.6718357E+001  0.2145813E+02  0.7546771E-02  0.1512823E+00
          2   -1    0    0  502    0  0.00000000000E+00  0.00000000000E+00  0.73606579413E+01  0.73606579413E+01  0.00000000000E+00 0.  1.
         -2   -1    0    0    0  501 -0.00000000000E+00 -0.00000000000E+00 -0.74749799740E+02  0.74749799740E+02  0.00000000000E+00 0. -1.
          1    1    1    2  502    0 -0.16065148464E+02  0.14225407801E+02 -0.17112527011E+02  0.27446125464E+02  0.00000000000E+00 0.  1.
         -1    1    1    2    0  501  0.16065148464E+02 -0.14225407801E+02 -0.50276614787E+02  0.54664332217E+02  0.00000000000E+00 0. -1.
</event>
<event>
 4    1  0.6718357E+001  0.6903282E+02  0.7546771E-02  0.1231889E+00
          2   -1    0    0  502    0  0.00000000000E+00  0.00000000000E+00  0.20345493823E+04  0.20345493823E+04  0.00000000000E+00 0. -1.
         -2   -1    0    0    0  501 -0.00000000000E+00 -0.00000000000E+00 -0.25537106296E+01  0.25537106296E+01  0.00000000000E+00 0.  1.
          1    1    1    2  502    0 -0.61343015680E+02  0.31663312157E+02  0.13090585516E+04  0.13108775009E+04  0.00000000000E+00 0. -1.
         -1    1    1    2    0  501  0.61343015680E+02 -0.31663312157E+02  0.72293712011E+03  0.72622559205E+03  0.00000000000E+00 0.  1.
</event>
<event>
 4    1  0.6718357E+001  0.2218303E+02  0.7546771E-02  0.1503020E+00
          2   -1    0    0  502    0  0.00000000000E+00  0.00000000000E+00  0.32595599465E+03  0.32595599465E+03  0.00000000000E+00 0. -1.
         -2   -1    0    0    0  501 -0.00000000000E+00 -0.00000000000E+00 -0.17929424879E+01  0.17929424879E+01  0.00000000000E+00 0.  1.
          1    1    1    2  502    0  0.21993659865E+02 -0.28923585455E+01  0.96944432987E+02  0.99450037201E+02  0.00000000000E+00 0.  1.
         -1    1    1    2    0  501 -0.21993659865E+02  0.28923585455E+01  0.22721861917E+03  0.22829889993E+03  0.00000000000E+00 0. -1.
</event>
<event>
 4    1  0.6718357E+001  0.2390058E+02  0.7546771E-02  0.1481489E+00
          2   -1    0    0  502    0  0.00000000000E+00  0.00000000000E+00  0.10212607614E+01  0.10212607614E+01  0.00000000000E+00 0.  1.
         -2   -1    0    0    0  501 -0.00000000000E+00 -0.00000000000E+00 -0.63502149685E+03  0.63502149685E+03  0.00000000000E+00 0. -1.
          1    1    1    2  502    0 -0.17850897935E+02 -0.15892867682E+02 -0.20721571456E+03  0.20858952553E+03  0.00000000000E+00 0.  1.
         -1    1    1    2    0  501  0.17850897935E+02  0.15892867682E+02 -0.42678452153E+03  0.42745323209E+03  0.00000000000E+00 0. -1.
</event>
<event>
 4    1  0.6718357E+001  0.2263490E+02  0.7546771E-02  0.1497134E+00
          2   -1    0    0  502    0  0.00000000000E+00  0.00000000000E+00  0.32965028765E+03  0.32965028765E+03  0.00000000000E+00 0.  1.
         -2   -1    0    0    0  501 -0.00000000000E+00 -0.00000000000E+00 -0.17196856536E+01  0.17196856536E+01  0.00000000000E+00 0. -1.
          1    1    1    2  502    0 -0.15008082430E+02  0.16943909901E+02  0.21536423910E+03  0.21655044240E+03  0.00000000000E+00 0.  1.
         -1    1    1    2    0  501  0.15008082430E+02 -0.16943909901E+02  0.11256636290E+03  0.11481953090E+03  0.00000000000E+00 0. -1.
</event>
<event>
 4    1  0.6718357E+001  0.4041587E+02  0.7546771E-02  0.1346066E+00
          2   -1    0    0  502    0  0.00000000000E+00  0.00000000000E+00  0.12754871411E+02  0.12754871411E+02  0.00000000000E+00 0.  1.
         -2   -1    0    0    0  501 -0.00000000000E+00 -0.00000000000E+00 -0.15295481380E+03  0.15295481380E+03  0.00000000000E+00 0. -1.
          1    1    1    2  502    0  0.40189647120E+02 -0.42702583667E+01 -0.36676325043E+02  0.54576511989E+02  0.00000000000E+00 0. -1.
         -1    1    1    2    0  501 -0.40189647120E+02  0.42702583667E+01 -0.10352361734E+03  0.11113317322E+03  0.00000000000E+00 0.  1.
</event>
<event>
 4    1  0.6718357E+001  0.2539827E+02  0.7546771E-02  0.1464397E+00
          2   -1    0    0  502    0  0.00000000000E+00  0.00000000000E+00  0.13173770681E+04  0.13173770681E+04  0.00000000000E+00 0. -1.
         -2   -1    0    0    0  501 -0.00000000000E+00 -0.00000000000E+00 -0.55713330326E+00  0.55713330326E+00  0.00000000000E+00 0.  1.
          1    1    1    2  502    0 -0.13993175345E+02 -0.21195830316E+02  0.88772744328E+03  0.88809069680E+03  0.00000000000E+00 0. -1.
         -1    1    1    2    0  501  0.13993175345E+02  0.21195830316E+02  0.42909249152E+03  0.42984350462E+03  0.00000000000E+00 0.  1.
</event>
<event>
 4    1  0.6718357E+001  0.2004387E+02  0.7546771E-02  0.1533366E+00
          2   -1    0    0  502    0  0.00000000000E+00  0.00000000000E+00  0.74531207593E+02  0.74531207593E+02  0.00000000000E+00 0.  1.
         -2   -1    0    0    0  501 -0.00000000000E+00 -0.00000000000E+00 -0.66766129683E+01  0.66766129683E+01  0.00000000000E+00 0. -1.
          1    1    1    2  502    0  0.46928111140E+01  0.19486770923E+02  0.51748533621E+02  0.55494751546E+02  0.00000000000E+00 0.  1.
         -1    1    1    2    0  501 -0.46928111140E+01 -0.19486770923E+02  0.16106061004E+02  0.25713069016E+02  0.00000000000E+00 0. -1.
</event>
<event>
 4    1  0.6718357E+001  0.2022496E+02  0.7546771E-02  0.1530624E+00
          2   -1    0    0  502    0  0.00000000000E+00  0.00000000000E+00  0.10728484483E+03  0.10728484483E+03  0.00000000000E+00 0.  1.
         -2   -1    0    0    0  501 -0.00000000000E+00 -0.00000000000E+00 -0.13362201846E+02  0.13362201846E+02  0.00000000000E+00 0. -1.
          1    1    1    2  502    0  0.18418026263E+02 -0.83561491990E+01  0.97957448942E+02  0.10002355085E+03  0.00000000000E+00 0.  1.
         -1    1    1    2    0  501 -0.18418026263E+02  0.83561491990E+01 -0.40348059632E+01  0.20623495824E+02  0.00000000000E+00 0. -1.
</event>
<event>
 4    1  0.6718357E+001  0.2148977E+02  0.7546771E-02  0.1512386E+00
          2   -1    0    0  502    0  0.00000000000E+00  0.00000000000E+00  0.16697431253E+03  0.16697431253E+03  0.00000000000E+00 0. -1.
         -2   -1    0    0    0  501 -0.00000000000E+00 -0.00000000000E+00 -0.34745855477E+01  0.34745855477E+01  0.00000000000E+00 0.  1.
          1    1    1    2  502    0  0.17988509256E+02 -0.11756853727E+02  0.12024304844E+03  0.12214827372E+03  0.00000000000E+00 0. -1.
         -1    1    1    2    0  501 -0.17988509256E+02  0.11756853727E+02  0.43256678546E+02  0.48300624361E+02  0.00000000000E+00 0.  1.
</event>
<event>
 4    1  0.6718357E+001  0.3258607E+02  0.7546771E-02  0.1398377E+00
          2   -1    0    0  502    0  0.00000000000E+00  0.00000000000E+00  0.35731243854E+02  0.35731243854E+02  0.00000000000E+00 0. -1.
         -2   -1    0    0    0  501 -0.00000000000E+00 -0.00000000000E+00 -0.29760658385E+02  0.29760658385E+02  0.00000000000E+00 0.  1.
          1    1    1    2  502    0  0.32216593141E+02  0.48931446514E+01  0.42288588176E+01  0.32859321129E+02  0.00000000000E+00 0. -1.
         -1    1    1    2    0  501 -0.32216593141E+02 -0.48931446514E+01  0.17417266521E+01  0.32632581110E+02  0.00000000000E+00 0.  1.
</event>
<event>
 4    1  0.6718357E+001  0.2101628E+02  0.7546771E-02  0.1519032E+00
          2   -1    0    0  502    0  0.00000000000E+00  0.00000000000E+00  0.83383396434E+02  0.83383396434E+02  0.00000000000E+00 0.  1.
         -2   -1    0    0    0  501 -0.00000000000E+00 -0.00000000000E+00 -0.67697059712E+01  0.67697059712E+01  0.00000000000E+00 0. -1.
          1    1    1    2  502    0  0.87044624844E+01  0.19128939121E+02  0.59331072296E+02  0.62943308769E+02  0.00000000000E+00 0. -1.
         -1    1    1    2    0  501 -0.87044624844E+01 -0.19128939121E+02  0.17282618167E+02  0.27209793636E+02  0.00000000000E+00 0.  1.
</event>
<event>
 4    1  0.6718357E+001  0.2758850E+02  0.7546771E-02  0.1441784E+00
          2   -1    0    0  502    0  0.00000000000E+00  0.00000000000E+00  0.75199745514E+02  0.75199745514E+02  0.00000000000E+00 0. -1.
         -2   -1    0    0    0  501 -0.00000000000E+00 -0.00000000000E+00 -0.10125966939E+02  0.10125966939E+02  0.00000000000E+00 0.  1.
          1    1    1    2  502    0 -0.26175986796E+02 -0.87145406806E+01  0.33444504686E+02  0.43355050429E+02  0.00000000000E+00 0.  1.
         -1    1    1    2    0  501  0.26175986796E+02  0.87145406806E+01  0.31629273889E+02  0.41970662025E+02  0.00000000000E+00 0. -1.
</event>
<event>
 4    1  0.6718357E+001  0.2564718E+02  0.7546771E-02  0.1461692E+00
          2   -1    0    0  502    0  0.00000000000E+00  0.00000000000E+00  0.20661181850E+02  0.20661181850E+02  0.00000000000E+00 0. -1.
         -2   -1    0    0    0  501 -0.00000000000E+00 -0.00000000000E+00 -0.11328610620E+03  0.11328610620E+03  0.00000000000E+00 0.  1.
          1    1    1    2  502    0 -0.17660308707E+02 -0.18598149538E+02  0.10476033326E+02  0.27704240544E+02  0.00000000000E+00 0. -1.
         -1    1    1    2    0  501  0.17660308707E+02  0.18598149538E+02 -0.10310095768E+03  0.10624304751E+03  0.00000000000E+00 0.  1.
</event>
<event>
 4    1  0.6718357E+001  0.2314510E+02  0.7546771E-02  0.1490684E+00
          2   -1    0    0  502    0  0.00000000000E+00  0.00000000000E+00  0.75831050462E+03  0.75831050462E+03  0.00000000000E+00 0. -1.
         -2   -1    0    0    0  501 -0.00000000000E+00 -0.00000000000E+00 -0.73517820925E+00  0.73517820925E+00  0.00000000000E+00 0.  1.
          1    1    1    2  502    0  0.22797826863E+02 -0.39943273490E+01  0.30374221023E+03  0.30462275988E+03  0.00000000000E+00 0.  1.
         -1    1    1    2    0  501 -0.22797826863E+02  0.39943273490E+01  0.45383311619E+03  0.45442292296E+03  0.00000000000E+00 0. -1.
</event>
<event>
 4    1  0.6718357E+001  0.2379140E+02  0.7546771E-02  0.1482793E+00
          2   -1    0    0  502    0  0.00000000000E+00  0.00000000000E+00  0.92422852328E+03  0.92422852328E+03  0.00000000000E+00 0.  1.
         -2   -1    0    0    0  501 -0.00000000000E+00 -0.00000000000E+00 -0.11151588734E+01  0.11151588734E+01  0.00000000000E+00 0. -1.
          1    1    1    2  502    0 -0.23558341982E+02  0.33219038792E+01  0.77220510869E+03  0.77257152446E+03  0.00000000000E+00 0.  1.
         -1    1    1    2    0  501  0.23558341982E+02 -0.33219038792E+01  0.15090825572E+03  0.15277215769E+03  0.00000000000E+00 0. -1.
</event>
<event>
 4    1  0.6718357E+001  0.3178770E+02  0.7546771E-02  0.1404672E+00
          2   -1    0    0  502    0  0.00000000000E+00  0.00000000000E+00  0.21792023149E+04  0.21792023149E+04  0.00000000000E+00 0. -1.
         -2   -1    0    0    0  501 -0.00000000000E+00 -0.00000000000E+00 -0.46877266047E+00  0.46877266047E+00  0.00000000000E+00 0.  1.
          1    1    1    2  502    0  0.17417430806E+02 -0.26591183501E+02  0.97580128090E+03  0.97631890166E+03  0.00000000000E+00 0. -1.
         -1    1    1    2    0  501 -0.17417430806E+02  0.26591183501E+02  0.12029322613E+04  0.12033521859E+04  0.00000000000E+00 0.  1.
</event>
<event>
 4    1  0.6718357E+001  0.5373699E+02  0.7546771E-02  0.1282735E+00
          2   -1    0    0  502    0  0.00000000000E+00  0.00000000000E+00  0.14214433644E+02  0.14214433644E+02  0.00000000000E+00 0.  1.
         -2   -1    0    0    0  501 -0.00000000000E+00 -0.00000000000E+00 -0.22295255948E+03  0.22295255948E+03  0.00000000000E+00 0. -1.
          1    1    1    2  502    0  0.51760091513E+02  0.14441494734E+02 -0.13970994719E+03  0.14968811973E+03  0.00000000000E+00 0. -1.
         -1    1    1    2    0  501 -0.51760091513E+02 -0.14441494734E+02 -0.69028178648E+02  0.87478873399E+02  0.00000000000E+00 0.  1.
</event>
<event>
 4    1  0.6718357E+001  0.2868849E+02  0.7546771E-02  0.1431346E+00
          2   -1    0    0  502    0  0.00000000000E+00  0.00000000000E+00  0.28100106035E+02  0.28100106035E+02  0.00000000000E+00 0. -1.
         -2   -1    0    0    0  501 -0.00000000000E+00 -0.00000000000E+00 -0.37436738915E+02  0.37436738915E+02  0.00000000000E+00 0.  1.
          1    1    1    2  502    0 -0.39306386021E+01  0.28417943534E+02  0.10618601419E+02  0.30590588922E+02  0.00000000000E+00 0. -1.
         -1    1    1    2    0  501  0.39306386021E+01 -0.28417943534E+02 -0.19955234299E+02  0.34946256029E+02  0.00000000000E+00 0.  1.
</event>
<event>
 4    1  0.6718357E+001  0.2002703E+02  0.7546771E-02  0.1533623E+00
          2   -1    0    0  502    0  0.00000000000E+00  0.00000000000E+00  0.17258353418E+04  0.17258353418E+04  0.00000000000E+00 0. -1.
         -2   -1    0    0    0  501 -0.00000000000E+00 -0.00000000000E+00 -0.31996595688E+00  0.31996595688E+00  0.00000000000E+00 0.  1.
          1    1    1    2  502    0  0.19928018633E+02 -0.19889881829E+01  0.41124630983E+03  0.41173366313E+03  0.00000000000E+00 0.  1.
         -1    1    1    2    0  501 -0.19928018633E+02  0.19889881829E+01  0.13142690660E+04  0.13144216446E+04  0.00000000000E+00 0. -1.
</event>
<event>
 4    1  0.6718357E+001  0.4102320E+02  0.7546771E-02  0.1342592E+00
          2   -1    0    0  502    0  0.00000000000E+00  0.00000000000E+00  0.22113844516E+04  0.22113844516E+04  0.00000000000E+00 0. -1.
         -2   -1    0    0    0  501 -0.00000000000E+00 -0.00000000000E+00 -0.99107479802E+00  0.99107479802E+00  0.00000000000E+00 0.  1.
          1    1    1    2  502    0 -0.31593215615E+02  0.26168140240E+02  0.57223818247E+03  0.57370675463E+03  0.00000000000E+00 0.  1.
         -1    1    1    2    0  501  0.31593215615E+02 -0.26168140240E+02  0.16381551944E+04  0.16386687718E+04  0.00000000000E+00 0. -1.
</event>
<event>
 4    1  0.6718357E+001  0.3188223E+02  0.7546771E-02  0.1403915E+00
          2   -1    0    0  502    0  0.00000000000E+00  0.00000000000E+00  0.11803137269E+04  0.11803137269E+04  0.00000000000E+00 0.  1.
         -2   -1    0    0    0  501 -0.00000000000E+00 -0.00000000000E+00 -0.13672369530E+01  0.13672369530E+01  0.00000000000E+00 0. -1.
          1    1    1    2  502    0 -0.31655162225E+02 -0.37983623682E+01  0.94892686158E+03  0.94946230335E+03  0.00000000000E+00 0.  1.
         -1    1    1    2    0  501  0.31655162225E+02  0.37983623682E+01  0.23001962833E+03  0.23221866047E+03  0.00000000000E+00 0. -1.
</event>
<event>
 4    1  0.6718357E+001  0.2641928E+02  0.7546771E-02  0.1453530E+00
          2   -1    0    0  502    0  0.00000000000E+00  0.00000000000E+00  0.92752743229E+01  0.92752743229E+01  0.00000000000E+00 0.  1.
         -2   -1    0    0    0  501 -0.00000000000E+00 -0.00000000000E+00 -0.75953893644E+02  0.75953893644E+02  0.00000000000E+00 0. -1.
          1    1    1    2  502    0  0.23522714697E+02  0.12027476771E+02 -0.29241294421E+02  0.39408521967E+02  0.00000000000E+00 0. -1.
         -1    1    1    2    0  501 -0.23522714697E+02 -0.12027476771E+02 -0.37437324899E+02  0.45820645999E+02  0.00000000000E+00 0.  1.
</event>
<event>
 4    1  0.6718357E+001  0.2664917E+02  0.7546771E-02  0.1451164E+00
          2   -1    0    0  502    0  0.00000000000E+00  0.00000000000E+00  0.13639436902E+04  0.13639436902E+04  0.00000000000E+00 0.  1.
         -2   -1    0    0    0  501 -0.00000000000E+00 -0.00000000000E+00 -0.56190837471E+00  0.56190837471E+00  0.00000000000E+00 0. -1.
          1    1    1    2  502    0  0.24495926247E+02  0.10494180550E+02  0.86649455388E+03  0.86690425661E+03  0.00000000000E+00 0.  1.
         -1    1    1    2    0  501 -0.24495926247E+02 -0.10494180550E+02  0.49688722798E+03  0.49760134200E+03  0.00000000000E+00 0. -1.
</event>
<event>
 4    1  0.6718357E+001  0.2788037E+02  0.7546771E-02  0.1438960E+00
          2   -1    0    0  502    0  0.00000000000E+00  0.00000000000E+00  0.82613075610E+01  0.82613075610E+01  0.00000000000E+00 0.  1.
         -2   -1    0    0    0  501 -0.00000000000E+00 -0.00000000000E+00 -0.94161307494E+02  0.94161307494E+02  0.00000000000E+00 0. -1.
          1    1    1    2  502    0 -0.39003701321E+00 -0.27877645151E+02 -0.44348714501E+02  0.52384384180E+02  0.00000000000E+00 0.  1.
         -1    1    1    2    0  501  0.39003701321E+00  0.27877645151E+02 -0.41551285432E+02  0.50038230875E+02  0.00000000000E+00 0. -1.
</event>
<event>
 4    1  0.6718357E+001  0.2054024E+02  0.7546771E-02  0.1525931E+00
          2   -1    0    0  502    0  0.00000000000E+00  0.00000000000E+00  0.15140257154E+04  0.15140257154E+04  0.00000000000E+00 0.  1.
         -2   -1    0    0    0  501 -0.00000000000E+00 -0.00000000000E+00 -0.30933270532E+00  0.30933270532E+00  0.00000000000E+00 0. -1.
          1    1    1    2  502    0 -0.12536967243E+02  0.16270404383E+02  0.51843959151E+03  0.51884632758E+03  0.00000000000E+00 0. -1.
         -1    1    1    2    0  501  0.12536967243E+02 -0.16270404383E+02  0.99527679122E+03  0.99548872055E+03  0.00000000000E+00 0.  1.
</event>
<event>
 4    1  0.6718357E+001  0.2315522E+02  0.7546771E-02  0.1490558E+00
          2   -1    0    0  502    0  0.00000000000E+00  0.00000000000E+00  0.63211127387E+03  0.63211127387E+03  0.00000000000E+00 0. -1.
         -2   -1    0    0    0  501 -0.00000000000E+00 -0.00000000000E+00 -0.15230534279E+01  0.15230534279E+01  0.00000000000E+00 0.  1.
          1    1    1    2  502    0  0.10822264739E+01  0.23129920241E+02  0.10440606010E+03  0.10694292781E+03  0.00000000000E+00 0.  1.
         -1    1    1    2    0  501 -0.10822264739E+01 -0.23129920241E+02  0.52618216035E+03  0.52669139949E+03  0.00000000000E+00 0. -1.
</event>
<event>
 4    1  0.6718357E+001  0.2652056E+02  0.7546771E-02  0.1452485E+00
          2   -1    0    0  502    0  0.00000000000E+00  0.00000000000E+00  0.19251872847E+02  0.19251872847E+02  0.00000000000E+00 0.  1.
         -2   -1    0    0    0  501 -0.00000000000E+00 -0.00000000000E+00 -0.41879747874E+02  0.41879747874E+02  0.00000000000E+00 0. -1.
          1    1    1    2  502    0  0.14034922094E+02 -0.22502466862E+02 -0.39313069832E+00  0.26523472714E+02  0.00000000000E+00 0.  1.
         -1    1    1    2    0  501 -0.14034922094E+02  0.22502466862E+02 -0.22234744329E+02  0.34608148006E+02  0.00000000000E+00 0. -1.
</event>
<event>
 4    1  0.6718357E+001  0.2480913E+02  0.7546771E-02  0.1470950E+00
          2   -1    0    0  502    0  0.00000000000E+00  0.00000000000E+00  0.57958689516E+03  0.57958689516E+03  0.00000000000E+00 0. -1.
         -2   -1    0    0    0  501 -0.00000000000E+00 -0.00000000000E+00 -0.10817741347E+01  0.10817741347E+01  0.00000000000E+00 0.  1.
          1    1    1    2  502    0 -0.23863285495E+02  0.67850265164E+01  0.24995057942E+03  0.25117879117E+03  0.00000000000E+00 0. -1.
         -1    1    1    2    0  501  0.23863285495E+02 -0.67850265164E+01  0.32855454160E+03  0.32948987813E+03  0.00000000000E+00 0.  1.
</event>
<event>
 4    1  0.6718357E+001  0.2698891E+02  0.7546771E-02  0.1447720E+00
          2   -1    0    0  502    0  0.00000000000E+00  0.00000000000E+00  0.19474077676E+02  0.19474077676E+02  0.00000000000E+00 0.  1.
         -2   -1    0    0    0  501 -0.00000000000E+00 -0.00000000000E+00 -0.60466341601E+02  0.60466341601E+02  0.00000000000E+00 0. -1.
          1    1    1    2  502    0  0.20345795836E+02  0.17732728211E+02 -0.45181228517E+02  0.52628361824E+02  0.00000000000E+00 0. -1.
         -1    1    1    2    0  501 -0.20345795836E+02 -0.17732728211E+02  0.41889645922E+01  0.27312057453E+02  0.00000000000E+00 0.  1.
</event>
<event>
 4    1  0.6718357E+001  0.2239932E+02  0.7546771E-02  0.1500182E+00
          2   -1    0    0  502    0  0.00000000000E+00  0.00000000000E+00  0.45595481179E+01  0.45595481179E+01  0.00000000000E+00 0.  1.
         -2   -1    0    0    0  501 -0.00000000000E+00 -0.00000000000E+00 -0.13821590236E+03  0.13821590236E+03  0.00000000000E+00 0. -1.
          1    1    1    2  502    0 -0.19184307978E+02  0.11562524338E+02 -0.99060275538E+02  0.10156115316E+03  0.00000000000E+00 0. -1.
         -1    1    1    2    0  501  0.19184307978E+02 -0.11562524338E+02 -0.34596078706E+02  0.41214297319E+02  0.00000000000E+00 0.  1.
</event>
<event>
 4    1  0.6718357E+001  0.2367836E+02  0.7546771E-02  0.1484151E+00
          2   -1    0    0  502    0  0.00000000000E+00  0.00000000000E+00  0.19312239641E+03  0.19312239641E+03  0.00000000000E+00 0. -1.
         -2   -1    0    0    0  501 -0.00000000000E+00 -0.00000000000E+00 -0.38946981219E+01  0.38946981219E+01  0.00000000000E+00 0.  1.
          1    1    1    2  502    0 -0.20108119417E+02 -0.12503122255E+02  0.14431798154E+03  0.14624754469E+03  0.00000000000E+00 0.  1.
         -1    1    1    2    0  501  0.20108119417E+02  0.12503122255E+02  0.44909716752E+02  0.50769549844E+02  0.00000000000E+00 0. -1.
</event>
<event>
 4    1  0.6718357E+001  0.3711475E+02  0.7546771E-02  0.1366276E+00
          2   -1    0    0  502    0  0.00000000000E+00  0.00000000000E+00  0.17922856979E+04  0.17922856979E+04  0.00000000000E+00 0. -1.
         -2   -1    0    0    0  501 -0.00000000000E+00 -0.00000000000E+00 -0.11321859297E+01  0.11321859297E+01  0.00000000000E+00 0.  1.
          1    1    1    2  502    0  0.57250905678E+01  0.36670535826E+02  0.38740390205E+03  0.38917770772E+03  0.00000000000E+00 0.  1.
         -1    1    1    2    0  501 -0.57250905678E+01 -0.36670535826E+02  0.14037496099E+04  0.14042401761E+04  0.00000000000E+00 0. -1.
</event>
<event>
 4    1  0.6718357E+001  0.2315019E+02  0.7546771E-02  0.1490621E+00
          2   -1    0    0  502    0  0.00000000000E+00  0.00000000000E+00  0.35989247216E+02  0.35989247216E+02  0.00000000000E+00 0.  1.
         -2   -1    0    0    0  501 -0.00000000000E+00 -0.00000000000E+00 -0.18113431803E+02  0.18113431803E+02  0.00000000000E+00 0. -1.
          1    1    1    2  502    0 -0.18815437931E+02 -0.13487423138E+02 -0.24711932273E+01  0.23281711350E+02  0.00000000000E+00 0. -1.
         -1    1    1    2    0  501  0.18815437931E+02  0.13487423138E+02  0.20347008641E+02  0.30820967669E+02  0.00000000000E+00 0.  1.
</event>
<event>
 4    1  0.6718357E+001  0.3099064E+02  0.7546771E-02  0.1411179E+00
          2   -1    0    0  502    0  0.00000000000E+00  0.00000000000E+00  0.12920265526E+03  0.12920265526E+03  0.00000000000E+00 0. -1.
         -2   -1    0    0    0  501 -0.00000000000E+00 -0.00000000000E+00 -0.87969796307E+01  0.87969796307E+01  0.00000000000E+00 0.  1.
          1    1    1    2  502    0  0.10364243191E+02  0.29206203877E+02  0.33037481516E+02  0.45297848368E+02  0.00000000000E+00 0.  1.
         -1    1    1    2    0  501 -0.10364243191E+02 -0.29206203877E+02  0.87368194112E+02  0.92701786521E+02  0.00000000000E+00 0. -1.
</event>
<event>
 4    1  0.6718357E+001  0.2266547E+02  0.7546771E-02  0.1496742E+00
          2   -1    0    0  502    0  0.00000000000E+00  0.00000000000E+00  0.36343734385E+01  0.36343734385E+01  0.00000000000E+00 0. -1.
         -2   -1    0    0    0  501 -0.00000000000E+00 -0.00000000000E+00 -0.21198172571E+03  0.21198172571E+03  0.00000000000E+00 0.  1.
          1    1    1    2  502    0  0.98118517598E+01 -0.20431622581E+02 -0.16640337481E+03  0.16793989039E+03  0.00000000000E+00 0.  1.
         -1    1    1    2    0  501 -0.98118517598E+01  0.20431622581E+02 -0.41943977463E+02  0.47676208760E+02  0.00000000000E+00 0. -1.
</event>
<event>
 4    1  0.6718357E+001  0.2113622E+02  0.7546771E-02  0.1517329E+00
          2   -1    0    0  502    0  0.00000000000E+00  0.00000000000E+00  0.14813808239E+03  0.14813808239E+03  0.00000000000E+00 0.  1.
         -2   -1    0    0    0  501 -0.00000000000E+00 -0.00000000000E+00 -0.53202153920E+01  0.53202153920E+01  0.00000000000E+00 0. -1.
          1    1    1    2  502    0  0.17522114418E+02  0.11820117270E+02  0.20909581906E+02  0.29731301374E+02  0.00000000000E+00 0. -1.
         -1    1    1    2    0  501 -0.17522114418E+02 -0.11820117270E+02  0.12190828510E+03  0.12372699641E+03  0.00000000000E+00 0.  1.
</event>
<event>
 4    1  0.6718357E+001  0.2047312E+02  0.7546771E-02  0.1526922E+00
          2   -1    0    0  502    0  0.00000000000E+00  0.00000000000E+00  0.35997562202E+03  0.35997562202E+03  0.00000000000E+00 0. -1.
         -2   -1    0    0    0  501 -0.00000000000E+00 -0.00000000000E+00 -0.19624064141E+01  0.19624064141E+01  0.00000000000E+00 0.  1.
          1    1    1    2  502    0 -0.17312478736E+02 -0.10928254426E+02  0.29440989711E+03  0.29512088402E+03  0.00000000000E+00 0. -1.
         -1    1    1    2    0  501  0.17312478736E+02  0.10928254426E+02  0.63603318494E+02  0.66817144419E+02  0.00000000000E+00 0.  1.
</event>
<event>
 4    1  0.6718357E+001  0.2235867E+02  0.7546771E-02  0.1500712E+00
          2   -1    0    0  502    0  0.00000000000E+00  0.00000000000E+00  0.37571802595E+03  0.37571802595E+03  0.00000000000E+00 0. -1.
         -2   -1    0    0    0  501 -0.00000000000E+00 -0.00000000000E+00 -0.13435870173E+01  0.13435870173E+01  0.00000000000E+00 0.  1.
          1    1    1    2  502    0 -0.20908702307E+02  0.79206189425E+01  0.16861307988E+03  0.17008903769E+03  0.00000000000E+00 0. -1.
         -1    1    1    2    0  501  0.20908702307E+02 -0.79206189425E+01  0.20576135905E+03  0.20697257528E+03  0.00000000000E+00 0.  1.
</event>
<event>
 4    1  0.6718357E+001  0.2513569E+02  0.7546771E-02  0.1467291E+00
          2   -1    0    0  502    0  0.00000000000E+00  0.00000000000E+00  0.41904847894E+02  0.41904847894E+02  0.00000000000E+00 0.  1.
         -2   -1    0    0    0  501 -0.00000000000E+00 -0.00000000000E+00 -0.15111620463E+02  0.15111620463E+02  0.00000000000E+00 0. -1.
          1    1    1    2  502    0 -0.19407983891E+02 -0.15972879254E+02  0.14759576306E+02  0.29148718721E+02  0.00000000000E+00 0. -1.
         -1    1    1    2    0  501  0.19407983891E+02  0.15972879254E+02  0.12033651125E+02  0.27867749636E+02  0.00000000000E+00 0.  1.
</event>
<event>
 4    1  0.6718357E+001  0.2205963E+02  0.7546771E-02  0.1504656E+00
          2   -1    0    0  502    0  0.00000000000E+00  0.00000000000E+00  0.12424273229E+02  0.12424273229E+02  0.00000000000E+00 0.  1.
         -2   -1    0    0    0  501 -0.00000000000E+00 -0.00000000000E+00 -0.67683802183E+02  0.67683802183E+02  0.00000000000E+00 0. -1.
          1    1    1    2  502    0 -0.20865031970E+02 -0.71608485383E+01 -0.53628413698E+02  0.57988223517E+02  0.00000000000E+00 0. -1.
         -1    1    1    2    0  501  0.20865031970E+02  0.71608485383E+01 -0.16311152570E+01  0.22119851895E+02  0.00000000000E+00 0.  1.
</event>
<event>
 4    1  0.6718357E+001  0.3576154E+02  0.7546771E-02  0.1375287E+00
          2   -1    0    0  502    0  0.00000000000E+00  0.00000000000E+00  0.25839993085E+03  0.25839993085E+03  0.00000000000E+00 0.  1.
         -2   -1    0    0    0  501 -0.00000000000E+00 -0.00000000000E+00 -0.50215435457E+01  0.50215435457E+01  0.00000000000E+00 0. -1.
          1    1    1    2  502    0 -0.23466003288E+02  0.26985825394E+02  0.14249171784E+03  0.14691078155E+03  0.00000000000E+00 0. -1.
         -1    1    1    2    0  501  0.23466003288E+02 -0.26985825394E+02  0.11088666946E+03  0.11651069285E+03  0.00000000000E+00 0.  1.
</event>
<event>
 4    1  0.6718357E+001  0.2169245E+02  0.7546771E-02  0.1509604E+00
          2   -1    0    0  502    0  0.00000000000E+00  0.00000000000E+00  0.65312851768E+03  0.65312851768E+03  0.00000000000E+00 0.  1.
         -2   -1    0    0    0  501 -0.00000000000E+00 -0.00000000000E+00 -0.11590652343E+01  0.11590652343E+01  0.00000000000E+00 0. -1.
          1    1    1    2  502    0 -0.55506246935E+01 -0.20970285084E+02  0.12474459873E+03  0.12661665453E+03  0.00000000000E+00 0. -1.
         -1    1    1    2    0  501  0.55506246935E+01  0.20970285084E+02  0.52722485372E+03  0.52767092839E+03  0.00000000000E+00 0.  1.
</event>
<event>
 4    1  0.6718357E+001  0.3047111E+02  0.7546771E-02  0.1415546E+00
          2   -1    0    0  502    0  0.00000000000E+00  0.00000000000E+00  0.12860881678E+03  0.12860881678E+03  0.00000000000E+00 0.  1.
         -2   -1    0    0    0  501 -0.00000000000E+00 -0.00000000000E+00 -0.16925376410E+02  0.16925376410E+02  0.00000000000E+00 0. -1.
          1    1    1    2  502    0  0.17734876280E+02 -0.24778271992E+02  0.11094579770E+03  0.11505415519E+03  0.00000000000E+00 0.  1.
         -1    1    1    2    0  501 -0.17734876280E+02  0.24778271992E+02  0.73764266784E+00  0.30480037997E+02  0.00000000000E+00 0. -1.
</event>
<event>
 4    1  0.6718357E+001  0.2972174E+02  0.7546771E-02  0.1422030E+00
          2   -1    0    0  502    0  0.00000000000E+00  0.00000000000E+00  0.28520562153E+02  0.28520562153E+02  0.00000000000E+00 0.  1.
         -2   -1    0    0    0  501 -0.00000000000E+00 -0.00000000000E+00 -0.31056483894E+02  0.31056483894E+02  0.00000000000E+00 0. -1.
          1    1    1    2  502    0 -0.20132492922E+02 -0.21864691801E+02 -0.28076541972E+01  0.29854060710E+02  0.00000000000E+00 0. -1.
         -1    1    1    2    0  501  0.20132492922E+02  0.21864691801E+02  0.27173245647E+00  0.29722985337E+02  0.00000000000E+00 0.  1.
</event>
<event>
 4    1  0.6718357E+001  0.2651426E+02  0.7546771E-02  0.1452549E+00
          2   -1    0    0  502    0  0.00000000000E+00  0.00000000000E+00  0.15553307535E+03  0.15553307535E+03  0.00000000000E+00 0.  1.
         -2   -1    0    0    0  501 -0.00000000000E+00 -0.00000000000E+00 -0.45444433026E+01  0.45444433026E+01  0.00000000000E+00 0. -1.
          1    1    1    2  502    0 -0.16597905329E+02  0.20676444521E+02  0.81367182251E+02  0.85578175763E+02  0.00000000000E+00 0. -1.
         -1    1    1    2    0  501  0.16597905329E+02 -0.20676444521E+02  0.69621449799E+02  0.74499342892E+02  0.00000000000E+00 0.  1.
</event>
<event>
 4    1  0.6718357E+001  0.2928220E+02  0.7546771E-02  0.1425938E+00
          2   -1    0    0  502    0  0.00000000000E+00  0.00000000000E+00  0.46711883166E+03  0.46711883166E+03  0.00000000000E+00 0.  1.
         -2   -1    0    0    0  501 -0.00000000000E+00 -0.00000000000E+00 -0.21155794495E+01  0.21155794495E+01  0.00000000000E+00 0. -1.
          1    1    1    2  502    0  0.24701816305E+02  0.15724750730E+02  0.14715206077E+03  0.15003725038E+03  0.00000000000E+00 0.  1.
         -1    1    1    2    0  501 -0.24701816305E+02 -0.15724750730E+02  0.31785119144E+03  0.31919716072E+03  0.00000000000E+00 0. -1.
</event>
<event>
 4    1  0.6718357E+001  0.2136411E+02  0.7546771E-02  0.1514129E+00
          2   -1    0    0  502    0  0.00000000000E+00  0.00000000000E+00  0.67491607384E+01  0.67491607384E+01  0.00000000000E+00 0. -1.
         -2   -1    0    0    0  501 -0.00000000000E+00 -0.00000000000E+00 -0.10648780169E+03  0.10648780169E+03  0.00000000000E+00 0.  1.
          1    1    1    2  502    0  0.20081706186E+02  0.72904119785E+01 -0.15666293277E+02  0.26492598498E+02  0.00000000000E+00 0. -1.
         -1    1    1    2    0  501 -0.20081706186E+02 -0.72904119785E+01 -0.84072347674E+02  0.86744363930E+02  0.00000000000E+00 0.  1.
</event>
<event>
 4    1  0.6718357E+001  0.2894272E+02  0.7546771E-02  0.1429012E+00
          2   -1    0    0  502    0  0.00000000000E+00  0.00000000000E+00  0.24189864781E+04  0.24189864781E+04  0.00000000000E+00 0. -1.
         -2   -1    0    0    0  501 -0.00000000000E+00 -0.00000000000E+00 -0.36615037493E+00  0.36615037493E+00  0.00000000000E+00 0.  1.
          1    1    1    2  502    0 -0.21898692076E+02  0.18924283581E+02  0.92761060848E+03  0.92806202497E+03  0.00000000000E+00 0.  1.
         -1    1    1    2    0  501  0.21898692076E+02 -0.18924283581E+02  0.14910097192E+04  0.14912906035E+04  0.00000000000E+00 0. -1.
</event>
<event>
 4    1  0.6718357E+001  0.2457886E+02  0.7546771E-02  0.1473570E+00
          2   -1    0    0  502    0  0.00000000000E+00  0.00000000000E+00  0.35256193609E+03  0.35256193609E+03  0.00000000000E+00 0. -1.
         -2   -1    0    0    0  501 -0.00000000000E+00 -0.00000000000E+00 -0.18425410246E+01  0.18425410246E+01  0.00000000000E+00 0.  1.
          1    1    1    2  502    0  0.13293304126E+02 -0.20673861117E+02  0.12846779683E+03  0.13079791776E+03  0.00000000000E+00 0.  1.
         -1    1    1    2    0  501 -0.13293304126E+02  0.20673861117E+02  0.22225159823E+03  0.22360655935E+03  0.00000000000E+00 0. -1.
</event>
<event>
 4    1  0.6718357E+001  0.3394651E+02  0.7546771E-02  0.1388125E+00
          2   -1    0    0  502    0  0.00000000000E+00  0.00000000000E+00  0.29598476340E+02  0.29598476340E+02  0.00000000000E+00 0. -1.
         -2   -1    0    0    0  501 -0.00000000000E+00 -0.00000000000E+00 -0.62124299934E+02  0.62124299934E+02  0.00000000000E+00 0.  1.
          1    1    1    2  502    0 -0.20457394673E+02  0.27089855669E+02  0.11757629557E+02  0.35925020943E+02  0.00000000000E+00 0. -1.
         -1    1    1    2    0  501  0.20457394673E+02 -0.27089855669E+02 -0.44283453152E+02  0.55797755331E+02  0.00000000000E+00 0.  1.
</event>
<event>
 4    1  0.6718357E+001  0.3291702E+02  0.7546771E-02  0.1395830E+00
          2   -1    0    0  502    0  0.00000000000E+00  0.00000000000E+00  0.12494440298E+04  0.12494440298E+04  0.00000000000E+00 0.  1.
         -2   -1    0    0    0  501 -0.00000000000E+00 -0.00000000000E+00 -0.10446590791E+01  0.10446590791E+01  0.00000000000E+00 0. -1.
          1    1    1    2  502    0  0.24931013099E+02 -0.21493602211E+02  0.36650861926E+03  0.36798382891E+03  0.00000000000E+00 0. -1.
         -1    1    1    2    0  501 -0.24931013099E+02  0.21493602211E+02  0.88189075146E+03  0.88250485996E+03  0.00000000000E+00 0.  1.
</event>
<event>
 4    1  0.6718357E+001  0.3590283E+02  0.7546771E-02  0.1374325E+00
          2   -1    0    0  502    0  0.00000000000E+00  0.00000000000E+00  0.18693376169E+04  0.18693376169E+04  0.00000000000E+00 0.  1.
         -2   -1    0    0    0  501 -0.00000000000E+00 -0.00000000000E+00 -0.69759942071E+00  0.69759942071E+00  0.00000000000E+00 0. -1.
          1    1    1    2  502    0 -0.35898406035E+02  0.56335153532E+00  0.10347209613E+04  0.10353436535E+04  0.00000000000E+00 0.  1.
         -1    1    1    2    0  501  0.35898406035E+02 -0.56335153532E+00  0.83391905612E+03  0.83469156284E+03  0.00000000000E+00 0. -1.
</event>
<event>
 4    1  0.6718357E+001  0.2101466E+02  0.7546771E-02  0.1519055E+00
          2   -1    0    0  502    0  0.00000000000E+00  0.00000000000E+00  0.16587093573E+04  0.16587093573E+04  0.00000000000E+00 0. -1.
         -2   -1    0    0    0  501 -0.00000000000E+00 -0.00000000000E+00 -0.28348562706E+00  0.28348562706E+00  0.00000000000E+00 0.  1.
          1    1    1    2  502    0  0.18266808294E+02  0.10389409311E+02  0.10338000986E+04  0.10340136653E+04  0.00000000000E+00 0.  1.
         -1    1    1    2    0  501 -0.18266808294E+02 -0.10389409311E+02  0.62462577311E+03  0.62497917769E+03  0.00000000000E+00 0. -1.
</event>
<event>
 4    1  0.6718357E+001  0.2455895E+02  0.7546771E-02  0.1473798E+00
          2   -1    0    0  502    0  0.00000000000E+00  0.00000000000E+00  0.17757114647E+04  0.17757114647E+04  0.00000000000E+00 0.  1.
         -2   -1    0    0    0  501 -0.00000000000E+00 -0.00000000000E+00 -0.42028689778E+00  0.42028689778E+00  0.00000000000E+00 0. -1.
          1    1    1    2  502    0 -0.18390043198E+02  0.16277229278E+02  0.12766070572E+04  0.12768432638E+04  0.00000000000E+00 0.  1.
         -1    1    1    2    0  501  0.18390043198E+02 -0.16277229278E+02  0.49868412054E+03  0.49928848771E+03  0.00000000000E+00 0. -1.
</event>
<event>
 4    1  0.6718357E+001  0.2062882E+02  0.7546771E-02  0.1524631E+00
          2   -1    0    0  502    0  0.00000000000E+00  0.00000000000E+00  0.13200709162E+02  0.13200709162E+02  0.00000000000E+00 0. -1.
         -2   -1    0    0    0  501 -0.00000000000E+00 -0.00000000000E+00 -0.41373124025E+02  0.41373124025E+02  0.00000000000E+00 0.  1.
          1    1    1    2  502    0  0.95906830189E+01 -0.18263821276E+02 -0.12634476099E+01  0.20667478517E+02  0.00000000000E+00 0. -1.
         -1    1    1    2    0  501 -0.95906830189E+01  0.18263821276E+02 -0.26908967253E+02  0.33906354670E+02  0.00000000000E+00 0.  1.
</event>
<event>
 4    1  0.6718357E+001  0.2839347E+02  0.7546771E-02  0.1434091E+00
          2   -1    0    0  502    0  0.00000000000E+00  0.00000000000E+00  0.38599027758E+03  0.38599027758E+03  0.00000000000E+00 0.  1.
         -2   -1    0    0    0  501 -0.00000000000E+00 -0.00000000000E+00 -0.41561316102E+01  0.41561316102E+01  0.00000000000E+00 0. -1.
          1    1    1    2  502    0  0.16481660755E+02  0.23120204030E+02  0.53330384714E+02  0.60417869123E+02  0.00000000000E+00 0. -1.
         -1    1    1    2    0  501 -0.16481660755E+02 -0.23120204030E+02  0.32850376125E+03  0.32972854007E+03  0.00000000000E+00 0.  1.
</event>
<event>
 4    1  0.6718357E+001  0.2068241E+02  0.7546771E-02  0.1523848E+00
          2   -1    0    0  502    0  0.00000000000E+00  0.00000000000E+00  0.35127370526E+03  0.35127370526E+03  0.00000000000E+00 0. -1.
         -2   -1    0    0    0  501 -0.00000000000E+00 -0.00000000000E+00 -0.14164517639E+01  0.14164517639E+01  0.00000000000E+00 0.  1.
          1    1    1    2  502    0 -0.14140486286E+02  0.15093338611E+02  0.10887944325E+03  0.11082642007E+03  0.00000000000E+00 0.  1.
         -1    1    1    2    0  501  0.14140486286E+02 -0.15093338611E+02  0.24097781024E+03  0.24186373695E+03  0.00000000000E+00 0. -1.
</event>
<event>
 4    1  0.6718357E+001  0.2680130E+02  0.7546771E-02  0.1449614E+00
          2   -1    0    0  502    0  0.00000000000E+00  0.00000000000E+00  0.35061161206E+03  0.35061161206E+03  0.00000000000E+00 0. -1.
         -2   -1    0    0    0  501 -0.00000000000E+00 -0.00000000000E+00 -0.29596834185E+01  0.29596834185E+01  0.00000000000E+00 0.  1.
          1    1    1    2  502    0 -0.22135425417E+02 -0.15110671585E+02  0.27190401593E+03  0.27322171095E+03  0.00000000000E+00 0. -1.
         -1    1    1    2    0  501  0.22135425417E+02  0.15110671585E+02  0.75747912707E+02  0.80349584527E+02  0.00000000000E+00 0.  1.
</event>
<event>
 4    1  0.6718357E+001  0.2138051E+02  0.7546771E-02  0.1513901E+00
          2   -1    0    0  502    0  0.00000000000E+00  0.00000000000E+00  0.22061139932E+01  0.22061139932E+01  0.00000000000E+00 0. -1.
         -2   -1    0    0    0  501 -0.00000000000E+00 -0.00000000000E+00 -0.22719515844E+03  0.22719515844E+03  0.00000000000E+00 0.  1.
          1    1    1    2  502    0  0.19865807441E+02  0.79041674159E+01 -0.14651445480E+03  0.14806624070E+03  0.00000000000E+00 0.  1.
         -1    1    1    2    0  501 -0.19865807441E+02 -0.79041674159E+01 -0.78474589641E+02  0.81335031733E+02  0.00000000000E+00 0. -1.
</event>
<event>
 4    1  0.6718357E+001  0.2915036E+02  0.7546771E-02  0.1427126E+00
          2   -1    0    0  502    0  0.00000000000E+00  0.00000000000E+00  0.20040027875E+03  0.20040027875E+03  0.00000000000E+00 0.  1.
         -2   -1    0    0    0  501 -0.00000000000E+00 -0.00000000000E+00 -0.11428588883E+02  0.11428588883E+02  0.00000000000E+00 0. -1.
          1    1    1    2  502    0  0.28663495555E+02 -0.53054035911E+01  0.17848476796E+03  0.18084953878E+03  0.00000000000E+00 0.  1.
         -1    1    1    2    0  501 -0.28663495555E+02  0.53054035911E+01  0.10486921904E+02  0.30979328846E+02  0.00000000000E+00 0. -1.
</event>
<event>
 4    1  0.6718357E+001  0.3781812E+02  0.7546771E-02  0.1361769E+00
          2   -1    0    0  502    0  0.00000000000E+00  0.00000000000E+00  0.15974726395E+01  0.15974726395E+01  0.00000000000E+00 0. -1.
         -2   -1    0    0    0  501 -0.00000000000E+00 -0.00000000000E+00 -0.10931397821E+04  0.10931397821E+04  0.00000000000E+00 0.  1.
          1    1    1    2  502    0  0.73366080764E+00  0.37810998795E+02 -0.31290631154E+03  0.31518339056E+03  0.00000000000E+00 0. -1.
         -1    1    1    2    0  501 -0.73366080764E+00 -0.37810998795E+02 -0.77863599796E+03  0.77955386421E+03  0.00000000000E+00 0.  1.
</event>
<event>
 4    1  0.6718357E+001  0.2086960E+02  0.7546771E-02  0.1521135E+00
          2   -1    0    0  502    0  0.00000000000E+00  0.00000000000E+00  0.60229097478E+03  0.60229097478E+03  0.00000000000E+00 0. -1.
         -2   -1    0    0    0  501 -0.00000000000E+00 -0.00000000000E+00 -0.74928461622E+00  0.74928461622E+00  0.00000000000E+00 0.  1.
          1    1    1    2  502    0 -0.12670325520E+02  0.16583219541E+02  0.35709429253E+03  0.35770361206E+03  0.00000000000E+00 0.  1.
         -1    1    1    2    0  501  0.12670325520E+02 -0.16583219541E+02  0.24444739763E+03  0.24533664734E+03  0.00000000000E+00 0. -1.
</event>
<event>
 4    1  0.6718357E+001  0.4475710E+02  0.7546771E-02  0.1322658E+00
          2   -1    0    0  502    0  0.00000000000E+00  0.00000000000E+00  0.84319850393E+02  0.84319850393E+02  0.00000000000E+00 0.  1.
         -2   -1    0    0    0  501 -0.00000000000E+00 -0.00000000000E+00 -0.24067320090E+02  0.24067320090E+02  0.00000000000E+00 0. -1.
          1    1    1    2  502    0 -0.43574038547E+02 -0.10222585287E+02  0.36278661990E+02  0.57613708447E+02  0.00000000000E+00 0. -1.
         -1    1    1    2    0  501  0.43574038547E+02  0.10222585287E+02  0.23973868313E+02  0.50773462036E+02  0.00000000000E+00 0.  1.
</event>
<event>
 4    1  0.6718357E+001  0.2085349E+02  0.7546771E-02  0.1521367E+00
          2   -1    0    0  502    0  0.00000000000E+00  0.00000000000E+00  0.15681272921E+04  0.15681272921E+04  0.00000000000E+00 0.  1.
         -2   -1    0    0    0  501 -0.00000000000E+00 -0.00000000000E+00 -0.39505140862E+00  0.39505140862E+00  0.00000000000E+00 0. -1.
          1    1    1    2  502    0  0.11632635433E+02 -0.17307502822E+02  0.12120065024E+04  0.12121858891E+04  0.00000000000E+00 0.  1.
         -1    1    1    2    0  501 -0.11632635433E+02  0.17307502822E+02  0.35572573820E+03  0.35633645432E+03  0.00000000000E+00 0. -1.
</event>
<event>
 4    1  0.6718357E+001  0.2211182E+02  0.7546771E-02  0.1503963E+00
          2   -1    0    0  502    0  0.00000000000E+00  0.00000000000E+00  0.13438842758E+04  0.13438842758E+04  0.00000000000E+00 0. -1.
         -2   -1    0    0    0  501 -0.00000000000E+00 -0.00000000000E+00 -0.95794381925E+00  0.95794381925E+00  0.00000000000E+00 0.  1.
          1    1    1    2  502    0 -0.21928784860E+02 -0.28391942832E+01  0.12010163992E+04  0.12012199314E+04  0.00000000000E+00 0. -1.
         -1    1    1    2    0  501  0.21928784860E+02  0.28391942832E+01  0.14190993283E+03  0.14362228819E+03  0.00000000000E+00 0.  1.
</event>
<event>
 4    1  0.6718357E+001  0.2299110E+02  0.7546771E-02  0.1492610E+00
          2   -1    0    0  502    0  0.00000000000E+00  0.00000000000E+00  0.78754821751E+02  0.78754821751E+02  0.00000000000E+00 0.  1.
         -2   -1    0    0    0  501 -0.00000000000E+00 -0.00000000000E+00 -0.68052336999E+01  0.68052336999E+01  0.00000000000E+00 0. -1.
          1    1    1    2  502    0 -0.22819167475E+02  0.28065026886E+01  0.30963546104E+02  0.38565944160E+02  0.00000000000E+00 0.  1.
         -1    1    1    2    0  501  0.22819167475E+02 -0.28065026886E+01  0.40986041947E+02  0.46994111291E+02  0.00000000000E+00 0. -1.
</event>
<event>
 4    1  0.6718357E+001  0.4680426E+02  0.7546771E-02  0.1312656E+00
          2   -1    0    0  502    0  0.00000000000E+00  0.00000000000E+00  0.62313453979E+03  0.62313453979E+03  0.00000000000E+00 0. -1.
         -2   -1    0    0    0  501 -0.00000000000E+00 -0.00000000000E+00 -0.35359202507E+01  0.35359202507E+01  0.00000000000E+00 0.  1.
          1    1    1    2  502    0  0.46773107553E+02 -0.17073656410E+01  0.33360228544E+03  0.33686959426E+03  0.00000000000E+00 0.  1.
         -1    1    1    2    0  501 -0.46773107553E+02  0.17073656410E+01  0.28599633410E+03  0.28980086578E+03  0.00000000000E+00 0. -1.
</event>
<event>
 4    1  0.6718357E+001  0.6083848E+02  0.7546771E-02  0.1257010E+00
          2   -1    0    0  502    0  0.00000000000E+00  0.00000000000E+00  0.16985910634E+04  0.16985910634E+04  0.00000000000E+00 0. -1.
         -2   -1    0    0    0  501 -0.00000000000E+00 -0.00000000000E+00 -0.22108987223E+01  0.22108987223E+01  0.00000000000E+00 0.  1.
          1    1    1    2  502    0  0.21765783722E+02 -0.56811712826E+02  0.74612798998E+03  0.74860423288E+03  0.00000000000E+00 0.  1.
         -1    1    1    2    0  501 -0.21765783722E+02  0.56811712826E+02  0.95025217470E+03  0.95219772924E+03  0.00000000000E+00 0. -1.
</event>
<event>
 4    1  0.6718357E+001  0.2354739E+02  0.7546771E-02  0.1485737E+00
          2   -1    0    0  502    0  0.00000000000E+00  0.00000000000E+00  0.34747843463E+02  0.34747843463E+02  0.00000000000E+00 0. -1.
         -2   -1    0    0    0  501 -0.00000000000E+00 -0.00000000000E+00 -0.16553543149E+02  0.16553543149E+02  0.00000000000E+00 0.  1.
          1    1    1    2  502    0 -0.19895727525E+02  0.12595229423E+02  0.13965548714E+02  0.27377295865E+02  0.00000000000E+00 0. -1.
         -1    1    1    2    0  501  0.19895727525E+02 -0.12595229423E+02  0.42287515993E+01  0.23924090747E+02  0.00000000000E+00 0.  1.
</event>
<event>
 4    1  0.6718357E+001  0.2464018E+02  0.7546771E-02  0.1472869E+00
          2   -1    0    0  502    0  0.00000000000E+00  0.00000000000E+00  0.24360443132E+04  0.24360443132E+04  0.00000000000E+00 0.  1.
         -2   -1    0    0    0  501 -0.00000000000E+00 -0.00000000000E+00 -0.27054961127E+00  0.27054961127E+00  0.00000000000E+00 0. -1.
          1    1    1    2  502    0 -0.24637495157E+02 -0.36373802640E+00  0.15598320230E+04  0.15600266274E+04  0.00000000000E+00 0. -1.
         -1    1    1    2    0  501  0.24637495157E+02  0.36373802640E+00  0.87594174067E+03  0.87628823541E+03  0.00000000000E+00 0.  1.
</event>
<event>
 4    1  0.6718357E+001  0.2337720E+02  0.7546771E-02  0.1487815E+00
          2   -1    0    0  502    0  0.00000000000E+00  0.00000000000E+00  0.20557405980E+04  0.20557405980E+04  0.00000000000E+00 0. -1.
         -2   -1    0    0    0  501 -0.00000000000E+00 -0.00000000000E+00 -0.26802802460E+00  0.26802802460E+00  0.00000000000E+00 0.  1.
          1    1    1    2  502    0 -0.17336948259E+02  0.15681952870E+02  0.11206662508E+04  0.11209100495E+04  0.00000000000E+00 0.  1.
         -1    1    1    2    0  501  0.17336948259E+02 -0.15681952870E+02  0.93480631921E+03  0.93509857654E+03  0.00000000000E+00 0. -1.
</event>
<event>
 4    1  0.6718357E+001  0.2171599E+02  0.7546771E-02  0.1509283E+00
          2   -1    0    0  502    0  0.00000000000E+00  0.00000000000E+00  0.78588174918E+03  0.78588174918E+03  0.00000000000E+00 0. -1.
         -2   -1    0    0    0  501 -0.00000000000E+00 -0.00000000000E+00 -0.77603008333E+00  0.77603008333E+00  0.00000000000E+00 0.  1.
          1    1    1    2  502    0 -0.97375521209E+00 -0.21694146406E+02  0.20525903904E+03  0.20640459611E+03  0.00000000000E+00 0.  1.
         -1    1    1    2    0  501  0.97375521209E+00  0.21694146406E+02  0.57984668006E+03  0.58025318316E+03  0.00000000000E+00 0. -1.
</event>
<event>
 4    1  0.6718357E+001  0.2785793E+02  0.7546771E-02  0.1439175E+00
          2   -1    0    0  502    0  0.00000000000E+00  0.00000000000E+00  0.59227715062E+02  0.59227715062E+02  0.00000000000E+00 0.  1.
         -2   -1    0    0    0  501 -0.00000000000E+00 -0.00000000000E+00 -0.60567505232E+02  0.60567505232E+02  0.00000000000E+00 0. -1.
          1    1    1    2  502    0 -0.18514691978E+02  0.20815143336E+02 -0.53694065106E+02  0.60490632653E+02  0.00000000000E+00 0. -1.
         -1    1    1    2    0  501  0.18514691978E+02 -0.20815143336E+02  0.52354274936E+02  0.59304587641E+02  0.00000000000E+00 0.  1.
</event>
<event>
 4    1  0.6718357E+001  0.2064256E+02  0.7546771E-02  0.1524430E+00
          2   -1    0    0  502    0  0.00000000000E+00  0.00000000000E+00  0.14960637034E+04  0.14960637034E+04  0.00000000000E+00 0.  1.
         -2   -1    0    0    0  501 -0.00000000000E+00 -0.00000000000E+00 -0.30742054880E+00  0.30742054880E+00  0.00000000000E+00 0. -1.
          1    1    1    2  502    0  0.15490164204E+02  0.13644414706E+02  0.95072179230E+03  0.95094586680E+03  0.00000000000E+00 0.  1.
         -1    1    1    2    0  501 -0.15490164204E+02 -0.13644414706E+02  0.54503449054E+03  0.54542525713E+03  0.00000000000E+00 0. -1.
</event>
<event>
 4    1  0.6718357E+001  0.2005841E+02  0.7546771E-02  0.1533145E+00
          2   -1    0    0  502    0  0.00000000000E+00  0.00000000000E+00  0.24456015735E+04  0.24456015735E+04  0.00000000000E+00 0.  1.
         -2   -1    0    0    0  501 -0.00000000000E+00 -0.00000000000E+00 -0.16595269157E+00  0.16595269157E+00  0.00000000000E+00 0. -1.
          1    1    1    2  502    0 -0.19156409787E+02  0.59474316060E+01  0.11089256123E+04  0.11091070073E+04  0.00000000000E+00 0.  1.
         -1    1    1    2    0  501  0.19156409787E+02 -0.59474316060E+01  0.13365100085E+04  0.13366605189E+04  0.00000000000E+00 0. -1.
</event>
<event>
 4    1  0.6718357E+001  0.5449640E+02  0.7546771E-02  0.1279772E+00
          2   -1    0    0  502    0  0.00000000000E+00  0.00000000000E+00  0.10627355304E+03  0.10627355304E+03  0.00000000000E+00 0. -1.
         -2   -1    0    0    0  501 -0.00000000000E+00 -0.00000000000E+00 -0.87974648698E+02  0.87974648698E+02  0.00000000000E+00 0.  1.
          1    1    1    2  502    0  0.53246626564E+02  0.11604052555E+02  0.89378138947E+02  0.10468194208E+03  0.00000000000E+00 0. -1.
         -1    1    1    2    0  501 -0.53246626564E+02 -0.11604052555E+02 -0.71079234608E+02  0.89566259655E+02  0.00000000000E+00 0.  1.
</event>
<event>
 4    1  0.6718357E+001  0.2468436E+02  0.7546771E-02  0.1472366E+00
          2   -1    0    0  502    0  0.00000000000E+00  0.00000000000E+00  0.33270424001E+01  0.33270424001E+01  0.00000000000E+00 0. -1.
         -2   -1    0    0    0  501 -0.00000000000E+00 -0.00000000000E+00 -0.58928663107E+03  0.58928663107E+03  0.00000000000E+00 0.  1.
          1    1    1    2  502    0  0.24642594303E+02  0.14352508038E+01 -0.46988721333E+02  0.53077842189E+02  0.00000000000E+00 0. -1.
         -1    1    1    2    0  501 -0.24642594303E+02 -0.14352508038E+01 -0.53897086734E+03  0.53953583128E+03  0.00000000000E+00 0.  1.
</event>
<event>
 4    1  0.6718357E+001  0.2149434E+02  0.7546771E-02  0.1512323E+00
          2   -1    0    0  502    0  0.00000000000E+00  0.00000000000E+00  0.59617430598E+03  0.59617430598E+03  0.00000000000E+00 0.  1.
         -2   -1    0    0    0  501 -0.00000000000E+00 -0.00000000000E+00 -0.77646445110E+00  0.77646445110E+00  0.00000000000E+00 0. -1.
          1    1    1    2  502    0 -0.19950962260E+02  0.79978708635E+01  0.28452845777E+03  0.28533918433E+03  0.00000000000E+00 0. -1.
         -1    1    1    2    0  501  0.19950962260E+02 -0.79978708635E+01  0.31086938376E+03  0.31161158610E+03  0.00000000000E+00 0.  1.
</event>
<event>
 4    1  0.6718357E+001  0.2152076E+02  0.7546771E-02  0.1511958E+00
          2   -1    0    0  502    0  0.00000000000E+00  0.00000000000E+00  0.15988729379E+02  0.15988729379E+02  0.00000000000E+00 0. -1.
         -2   -1    0    0    0  501 -0.00000000000E+00 -0.00000000000E+00 -0.31269863065E+02  0.31269863065E+02  0.00000000000E+00 0.  1.
          1    1    1    2  502    0  0.12985035757E+02  0.17161934752E+02 -0.14053191295E+02  0.25702827541E+02  0.00000000000E+00 0.  1.
         -1    1    1    2    0  501 -0.12985035757E+02 -0.17161934752E+02 -0.12279423915E+01  0.21555764903E+02  0.00000000000E+00 0. -1.
</event>
<event>
 4    1  0.6718357E+001  0.3169007E+02  0.7546771E-02  0.1405457E+00
          2   -1    0    0  502    0  0.00000000000E+00  0.00000000000E+00  0.12747130355E+04  0.12747130355E+04  0.00000000000E+00 0.  1.
         -2   -1    0    0    0  501 -0.00000000000E+00 -0.00000000000E+00 -0.79859552347E+00  0.79859552347E+00  0.00000000000E+00 0. -1.
          1    1    1    2  502    0  0.31457515181E+02  0.38321271557E+01  0.71099553317E+03  0.71170141818E+03  0.00000000000E+00 0.  1.
         -1    1    1    2    0  501 -0.31457515181E+02 -0.38321271557E+01  0.56291890684E+03  0.56381021287E+03  0.00000000000E+00 0. -1.
</event>
<event>
 4    1  0.6718357E+001  0.2115293E+02  0.7546771E-02  0.1517093E+00
          2   -1    0    0  502    0  0.00000000000E+00  0.00000000000E+00  0.93441595747E+03  0.93441595747E+03  0.00000000000E+00 0. -1.
         -2   -1    0    0    0  501 -0.00000000000E+00 -0.00000000000E+00 -0.58530362658E+00  0.58530362658E+00  0.00000000000E+00 0.  1.
          1    1    1    2  502    0  0.55629173093E+01 -0.20408337026E+02  0.66628965227E+03  0.66662534230E+03  0.00000000000E+00 0. -1.
         -1    1    1    2    0  501 -0.55629173093E+01  0.20408337026E+02  0.26754100156E+03  0.26837591879E+03  0.00000000000E+00 0.  1.
</event>
<event>
 4    1  0.6718357E+001  0.2435467E+02  0.7546771E-02  0.1476154E+00
          2   -1    0    0  502    0  0.00000000000E+00  0.00000000000E+00  0.13020572403E+02  0.13020572403E+02  0.00000000000E+00 0. -1.
         -2   -1    0    0    0  501 -0.00000000000E+00 -0.00000000000E+00 -0.50249468179E+02  0.50249468179E+02  0.00000000000E+00 0.  1.
          1    1    1    2  502    0 -0.44166789277E+01  0.23950843011E+02 -0.28283937417E+02  0.37324670789E+02  0.00000000000E+00 0.  1.
         -1    1    1    2    0  501  0.44166789277E+01 -0.23950843011E+02 -0.89449583594E+01  0.25945369794E+02  0.00000000000E+00 0. -1.
</event>
<event>
 4    1  0.6718357E+001  0.2100287E+02  0.7546771E-02  0.1519224E+00
          2   -1    0    0  502    0  0.00000000000E+00  0.00000000000E+00  0.25972330005E+03  0.25972330005E+03  0.00000000000E+00 0. -1.
         -2   -1    0    0    0  501 -0.00000000000E+00 -0.00000000000E+00 -0.27274938816E+01  0.27274938816E+01  0.00000000000E+00 0.  1.
          1    1    1    2  502    0 -0.13546661089E+02  0.16050181109E+02  0.20910223682E+03  0.21015438559E+03  0.00000000000E+00 0. -1.
         -1    1    1    2    0  501  0.13546661089E+02 -0.16050181109E+02  0.47893569346E+02  0.52296408337E+02  0.00000000000E+00 0.  1.
</event>
<event>
 4    1  0.6718357E+001  0.2082782E+02  0.7546771E-02  0.1521737E+00
          2   -1    0    0  502    0  0.00000000000E+00  0.00000000000E+00  0.69498754976E+02  0.69498754976E+02  0.00000000000E+00 0.  1.
         -2   -1    0    0    0  501 -0.00000000000E+00 -0.00000000000E+00 -0.64811088716E+01  0.64811088716E+01  0.00000000000E+00 0. -1.
          1    1    1    2  502    0  0.96348200173E+01 -0.18465331497E+02  0.38808633233E+02  0.44044389399E+02  0.00000000000E+00 0.  1.
         -1    1    1    2    0  501 -0.96348200173E+01  0.18465331497E+02  0.24209012871E+02  0.31935474449E+02  0.00000000000E+00 0. -1.
</event>
<event>
 4    1  0.6718357E+001  0.2942077E+02  0.7546771E-02  0.1424698E+00
          2   -1    0    0  502    0  0.00000000000E+00  0.00000000000E+00  0.38868830985E+01  0.38868830985E+01  0.00000000000E+00 0.  1.
         -2   -1    0    0    0  501 -0.00000000000E+00 -0.00000000000E+00 -0.23544492712E+03  0.23544492712E+03  0.00000000000E+00 0. -1.
          1    1    1    2  502    0  0.12504329876E+02  0.26631250961E+02 -0.87929799289E+02  0.92721256444E+02  0.00000000000E+00 0. -1.
         -1    1    1    2    0  501 -0.12504329876E+02 -0.26631250961E+02 -0.14362824474E+03  0.14661055378E+03  0.00000000000E+00 0.  1.
</event>
<event>
 4    1  0.6718357E+001  0.2250028E+02  0.7546771E-02  0.1498870E+00
          2   -1    0    0  502    0  0.00000000000E+00  0.00000000000E+00  0.34841524404E+02  0.34841524404E+02  0.00000000000E+00 0. -1.
         -2   -1    0    0    0  501 -0.00000000000E+00 -0.00000000000E+00 -0.27886625146E+02  0.27886625146E+02  0.00000000000E+00 0.  1.
          1    1    1    2  502    0 -0.21630108652E+02  0.61968408473E+01  0.25183251272E+02  0.33770676354E+02  0.00000000000E+00 0. -1.
         -1    1    1    2    0  501  0.21630108652E+02 -0.61968408473E+01 -0.18228352013E+02  0.28957473196E+02  0.00000000000E+00 0.  1.
</event>
<event>
 4    1  0.6718357E+001  0.2414428E+02  0.7546771E-02  0.1478608E+00
          2   -1    0    0  502    0  0.00000000000E+00  0.00000000000E+00  0.54515050266E+01  0.54515050266E+01  0.00000000000E+00 0. -1.
         -2   -1    0    0    0  501 -0.00000000000E+00 -0.00000000000E+00 -0.12438046333E+03  0.12438046333E+03  0.00000000000E+00 0.  1.
          1    1    1    2  502    0  0.56594484871E+01  0.23471621704E+02 -0.35151378498E+02  0.42644645536E+02  0.00000000000E+00 0. -1.
         -1    1    1    2    0  501 -0.56594484871E+01 -0.23471621704E+02 -0.83777579803E+02  0.87187322819E+02  0.00000000000E+00 0.  1.
</event>
<event>
 4    1  0.6718357E+001  0.2018486E+02  0.7546771E-02  0.1531228E+00
          2   -1    0    0  502    0  0.00000000000E+00  0.00000000000E+00  0.51001889853E+00  0.51001889853E+00  0.00000000000E+00 0.  1.
         -2   -1    0    0    0  501 -0.00000000000E+00 -0.00000000000E+00 -0.97211788682E+03  0.97211788682E+03  0.00000000000E+00 0. -1.
          1    1    1    2  502    0  0.86355504428E+01  0.18244341066E+02 -0.28049113715E+03  0.28121647663E+03  0.00000000000E+00 0.  1.
         -1    1    1    2    0  501 -0.86355504428E+01 -0.18244341066E+02 -0.69111673078E+03  0.69141142909E+03  0.00000000000E+00 0. -1.
</event>
<event>
 4    1  0.6718357E+001  0.3122218E+02  0.7546771E-02  0.1409265E+00
          2   -1    0    0  502    0  0.00000000000E+00  0.00000000000E+00  0.32221579574E+04  0.32221579574E+04  0.00000000000E+00 0.  1.
         -2   -1    0    0    0  501 -0.00000000000E+00 -0.00000000000E+00 -0.30260506670E+00  0.30260506670E+00  0.00000000000E+00 0. -1.
          1    1    1    2  502    0 -0.25914690383E+02  0.17414168665E+02  0.15868978022E+04  0.15872049203E+04  0.00000000000E+00 0.  1.
         -1    1    1    2    0  501  0.25914690383E+02 -0.17414168665E+02  0.16349575502E+04  0.16352556422E+04  0.00000000000E+00 0. -1.
</event>
<event>
 4    1  0.6718357E+001  0.2508122E+02  0.7546771E-02  0.1467897E+00
          2   -1    0    0  502    0  0.00000000000E+00  0.00000000000E+00  0.40684831436E+02  0.40684831436E+02  0.00000000000E+00 0. -1.
         -2   -1    0    0    0  501 -0.00000000000E+00 -0.00000000000E+00 -0.16281753348E+02  0.16281753348E+02  0.00000000000E+00 0.  1.
          1    1    1    2  502    0 -0.17554697186E+02 -0.17913688885E+02  0.58102398129E+01  0.25745417640E+02  0.00000000000E+00 0.  1.
         -1    1    1    2    0  501  0.17554697186E+02  0.17913688885E+02  0.18592838275E+02  0.31221167145E+02  0.00000000000E+00 0. -1.
</event>
<event>
 4    1  0.6718357E+001  0.3364264E+02  0.7546771E-02  0.1390365E+00
          2   -1    0    0  502    0  0.00000000000E+00  0.00000000000E+00  0.14566342905E+03  0.14566342905E+03  0.00000000000E+00 0. -1.
         -2   -1    0    0    0  501 -0.00000000000E+00 -0.00000000000E+00 -0.12046515439E+02  0.12046515439E+02  0.00000000000E+00 0.  1.
          1    1    1    2  502    0 -0.30509586820E+02  0.14177168581E+02  0.19826006609E+02  0.39049936427E+02  0.00000000000E+00 0.  1.
         -1    1    1    2    0  501  0.30509586820E+02 -0.14177168581E+02  0.11379090700E+03  0.11866000806E+03  0.00000000000E+00 0. -1.
</event>
<event>
 4    1  0.6718357E+001  0.3874551E+02  0.7546771E-02  0.1355998E+00
          2   -1    0    0  502    0  0.00000000000E+00  0.00000000000E+00  0.19854602223E+04  0.19854602223E+04  0.00000000000E+00 0. -1.
         -2   -1    0    0    0  501 -0.00000000000E+00 -0.00000000000E+00 -0.76473742495E+00  0.76473742495E+00  0.00000000000E+00 0.  1.
          1    1    1    2  502    0  0.91300628134E+01 -0.37654438900E+02  0.88682920566E+03  0.88767519669E+03  0.00000000000E+00 0. -1.
         -1    1    1    2    0  501 -0.91300628134E+01  0.37654438900E+02  0.10978662792E+04  0.10985497630E+04  0.00000000000E+00 0.  1.
</event>
<event>
 4    1  0.6718357E+001  0.2095177E+02  0.7546771E-02  0.1519954E+00
          2   -1    0    0  502    0  0.00000000000E+00  0.00000000000E+00  0.51374165638E+02  0.51374165638E+02  0.00000000000E+00 0. -1.
         -2   -1    0    0    0  501 -0.00000000000E+00 -0.00000000000E+00 -0.53396271067E+02  0.53396271067E+02  0.00000000000E+00 0.  1.
          1    1    1    2  502    0 -0.20577297783E+02  0.39435581586E+01  0.47000098966E+02  0.51458586628E+02  0.00000000000E+00 0. -1.
         -1    1    1    2    0  501  0.20577297783E+02 -0.39435581586E+01 -0.49022204394E+02  0.53311850077E+02  0.00000000000E+00 0.  1.
</event>
<event>
 4    1  0.6718357E+001  0.2117559E+02  0.7546771E-02  0.1516773E+00
          2   -1    0    0  502    0  0.00000000000E+00  0.00000000000E+00  0.12239676290E+04  0.12239676290E+04  0.00000000000E+00 0.  1.
         -2   -1    0    0    0  501 -0.00000000000E+00 -0.00000000000E+00 -0.97403697971E+00  0.97403697971E+00  0.00000000000E+00 0. -1.
          1    1    1    2  502    0  0.52081883475E+01  0.20525118121E+02  0.12772989777E+03  0.12947328869E+03  0.00000000000E+00 0. -1.
         -1    1    1    2    0  501 -0.52081883475E+01 -0.20525118121E+02  0.10952636942E+04  0.10954683773E+04  0.00000000000E+00 0.  1.
</event>
<event>
 4    1  0.6718357E+001  0.2367913E+02  0.7546771E-02  0.1484142E+00
          2   -1    0    0  502    0  0.00000000000E+00  0.00000000000E+00  0.61437972216E+03  0.61437972216E+03  0.00000000000E+00 0.  1.
         -2   -1    0    0    0  501 -0.00000000000E+00 -0.00000000000E+00 -0.93161152567E+00  0.93161152567E+00  0.00000000000E+00 0. -1.
          1    1    1    2  502    0  0.51252497584E+01 -0.23117805997E+02  0.26280861208E+03  0.26387320387E+03  0.00000000000E+00 0. -1.
         -1    1    1    2    0  501 -0.51252497584E+01  0.23117805997E+02  0.35063949855E+03  0.35143812981E+03  0.00000000000E+00 0.  1.
</event>
<event>
 4    1  0.6718357E+001  0.2184996E+02  0.7546771E-02  0.1507467E+00
          2   -1    0    0  502    0  0.00000000000E+00  0.00000000000E+00  0.32168073096E+02  0.32168073096E+02  0.00000000000E+00 0. -1.
         -2   -1    0    0    0  501 -0.00000000000E+00 -0.00000000000E+00 -0.18166281555E+02  0.18166281555E+02  0.00000000000E+00 0.  1.
          1    1    1    2  502    0 -0.20234402805E+02 -0.82455903483E+01 -0.37658975435E+01  0.22172117657E+02  0.00000000000E+00 0.  1.
         -1    1    1    2    0  501  0.20234402805E+02  0.82455903483E+01  0.17767689085E+02  0.28162236994E+02  0.00000000000E+00 0. -1.
</event>
<event>
 4    1  0.6718357E+001  0.2129475E+02  0.7546771E-02  0.1515098E+00
          2   -1    0    0  502    0  0.00000000000E+00  0.00000000000E+00  0.76993368700E+03  0.76993368700E+03  0.00000000000E+00 0.  1.
         -2   -1    0    0    0  501 -0.00000000000E+00 -0.00000000000E+00 -0.75334568207E+00  0.75334568207E+00  0.00000000000E+00 0. -1.
          1    1    1    2  502    0 -0.29059473136E+01 -0.21095537870E+02  0.56459013805E+03  0.56499158422E+03  0.00000000000E+00 0.  1.
         -1    1    1    2    0  501  0.29059473136E+01  0.21095537870E+02  0.20459020326E+03  0.20569544846E+03  0.00000000000E+00 0. -1.
</event>
<event>
 4    1  0.6718357E+001  0.3334692E+02  0.7546771E-02  0.1392573E+00
          2   -1    0    0  502    0  0.00000000000E+00  0.00000000000E+00  0.78518704943E+01  0.78518704943E+01  0.00000000000E+00 0. -1.
         -2   -1    0    0    0  501 -0.00000000000E+00 -0.00000000000E+00 -0.14211157286E+03  0.14211157286E+03  0.00000000000E+00 0.  1.
          1    1    1    2  502    0  0.15626515976E+02 -0.29458938202E+02 -0.62740013039E+02  0.71051574773E+02  0.00000000000E+00 0.  1.
         -1    1    1    2    0  501 -0.15626515976E+02  0.29458938202E+02 -0.71519689323E+02  0.78911868577E+02  0.00000000000E+00 0. -1.
</event>
<event>
 4    1  0.6718357E+001  0.2034313E+02  0.7546771E-02  0.1528853E+00
          2   -1    0    0  502    0  0.00000000000E+00  0.00000000000E+00  0.80720618433E+01  0.80720618433E+01  0.00000000000E+00 0.  1.
         -2   -1    0    0    0  501 -0.00000000000E+00 -0.00000000000E+00 -0.60903668497E+02  0.60903668497E+02  0.00000000000E+00 0. -1.
          1    1    1    2  502    0  0.16641892101E+02  0.11700012522E+02 -0.12698358291E+02  0.23981058546E+02  0.00000000000E+00 0.  1.
         -1    1    1    2    0  501 -0.16641892101E+02 -0.11700012522E+02 -0.40133248362E+02  0.44994671794E+02  0.00000000000E+00 0. -1.
</event>
<event>
 4    1  0.6718357E+001  0.2016537E+02  0.7546771E-02  0.1531523E+00
          2   -1    0    0  502    0  0.00000000000E+00  0.00000000000E+00  0.25345630082E+00  0.25345630082E+00  0.00000000000E+00 0.  1.
         -2   -1    0    0    0  501 -0.00000000000E+00 -0.00000000000E+00 -0.16044276941E+04  0.16044276941E+04  0.00000000000E+00 0. -1.
          1    1    1    2  502    0  0.20882991540E+01  0.20056945331E+02 -0.79805718786E+03  0.79831191720E+03  0.00000000000E+00 0.  1.
         -1    1    1    2    0  501 -0.20882991540E+01 -0.20056945331E+02 -0.80611704990E+03  0.80636923316E+03  0.00000000000E+00 0. -1.
</event>
<event>
 4    1  0.6718357E+001  0.2164941E+02  0.7546771E-02  0.1510191E+00
          2   -1    0    0  502    0  0.00000000000E+00  0.00000000000E+00  0.44995215386E+02  0.44995215386E+02  0.00000000000E+00 0.  1.
         -2   -1    0    0    0  501 -0.00000000000E+00 -0.00000000000E+00 -0.10686048391E+02  0.10686048391E+02  0.00000000000E+00 0. -1.
          1    1    1    2  502    0  0.14574525471E+02 -0.16008753059E+02  0.12733672417E+02  0.25116595718E+02  0.00000000000E+00 0. -1.
         -1    1    1    2    0  501 -0.14574525471E+02  0.16008753059E+02  0.21575494578E+02  0.30564668059E+02  0.00000000000E+00 0.  1.
</event>
<event>
 4    1  0.6718357E+001  0.2638902E+02  0.7546771E-02  0.1453844E+00
          2   -1    0    0  502    0  0.00000000000E+00  0.00000000000E+00  0.87180847419E+02  0.87180847419E+02  0.00000000000E+00 0. -1.
         -2   -1    0    0    0  501 -0.00000000000E+00 -0.00000000000E+00 -0.80176890422E+01  0.80176890422E+01  0.00000000000E+00 0.  1.
          1    1    1    2  502    0  0.17630333121E+02 -0.19635474281E+02  0.42489312876E+02  0.50017219084E+02  0.00000000000E+00 0. -1.
         -1    1    1    2    0  501 -0.17630333121E+02  0.19635474281E+02  0.36673845500E+02  0.45181317377E+02  0.00000000000E+00 0.  1.
</event>
<event>
 4    1  0.6718357E+001  0.2505093E+02  0.7546771E-02  0.1468234E+00
          2   -1    0    0  502    0  0.00000000000E+00  0.00000000000E+00  0.86623929314E+03  0.86623929314E+03  0.00000000000E+00 0. -1.
         -2   -1    0    0    0  501 -0.00000000000E+00 -0.00000000000E+00 -0.78301342144E+00  0.78301342144E+00  0.00000000000E+00 0.  1.
          1    1    1    2  502    0 -0.10980305079E+01 -0.25026855836E+02  0.31417316482E+03  0.31517031376E+03  0.00000000000E+00 0. -1.
         -1    1    1    2    0  501  0.10980305079E+01  0.25026855836E+02  0.55128311490E+03  0.55185199280E+03  0.00000000000E+00 0.  1.
</event>
<event>
 4    1  0.6718357E+001  0.2321292E+02  0.7546771E-02  0.1489842E+00
          2   -1    0    0  502    0  0.00000000000E+00  0.00000000000E+00  0.18837800293E+01  0.18837800293E+01  0.00000000000E+00 0.  1.
         -2   -1    0    0    0  501 -0.00000000000E+00 -0.00000000000E+00 -0.35911549459E+03  0.35911549459E+03  0.00000000000E+00 0. -1.
          1    1    1    2  502    0  0.49354075111E+01  0.22682182538E+02 -0.97194174123E+02  0.99927709547E+02  0.00000000000E+00 0.  1.
         -1    1    1    2    0  501 -0.49354075111E+01 -0.22682182538E+02 -0.26003754044E+03  0.26107156507E+03  0.00000000000E+00 0. -1.
</event>
<event>
 4    1  0.6718357E+001  0.2439904E+02  0.7546771E-02  0.1475640E+00
          2   -1    0    0  502    0  0.00000000000E+00  0.00000000000E+00  0.11823235601E+04  0.11823235601E+04  0.00000000000E+00 0. -1.
         -2   -1    0    0    0  501 -0.00000000000E+00 -0.00000000000E+00 -0.52686986976E+00  0.52686986976E+00  0.00000000000E+00 0.  1.
          1    1    1    2  502    0  0.10236302765E+02  0.22147936246E+02  0.71542824116E+03  0.71584417384E+03  0.00000000000E+00 0. -1.
         -1    1    1    2    0  501 -0.10236302765E+02 -0.22147936246E+02  0.46636844904E+03  0.46700625610E+03  0.00000000000E+00 0.  1.
</event>
<event>
 4    1  0.6718357E+001  0.2593495E+02  0.7546771E-02  0.1458610E+00
          2   -1    0    0  502    0  0.00000000000E+00  0.00000000000E+00  0.12785125890E+04  0.12785125890E+04  0.00000000000E+00 0. -1.
         -2   -1    0    0    0  501 -0.00000000000E+00 -0.00000000000E+00 -0.92043635265E+00  0.92043635265E+00  0.00000000000E+00 0.  1.
          1    1    1    2  502    0 -0.24943877125E+02  0.71010245332E+01  0.22007408120E+03  0.22159698276E+03  0.00000000000E+00 0.  1.
         -1    1    1    2    0  501  0.24943877125E+02 -0.71010245332E+01  0.10575180714E+04  0.10578360425E+04  0.00000000000E+00 0. -1.
</event>
<event>
 4    1  0.6718357E+001  0.2361377E+02  0.7546771E-02  0.1484932E+00
          2   -1    0    0  502    0  0.00000000000E+00  0.00000000000E+00  0.93017223721E+03  0.93017223721E+03  0.00000000000E+00 0. -1.
         -2   -1    0    0    0  501 -0.00000000000E+00 -0.00000000000E+00 -0.77912434243E+00  0.77912434243E+00  0.00000000000E+00 0.  1.
          1    1    1    2  502    0  0.57852912492E+01 -0.22894113869E+02  0.24117836915E+03  0.24233162359E+03  0.00000000000E+00 0.  1.
         -1    1    1    2    0  501 -0.57852912492E+01  0.22894113869E+02  0.68821474372E+03  0.68861973796E+03  0.00000000000E+00 0. -1.
</event>
<event>
 4    1  0.6718357E+001  0.2777781E+02  0.7546771E-02  0.1439947E+00
          2   -1    0    0  502    0  0.00000000000E+00  0.00000000000E+00  0.46122377072E+03  0.46122377072E+03  0.00000000000E+00 0. -1.
         -2   -1    0    0    0  501 -0.00000000000E+00 -0.00000000000E+00 -0.18156158537E+01  0.18156158537E+01  0.00000000000E+00 0.  1.
          1    1    1    2  502    0 -0.10926618044E+02 -0.25538517056E+02  0.16480662749E+03  0.16713117991E+03  0.00000000000E+00 0. -1.
         -1    1    1    2    0  501  0.10926618044E+02  0.25538517056E+02  0.29460152738E+03  0.29590820666E+03  0.00000000000E+00 0.  1.
</event>
<event>
 4    1  0.6718357E+001  0.4785996E+02  0.7546771E-02  0.1307727E+00
          2   -1    0    0  502    0  0.00000000000E+00  0.00000000000E+00  0.20758743049E+04  0.20758743049E+04  0.00000000000E+00 0.  1.
         -2   -1    0    0    0  501 -0.00000000000E+00 -0.00000000000E+00 -0.12426777111E+01  0.12426777111E+01  0.00000000000E+00 0. -1.
          1    1    1    2  502    0 -0.27806097552E+02  0.38953780931E+02  0.68965947506E+03  0.69131813780E+03  0.00000000000E+00 0. -1.
         -1    1    1    2    0  501  0.27806097552E+02 -0.38953780931E+02  0.13849721522E+04  0.13857988449E+04  0.00000000000E+00 0.  1.
</event>
<event>
 4    1  0.6718357E+001  0.2027559E+02  0.7546771E-02  0.1529864E+00
          2   -1    0    0  502    0  0.00000000000E+00  0.00000000000E+00  0.44696563314E+03  0.44696563314E+03  0.00000000000E+00 0. -1.
         -2   -1    0    0    0  501 -0.00000000000E+00 -0.00000000000E+00 -0.11721880628E+01  0.11721880628E+01  0.00000000000E+00 0.  1.
          1    1    1    2  502    0  0.19656058032E+02 -0.49738119883E+01  0.11891547568E+03  0.12063162844E+03  0.00000000000E+00 0.  1.
         -1    1    1    2    0  501 -0.19656058032E+02  0.49738119883E+01  0.32687796940E+03  0.32750619277E+03  0.00000000000E+00 0. -1.
</event>
<event>
 4    1  0.6718357E+001  0.2237481E+02  0.7546771E-02  0.1500502E+00
          2   -1    0    0  502    0  0.00000000000E+00  0.00000000000E+00  0.80182936636E+02  0.80182936636E+02  0.00000000000E+00 0. -1.
         -2   -1    0    0    0  501 -0.00000000000E+00 -0.00000000000E+00 -0.79543445065E+01  0.79543445065E+01  0.00000000000E+00 0.  1.
          1    1    1    2  502    0 -0.20908102019E+02 -0.79676451027E+01  0.15677302869E+02  0.27320503724E+02  0.00000000000E+00 0.  1.
         -1    1    1    2    0  501  0.20908102019E+02  0.79676451027E+01  0.56551289261E+02  0.60816777418E+02  0.00000000000E+00 0. -1.
</event>
<event>
 4    1  0.6718357E+001  0.3759955E+02  0.7546771E-02  0.1363157E+00
          2   -1    0    0  502    0  0.00000000000E+00  0.00000000000E+00  0.60823669332E+03  0.60823669332E+03  0.00000000000E+00 0.  1.
         -2   -1    0    0    0  501 -0.00000000000E+00 -0.00000000000E+00 -0.25874243931E+01  0.25874243931E+01  0.00000000000E+00 0. -1.
          1    1    1    2  502    0  0.26886226529E+02  0.26284151837E+02  0.20543086356E+03  0.20884339950E+03  0.00000000000E+00 0. -1.
         -1    1    1    2    0  501 -0.26886226529E+02 -0.26284151837E+02  0.40021840537E+03  0.40198071821E+03  0.00000000000E+00 0.  1.
</event>
<event>
 4    1  0.6718357E+001  0.2512271E+02  0.7546771E-02  0.1467435E+00
          2   -1    0    0  502    0  0.00000000000E+00  0.00000000000E+00  0.33639627593E+01  0.33639627593E+01  0.00000000000E+00 0. -1.
         -2   -1    0    0    0  501 -0.00000000000E+00 -0.00000000000E+00 -0.26408907154E+03  0.26408907154E+03  0.00000000000E+00 0.  1.
          1    1    1    2  502    0 -0.15502069645E+02  0.19769578403E+02 -0.58404054086E+02  0.63578171782E+02  0.00000000000E+00 0. -1.
         -1    1    1    2    0  501  0.15502069645E+02 -0.19769578403E+02 -0.20232105469E+03  0.20387486252E+03  0.00000000000E+00 0.  1.
</event>
<event>
 4    1  0.6718357E+001  0.2197108E+02  0.7546771E-02  0.1505839E+00
          2   -1    0    0  502    0  0.00000000000E+00  0.00000000000E+00  0.23120791961E+03  0.23120791961E+03  0.00000000000E+00 0. -1.
         -2   -1    0    0    0  501 -0.00000000000E+00 -0.00000000000E+00 -0.21231972240E+01  0.21231972240E+01  0.00000000000E+00 0.  1.
          1    1    1    2  502    0 -0.94884588120E+01 -0.19816597804E+02  0.12959456406E+03  0.13144382615E+03  0.00000000000E+00 0. -1.
         -1    1    1    2    0  501  0.94884588120E+01  0.19816597804E+02  0.99490158322E+02  0.10188729068E+03  0.00000000000E+00 0.  1.
</event>
<event>
 4    1  0.6718357E+001  0.2422002E+02  0.7546771E-02  0.1477721E+00
          2   -1    0    0  502    0  0.00000000000E+00  0.00000000000E+00  0.18761120997E+04  0.18761120997E+04  0.00000000000E+00 0.  1.
         -2   -1    0    0    0  501 -0.00000000000E+00 -0.00000000000E+00 -0.10014275019E+01  0.10014275019E+01  0.00000000000E+00 0. -1.
          1    1    1    2  502    0  0.61550631729E+01 -0.23424867447E+02  0.15919073618E+03  0.16102266829E+03  0.00000000000E+00 0. -1.
         -1    1    1    2    0  501 -0.61550631729E+01  0.23424867447E+02  0.17159199360E+04  0.17160908589E+04  0.00000000000E+00 0.  1.
</event>
<event>
 4    1  0.6718357E+001  0.2261725E+02  0.7546771E-02  0.1497361E+00
          2   -1    0    0  502    0  0.00000000000E+00  0.00000000000E+00  0.52357362306E+03  0.52357362306E+03  0.00000000000E+00 0.  1.
         -2   -1    0    0    0  501 -0.00000000000E+00 -0.00000000000E+00 -0.27168022395E+01  0.27168022395E+01  0.00000000000E+00 0. -1.
          1    1    1    2  502    0  0.65918938989E+01 -0.21635317785E+02  0.49849754112E+02  0.54740643272E+02  0.00000000000E+00 0. -1.
         -1    1    1    2    0  501 -0.65918938989E+01  0.21635317785E+02  0.47100706671E+03  0.47154978203E+03  0.00000000000E+00 0.  1.
</event>
<event>
 4    1  0.6718357E+001  0.3494169E+02  0.7546771E-02  0.1380974E+00
          2   -1    0    0  502    0  0.00000000000E+00  0.00000000000E+00  0.48376681782E+02  0.48376681782E+02  0.00000000000E+00 0.  1.
         -2   -1    0    0    0  501 -0.00000000000E+00 -0.00000000000E+00 -0.25787749790E+02  0.25787749790E+02  0.00000000000E+00 0. -1.
          1    1    1    2  502    0 -0.32378947742E+02 -0.13134904513E+02  0.58792886177E+01  0.35432866213E+02  0.00000000000E+00 0. -1.
         -1    1    1    2    0  501  0.32378947742E+02  0.13134904513E+02  0.16709643375E+02  0.38731565359E+02  0.00000000000E+00 0.  1.
</event>
<event>
 4    1  0.6718357E+001  0.2151302E+02  0.7546771E-02  0.1512065E+00
          2   -1    0    0  502    0  0.00000000000E+00  0.00000000000E+00  0.25475106231E+03  0.25475106231E+03  0.00000000000E+00 0.  1.
         -2   -1    0    0    0  501 -0.00000000000E+00 -0.00000000000E+00 -0.85398504463E+01  0.85398504463E+01  0.00000000000E+00 0. -1.
          1    1    1    2  502    0  0.18326581807E+02 -0.11267053421E+02  0.23991201425E+03  0.24087462439E+03  0.00000000000E+00 0.  1.
         -1    1    1    2    0  501 -0.18326581807E+02  0.11267053421E+02  0.62991976139E+01  0.22416288366E+02  0.00000000000E+00 0. -1.
</event>
<event>
 4    1  0.6718357E+001  0.2433774E+02  0.7546771E-02  0.1476350E+00
          2   -1    0    0  502    0  0.00000000000E+00  0.00000000000E+00  0.34168437811E+03  0.34168437811E+03  0.00000000000E+00 0. -1.
         -2   -1    0    0    0  501 -0.00000000000E+00 -0.00000000000E+00 -0.30238001255E+01  0.30238001255E+01  0.00000000000E+00 0.  1.
          1    1    1    2  502    0 -0.13188876827E+01 -0.24301972917E+02  0.56744702407E+02  0.61743717119E+02  0.00000000000E+00 0.  1.
         -1    1    1    2    0  501  0.13188876827E+01  0.24301972917E+02  0.28191587557E+03  0.28296446111E+03  0.00000000000E+00 0. -1.
</event>
<event>
 4    1  0.6718357E+001  0.2082817E+02  0.7546771E-02  0.1521732E+00
          2   -1    0    0  502    0  0.00000000000E+00  0.00000000000E+00  0.47449433925E+02  0.47449433925E+02  0.00000000000E+00 0. -1.
         -2   -1    0    0    0  501 -0.00000000000E+00 -0.00000000000E+00 -0.29663558809E+02  0.29663558809E+02  0.00000000000E+00 0.  1.
          1    1    1    2  502    0  0.20669695311E+02 -0.25644116866E+01 -0.23175992221E+02  0.31159896133E+02  0.00000000000E+00 0.  1.
         -1    1    1    2    0  501 -0.20669695311E+02  0.25644116866E+01  0.40961867336E+02  0.45953096601E+02  0.00000000000E+00 0. -1.
</event>
<event>
 4    1  0.6718357E+001  0.2164509E+02  0.7546771E-02  0.1510251E+00
          2   -1    0    0  502    0  0.00000000000E+00  0.00000000000E+00  0.14847324621E+04  0.14847324621E+04  0.00000000000E+00 0.  1.
         -2   -1    0    0    0  501 -0.00000000000E+00 -0.00000000000E+00 -0.31555198437E+00  0.31555198437E+00  0.00000000000E+00 0. -1.
          1    1    1    2  502    0 -0.10613610058E+02 -0.18864281224E+02  0.74148066101E+03  0.74179652229E+03  0.00000000000E+00 0.  1.
         -1    1    1    2    0  501  0.10613610058E+02  0.18864281224E+02  0.74293624910E+03  0.74325149179E+03  0.00000000000E+00 0. -1.
</event>
<event>
 4    1  0.6718357E+001  0.2038017E+02  0.7546771E-02  0.1528301E+00
          2   -1    0    0  502    0  0.00000000000E+00  0.00000000000E+00  0.71918371262E+01  0.71918371262E+01  0.00000000000E+00 0.  1.
         -2   -1    0    0    0  501 -0.00000000000E+00 -0.00000000000E+00 -0.74309677233E+02  0.74309677233E+02  0.00000000000E+00 0. -1.
          1    1    1    2  502    0 -0.14475099299E+02  0.14346526418E+02 -0.52794154695E+02  0.56591289877E+02  0.00000000000E+00 0. -1.
         -1    1    1    2    0  501  0.14475099299E+02 -0.14346526418E+02 -0.14323685411E+02  0.24910224482E+02  0.00000000000E+00 0.  1.
</event>
<event>
 4    1  0.6718357E+001  0.7277832E+02  0.7546771E-02  0.1221685E+00
          2   -1    0    0  502    0  0.00000000000E+00  0.00000000000E+00  0.62699388189E+03  0.62699388189E+03  0.00000000000E+00 0. -1.
         -2   -1    0    0    0  501 -0.00000000000E+00 -0.00000000000E+00 -0.85090552210E+01  0.85090552210E+01  0.00000000000E+00 0.  1.
          1    1    1    2  502    0  0.53906397942E+02  0.48895640010E+02  0.33621480361E+03  0.34400156616E+03  0.00000000000E+00 0.  1.
         -1    1    1    2    0  501 -0.53906397942E+02 -0.48895640010E+02  0.28227002306E+03  0.29150137096E+03  0.00000000000E+00 0. -1.
</event>
<event>
 4    1  0.6718357E+001  0.2342749E+02  0.7546771E-02  0.1487199E+00
          2   -1    0    0  502    0  0.00000000000E+00  0.00000000000E+00  0.88650189551E+00  0.88650189551E+00  0.00000000000E+00 0.  1.
         -2   -1    0    0    0  501 -0.00000000000E+00 -0.00000000000E+00 -0.62927652005E+03  0.62927652005E+03  0.00000000000E+00 0. -1.
          1    1    1    2  502    0 -0.24054182192E+01 -0.23303673821E+02 -0.27415756693E+03  0.27515671672E+03  0.00000000000E+00 0. -1.
         -1    1    1    2    0  501  0.24054182192E+01  0.23303673821E+02 -0.35423245122E+03  0.35500630522E+03  0.00000000000E+00 0.  1.
</event>
<event>
 4    1  0.6718357E+001  0.2487581E+02  0.7546771E-02  0.1470198E+00
          2   -1    0    0  502    0  0.00000000000E+00  0.00000000000E+00  0.23924707788E+02  0.23924707788E+02  0.00000000000E+00 0.  1.
         -2   -1    0    0    0  501 -0.00000000000E+00 -0.00000000000E+00 -0.61250869910E+02  0.61250869910E+02  0.00000000000E+00 0. -1.
          1    1    1    2  502    0 -0.46317762952E+01  0.24440797965E+02 -0.51033296910E+02  0.56773262636E+02  0.00000000000E+00 0. -1.
         -1    1    1    2    0  501  0.46317762952E+01 -0.24440797965E+02  0.13707134787E+02  0.28402315062E+02  0.00000000000E+00 0.  1.
</event>
<event>
 4    1  0.6718357E+001  0.2036369E+02  0.7546771E-02  0.1528547E+00
          2   -1    0    0  502    0  0.00000000000E+00  0.00000000000E+00  0.14951834414E+03  0.14951834414E+03  0.00000000000E+00 0.  1.
         -2   -1    0    0    0  501 -0.00000000000E+00 -0.00000000000E+00 -0.29766494869E+01  0.29766494869E+01  0.00000000000E+00 0. -1.
          1    1    1    2  502    0  0.15512795323E+02  0.13192155107E+02  0.93193008820E+02  0.95391910915E+02  0.00000000000E+00 0.  1.
         -1    1    1    2    0  501 -0.15512795323E+02 -0.13192155107E+02  0.53348685836E+02  0.57103082715E+02  0.00000000000E+00 0. -1.
</event>
<event>
 4    1  0.6718357E+001  0.2066456E+02  0.7546771E-02  0.1524108E+00
          2   -1    0    0  502    0  0.00000000000E+00  0.00000000000E+00  0.62987992091E+01  0.62987992091E+01  0.00000000000E+00 0.  1.
         -2   -1    0    0    0  501 -0.00000000000E+00 -0.00000000000E+00 -0.85069770803E+02  0.85069770803E+02  0.00000000000E+00 0. -1.
          1    1    1    2  502    0 -0.31367377077E+01  0.20425101451E+02 -0.18798548905E+02  0.27935807374E+02  0.00000000000E+00 0.  1.
         -1    1    1    2    0  501  0.31367377077E+01 -0.20425101451E+02 -0.59972422689E+02  0.63432762638E+02  0.00000000000E+00 0. -1.
</event>
<event>
 4    1  0.6718357E+001  0.3676328E+02  0.7546771E-02  0.1368573E+00
          2   -1    0    0  502    0  0.00000000000E+00  0.00000000000E+00  0.19895927216E+03  0.19895927216E+03  0.00000000000E+00 0.  1.
         -2   -1    0    0    0  501 -0.00000000000E+00 -0.00000000000E+00 -0.19859640520E+02  0.19859640520E+02  0.00000000000E+00 0. -1.
          1    1    1    2  502    0  0.35412441451E+02  0.98740963978E+01  0.17829615229E+03  0.18204685307E+03  0.00000000000E+00 0.  1.
         -1    1    1    2    0  501 -0.35412441451E+02 -0.98740963978E+01  0.80347934818E+00  0.36772059614E+02  0.00000000000E+00 0. -1.
</event>
<event>
 4    1  0.6718357E+001  0.2302352E+02  0.7546771E-02  0.1492203E+00
          2   -1    0    0  502    0  0.00000000000E+00  0.00000000000E+00  0.21107944923E+02  0.21107944923E+02  0.00000000000E+00 0. -1.
         -2   -1    0    0    0  501 -0.00000000000E+00 -0.00000000000E+00 -0.29765452838E+02  0.29765452838E+02  0.00000000000E+00 0.  1.
          1    1    1    2  502    0 -0.16443213002E+02  0.16115311496E+02 -0.14385289003E+02  0.27148094926E+02  0.00000000000E+00 0.  1.
         -1    1    1    2    0  501  0.16443213002E+02 -0.16115311496E+02  0.57277810874E+01  0.23725302835E+02  0.00000000000E+00 0. -1.
</event>
<event>
 4    1  0.6718357E+001  0.2187152E+02  0.7546771E-02  0.1507176E+00
          2   -1    0    0  502    0  0.00000000000E+00  0.00000000000E+00  0.58044887734E+03  0.58044887734E+03  0.00000000000E+00 0. -1.
         -2   -1    0    0    0  501 -0.00000000000E+00 -0.00000000000E+00 -0.83118500103E+00  0.83118500103E+00  0.00000000000E+00 0.  1.
          1    1    1    2  502    0  0.24091858264E+01  0.21738432040E+02  0.26302661179E+03  0.26393438979E+03  0.00000000000E+00 0.  1.
         -1    1    1    2    0  501 -0.24091858264E+01 -0.21738432040E+02  0.31659108054E+03  0.31734567255E+03  0.00000000000E+00 0. -1.
</event>
<event>
 4    1  0.6718357E+001  0.6037588E+02  0.7546771E-02  0.1258561E+00
          2   -1    0    0  502    0  0.00000000000E+00  0.00000000000E+00  0.59793624202E+03  0.59793624202E+03  0.00000000000E+00 0. -1.
         -2   -1    0    0    0  501 -0.00000000000E+00 -0.00000000000E+00 -0.75482423798E+01  0.75482423798E+01  0.00000000000E+00 0.  1.
          1    1    1    2  502    0  0.59771210121E+02 -0.85234620042E+01  0.16242009548E+03  0.17327877648E+03  0.00000000000E+00 0.  1.
         -1    1    1    2    0  501 -0.59771210121E+02  0.85234620042E+01  0.42796790416E+03  0.43220570792E+03  0.00000000000E+00 0. -1.
</event>
<event>
 4    1  0.6718357E+001  0.3530110E+02  0.7546771E-02  0.1378459E+00
          2   -1    0    0  502    0  0.00000000000E+00  0.00000000000E+00  0.18828937723E+04  0.18828937723E+04  0.00000000000E+00 0. -1.
         -2   -1    0    0    0  501 -0.00000000000E+00 -0.00000000000E+00 -0.79176545597E+00  0.79176545597E+00  0.00000000000E+00 0.  1.
          1    1    1    2  502    0 -0.26404278800E+02  0.23430354869E+02  0.55951684762E+03  0.56062935193E+03  0.00000000000E+00 0.  1.
         -1    1    1    2    0  501  0.26404278800E+02 -0.23430354869E+02  0.13225851592E+04  0.13230561858E+04  0.00000000000E+00 0. -1.
</event>
<event>
 4    1  0.6718357E+001  0.2252955E+02  0.7546771E-02  0.1498492E+00
          2   -1    0    0  502    0  0.00000000000E+00  0.00000000000E+00  0.63581973919E+03  0.63581973919E+03  0.00000000000E+00 0.  1.
         -2   -1    0    0    0  501 -0.00000000000E+00 -0.00000000000E+00 -0.13008655055E+01  0.13008655055E+01  0.00000000000E+00 0. -1.
          1    1    1    2  502    0  0.14757566374E+02 -0.17023358501E+02  0.51526071205E+03  0.51575302411E+03  0.00000000000E+00 0.  1.
         -1    1    1    2    0  501 -0.14757566374E+02  0.17023358501E+02  0.11925816164E+03  0.12136758059E+03  0.00000000000E+00 0. -1.
</event>
<event>
 4    1  0.6718357E+001  0.3585755E+02  0.7546771E-02  0.1374633E+00
          2   -1    0    0  502    0  0.00000000000E+00  0.00000000000E+00  0.72618040827E+03  0.72618040827E+03  0.00000000000E+00 0. -1.
         -2   -1    0    0    0  501 -0.00000000000E+00 -0.00000000000E+00 -0.22820788341E+01  0.22820788341E+01  0.00000000000E+00 0.  1.
          1    1    1    2  502    0 -0.17384335682E+02  0.31361584742E+02  0.53438681028E+03  0.53558848673E+03  0.00000000000E+00 0. -1.
         -1    1    1    2    0  501  0.17384335682E+02 -0.31361584742E+02  0.18951151916E+03  0.19287400037E+03  0.00000000000E+00 0.  1.
</event>
<event>
 4    1  0.6718357E+001  0.3047832E+02  0.7546771E-02  0.1415485E+00
          2   -1    0    0  502    0  0.00000000000E+00  0.00000000000E+00  0.91920460046E+03  0.91920460046E+03  0.00000000000E+00 0.  1.
         -2   -1    0    0    0  501 -0.00000000000E+00 -0.00000000000E+00 -0.15472808492E+01  0.15472808492E+01  0.00000000000E+00 0. -1.
          1    1    1    2  502    0 -0.26447062026E+02 -0.15148624715E+02  0.18768777682E+03  0.19014633704E+03  0.00000000000E+00 0. -1.
         -1    1    1    2    0  501  0.26447062026E+02  0.15148624715E+02  0.72996954279E+03  0.73060554427E+03  0.00000000000E+00 0.  1.
</event>
<event>
 4    1  0.6718357E+001  0.2141087E+02  0.7546771E-02  0.1513479E+00
          2   -1    0    0  502    0  0.00000000000E+00  0.00000000000E+00  0.50763761475E+01  0.50763761475E+01  0.00000000000E+00 0. -1.
         -2   -1    0    0    0  501 -0.00000000000E+00 -0.00000000000E+00 -0.92468486447E+02  0.92468486447E+02  0.00000000000E+00 0.  1.
          1    1    1    2  502    0 -0.16698833344E+02 -0.13400540821E+02 -0.36236932393E+02  0.42089675678E+02  0.00000000000E+00 0. -1.
         -1    1    1    2    0  501  0.16698833344E+02  0.13400540821E+02 -0.51155177906E+02  0.55455186917E+02  0.00000000000E+00 0.  1.
</event>
<event>
 4    1  0.6718357E+001  0.2112454E+02  0.7546771E-02  0.1517494E+00
          2   -1    0    0  502    0  0.00000000000E+00  0.00000000000E+00  0.33424946071E+02  0.33424946071E+02  0.00000000000E+00 0. -1.
         -2   -1    0    0    0  501 -0.00000000000E+00 -0.00000000000E+00 -0.13403326588E+02  0.13403326588E+02  0.00000000000E+00 0.  1.
          1    1    1    2  502    0  0.16023636552E+02  0.13765516290E+02  0.85436347620E+01  0.22786839667E+02  0.00000000000E+00 0. -1.
         -1    1    1    2    0  501 -0.16023636552E+02 -0.13765516290E+02  0.11477984720E+02  0.24041432992E+02  0.00000000000E+00 0.  1.
</event>
<event>
 4    1  0.6718357E+001  0.3610443E+02  0.7546771E-02  0.1372961E+00
          2   -1    0    0  502    0  0.00000000000E+00  0.00000000000E+00  0.16693932184E+04  0.16693932184E+04  0.00000000000E+00 0. -1.
         -2   -1    0    0    0  501 -0.00000000000E+00 -0.00000000000E+00 -0.82991623225E+00  0.82991623225E+00  0.00000000000E+00 0.  1.
          1    1    1    2  502    0 -0.30617640753E+02 -0.19133481753E+02  0.10373583975E+04  0.10379865003E+04  0.00000000000E+00 0.  1.
         -1    1    1    2    0  501  0.30617640753E+02  0.19133481753E+02  0.63120490464E+03  0.63223663425E+03  0.00000000000E+00 0. -1.
</event>
<event>
 4    1  0.6718357E+001  0.2193073E+02  0.7546771E-02  0.1506380E+00
          2   -1    0    0  502    0  0.00000000000E+00  0.00000000000E+00  0.51462552741E+03  0.51462552741E+03  0.00000000000E+00 0.  1.
         -2   -1    0    0    0  501 -0.00000000000E+00 -0.00000000000E+00 -0.93643993289E+00  0.93643993289E+00  0.00000000000E+00 0. -1.
          1    1    1    2  502    0 -0.17745127853E+02  0.12886709814E+02  0.26834417895E+03  0.26923884421E+03  0.00000000000E+00 0.  1.
         -1    1    1    2    0  501  0.17745127853E+02 -0.12886709814E+02  0.24534490853E+03  0.24632312314E+03  0.00000000000E+00 0. -1.
</event>
<event>
 4    1  0.6718357E+001  0.3944714E+02  0.7546771E-02  0.1351756E+00
          2   -1    0    0  502    0  0.00000000000E+00  0.00000000000E+00  0.16587649683E+03  0.16587649683E+03  0.00000000000E+00 0.  1.
         -2   -1    0    0    0  501 -0.00000000000E+00 -0.00000000000E+00 -0.97072351838E+01  0.97072351838E+01  0.00000000000E+00 0. -1.
          1    1    1    2  502    0 -0.45031099201E+01 -0.39189267636E+02  0.94180517839E+02  0.10210801456E+03  0.00000000000E+00 0.  1.
         -1    1    1    2    0  501  0.45031099201E+01  0.39189267636E+02  0.61988743811E+02  0.73475717458E+02  0.00000000000E+00 0. -1.
</event>
<event>
 4    1  0.6718357E+001  0.2665453E+02  0.7546771E-02  0.1451110E+00
          2   -1    0    0  502    0  0.00000000000E+00  0.00000000000E+00  0.45461092482E+02  0.45461092482E+02  0.00000000000E+00 0.  1.
         -2   -1    0    0    0  501 -0.00000000000E+00 -0.00000000000E+00 -0.21020394660E+02  0.21020394660E+02  0.00000000000E+00 0. -1.
          1    1    1    2  502    0 -0.13525706398E+02 -0.22967790490E+02  0.29056497272E+02  0.39430244322E+02  0.00000000000E+00 0.  1.
         -1    1    1    2    0  501  0.13525706398E+02  0.22967790490E+02 -0.46157994499E+01  0.27051242820E+02  0.00000000000E+00 0. -1.
</event>
<event>
 4    1  0.6718357E+001  0.5844501E+02  0.7546771E-02  0.1265209E+00
          2   -1    0    0  502    0  0.00000000000E+00  0.00000000000E+00  0.13850851597E+04  0.13850851597E+04  0.00000000000E+00 0.  1.
         -2   -1    0    0    0  501 -0.00000000000E+00 -0.00000000000E+00 -0.25439753464E+01  0.25439753464E+01  0.00000000000E+00 0. -1.
          1    1    1    2  502    0 -0.41394721423E+02 -0.41258897404E+02  0.81262735802E+03  0.81472636056E+03  0.00000000000E+00 0.  1.
         -1    1    1    2    0  501  0.41394721423E+02  0.41258897404E+02  0.56991382637E+03  0.57290277453E+03  0.00000000000E+00 0. -1.
</event>
<event>
 4    1  0.6718357E+001  0.2203425E+02  0.7546771E-02  0.1504995E+00
          2   -1    0    0  502    0  0.00000000000E+00  0.00000000000E+00  0.28516858371E+04  0.28516858371E+04  0.00000000000E+00 0.  1.
         -2   -1    0    0    0  501 -0.00000000000E+00 -0.00000000000E+00 -0.17205107259E+00  0.17205107259E+00  0.00000000000E+00 0. -1.
          1    1    1    2  502    0 -0.15215205186E+02  0.15937559634E+02  0.12799882765E+04  0.12801779158E+04  0.00000000000E+00 0.  1.
         -1    1    1    2    0  501  0.15215205186E+02 -0.15937559634E+02  0.15715255096E+04  0.15716799724E+04  0.00000000000E+00 0. -1.
</event>
<event>
 4    1  0.6718357E+001  0.3434360E+02  0.7546771E-02  0.1385237E+00
          2   -1    0    0  502    0  0.00000000000E+00  0.00000000000E+00  0.11460149475E+04  0.11460149475E+04  0.00000000000E+00 0. -1.
         -2   -1    0    0    0  501 -0.00000000000E+00 -0.00000000000E+00 -0.55743639826E+01  0.55743639826E+01  0.00000000000E+00 0.  1.
          1    1    1    2  502    0 -0.10508366052E+02 -0.32696436387E+02  0.10901499296E+04  0.10906907681E+04  0.00000000000E+00 0. -1.
         -1    1    1    2    0  501  0.10508366052E+02  0.32696436387E+02  0.50290653930E+02  0.60898543350E+02  0.00000000000E+00 0.  1.
</event>
<event>
 4    1  0.6718357E+001  0.2055223E+02  0.7546771E-02  0.1525755E+00
          2   -1    0    0  502    0  0.00000000000E+00  0.00000000000E+00  0.98338008996E+03  0.98338008996E+03  0.00000000000E+00 0. -1.
         -2   -1    0    0    0  501 -0.00000000000E+00 -0.00000000000E+00 -0.44300758713E+00  0.44300758713E+00  0.00000000000E+00 0.  1.
          1    1    1    2  502    0 -0.20494712665E+02 -0.15364894997E+01  0.57725953072E+03  0.57762527633E+03  0.00000000000E+00 0. -1.
         -1    1    1    2    0  501  0.20494712665E+02  0.15364894997E+01  0.40567755165E+03  0.40619782122E+03  0.00000000000E+00 0.  1.
</event>
<event>
 4    1  0.6718357E+001  0.3069539E+02  0.7546771E-02  0.1413648E+00
          2   -1    0    0  502    0  0.00000000000E+00  0.00000000000E+00  0.22342050473E+04  0.22342050473E+04  0.00000000000E+00 0. -1.
         -2   -1    0    0    0  501 -0.00000000000E+00 -0.00000000000E+00 -0.52859955795E+00  0.52859955795E+00  0.00000000000E+00 0.  1.
          1    1    1    2  502    0  0.30501660211E+02 -0.34432298070E+01  0.16192749500E+04  0.16195658587E+04  0.00000000000E+00 0. -1.
         -1    1    1    2    0  501 -0.30501660211E+02  0.34432298070E+01  0.61440149778E+03  0.61516778816E+03  0.00000000000E+00 0.  1.
</event>
<event>
 4    1  0.6718357E+001  0.2330683E+02  0.7546771E-02  0.1488681E+00
          2   -1    0    0  502    0  0.00000000000E+00  0.00000000000E+00  0.13584030446E+04  0.13584030446E+04  0.00000000000E+00 0. -1.
         -2   -1    0    0    0  501 -0.00000000000E+00 -0.00000000000E+00 -0.58147011687E+00  0.58147011687E+00  0.00000000000E+00 0.  1.
          1    1    1    2  502    0 -0.22414470966E+02 -0.63874723033E+01  0.10586260234E+04  0.10588825552E+04  0.00000000000E+00 0. -1.
         -1    1    1    2    0  501  0.22414470966E+02  0.63874723033E+01  0.29919555106E+03  0.30010195949E+03  0.00000000000E+00 0.  1.
</event>
<event>
 4    1  0.6718357E+001  0.2066489E+02  0.7546771E-02  0.1524104E+00
          2   -1    0    0  502    0  0.00000000000E+00  0.00000000000E+00  0.47604338294E+03  0.47604338294E+03  0.00000000000E+00 0. -1.
         -2   -1    0    0    0  501 -0.00000000000E+00 -0.00000000000E+00 -0.16402386793E+01  0.16402386793E+01  0.00000000000E+00 0.  1.
          1    1    1    2  502    0  0.72634955496E+01  0.19346294348E+02  0.39797145003E+03  0.39850760659E+03  0.00000000000E+00 0. -1.
         -1    1    1    2    0  501 -0.72634955496E+01 -0.19346294348E+02  0.76431694223E+02  0.79176015020E+02  0.00000000000E+00 0.  1.
</event>
<event>
 4    1  0.6718357E+001  0.2136456E+02  0.7546771E-02  0.1514123E+00
          2   -1    0    0  502    0  0.00000000000E+00  0.00000000000E+00  0.15837844201E+04  0.15837844201E+04  0.00000000000E+00 0.  1.
         -2   -1    0    0    0  501 -0.00000000000E+00 -0.00000000000E+00 -0.44356100179E+00  0.44356100179E+00  0.00000000000E+00 0. -1.
          1    1    1    2  502    0  0.23846162976E+01 -0.21231061716E+02  0.32287427933E+03  0.32358035266E+03  0.00000000000E+00 0. -1.
         -1    1    1    2    0  501 -0.23846162976E+01  0.21231061716E+02  0.12604665798E+04  0.12606476284E+04  0.00000000000E+00 0.  1.
</event>
<event>
 4    1  0.6718357E+001  0.2325630E+02  0.7546771E-02  0.1489305E+00
          2   -1    0    0  502    0  0.00000000000E+00  0.00000000000E+00  0.11786540090E+03  0.11786540090E+03  0.00000000000E+00 0. -1.
         -2   -1    0    0    0  501 -0.00000000000E+00 -0.00000000000E+00 -0.66024408711E+01  0.66024408711E+01  0.00000000000E+00 0.  1.
          1    1    1    2  502    0  0.51471190140E+01 -0.22679567134E+02  0.21262184859E+02  0.31510888666E+02  0.00000000000E+00 0.  1.
         -1    1    1    2    0  501 -0.51471190140E+01  0.22679567134E+02  0.90000775171E+02  0.92956953107E+02  0.00000000000E+00 0. -1.
</event>
<event>
 4    1  0.6718357E+001  0.2753949E+02  0.7546771E-02  0.1442263E+00
          2   -1    0    0  502    0  0.00000000000E+00  0.00000000000E+00  0.20810425302E+04  0.20810425302E+04  0.00000000000E+00 0.  1.
         -2   -1    0    0    0  501 -0.00000000000E+00 -0.00000000000E+00 -0.38297849077E+00  0.38297849077E+00  0.00000000000E+00 0. -1.
          1    1    1    2  502    0  0.17928035599E+01  0.27481077185E+02  0.12692754362E+04  0.12695741635E+04  0.00000000000E+00 0.  1.
         -1    1    1    2    0  501 -0.17928035599E+01 -0.27481077185E+02  0.81138411553E+03  0.81185134519E+03  0.00000000000E+00 0. -1.
</event>
<event>
 4    1  0.6718357E+001  0.2531783E+02  0.7546771E-02  0.1465279E+00
          2   -1    0    0  502    0  0.00000000000E+00  0.00000000000E+00  0.74544934540E+02  0.74544934540E+02  0.00000000000E+00 0. -1.
         -2   -1    0    0    0  501 -0.00000000000E+00 -0.00000000000E+00 -0.85991465170E+01  0.85991465170E+01  0.00000000000E+00 0.  1.
          1    1    1    2  502    0 -0.23300853305E+02  0.99026758496E+01  0.32688210318E+02  0.41346243451E+02  0.00000000000E+00 0.  1.
         -1    1    1    2    0  501  0.23300853305E+02 -0.99026758496E+01  0.33257577705E+02  0.41797837606E+02  0.00000000000E+00 0. -1.
</event>
<event>
 4    1  0.6718357E+001  0.3043425E+02  0.7546771E-02  0.1415860E+00
          2   -1    0    0  502    0  0.00000000000E+00  0.00000000000E+00  0.55734061315E+02  0.55734061315E+02  0.00000000000E+00 0.  1.
         -2   -1    0    0    0  501 -0.00000000000E+00 -0.00000000000E+00 -0.22568999837E+02  0.22568999837E+02  0.00000000000E+00 0. -1.
          1    1    1    2  502    0 -0.19762384736E+02  0.23145021324E+02 -0.35200305141E+01  0.30637142121E+02  0.00000000000E+00 0. -1.
         -1    1    1    2    0  501  0.19762384736E+02 -0.23145021324E+02  0.36685091992E+02  0.47665919031E+02  0.00000000000E+00 0.  1.
</event>
<event>
 4    1  0.6718357E+001  0.2157312E+02  0.7546771E-02  0.1511237E+00
          2   -1    0    0  502    0  0.00000000000E+00  0.00000000000E+00  0.28279658774E+03  0.28279658774E+03  0.00000000000E+00 0.  1.
         -2   -1    0    0    0  501 -0.00000000000E+00 -0.00000000000E+00 -0.27259074942E+01  0.27259074942E+01  0.00000000000E+00 0. -1.
          1    1    1    2  502    0 -0.20265641547E+02 -0.73961584531E+01  0.50166811828E+02  0.54608684256E+02  0.00000000000E+00 0. -1.
         -1    1    1    2    0  501  0.20265641547E+02  0.73961584531E+01  0.22990386842E+03  0.23091381098E+03  0.00000000000E+00 0.  1.
</event>
<event>
 4    1  0.6718357E+001  0.2073519E+02  0.7546771E-02  0.1523080E+00
          2   -1    0    0  502    0  0.00000000000E+00  0.00000000000E+00  0.13192145878E+04  0.13192145878E+04  0.00000000000E+00 0. -1.
         -2   -1    0    0    0  501 -0.00000000000E+00 -0.00000000000E+00 -0.90258397151E+00  0.90258397151E+00  0.00000000000E+00 0.  1.
          1    1    1    2  502    0 -0.11224950260E+02 -0.17434116254E+02  0.13155807211E+03  0.13318210936E+03  0.00000000000E+00 0.  1.
         -1    1    1    2    0  501  0.11224950260E+02  0.17434116254E+02  0.11867539317E+04  0.11869350624E+04  0.00000000000E+00 0. -1.
</event>
<event>
 4    1  0.6718357E+001  0.2487550E+02  0.7546771E-02  0.1470201E+00
          2   -1    0    0  502    0  0.00000000000E+00  0.00000000000E+00  0.27454196639E+04  0.27454196639E+04  0.00000000000E+00 0.  1.
         -2   -1    0    0    0  501 -0.00000000000E+00 -0.00000000000E+00 -0.22595530790E+00  0.22595530790E+00  0.00000000000E+00 0. -1.
          1    1    1    2  502    0  0.24836224441E+02 -0.13973761657E+01  0.14412509506E+04  0.14414656060E+04  0.00000000000E+00 0.  1.
         -1    1    1    2    0  501 -0.24836224441E+02  0.13973761657E+01  0.13039427581E+04  0.13041800133E+04  0.00000000000E+00 0. -1.
</event>
<event>
 4    1  0.6718357E+001  0.2267036E+02  0.7546771E-02  0.1496679E+00
          2   -1    0    0  502    0  0.00000000000E+00  0.00000000000E+00  0.16209984558E+03  0.16209984558E+03  0.00000000000E+00 0. -1.
         -2   -1    0    0    0  501 -0.00000000000E+00 -0.00000000000E+00 -0.32860938932E+01  0.32860938932E+01  0.00000000000E+00 0.  1.
          1    1    1    2  502    0  0.92427953698E+01  0.20700627429E+02  0.63900617703E+02  0.67802906907E+02  0.00000000000E+00 0.  1.
         -1    1    1    2    0  501 -0.92427953698E+01 -0.20700627429E+02  0.94913133988E+02  0.97583032571E+02  0.00000000000E+00 0. -1.
</event>
<event>
 4    1  0.6718357E+001  0.5952482E+02  0.7546771E-02  0.1261456E+00
          2   -1    0    0  502    0  0.00000000000E+00  0.00000000000E+00  0.92030239217E+03  0.92030239217E+03  0.00000000000E+00 0.  1.
         -2   -1    0    0    0  501 -0.00000000000E+00 -0.00000000000E+00 -0.44547558921E+01  0.44547558921E+01  0.00000000000E+00 0. -1.
          1    1    1    2  502    0  0.57075502553E+02 -0.16899436191E+02  0.62828094234E+03  0.63109440375E+03  0.00000000000E+00 0.  1.
         -1    1    1    2    0  501 -0.57075502553E+02  0.16899436191E+02  0.28756669394E+03  0.29366274432E+03  0.00000000000E+00 0. -1.
</event>
<event>
 4    1  0.6718357E+001  0.2500449E+02  0.7546771E-02  0.1468753E+00
          2   -1    0    0  502    0  0.00000000000E+00  0.00000000000E+00  0.14677674602E+03  0.14677674602E+03  0.00000000000E+00 0. -1.
         -2   -1    0    0    0  501 -0.00000000000E+00 -0.00000000000E+00 -0.97111817971E+01  0.97111817971E+01  0.00000000000E+00 0.  1.
          1    1    1    2  502    0  0.23470271400E+02  0.86238577050E+01  0.12715634080E+03  0.12959151040E+03  0.00000000000E+00 0. -1.
         -1    1    1    2    0  501 -0.23470271400E+02 -0.86238577050E+01  0.99092234267E+01  0.26896417424E+02  0.00000000000E+00 0.  1.
</event>
<event>
 4    1  0.6718357E+001  0.3851918E+02  0.7546771E-02  0.1357389E+00
          2   -1    0    0  502    0  0.00000000000E+00  0.00000000000E+00  0.27827966887E+01  0.27827966887E+01  0.00000000000E+00 0.  1.
         -2   -1    0    0    0  501 -0.00000000000E+00 -0.00000000000E+00 -0.97021537249E+03  0.97021537249E+03  0.00000000000E+00 0. -1.
          1    1    1    2  502    0 -0.26643282151E+02  0.27818391162E+02 -0.81023418467E+03  0.81114928428E+03  0.00000000000E+00 0. -1.
         -1    1    1    2    0  501  0.26643282151E+02 -0.27818391162E+02 -0.15719839113E+03  0.16184888491E+03  0.00000000000E+00 0.  1.
</event>
<event>
 4    1  0.6718357E+001  0.4359200E+02  0.7546771E-02  0.1328632E+00
          2   -1    0    0  502    0  0.00000000000E+00  0.00000000000E+00  0.31195131971E+04  0.31195131971E+04  0.00000000000E+00 0.  1.
         -2   -1    0    0    0  501 -0.00000000000E+00 -0.00000000000E+00 -0.43359031854E+01  0.43359031854E+01  0.00000000000E+00 0. -1.
          1    1    1    2  502    0 -0.43372599545E+02  0.43680612600E+01  0.10953258761E+03  0.11788829500E+03  0.00000000000E+00 0. -1.
         -1    1    1    2    0  501  0.43372599545E+02 -0.43680612600E+01  0.30056447063E+04  0.30059608053E+04  0.00000000000E+00 0.  1.
</event>
<event>
 4    1  0.6718357E+001  0.2376136E+02  0.7546771E-02  0.1483153E+00
          2   -1    0    0  502    0  0.00000000000E+00  0.00000000000E+00  0.10209576134E+02  0.10209576134E+02  0.00000000000E+00 0. -1.
         -2   -1    0    0    0  501 -0.00000000000E+00 -0.00000000000E+00 -0.61365212764E+02  0.61365212764E+02  0.00000000000E+00 0.  1.
          1    1    1    2  502    0 -0.76702812791E+01 -0.22489308154E+02 -0.36827692434E+02  0.43827857878E+02  0.00000000000E+00 0.  1.
         -1    1    1    2    0  501  0.76702812791E+01  0.22489308154E+02 -0.14327944196E+02  0.27746931020E+02  0.00000000000E+00 0. -1.
</event>
<event>
 4    1  0.6718357E+001  0.2727169E+02  0.7546771E-02  0.1444898E+00
          2   -1    0    0  502    0  0.00000000000E+00  0.00000000000E+00  0.54326256229E+02  0.54326256229E+02  0.00000000000E+00 0.  1.
         -2   -1    0    0    0  501 -0.00000000000E+00 -0.00000000000E+00 -0.16132160851E+02  0.16132160851E+02  0.00000000000E+00 0. -1.
          1    1    1    2  502    0 -0.15213671864E+02  0.22633813713E+02  0.53909812578E+01  0.27799424701E+02  0.00000000000E+00 0. -1.
         -1    1    1    2    0  501  0.15213671864E+02 -0.22633813713E+02  0.32803114121E+02  0.42658992379E+02  0.00000000000E+00 0.  1.
</event>
<event>
 4    1  0.6718357E+001  0.2051907E+02  0.7546771E-02  0.1526243E+00
          2   -1    0    0  502    0  0.00000000000E+00  0.00000000000E+00  0.48336090485E+03  0.48336090485E+03  0.00000000000E+00 0.  1.
         -2   -1    0    0    0  501 -0.00000000000E+00 -0.00000000000E+00 -0.89664522407E+00  0.89664522407E+00  0.00000000000E+00 0. -1.
          1    1    1    2  502    0  0.50445660903E+01 -0.19889305553E+02  0.20032444400E+03  0.20137257755E+03  0.00000000000E+00 0.  1.
         -1    1    1    2    0  501 -0.50445660903E+01  0.19889305553E+02  0.28213981562E+03  0.28288497252E+03  0.00000000000E+00 0. -1.
</event>
<event>
 4    1  0.6718357E+001  0.2070495E+02  0.7546771E-02  0.1523519E+00
          2   -1    0    0  502    0  0.00000000000E+00  0.00000000000E+00  0.34023040644E+03  0.34023040644E+03  0.00000000000E+00 0. -1.
         -2   -1    0    0    0  501 -0.00000000000E+00 -0.00000000000E+00 -0.13724221806E+01  0.13724221806E+01  0.00000000000E+00 0.  1.
          1    1    1    2  502    0 -0.14192446680E+02 -0.15075460909E+02  0.21831072795E+03  0.21929037600E+03  0.00000000000E+00 0.  1.
         -1    1    1    2    0  501  0.14192446680E+02  0.15075460909E+02  0.12054725630E+03  0.12231245262E+03  0.00000000000E+00 0. -1.
</event>
<event>
 4    1  0.6718357E+001  0.2004516E+02  0.7546771E-02  0.1533346E+00
          2   -1    0    0  502    0  0.00000000000E+00  0.00000000000E+00  0.14460942511E+03  0.14460942511E+03  0.00000000000E+00 0. -1.
         -2   -1    0    0    0  501 -0.00000000000E+00 -0.00000000000E+00 -0.60288692583E+01  0.60288692583E+01  0.00000000000E+00 0.  1.
          1    1    1    2  502    0 -0.10850683534E+02 -0.16854404060E+02  0.12459328399E+03  0.12619546221E+03  0.00000000000E+00 0. -1.
         -1    1    1    2    0  501  0.10850683534E+02  0.16854404060E+02  0.13987271865E+02  0.24442832152E+02  0.00000000000E+00 0.  1.
</event>
<event>
 4    1  0.6718357E+001  0.2673172E+02  0.7546771E-02  0.1450322E+00
          2   -1    0    0  502    0  0.00000000000E+00  0.00000000000E+00  0.26784173424E+02  0.26784173424E+02  0.00000000000E+00 0. -1.
         -2   -1    0    0    0  501 -0.00000000000E+00 -0.00000000000E+00 -0.27764451961E+02  0.27764451961E+02  0.00000000000E+00 0.  1.
          1    1    1    2  502    0 -0.60427488395E+00  0.26724891885E+02 -0.58820119273E+01  0.27371208572E+02  0.00000000000E+00 0. -1.
         -1    1    1    2    0  501  0.60427488395E+00 -0.26724891885E+02  0.49017333900E+01  0.27177416813E+02  0.00000000000E+00 0.  1.
</event>
<event>
 4    1  0.6718357E+001  0.4226144E+02  0.7546771E-02  0.1335720E+00
          2   -1    0    0  502    0  0.00000000000E+00  0.00000000000E+00  0.17091648930E+04  0.17091648930E+04  0.00000000000E+00 0. -1.
         -2   -1    0    0    0  501 -0.00000000000E+00 -0.00000000000E+00 -0.10757156574E+01  0.10757156574E+01  0.00000000000E+00 0.  1.
          1    1    1    2  502    0  0.27290397526E+02 -0.32268613451E+02  0.99860762252E+03  0.99950148222E+03  0.00000000000E+00 0.  1.
         -1    1    1    2    0  501 -0.27290397526E+02  0.32268613451E+02  0.70948155484E+03  0.71073912645E+03  0.00000000000E+00 0. -1.
</event>
<event>
 4    1  0.6718357E+001  0.4119316E+02  0.7546771E-02  0.1341632E+00
          2   -1    0    0  502    0  0.00000000000E+00  0.00000000000E+00  0.70859254321E+02  0.70859254321E+02  0.00000000000E+00 0.  1.
         -2   -1    0    0    0  501 -0.00000000000E+00 -0.00000000000E+00 -0.26632193823E+02  0.26632193823E+02  0.00000000000E+00 0. -1.
          1    1    1    2  502    0 -0.98913170453E+01  0.39987972494E+02  0.66357030627E+01  0.41724197442E+02  0.00000000000E+00 0. -1.
         -1    1    1    2    0  501  0.98913170453E+01 -0.39987972494E+02  0.37591357435E+02  0.55767250702E+02  0.00000000000E+00 0.  1.
</event>
<event>
 4    1  0.6718357E+001  0.2901001E+02  0.7546771E-02  0.1428399E+00
          2   -1    0    0  502    0  0.00000000000E+00  0.00000000000E+00  0.40993697921E+03  0.40993697921E+03  0.00000000000E+00 0.  1.
         -2   -1    0    0    0  501 -0.00000000000E+00 -0.00000000000E+00 -0.22722209898E+01  0.22722209898E+01  0.00000000000E+00 0. -1.
          1    1    1    2  502    0  0.28987311712E+02  0.11474397839E+01  0.13980713990E+03  0.14278521361E+03  0.00000000000E+00 0.  1.
         -1    1    1    2    0  501 -0.28987311712E+02 -0.11474397839E+01  0.26785761832E+03  0.26942398659E+03  0.00000000000E+00 0. -1.
</event>
<event>
 4    1  0.6718357E+001  0.2874578E+02  0.7546771E-02  0.1430818E+00
          2   -1    0    0  502    0  0.00000000000E+00  0.00000000000E+00  0.71910812354E+01  0.71910812354E+01  0.00000000000E+00 0.  1.
         -2   -1    0    0    0  501 -0.00000000000E+00 -0.00000000000E+00 -0.38489781611E+03  0.38489781611E+03  0.00000000000E+00 0. -1.
          1    1    1    2  502    0  0.20234137366E+02  0.20418124600E+02 -0.24660346485E+02  0.37874170828E+02  0.00000000000E+00 0.  1.
         -1    1    1    2    0  501 -0.20234137366E+02 -0.20418124600E+02 -0.35304638839E+03  0.35421472652E+03  0.00000000000E+00 0. -1.
</event>
<event>
 4    1  0.6718357E+001  0.2296943E+02  0.7546771E-02  0.1492882E+00
          2   -1    0    0  502    0  0.00000000000E+00  0.00000000000E+00  0.98538173186E+03  0.98538173186E+03  0.00000000000E+00 0.  1.
         -2   -1    0    0    0  501 -0.00000000000E+00 -0.00000000000E+00 -0.55911683329E+00  0.55911683329E+00  0.00000000000E+00 0. -1.
          1    1    1    2  502    0  0.25038235344E+01  0.22832560211E+02  0.59389529456E+03  0.59433931036E+03  0.00000000000E+00 0.  1.
         -1    1    1    2    0  501 -0.25038235344E+01 -0.22832560211E+02  0.39092732047E+03  0.39160153834E+03  0.00000000000E+00 0. -1.
</event>
<event>
 4    1  0.6718357E+001  0.2323151E+02  0.7546771E-02  0.1489611E+00
          2   -1    0    0  502    0  0.00000000000E+00  0.00000000000E+00  0.57547291745E+02  0.57547291745E+02  0.00000000000E+00 0. -1.
         -2   -1    0    0    0  501 -0.00000000000E+00 -0.00000000000E+00 -0.11885446788E+02  0.11885446788E+02  0.00000000000E+00 0.  1.
          1    1    1    2  502    0  0.24782937560E+01 -0.23098936934E+02  0.68866100328E+01  0.24230728944E+02  0.00000000000E+00 0.  1.
         -1    1    1    2    0  501 -0.24782937560E+01  0.23098936934E+02  0.38775234924E+02  0.45202009588E+02  0.00000000000E+00 0. -1.
</event>
<event>
 4    1  0.6718357E+001  0.2174085E+02  0.7546771E-02  0.1508945E+00
          2   -1    0    0  502    0  0.00000000000E+00  0.00000000000E+00  0.38507300007E+03  0.38507300007E+03  0.00000000000E+00 0. -1.
         -2   -1    0    0    0  501 -0.00000000000E+00 -0.00000000000E+00 -0.13887090494E+01  0.13887090494E+01  0.00000000000E+00 0.  1.
          1    1    1    2  502    0 -0.14728039667E+02 -0.15992171224E+02  0.12599924217E+03  0.12786115016E+03  0.00000000000E+00 0.  1.
         -1    1    1    2    0  501  0.14728039667E+02  0.15992171224E+02  0.25768504885E+03  0.25860055895E+03  0.00000000000E+00 0. -1.
</event>
<event>
 4    1  0.6718357E+001  0.2416176E+02  0.7546771E-02  0.1478403E+00
          2   -1    0    0  502    0  0.00000000000E+00  0.00000000000E+00  0.26508451279E+03  0.26508451279E+03  0.00000000000E+00 0. -1.
         -2   -1    0    0    0  501 -0.00000000000E+00 -0.00000000000E+00 -0.22024152581E+01  0.22024152581E+01  0.00000000000E+00 0.  1.
          1    1    1    2  502    0 -0.92567813006E+00 -0.24144025002E+02  0.13040109246E+03  0.13262064597E+03  0.00000000000E+00 0. -1.
         -1    1    1    2    0  501  0.92567813006E+00  0.24144025002E+02  0.13248100507E+03  0.13466628208E+03  0.00000000000E+00 0.  1.
</event>
<event>
 4    1  0.6718357E+001  0.2537079E+02  0.7546771E-02  0.1464698E+00
          2   -1    0    0  502    0  0.00000000000E+00  0.00000000000E+00  0.32972348794E+03  0.32972348794E+03  0.00000000000E+00 0. -1.
         -2   -1    0    0    0  501 -0.00000000000E+00 -0.00000000000E+00 -0.19877640109E+01  0.19877640109E+01  0.00000000000E+00 0.  1.
          1    1    1    2  502    0 -0.13657236328E+02  0.21381228096E+02  0.18606121819E+03  0.18778299692E+03  0.00000000000E+00 0.  1.
         -1    1    1    2    0  501  0.13657236328E+02 -0.21381228096E+02  0.14167450574E+03  0.14392825503E+03  0.00000000000E+00 0. -1.
</event>
<event>
 4    1  0.6718357E+001  0.2779064E+02  0.7546771E-02  0.1439824E+00
          2   -1    0    0  502    0  0.00000000000E+00  0.00000000000E+00  0.82142840596E+02  0.82142840596E+02  0.00000000000E+00 0. -1.
         -2   -1    0    0    0  501 -0.00000000000E+00 -0.00000000000E+00 -0.11634137903E+02  0.11634137903E+02  0.00000000000E+00 0.  1.
          1    1    1    2  502    0  0.14582907516E+01 -0.27752352002E+02  0.55791712773E+02  0.62330047872E+02  0.00000000000E+00 0. -1.
         -1    1    1    2    0  501 -0.14582907516E+01  0.27752352002E+02  0.14716989919E+02  0.31446930627E+02  0.00000000000E+00 0.  1.
</event>
<event>
 4    1  0.6718357E+001  0.3863247E+02  0.7546771E-02  0.1356691E+00
          2   -1    0    0  502    0  0.00000000000E+00  0.00000000000E+00  0.59069786240E+03  0.59069786240E+03  0.00000000000E+00 0.  1.
         -2   -1    0    0    0  501 -0.00000000000E+00 -0.00000000000E+00 -0.53228072792E+01  0.53228072792E+01  0.00000000000E+00 0. -1.
          1    1    1    2  502    0 -0.36496462738E+02 -0.12667903536E+02  0.76692240936E+02  0.85872972419E+02  0.00000000000E+00 0. -1.
         -1    1    1    2    0  501  0.36496462738E+02  0.12667903536E+02  0.50868281419E+03  0.51014769726E+03  0.00000000000E+00 0.  1.
</event>
<event>
 4    1  0.6718357E+001  0.2908476E+02  0.7546771E-02  0.1427720E+00
          2   -1    0    0  502    0  0.00000000000E+00  0.00000000000E+00  0.24112633193E+04  0.24112633193E+04  0.00000000000E+00 0.  1.
         -2   -1    0    0    0  501 -0.00000000000E+00 -0.00000000000E+00 -0.51034657150E+00  0.51034657150E+00  0.00000000000E+00 0. -1.
          1    1    1    2  502    0 -0.27237592185E+02 -0.10199855784E+02  0.18795755735E+04  0.18798005905E+04  0.00000000000E+00 0.  1.
         -1    1    1    2    0  501  0.27237592185E+02  0.10199855784E+02  0.53117739920E+03  0.53197307536E+03  0.00000000000E+00 0. -1.
</event>
<event>
 4    1  0.6718357E+001  0.2759771E+02  0.7546771E-02  0.1441695E+00
          2   -1    0    0  502    0  0.00000000000E+00  0.00000000000E+00  0.95304139713E+02  0.95304139713E+02  0.00000000000E+00 0.  1.
         -2   -1    0    0    0  501 -0.00000000000E+00 -0.00000000000E+00 -0.79924451955E+01  0.79924451955E+01  0.00000000000E+00 0. -1.
          1    1    1    2  502    0  0.21789227578E+01  0.27511561744E+02  0.43128599536E+02  0.51202635009E+02  0.00000000000E+00 0. -1.
         -1    1    1    2    0  501 -0.21789227578E+01 -0.27511561744E+02  0.44183094981E+02  0.52093949899E+02  0.00000000000E+00 0.  1.
</event>
<event>
 4    1  0.6718357E+001  0.3765474E+02  0.7546771E-02  0.1362805E+00
          2   -1    0    0  502    0  0.00000000000E+00  0.00000000000E+00  0.14239193075E+02  0.14239193075E+02  0.00000000000E+00 0. -1.
         -2   -1    0    0    0  501 -0.00000000000E+00 -0.00000000000E+00 -0.14611184481E+03  0.14611184481E+03  0.00000000000E+00 0.  1.
          1    1    1    2  502    0  0.73580525544E+01  0.36928827902E+02 -0.11118373620E+03  0.11738697740E+03  0.00000000000E+00 0.  1.
         -1    1    1    2    0  501 -0.73580525544E+01 -0.36928827902E+02 -0.20688915540E+02  0.42964060490E+02  0.00000000000E+00 0. -1.
</event>
<event>
 4    1  0.6718357E+001  0.2568486E+02  0.7546771E-02  0.1461286E+00
          2   -1    0    0  502    0  0.00000000000E+00  0.00000000000E+00  0.78328068079E+03  0.78328068079E+03  0.00000000000E+00 0.  1.
         -2   -1    0    0    0  501 -0.00000000000E+00 -0.00000000000E+00 -0.85482795927E+00  0.85482795927E+00  0.00000000000E+00 0. -1.
          1    1    1    2  502    0  0.91176762287E+01 -0.24012077618E+02  0.43878639692E+03  0.43953750012E+03  0.00000000000E+00 0.  1.
         -1    1    1    2    0  501 -0.91176762287E+01  0.24012077618E+02  0.34363945591E+03  0.34459800863E+03  0.00000000000E+00 0. -1.
</event>
<event>
 4    1  0.6718357E+001  0.2424373E+02  0.7546771E-02  0.1477444E+00
          2   -1    0    0  502    0  0.00000000000E+00  0.00000000000E+00  0.12917477719E+03  0.12917477719E+03  0.00000000000E+00 0. -1.
         -2   -1    0    0    0  501 -0.00000000000E+00 -0.00000000000E+00 -0.11431798159E+02  0.11431798159E+02  0.00000000000E+00 0.  1.
          1    1    1    2  502    0  0.31984403639E+01  0.24031822890E+02  0.43250913314E+01  0.24626509034E+02  0.00000000000E+00 0.  1.
         -1    1    1    2    0  501 -0.31984403639E+01 -0.24031822890E+02  0.11341788770E+03  0.11598006632E+03  0.00000000000E+00 0. -1.
</event>
<event>
 4    1  0.6718357E+001  0.2235557E+02  0.7546771E-02  0.1500753E+00
          2   -1    0    0  502    0  0.00000000000E+00  0.00000000000E+00  0.78266734398E+03  0.78266734398E+03  0.00000000000E+00 0. -1.
         -2   -1    0    0    0  501 -0.00000000000E+00 -0.00000000000E+00 -0.11238024510E+01  0.11238024510E+01  0.00000000000E+00 0.  1.
          1    1    1    2  502    0 -0.87547611667E+01  0.20570015008E+02  0.64829104381E+03  0.64867638222E+03  0.00000000000E+00 0. -1.
         -1    1    1    2    0  501  0.87547611667E+01 -0.20570015008E+02  0.13325249772E+03  0.13511476421E+03  0.00000000000E+00 0.  1.
</event>
<event>
 4    1  0.6718357E+001  0.3270564E+02  0.7546771E-02  0.1397453E+00
          2   -1    0    0  502    0  0.00000000000E+00  0.00000000000E+00  0.14745580575E+02  0.14745580575E+02  0.00000000000E+00 0. -1.
         -2   -1    0    0    0  501 -0.00000000000E+00 -0.00000000000E+00 -0.75266599478E+02  0.75266599478E+02  0.00000000000E+00 0.  1.
          1    1    1    2  502    0  0.92767096559E+01 -0.31362424776E+02 -0.21696012458E+02  0.39247623959E+02  0.00000000000E+00 0. -1.
         -1    1    1    2    0  501 -0.92767096559E+01  0.31362424776E+02 -0.38825006445E+02  0.50764556093E+02  0.00000000000E+00 0.  1.
</event>
<event>
 4    1  0.6718357E+001  0.2095105E+02  0.7546771E-02  0.1519965E+00
          2   -1    0    0  502    0  0.00000000000E+00  0.00000000000E+00  0.13273020271E+02  0.13273020271E+02  0.00000000000E+00 0. -1.
         -2   -1    0    0    0  501 -0.00000000000E+00 -0.00000000000E+00 -0.33740488116E+02  0.33740488116E+02  0.00000000000E+00 0.  1.
          1    1    1    2  502    0  0.16592217248E+02  0.12792375009E+02 -0.13545985491E+02  0.24948752564E+02  0.00000000000E+00 0.  1.
         -1    1    1    2    0  501 -0.16592217248E+02 -0.12792375009E+02 -0.69214823541E+01  0.22064755823E+02  0.00000000000E+00 0. -1.
</event>
<event>
 4    1  0.6718357E+001  0.4232805E+02  0.7546771E-02  0.1335358E+00
          2   -1    0    0  502    0  0.00000000000E+00  0.00000000000E+00  0.19502358543E+03  0.19502358543E+03  0.00000000000E+00 0.  1.
         -2   -1    0    0    0  501 -0.00000000000E+00 -0.00000000000E+00 -0.93887029072E+01  0.93887029072E+01  0.00000000000E+00 0. -1.
          1    1    1    2  502    0 -0.35443525636E+02 -0.23139146627E+02  0.77833365000E+02  0.88598511971E+02  0.00000000000E+00 0.  1.
         -1    1    1    2    0  501  0.35443525636E+02  0.23139146627E+02  0.10780151752E+03  0.11581377636E+03  0.00000000000E+00 0. -1.
</event>
<event>
 4    1  0.6718357E+001  0.2040080E+02  0.7546771E-02  0.1527994E+00
          2   -1    0    0  502    0  0.00000000000E+00  0.00000000000E+00  0.15613094273E+04  0.15613094273E+04  0.00000000000E+00 0.  1.
         -2   -1    0    0    0  501 -0.00000000000E+00 -0.00000000000E+00 -0.38004025604E+00  0.38004025604E+00  0.00000000000E+00 0. -1.
          1    1    1    2  502    0  0.20003564693E+02  0.40062612243E+01  0.12071401614E+04  0.12073125370E+04  0.00000000000E+00 0.  1.
         -1    1    1    2    0  501 -0.20003564693E+02 -0.40062612243E+01  0.35378922560E+03  0.35437693051E+03  0.00000000000E+00 0. -1.
</event>
<event>
 4    1  0.6718357E+001  0.2245530E+02  0.7546771E-02  0.1499454E+00
          2   -1    0    0  502    0  0.00000000000E+00  0.00000000000E+00  0.28959670500E+02  0.28959670500E+02  0.00000000000E+00 0. -1.
         -2   -1    0    0    0  501 -0.00000000000E+00 -0.00000000000E+00 -0.18432551643E+02  0.18432551643E+02  0.00000000000E+00 0.  1.
          1    1    1    2  502    0  0.22453716294E+02  0.26673458934E+00 -0.31266806505E+00  0.22457477242E+02  0.00000000000E+00 0.  1.
         -1    1    1    2    0  501 -0.22453716294E+02 -0.26673458934E+00  0.10839786922E+02  0.24934744901E+02  0.00000000000E+00 0. -1.
</event>
<event>
 4    1  0.6718357E+001  0.2073524E+02  0.7546771E-02  0.1523079E+00
          2   -1    0    0  502    0  0.00000000000E+00  0.00000000000E+00  0.41689078514E+03  0.41689078514E+03  0.00000000000E+00 0.  1.
         -2   -1    0    0    0  501 -0.00000000000E+00 -0.00000000000E+00 -0.10354721645E+01  0.10354721645E+01  0.00000000000E+00 0. -1.
          1    1    1    2  502    0  0.11425878465E+01 -0.20703740077E+02  0.19470505546E+03  0.19580604940E+03  0.00000000000E+00 0.  1.
         -1    1    1    2    0  501 -0.11425878465E+01  0.20703740077E+02  0.22115025752E+03  0.22212020791E+03  0.00000000000E+00 0. -1.
</event>
<event>
 4    1  0.6718357E+001  0.2371125E+02  0.7546771E-02  0.1483755E+00
          2   -1    0    0  502    0  0.00000000000E+00  0.00000000000E+00  0.43482064994E+01  0.43482064994E+01  0.00000000000E+00 0. -1.
         -2   -1    0    0    0  501 -0.00000000000E+00 -0.00000000000E+00 -0.17351720069E+03  0.17351720069E+03  0.00000000000E+00 0.  1.
          1    1    1    2  502    0 -0.30342830390E+00 -0.23709309675E+02 -0.12947820479E+03  0.13163141323E+03  0.00000000000E+00 0.  1.
         -1    1    1    2    0  501  0.30342830390E+00  0.23709309675E+02 -0.39690789404E+02  0.46233993960E+02  0.00000000000E+00 0. -1.
</event>
<event>
 4    1  0.6718357E+001  0.3173942E+02  0.7546771E-02  0.1405060E+00
          2   -1    0    0  502    0  0.00000000000E+00  0.00000000000E+00  0.13253042174E+04  0.13253042174E+04  0.00000000000E+00 0. -1.
         -2   -1    0    0    0  501 -0.00000000000E+00 -0.00000000000E+00 -0.97978053703E+00  0.97978053703E+00  0.00000000000E+00 0.  1.
          1    1    1    2  502    0 -0.19207314221E+02 -0.25267958857E+02  0.97615367780E+03  0.97666954152E+03  0.00000000000E+00 0. -1.
         -1    1    1    2    0  501  0.19207314221E+02  0.25267958857E+02  0.34817075910E+03  0.34961445644E+03  0.00000000000E+00 0.  1.
</event>
<event>
 4    1  0.6718357E+001  0.2278018E+02  0.7546771E-02  0.1495277E+00
          2   -1    0    0  502    0  0.00000000000E+00  0.00000000000E+00  0.48437835549E+03  0.48437835549E+03  0.00000000000E+00 0.  1.
         -2   -1    0    0    0  501 -0.00000000000E+00 -0.00000000000E+00 -0.11287519242E+01  0.11287519242E+01  0.00000000000E+00 0. -1.
          1    1    1    2  502    0  0.21072831385E+02  0.86528921133E+01  0.29636988056E+03  0.29724407961E+03  0.00000000000E+00 0.  1.
         -1    1    1    2    0  501 -0.21072831385E+02 -0.86528921133E+01  0.18687972301E+03  0.18826302780E+03  0.00000000000E+00 0. -1.
</event>
<event>
 4    1  0.6718357E+001  0.2124451E+02  0.7546771E-02  0.1515802E+00
          2   -1    0    0  502    0  0.00000000000E+00  0.00000000000E+00  0.13096230790E+03  0.13096230790E+03  0.00000000000E+00 0.  1.
         -2   -1    0    0    0  501 -0.00000000000E+00 -0.00000000000E+00 -0.35743945430E+01  0.35743945430E+01  0.00000000000E+00 0. -1.
          1    1    1    2  502    0  0.16040654439E+02 -0.13929338646E+02  0.50957260257E+02  0.55208436338E+02  0.00000000000E+00 0.  1.
         -1    1    1    2    0  501 -0.16040654439E+02  0.13929338646E+02  0.76430653104E+02  0.79328266109E+02  0.00000000000E+00 0. -1.
</event>
<event>
 4    1  0.6718357E+001  0.2173743E+02  0.7546771E-02  0.1508991E+00
          2   -1    0    0  502    0  0.00000000000E+00  0.00000000000E+00  0.23543393775E+03  0.23543393775E+03  0.00000000000E+00 0.  1.
         -2   -1    0    0    0  501 -0.00000000000E+00 -0.00000000000E+00 -0.28698311292E+01  0.28698311292E+01  0.00000000000E+00 0. -1.
          1    1    1    2  502    0 -0.41031412750E+01 -0.21346664728E+02  0.50948587087E+02  0.55392006549E+02  0.00000000000E+00 0. -1.
         -1    1    1    2    0  501  0.41031412750E+01  0.21346664728E+02  0.18161551954E+03  0.18291176233E+03  0.00000000000E+00 0.  1.
</event>
<event>
 4    1  0.6718357E+001  0.2288946E+02  0.7546771E-02  0.1493891E+00
          2   -1    0    0  502    0  0.00000000000E+00  0.00000000000E+00  0.21985025102E+03  0.21985025102E+03  0.00000000000E+00 0. -1.
         -2   -1    0    0    0  501 -0.00000000000E+00 -0.00000000000E+00 -0.23902283388E+01  0.23902283388E+01  0.00000000000E+00 0.  1.
          1    1    1    2  502    0  0.19750213207E+02 -0.11569629468E+02  0.11479422440E+03  0.11705400977E+03  0.00000000000E+00 0. -1.
         -1    1    1    2    0  501 -0.19750213207E+02  0.11569629468E+02  0.10266579828E+03  0.10518646959E+03  0.00000000000E+00 0.  1.
</event>
<event>
 4    1  0.6718357E+001  0.2041802E+02  0.7546771E-02  0.1527739E+00
          2   -1    0    0  502    0  0.00000000000E+00  0.00000000000E+00  0.14545214331E+03  0.14545214331E+03  0.00000000000E+00 0. -1.
         -2   -1    0    0    0  501 -0.00000000000E+00 -0.00000000000E+00 -0.29697113878E+01  0.29697113878E+01  0.00000000000E+00 0.  1.
          1    1    1    2  502    0 -0.19789523236E+02 -0.50269526128E+01  0.57386523840E+02  0.60910660815E+02  0.00000000000E+00 0.  1.
         -1    1    1    2    0  501  0.19789523236E+02  0.50269526128E+01  0.85095908084E+02  0.87511193885E+02  0.00000000000E+00 0. -1.
</event>
<event>
 4    1  0.6718357E+001  0.2037743E+02  0.7546771E-02  0.1528342E+00
          2   -1    0    0  502    0  0.00000000000E+00  0.00000000000E+00  0.14747286611E+03  0.14747286611E+03  0.00000000000E+00 0.  1.
         -2   -1    0    0    0  501 -0.00000000000E+00 -0.00000000000E+00 -0.97030723304E+01  0.97030723304E+01  0.00000000000E+00 0. -1.
          1    1    1    2  502    0 -0.18430608770E+02 -0.86920875831E+01  0.13509558969E+03  0.13662378299E+03  0.00000000000E+00 0.  1.
         -1    1    1    2    0  501  0.18430608770E+02  0.86920875831E+01  0.26742040968E+01  0.20552155452E+02  0.00000000000E+00 0. -1.
</event>
<event>
 4    1  0.6718357E+001  0.4080228E+02  0.7546771E-02  0.1343848E+00
          2   -1    0    0  502    0  0.00000000000E+00  0.00000000000E+00  0.87615674692E+01  0.87615674692E+01  0.00000000000E+00 0.  1.
         -2   -1    0    0    0  501 -0.00000000000E+00 -0.00000000000E+00 -0.19402475474E+03  0.19402475474E+03  0.00000000000E+00 0. -1.
          1    1    1    2  502    0  0.21485714219E+02  0.34687030578E+02 -0.78054900802E+02  0.88076066812E+02  0.00000000000E+00 0.  1.
         -1    1    1    2    0  501 -0.21485714219E+02 -0.34687030578E+02 -0.10720828647E+03  0.11471025540E+03  0.00000000000E+00 0. -1.
</event>
<event>
 4    1  0.6718357E+001  0.2208684E+02  0.7546771E-02  0.1504294E+00
          2   -1    0    0  502    0  0.00000000000E+00  0.00000000000E+00  0.15352747997E+03  0.15352747997E+03  0.00000000000E+00 0. -1.
         -2   -1    0    0    0  501 -0.00000000000E+00 -0.00000000000E+00 -0.31784567183E+01  0.31784567183E+01  0.00000000000E+00 0.  1.
          1    1    1    2  502    0  0.14395510054E+02 -0.16751050768E+02  0.73791483086E+02  0.77026043567E+02  0.00000000000E+00 0.  1.
         -1    1    1    2    0  501 -0.14395510054E+02  0.16751050768E+02  0.76557540165E+02  0.79679893121E+02  0.00000000000E+00 0. -1.
</event>
<event>
 4    1  0.6718357E+001  0.2469028E+02  0.7546771E-02  0.1472298E+00
          2   -1    0    0  502    0  0.00000000000E+00  0.00000000000E+00  0.17630878843E+04  0.17630878843E+04  0.00000000000E+00 0.  1.
         -2   -1    0    0    0  501 -0.00000000000E+00 -0.00000000000E+00 -0.63339702207E+00  0.63339702207E+00  0.00000000000E+00 0. -1.
          1    1    1    2  502    0  0.15708688775E+02  0.19048537494E+02  0.28695909790E+03  0.28801932843E+03  0.00000000000E+00 0. -1.
         -1    1    1    2    0  501 -0.15708688775E+02 -0.19048537494E+02  0.14754953894E+04  0.14757019529E+04  0.00000000000E+00 0.  1.
</event>
<event>
 4    1  0.6718357E+001  0.3829558E+02  0.7546771E-02  0.1358774E+00
          2   -1    0    0  502    0  0.00000000000E+00  0.00000000000E+00  0.70309613417E+01  0.70309613417E+01  0.00000000000E+00 0.  1.
         -2   -1    0    0    0  501 -0.00000000000E+00 -0.00000000000E+00 -0.24542450972E+03  0.24542450972E+03  0.00000000000E+00 0. -1.
          1    1    1    2  502    0 -0.38212243002E+02 -0.25251102290E+01 -0.70291702659E+02  0.80046706114E+02  0.00000000000E+00 0.  1.
         -1    1    1    2    0  501  0.38212243002E+02  0.25251102290E+01 -0.16810184572E+03  0.17240876495E+03  0.00000000000E+00 0. -1.
</event>
<event>
 4    1  0.6718357E+001  0.2390629E+02  0.7546771E-02  0.1481421E+00
          2   -1    0    0  502    0  0.00000000000E+00  0.00000000000E+00  0.21221237899E+04  0.21221237899E+04  0.00000000000E+00 0. -1.
         -2   -1    0    0    0  501 -0.00000000000E+00 -0.00000000000E+00 -0.35361789090E+00  0.35361789090E+00  0.00000000000E+00 0.  1.
          1    1    1    2  502    0 -0.30466225418E+01 -0.23711359251E+02  0.15790625128E+04  0.15792434675E+04  0.00000000000E+00 0.  1.
         -1    1    1    2    0  501  0.30466225418E+01  0.23711359251E+02  0.54270765928E+03  0.54323394031E+03  0.00000000000E+00 0. -1.
</event>
<event>
 4    1  0.6718357E+001  0.3210504E+02  0.7546771E-02  0.1402144E+00
          2   -1    0    0  502    0  0.00000000000E+00  0.00000000000E+00  0.76178665679E+03  0.76178665679E+03  0.00000000000E+00 0. -1.
         -2   -1    0    0    0  501 -0.00000000000E+00 -0.00000000000E+00 -0.23494958831E+01  0.23494958831E+01  0.00000000000E+00 0.  1.
          1    1    1    2  502    0 -0.23292813049E+02  0.22094767796E+02  0.13090120517E+03  0.13478078282E+03  0.00000000000E+00 0.  1.
         -1    1    1    2    0  501  0.23292813049E+02 -0.22094767796E+02  0.62853595574E+03  0.62935536985E+03  0.00000000000E+00 0. -1.
</event>
<event>
 4    1  0.6718357E+001  0.2111038E+02  0.7546771E-02  0.1517695E+00
          2   -1    0    0  502    0  0.00000000000E+00  0.00000000000E+00  0.15446428530E+03  0.15446428530E+03  0.00000000000E+00 0.  1.
         -2   -1    0    0    0  501 -0.00000000000E+00 -0.00000000000E+00 -0.28961549776E+01  0.28961549776E+01  0.00000000000E+00 0. -1.
          1    1    1    2  502    0 -0.10125659819E+02 -0.18523481486E+02  0.70927879837E+02  0.74002787051E+02  0.00000000000E+00 0. -1.
         -1    1    1    2    0  501  0.10125659819E+02  0.18523481486E+02  0.80640250481E+02  0.83357653223E+02  0.00000000000E+00 0.  1.
</event>
<event>
 4    1  0.6718357E+001  0.2048391E+02  0.7546771E-02  0.1526762E+00
          2   -1    0    0  502    0  0.00000000000E+00  0.00000000000E+00  0.18121576782E+01  0.18121576782E+01  0.00000000000E+00 0.  1.
         -2   -1    0    0    0  501 -0.00000000000E+00 -0.00000000000E+00 -0.46336588836E+03  0.46336588836E+03  0.00000000000E+00 0. -1.
          1    1    1    2  502    0  0.16208937348E+02 -0.12524407104E+02 -0.39529219649E+03  0.39582257519E+03  0.00000000000E+00 0. -1.
         -1    1    1    2    0  501 -0.16208937348E+02  0.12524407104E+02 -0.66261534190E+02  0.69355470847E+02  0.00000000000E+00 0.  1.
</event>
<event>
 4    1  0.6718357E+001  0.2466084E+02  0.7546771E-02  0.1472633E+00
          2   -1    0    0  502    0  0.00000000000E+00  0.00000000000E+00  0.39305119850E+03  0.39305119850E+03  0.00000000000E+00 0.  1.
         -2   -1    0    0    0  501 -0.00000000000E+00 -0.00000000000E+00 -0.16669963318E+01  0.16669963318E+01  0.00000000000E+00 0. -1.
          1    1    1    2  502    0  0.23986455403E+02  0.57277355159E+01  0.24858307688E+03  0.24980332886E+03  0.00000000000E+00 0.  1.
         -1    1    1    2    0  501 -0.23986455403E+02 -0.57277355159E+01  0.14280112529E+03  0.14491486598E+03  0.00000000000E+00 0. -1.
</event>
<event>
 4    1  0.6718357E+001  0.3775956E+02  0.7546771E-02  0.1362140E+00
          2   -1    0    0  502    0  0.00000000000E+00  0.00000000000E+00  0.29230599108E+01  0.29230599108E+01  0.00000000000E+00 0.  1.
         -2   -1    0    0    0  501 -0.00000000000E+00 -0.00000000000E+00 -0.55398856754E+03  0.55398856754E+03  0.00000000000E+00 0. -1.
          1    1    1    2  502    0 -0.33043915251E+02 -0.18272500588E+02 -0.37180290431E+03  0.37371537868E+03  0.00000000000E+00 0. -1.
         -1    1    1    2    0  501  0.33043915251E+02  0.18272500588E+02 -0.17926260333E+03  0.18319624877E+03  0.00000000000E+00 0.  1.
</event>
<event>
 4    1  0.6718357E+001  0.2131082E+02  0.7546771E-02  0.1514873E+00
          2   -1    0    0  502    0  0.00000000000E+00  0.00000000000E+00  0.18231064656E+04  0.18231064656E+04  0.00000000000E+00 0. -1.
         -2   -1    0    0    0  501 -0.00000000000E+00 -0.00000000000E+00 -0.31845269012E+00  0.31845269012E+00  0.00000000000E+00 0.  1.
          1    1    1    2  502    0 -0.99663707496E+01 -0.18836728609E+02  0.48595118387E+03  0.48641823979E+03  0.00000000000E+00 0.  1.
         -1    1    1    2    0  501  0.99663707496E+01  0.18836728609E+02  0.13368368290E+04  0.13370066785E+04  0.00000000000E+00 0. -1.
</event>
<event>
 4    1  0.6718357E+001  0.2005074E+02  0.7546771E-02  0.1533261E+00
          2   -1    0    0  502    0  0.00000000000E+00  0.00000000000E+00  0.22491631609E+03  0.22491631609E+03  0.00000000000E+00 0. -1.
         -2   -1    0    0    0  501 -0.00000000000E+00 -0.00000000000E+00 -0.18847872516E+01  0.18847872516E+01  0.00000000000E+00 0.  1.
          1    1    1    2  502    0  0.18615383194E+02  0.74498232706E+01  0.85748571791E+02  0.88061625708E+02  0.00000000000E+00 0.  1.
         -1    1    1    2    0  501 -0.18615383194E+02 -0.74498232706E+01  0.13728295704E+03  0.13873947763E+03  0.00000000000E+00 0. -1.
</event>
<event>
 4    1  0.6718357E+001  0.2450031E+02  0.7546771E-02  0.1474472E+00
          2   -1    0    0  502    0  0.00000000000E+00  0.00000000000E+00  0.18690070541E+02  0.18690070541E+02  0.00000000000E+00 0.  1.
         -2   -1    0    0    0  501 -0.00000000000E+00 -0.00000000000E+00 -0.48672791187E+02  0.48672791187E+02  0.00000000000E+00 0. -1.
          1    1    1    2  502    0  0.15687685482E+02  0.18819180338E+02 -0.34635144952E+02  0.42424736773E+02  0.00000000000E+00 0. -1.
         -1    1    1    2    0  501 -0.15687685482E+02 -0.18819180338E+02  0.46524243060E+01  0.24938124956E+02  0.00000000000E+00 0.  1.
</event>
<event>
 4    1  0.6718357E+001  0.3212757E+02  0.7546771E-02  0.1401966E+00
          2   -1    0    0  502    0  0.00000000000E+00  0.00000000000E+00  0.50323924986E+01  0.50323924986E+01  0.00000000000E+00 0.  1.
         -2   -1    0    0    0  501 -0.00000000000E+00 -0.00000000000E+00 -0.21834745827E+03  0.21834745827E+03  0.00000000000E+00 0. -1.
          1    1    1    2  502    0  0.21669344822E+02 -0.23719620130E+02 -0.79154216518E+02  0.85425820902E+02  0.00000000000E+00 0.  1.
         -1    1    1    2    0  501 -0.21669344822E+02  0.23719620130E+02 -0.13416084925E+03  0.13795402987E+03  0.00000000000E+00 0. -1.
</event>
<event>
 4    1  0.6718357E+001  0.2239748E+02  0.7546771E-02  0.1500206E+00
          2   -1    0    0  502    0  0.00000000000E+00  0.00000000000E+00  0.69251180911E+03  0.69251180911E+03  0.00000000000E+00 0.  1.
         -2   -1    0    0    0  501 -0.00000000000E+00 -0.00000000000E+00 -0.84814068141E+00  0.84814068141E+00  0.00000000000E+00 0. -1.
          1    1    1    2  502    0 -0.15863477843E+02  0.15811304467E+02  0.47825745949E+03  0.47878162541E+03  0.00000000000E+00 0. -1.
         -1    1    1    2    0  501  0.15863477843E+02 -0.15811304467E+02  0.21340620894E+03  0.21457832438E+03  0.00000000000E+00 0.  1.
</event>
<event>
 4    1  0.6718357E+001  0.2107245E+02  0.7546771E-02  0.1518233E+00
          2   -1    0    0  502    0  0.00000000000E+00  0.00000000000E+00  0.16095011568E+03  0.16095011568E+03  0.00000000000E+00 0. -1.
         -2   -1    0    0    0  501 -0.00000000000E+00 -0.00000000000E+00 -0.43281465226E+01  0.43281465226E+01  0.00000000000E+00 0.  1.
          1    1    1    2  502    0 -0.72061496873E+01  0.19802008972E+02  0.28551270350E+02  0.35485534958E+02  0.00000000000E+00 0.  1.
         -1    1    1    2    0  501  0.72061496873E+01 -0.19802008972E+02  0.12807069881E+03  0.12979272724E+03  0.00000000000E+00 0. -1.
</event>
<event>
 4    1  0.6718357E+001  0.6439864E+02  0.7546771E-02  0.1245578E+00
          2   -1    0    0  502    0  0.00000000000E+00  0.00000000000E+00  0.84020314424E+03  0.84020314424E+03  0.00000000000E+00 0. -1.
         -2   -1    0    0    0  501 -0.00000000000E+00 -0.00000000000E+00 -0.49811429741E+01  0.49811429741E+01  0.00000000000E+00 0.  1.
          1    1    1    2  502    0 -0.13959486559E+02 -0.62867461574E+02  0.37735021398E+03  0.38280591556E+03  0.00000000000E+00 0.  1.
         -1    1    1    2    0  501  0.13959486559E+02  0.62867461574E+02  0.45787178728E+03  0.46237837166E+03  0.00000000000E+00 0. -1.
</event>
<event>
 4    1  0.6718357E+001  0.2190017E+02  0.7546771E-02  0.1506791E+00
          2   -1    0    0  502    0  0.00000000000E+00  0.00000000000E+00  0.60462996021E+03  0.60462996021E+03  0.00000000000E+00 0. -1.
         -2   -1    0    0    0  501 -0.00000000000E+00 -0.00000000000E+00 -0.30398393351E+01  0.30398393351E+01  0.00000000000E+00 0.  1.
          1    1    1    2  502    0  0.56941154358E+01 -0.21146974527E+02  0.39593946214E+02  0.45247077906E+02  0.00000000000E+00 0.  1.
         -1    1    1    2    0  501 -0.56941154358E+01  0.21146974527E+02  0.56199617466E+03  0.56242272164E+03  0.00000000000E+00 0. -1.
</event>
<event>
 4    1  0.6718357E+001  0.3150151E+02  0.7546771E-02  0.1406982E+00
          2   -1    0    0  502    0  0.00000000000E+00  0.00000000000E+00  0.20133030493E+02  0.20133030493E+02  0.00000000000E+00 0.  1.
         -2   -1    0    0    0  501 -0.00000000000E+00 -0.00000000000E+00 -0.52462309003E+02  0.52462309003E+02  0.00000000000E+00 0. -1.
          1    1    1    2  502    0 -0.29193016492E+02  0.11836928261E+02 -0.72380911634E+01  0.32322361397E+02  0.00000000000E+00 0.  1.
         -1    1    1    2    0  501  0.29193016492E+02 -0.11836928261E+02 -0.25091187347E+02  0.40272978100E+02  0.00000000000E+00 0. -1.
</event>
<event>
 4    1  0.6718357E+001  0.5197920E+02  0.7546771E-02  0.1289812E+00
          2   -1    0    0  502    0  0.00000000000E+00  0.00000000000E+00  0.29432287760E+04  0.29432287760E+04  0.00000000000E+00 0.  1.
         -2   -1    0    0    0  501 -0.00000000000E+00 -0.00000000000E+00 -0.93458170981E+00  0.93458170981E+00  0.00000000000E+00 0. -1.
          1    1    1    2  502    0 -0.31736211461E+02  0.41166122939E+02  0.16673240236E+04  0.16681340583E+04  0.00000000000E+00 0.  1.
         -1    1    1    2    0  501  0.31736211461E+02 -0.41166122939E+02  0.12749701707E+04  0.12760292994E+04  0.00000000000E+00 0. -1.
</event>
<event>
 4    1  0.6718357E+001  0.2200436E+02  0.7546771E-02  0.1505394E+00
          2   -1    0    0  502    0  0.00000000000E+00  0.00000000000E+00  0.20746340947E+03  0.20746340947E+03  0.00000000000E+00 0. -1.
         -2   -1    0    0    0  501 -0.00000000000E+00 -0.00000000000E+00 -0.30743552785E+01  0.30743552785E+01  0.00000000000E+00 0.  1.
          1    1    1    2  502    0  0.21629994434E+02 -0.40416952069E+01  0.50531227029E+02  0.55114397977E+02  0.00000000000E+00 0.  1.
         -1    1    1    2    0  501 -0.21629994434E+02  0.40416952069E+01  0.15385782716E+03  0.15542336677E+03  0.00000000000E+00 0. -1.
</event>
<event>
 4    1  0.6718357E+001  0.2000615E+02  0.7546771E-02  0.1533942E+00
          2   -1    0    0  502    0  0.00000000000E+00  0.00000000000E+00  0.36501008016E+03  0.36501008016E+03  0.00000000000E+00 0.  1.
         -2   -1    0    0    0  501 -0.00000000000E+00 -0.00000000000E+00 -0.19478782099E+01  0.19478782099E+01  0.00000000000E+00 0. -1.
          1    1    1    2  502    0  0.31240480287E+01 -0.19760730373E+02  0.30283028648E+03  0.30349040932E+03  0.00000000000E+00 0.  1.
         -1    1    1    2    0  501 -0.31240480287E+01  0.19760730373E+02  0.60231915472E+02  0.63467549050E+02  0.00000000000E+00 0. -1.
</event>
<event>
 4    1  0.6718357E+001  0.2254870E+02  0.7546771E-02  0.1498244E+00
          2   -1    0    0  502    0  0.00000000000E+00  0.00000000000E+00  0.40036948602E+03  0.40036948602E+03  0.00000000000E+00 0. -1.
         -2   -1    0    0    0  501 -0.00000000000E+00 -0.00000000000E+00 -0.16099828952E+01  0.16099828952E+01  0.00000000000E+00 0.  1.
          1    1    1    2  502    0  0.55359571269E+01 -0.21858564265E+02  0.29175010500E+03  0.29262017603E+03  0.00000000000E+00 0. -1.
         -1    1    1    2    0  501 -0.55359571269E+01  0.21858564265E+02  0.10700939813E+03  0.10935929289E+03  0.00000000000E+00 0.  1.
</event>
<event>
 4    1  0.6718357E+001  0.2004184E+02  0.7546771E-02  0.1533397E+00
          2   -1    0    0  502    0  0.00000000000E+00  0.00000000000E+00  0.12266193267E+03  0.12266193267E+03  0.00000000000E+00 0. -1.
         -2   -1    0    0    0  501 -0.00000000000E+00 -0.00000000000E+00 -0.32890103974E+01  0.32890103974E+01  0.00000000000E+00 0.  1.
          1    1    1    2  502    0  0.19921353920E+02 -0.21942771964E+01  0.55525578466E+02  0.59031898651E+02  0.00000000000E+00 0.  1.
         -1    1    1    2    0  501 -0.19921353920E+02  0.21942771964E+01  0.63847343811E+02  0.66919044421E+02  0.00000000000E+00 0. -1.
</event>
<event>
 4    1  0.6718357E+001  0.2318455E+02  0.7546771E-02  0.1490194E+00
          2   -1    0    0  502    0  0.00000000000E+00  0.00000000000E+00  0.11768394566E+04  0.11768394566E+04  0.00000000000E+00 0. -1.
         -2   -1    0    0    0  501 -0.00000000000E+00 -0.00000000000E+00 -0.48413064023E+00  0.48413064023E+00  0.00000000000E+00 0.  1.
          1    1    1    2  502    0  0.14652565984E+01  0.23138204534E+02  0.72816619290E+03  0.72853519336E+03  0.00000000000E+00 0.  1.
         -1    1    1    2    0  501 -0.14652565984E+01 -0.23138204534E+02  0.44818913301E+03  0.44878839383E+03  0.00000000000E+00 0. -1.
</event>
<event>
 4    1  0.6718357E+001  0.2738150E+02  0.7546771E-02  0.1443813E+00
          2   -1    0    0  502    0  0.00000000000E+00  0.00000000000E+00  0.18355059683E+04  0.18355059683E+04  0.00000000000E+00 0.  1.
         -2   -1    0    0    0  501 -0.00000000000E+00 -0.00000000000E+00 -0.70146308124E+00  0.70146308124E+00  0.00000000000E+00 0. -1.
          1    1    1    2  502    0 -0.27039189706E+02  0.43161027881E+01  0.32404115696E+03  0.32519596850E+03  0.00000000000E+00 0. -1.
         -1    1    1    2    0  501  0.27039189706E+02 -0.43161027881E+01  0.15107633482E+04  0.15110114628E+04  0.00000000000E+00 0.  1.
</event>
<event>
 4    1  0.6718357E+001  0.2642512E+02  0.7546771E-02  0.1453470E+00
          2   -1    0    0  502    0  0.00000000000E+00  0.00000000000E+00  0.20253578375E+04  0.20253578375E+04  0.00000000000E+00 0. -1.
         -2   -1    0    0    0  501 -0.00000000000E+00 -0.00000000000E+00 -0.38220046175E+00  0.38220046175E+00  0.00000000000E+00 0.  1.
          1    1    1    2  502    0  0.26358421873E+02 -0.18762583574E+01  0.13294510472E+04  0.13297136435E+04  0.00000000000E+00 0. -1.
         -1    1    1    2    0  501 -0.26358421873E+02  0.18762583574E+01  0.69552458984E+03  0.69602639449E+03  0.00000000000E+00 0.  1.
</event>
<event>
 4    1  0.6718357E+001  0.3462442E+02  0.7546771E-02  0.1383223E+00
          2   -1    0    0  502    0  0.00000000000E+00  0.00000000000E+00  0.50541050583E+02  0.50541050583E+02  0.00000000000E+00 0.  1.
         -2   -1    0    0    0  501 -0.00000000000E+00 -0.00000000000E+00 -0.39565377116E+02  0.39565377116E+02  0.00000000000E+00 0. -1.
          1    1    1    2  502    0  0.34486395069E+02  0.30885637125E+01  0.33998992018E+02  0.48526097400E+02  0.00000000000E+00 0.  1.
         -1    1    1    2    0  501 -0.34486395069E+02 -0.30885637125E+01 -0.23023318551E+02  0.41580330299E+02  0.00000000000E+00 0. -1.
</event>
<event>
 4    1  0.6718357E+001  0.2205102E+02  0.7546771E-02  0.1504771E+00
          2   -1    0    0  502    0  0.00000000000E+00  0.00000000000E+00  0.64042441248E+03  0.64042441248E+03  0.00000000000E+00 0.  1.
         -2   -1    0    0    0  501 -0.00000000000E+00 -0.00000000000E+00 -0.76849546814E+00  0.76849546814E+00  0.00000000000E+00 0. -1.
          1    1    1    2  502    0  0.27676766358E+01 -0.21876637915E+02  0.35497719827E+03  0.35566143819E+03  0.00000000000E+00 0. -1.
         -1    1    1    2    0  501 -0.27676766358E+01  0.21876637915E+02  0.28467871874E+03  0.28553146976E+03  0.00000000000E+00 0.  1.
</event>
<event>
 4    1  0.6718357E+001  0.5667549E+02  0.7546771E-02  0.1271567E+00
          2   -1    0    0  502    0  0.00000000000E+00  0.00000000000E+00  0.16632747081E+04  0.16632747081E+04  0.00000000000E+00 0.  1.
         -2   -1    0    0    0  501 -0.00000000000E+00 -0.00000000000E+00 -0.19336662830E+01  0.19336662830E+01  0.00000000000E+00 0. -1.
          1    1    1    2  502    0  0.43923868603E+01 -0.56505028338E+02  0.86042310061E+03  0.86228766856E+03  0.00000000000E+00 0.  1.
         -1    1    1    2    0  501 -0.43923868603E+01  0.56505028338E+02  0.80091794123E+03  0.80292070584E+03  0.00000000000E+00 0. -1.
</event>
<event>
 4    1  0.6718357E+001  0.2352373E+02  0.7546771E-02  0.1486024E+00
          2   -1    0    0  502    0  0.00000000000E+00  0.00000000000E+00  0.32337666484E+01  0.32337666484E+01  0.00000000000E+00 0.  1.
         -2   -1    0    0    0  501 -0.00000000000E+00 -0.00000000000E+00 -0.17406591667E+03  0.17406591667E+03  0.00000000000E+00 0. -1.
          1    1    1    2  502    0  0.51052885899E+01 -0.22963057732E+02 -0.96946457231E+02  0.99759618893E+02  0.00000000000E+00 0.  1.
         -1    1    1    2    0  501 -0.51052885899E+01  0.22963057732E+02 -0.73885692786E+02  0.77540064421E+02  0.00000000000E+00 0. -1.
</event>
<event>
 4    1  0.6718357E+001  0.2062244E+02  0.7546771E-02  0.1524724E+00
          2   -1    0    0  502    0  0.00000000000E+00  0.00000000000E+00  0.45206204143E+02  0.45206204143E+02  0.00000000000E+00 0. -1.
         -2   -1    0    0    0  501 -0.00000000000E+00 -0.00000000000E+00 -0.94082528779E+01  0.94082528779E+01  0.00000000000E+00 0.  1.
          1    1    1    2  502    0  0.20620256863E+02 -0.29991744579E+00  0.17683602543E+02  0.27166058649E+02  0.00000000000E+00 0.  1.
         -1    1    1    2    0  501 -0.20620256863E+02  0.29991744579E+00  0.18114348721E+02  0.27448398372E+02  0.00000000000E+00 0. -1.
</event>
<event>
 4    1  0.6718357E+001  0.2161512E+02  0.7546771E-02  0.1510661E+00
          2   -1    0    0  502    0  0.00000000000E+00  0.00000000000E+00  0.24648626572E+03  0.24648626572E+03  0.00000000000E+00 0.  1.
         -2   -1    0    0    0  501 -0.00000000000E+00 -0.00000000000E+00 -0.65212596248E+01  0.65212596248E+01  0.00000000000E+00 0. -1.
          1    1    1    2  502    0  0.14164858224E+02  0.16326973277E+02  0.22652662751E+03  0.22755554539E+03  0.00000000000E+00 0.  1.
         -1    1    1    2    0  501 -0.14164858224E+02 -0.16326973277E+02  0.13438378589E+02  0.25451979962E+02  0.00000000000E+00 0. -1.
</event>
<event>
 4    1  0.6718357E+001  0.2069849E+02  0.7546771E-02  0.1523613E+00
          2   -1    0    0  502    0  0.00000000000E+00  0.00000000000E+00  0.46921525990E+01  0.46921525990E+01  0.00000000000E+00 0.  1.
         -2   -1    0    0    0  501 -0.00000000000E+00 -0.00000000000E+00 -0.95446157555E+02  0.95446157555E+02  0.00000000000E+00 0. -1.
          1    1    1    2  502    0  0.20649876008E+02  0.14178527834E+01 -0.34950650338E+02  0.40619892229E+02  0.00000000000E+00 0. -1.
         -1    1    1    2    0  501 -0.20649876008E+02 -0.14178527834E+01 -0.55803354618E+02  0.59518417925E+02  0.00000000000E+00 0.  1.
</event>
<event>
 4    1  0.6718357E+001  0.3012608E+02  0.7546771E-02  0.1418504E+00
          2   -1    0    0  502    0  0.00000000000E+00  0.00000000000E+00  0.38651731034E+03  0.38651731034E+03  0.00000000000E+00 0.  1.
         -2   -1    0    0    0  501 -0.00000000000E+00 -0.00000000000E+00 -0.29134736718E+01  0.29134736718E+01  0.00000000000E+00 0. -1.
          1    1    1    2  502    0  0.60575184798E+01 -0.29510796124E+02  0.27757740656E+03  0.27920744483E+03  0.00000000000E+00 0.  1.
         -1    1    1    2    0  501 -0.60575184798E+01  0.29510796124E+02  0.10602643011E+03  0.11022333918E+03  0.00000000000E+00 0. -1.
</event>
<event>
 4    1  0.6718357E+001  0.2455000E+02  0.7546771E-02  0.1473901E+00
          2   -1    0    0  502    0  0.00000000000E+00  0.00000000000E+00  0.75987086032E+02  0.75987086032E+02  0.00000000000E+00 0. -1.
         -2   -1    0    0    0  501 -0.00000000000E+00 -0.00000000000E+00 -0.83664957418E+01  0.83664957418E+01  0.00000000000E+00 0.  1.
          1    1    1    2  502    0 -0.92525254127E+01 -0.22739689389E+02  0.43425778630E+02  0.49884876963E+02  0.00000000000E+00 0. -1.
         -1    1    1    2    0  501  0.92525254127E+01  0.22739689389E+02  0.24194811660E+02  0.34468704810E+02  0.00000000000E+00 0.  1.
</event>
<event>
 4    1  0.6718357E+001  0.3163401E+02  0.7546771E-02  0.1405909E+00
          2   -1    0    0  502    0  0.00000000000E+00  0.00000000000E+00  0.12816611358E+04  0.12816611358E+04  0.00000000000E+00 0.  1.
         -2   -1    0    0    0  501 -0.00000000000E+00 -0.00000000000E+00 -0.16422794786E+01  0.16422794786E+01  0.00000000000E+00 0. -1.
          1    1    1    2  502    0 -0.25196334567E+02  0.19127346900E+02  0.17527984073E+03  0.17811157526E+03  0.00000000000E+00 0. -1.
         -1    1    1    2    0  501  0.25196334567E+02 -0.19127346900E+02  0.11047390156E+04  0.11051918400E+04  0.00000000000E+00 0.  1.
</event>
<event>
 4    1  0.6718357E+001  0.4419658E+02  0.7546771E-02  0.1325506E+00
          2   -1    0    0  502    0  0.00000000000E+00  0.00000000000E+00  0.17244406217E+04  0.17244406217E+04  0.00000000000E+00 0.  1.
         -2   -1    0    0    0  501 -0.00000000000E+00 -0.00000000000E+00 -0.35184456971E+01  0.35184456971E+01  0.00000000000E+00 0. -1.
          1    1    1    2  502    0  0.42446512654E+02  0.12313876659E+02  0.14902364288E+03  0.15543932621E+03  0.00000000000E+00 0. -1.
         -1    1    1    2    0  501 -0.42446512654E+02 -0.12313876659E+02  0.15718985331E+04  0.15725197412E+04  0.00000000000E+00 0.  1.
</event>
<event>
 4    1  0.6718357E+001  0.2103580E+02  0.7546771E-02  0.1518754E+00
          2   -1    0    0  502    0  0.00000000000E+00  0.00000000000E+00  0.23017946702E+03  0.23017946702E+03  0.00000000000E+00 0.  1.
         -2   -1    0    0    0  501 -0.00000000000E+00 -0.00000000000E+00 -0.20631240030E+01  0.20631240030E+01  0.00000000000E+00 0. -1.
          1    1    1    2  502    0  0.96729623280E+01 -0.18679898514E+02  0.83734555230E+02  0.86336438126E+02  0.00000000000E+00 0. -1.
         -1    1    1    2    0  501 -0.96729623280E+01  0.18679898514E+02  0.14438178779E+03  0.14590615290E+03  0.00000000000E+00 0.  1.
</event>
<event>
 4    1  0.6718357E+001  0.4857429E+02  0.7546771E-02  0.1304475E+00
          2   -1    0    0  502    0  0.00000000000E+00  0.00000000000E+00  0.17003778896E+03  0.17003778896E+03  0.00000000000E+00 0.  1.
         -2   -1    0    0    0  501 -0.00000000000E+00 -0.00000000000E+00 -0.14378018883E+02  0.14378018883E+02  0.00000000000E+00 0. -1.
          1    1    1    2  502    0  0.25958775287E+02 -0.41056108802E+02  0.60601936817E+02  0.77666317219E+02  0.00000000000E+00 0. -1.
         -1    1    1    2    0  501 -0.25958775287E+02  0.41056108802E+02  0.95057833264E+02  0.10674949063E+03  0.00000000000E+00 0.  1.
</event>
<event>
 4    1  0.6718357E+001  0.2333625E+02  0.7546771E-02  0.1488318E+00
          2   -1    0    0  502    0  0.00000000000E+00  0.00000000000E+00  0.99706231083E+03  0.99706231083E+03  0.00000000000E+00 0. -1.
         -2   -1    0    0    0  501 -0.00000000000E+00 -0.00000000000E+00 -0.83165767833E+00  0.83165767833E+00  0.00000000000E+00 0.  1.
          1    1    1    2  502    0  0.22119146841E+02 -0.74379987779E+01  0.20579139395E+03  0.20711030468E+03  0.00000000000E+00 0. -1.
         -1    1    1    2    0  501 -0.22119146841E+02  0.74379987779E+01  0.79043925920E+03  0.79078366382E+03  0.00000000000E+00 0.  1.
</event>
<event>
 4    1  0.6718357E+001  0.2377281E+02  0.7546771E-02  0.1483015E+00
          2   -1    0    0  502    0  0.00000000000E+00  0.00000000000E+00  0.73723645405E+03  0.73723645405E+03  0.00000000000E+00 0. -1.
         -2   -1    0    0    0  501 -0.00000000000E+00 -0.00000000000E+00 -0.76795479555E+00  0.76795479555E+00  0.00000000000E+00 0.  1.
          1    1    1    2  502    0  0.12351950061E+02  0.20311963919E+02  0.38387913054E+03  0.38461452574E+03  0.00000000000E+00 0.  1.
         -1    1    1    2    0  501 -0.12351950061E+02 -0.20311963919E+02  0.35258936871E+03  0.35338988310E+03  0.00000000000E+00 0. -1.
</event>
<event>
 4    1  0.6718357E+001  0.2174066E+02  0.7546771E-02  0.1508948E+00
          2   -1    0    0  502    0  0.00000000000E+00  0.00000000000E+00  0.16071596902E+04  0.16071596902E+04  0.00000000000E+00 0.  1.
         -2   -1    0    0    0  501 -0.00000000000E+00 -0.00000000000E+00 -0.31294719325E+00  0.31294719325E+00  0.00000000000E+00 0. -1.
          1    1    1    2  502    0 -0.50608217718E+00 -0.21734768032E+02  0.60614984319E+03  0.60653960189E+03  0.00000000000E+00 0. -1.
         -1    1    1    2    0  501  0.50608217718E+00  0.21734768032E+02  0.10006968998E+04  0.10009330355E+04  0.00000000000E+00 0.  1.
</event>
<event>
 4    1  0.6718357E+001  0.2473668E+02  0.7546771E-02  0.1471771E+00
          2   -1    0    0  502    0  0.00000000000E+00  0.00000000000E+00  0.32768077216E+03  0.32768077216E+03  0.00000000000E+00 0. -1.
         -2   -1    0    0    0  501 -0.00000000000E+00 -0.00000000000E+00 -0.25163164894E+01  0.25163164894E+01  0.00000000000E+00 0.  1.
          1    1    1    2  502    0  0.16671685943E+02 -0.18274522588E+02  0.24642448627E+03  0.24766293772E+03  0.00000000000E+00 0. -1.
         -1    1    1    2    0  501 -0.16671685943E+02  0.18274522588E+02  0.78739969401E+02  0.82534150927E+02  0.00000000000E+00 0.  1.
</event>
<event>
 4    1  0.6718357E+001  0.2187115E+02  0.7546771E-02  0.1507181E+00
          2   -1    0    0  502    0  0.00000000000E+00  0.00000000000E+00  0.35133085978E+03  0.35133085978E+03  0.00000000000E+00 0. -1.
         -2   -1    0    0    0  501 -0.00000000000E+00 -0.00000000000E+00 -0.20732988742E+01  0.20732988742E+01  0.00000000000E+00 0.  1.
          1    1    1    2  502    0  0.14369006523E+02 -0.16488746299E+02  0.71095362925E+02  0.74383450662E+02  0.00000000000E+00 0. -1.
         -1    1    1    2    0  501 -0.14369006523E+02  0.16488746299E+02  0.27816219798E+03  0.27902070799E+03  0.00000000000E+00 0.  1.
</event>
<event>
 4    1  0.6718357E+001  0.5828975E+02  0.7546771E-02  0.1265757E+00
          2   -1    0    0  502    0  0.00000000000E+00  0.00000000000E+00  0.26207763675E+03  0.26207763675E+03  0.00000000000E+00 0. -1.
         -2   -1    0    0    0  501 -0.00000000000E+00 -0.00000000000E+00 -0.16468623322E+02  0.16468623322E+02  0.00000000000E+00 0.  1.
          1    1    1    2  502    0 -0.52173437197E+02 -0.25992831324E+02  0.18704826024E+03  0.19592025543E+03  0.00000000000E+00 0. -1.
         -1    1    1    2    0  501  0.52173437197E+02  0.25992831324E+02  0.58560753192E+02  0.82626004645E+02  0.00000000000E+00 0.  1.
</event>
<event>
 4    1  0.6718357E+001  0.3891892E+02  0.7546771E-02  0.1354940E+00
          2   -1    0    0  502    0  0.00000000000E+00  0.00000000000E+00  0.21622472855E+04  0.21622472855E+04  0.00000000000E+00 0.  1.
         -2   -1    0    0    0  501 -0.00000000000E+00 -0.00000000000E+00 -0.73336876851E+00  0.73336876851E+00  0.00000000000E+00 0. -1.
          1    1    1    2  502    0  0.26289314085E+01 -0.38830031443E+02  0.13096678009E+04  0.13102459431E+04  0.00000000000E+00 0. -1.
         -1    1    1    2    0  501 -0.26289314085E+01  0.38830031443E+02  0.85184611576E+03  0.85273471113E+03  0.00000000000E+00 0.  1.
</event>
<event>
 4    1  0.6718357E+001  0.2161431E+02  0.7546771E-02  0.1510672E+00
          2   -1    0    0  502    0  0.00000000000E+00  0.00000000000E+00  0.14246499784E+04  0.14246499784E+04  0.00000000000E+00 0. -1.
         -2   -1    0    0    0  501 -0.00000000000E+00 -0.00000000000E+00 -0.41581353155E+00  0.41581353155E+00  0.00000000000E+00 0.  1.
          1    1    1    2  502    0  0.69791688730E+01  0.20456529298E+02  0.10397002942E+04  0.10399249396E+04  0.00000000000E+00 0. -1.
         -1    1    1    2    0  501 -0.69791688730E+01 -0.20456529298E+02  0.38453387066E+03  0.38514085225E+03  0.00000000000E+00 0.  1.
</event>
<event>
 4    1  0.6718357E+001  0.2010487E+02  0.7546771E-02  0.1532439E+00
          2   -1    0    0  502    0  0.00000000000E+00  0.00000000000E+00  0.13194659334E+03  0.13194659334E+03  0.00000000000E+00 0. -1.
         -2   -1    0    0    0  501 -0.00000000000E+00 -0.00000000000E+00 -0.35401457664E+01  0.35401457664E+01  0.00000000000E+00 0.  1.
          1    1    1    2  502    0  0.67659703942E+01  0.18932184809E+02  0.89062984389E+02  0.91304004104E+02  0.00000000000E+00 0. -1.
         -1    1    1    2    0  501 -0.67659703942E+01 -0.18932184809E+02  0.39343463185E+02  0.44182735003E+02  0.00000000000E+00 0.  1.
</event>
<event>
 4    1  0.6718357E+001  0.2189125E+02  0.7546771E-02  0.1506911E+00
          2   -1    0    0  502    0  0.00000000000E+00  0.00000000000E+00  0.95594294877E+03  0.95594294877E+03  0.00000000000E+00 0.  1.
         -2   -1    0    0    0  501 -0.00000000000E+00 -0.00000000000E+00 -0.97539815095E+00  0.97539815095E+00  0.00000000000E+00 0. -1.
          1    1    1    2  502    0  0.18862710695E+02  0.11109669967E+02  0.81105002405E+03  0.81134540618E+03  0.00000000000E+00 0.  1.
         -1    1    1    2    0  501 -0.18862710695E+02 -0.11109669967E+02  0.14391752656E+03  0.14557294073E+03  0.00000000000E+00 0. -1.
</event>
<event>
 4    1  0.6718357E+001  0.5498382E+02  0.7546771E-02  0.1277899E+00
          2   -1    0    0  502    0  0.00000000000E+00  0.00000000000E+00  0.82199662612E+03  0.82199662612E+03  0.00000000000E+00 0.  1.
         -2   -1    0    0    0  501 -0.00000000000E+00 -0.00000000000E+00 -0.44518726383E+01  0.44518726383E+01  0.00000000000E+00 0. -1.
          1    1    1    2  502    0 -0.16997594368E+02 -0.52290560785E+02  0.23647550821E+03  0.24278362165E+03  0.00000000000E+00 0. -1.
         -1    1    1    2    0  501  0.16997594368E+02  0.52290560785E+02  0.58106924528E+03  0.58366487711E+03  0.00000000000E+00 0.  1.
</event>
<event>
 4    1  0.6718357E+001  0.3553547E+02  0.7546771E-02  0.1376837E+00
          2   -1    0    0  502    0  0.00000000000E+00  0.00000000000E+00  0.41891136993E+03  0.41891136993E+03  0.00000000000E+00 0.  1.
         -2   -1    0    0    0  501 -0.00000000000E+00 -0.00000000000E+00 -0.31431407477E+01  0.31431407477E+01  0.00000000000E+00 0. -1.
          1    1    1    2  502    0  0.13624503116E+02  0.32819848223E+02  0.25059142402E+03  0.25309846170E+03  0.00000000000E+00 0.  1.
         -1    1    1    2    0  501 -0.13624503116E+02 -0.32819848223E+02  0.16517680516E+03  0.16895604898E+03  0.00000000000E+00 0. -1.
</event>
<event>
 4    1  0.6718357E+001  0.2772454E+02  0.7546771E-02  0.1440463E+00
          2   -1    0    0  502    0  0.00000000000E+00  0.00000000000E+00  0.25441681841E+03  0.25441681841E+03  0.00000000000E+00 0.  1.
         -2   -1    0    0    0  501 -0.00000000000E+00 -0.00000000000E+00 -0.34790599331E+01  0.34790599331E+01  0.00000000000E+00 0. -1.
          1    1    1    2  502    0 -0.56475364504E+01  0.27143236495E+02  0.78691181852E+02  0.83432320216E+02  0.00000000000E+00 0.  1.
         -1    1    1    2    0  501  0.56475364504E+01 -0.27143236495E+02  0.17224657663E+03  0.17446355813E+03  0.00000000000E+00 0. -1.
</event>
<event>
 4    1  0.6718357E+001  0.1187458E+03  0.7546771E-02  0.1134785E+00
          2   -1    0    0  502    0  0.00000000000E+00  0.00000000000E+00  0.13891189468E+04  0.13891189468E+04  0.00000000000E+00 0. -1.
         -2   -1    0    0    0  501 -0.00000000000E+00 -0.00000000000E+00 -0.12082971175E+02  0.12082971175E+02  0.00000000000E+00 0.  1.
          1    1    1    2  502    0  0.11413998145E+03  0.32751193356E+02  0.40835281548E+03  0.42526767799E+03  0.00000000000E+00 0.  1.
         -1    1    1    2    0  501 -0.11413998145E+03 -0.32751193356E+02  0.96868316015E+03  0.97593424000E+03  0.00000000000E+00 0. -1.
</event>
<event>
 4    1  0.6718357E+001  0.6566507E+02  0.7546771E-02  0.1241711E+00
          2   -1    0    0  502    0  0.00000000000E+00  0.00000000000E+00  0.11165898181E+03  0.11165898181E+03  0.00000000000E+00 0. -1.
         -2   -1    0    0    0  501 -0.00000000000E+00 -0.00000000000E+00 -0.45721829940E+02  0.45721829940E+02  0.00000000000E+00 0.  1.
          1    1    1    2  502    0 -0.58790909448E+02  0.29249449047E+02  0.19482738351E+01  0.65693965280E+02  0.00000000000E+00 0.  1.
         -1    1    1    2    0  501  0.58790909448E+02 -0.29249449047E+02  0.63988878034E+02  0.91686846468E+02  0.00000000000E+00 0. -1.
</event>
<event>
 4    1  0.6718357E+001  0.2001435E+02  0.7546771E-02  0.1533816E+00
          2   -1    0    0  502    0  0.00000000000E+00  0.00000000000E+00  0.10693034259E+04  0.10693034259E+04  0.00000000000E+00 0. -1.
         -2   -1    0    0    0  501 -0.00000000000E+00 -0.00000000000E+00 -0.45549363889E+00  0.45549363889E+00  0.00000000000E+00 0.  1.
          1    1    1    2  502    0  0.75339456541E+01  0.18542214869E+02  0.30903155161E+03  0.30967898533E+03  0.00000000000E+00 0.  1.
         -1    1    1    2    0  501 -0.75339456541E+01 -0.18542214869E+02  0.75981638065E+03  0.76007993420E+03  0.00000000000E+00 0. -1.
</event>
<event>
 4    1  0.6718357E+001  0.3101775E+02  0.7546771E-02  0.1410953E+00
          2   -1    0    0  502    0  0.00000000000E+00  0.00000000000E+00  0.14913841827E+04  0.14913841827E+04  0.00000000000E+00 0.  1.
         -2   -1    0    0    0  501 -0.00000000000E+00 -0.00000000000E+00 -0.67919343739E+00  0.67919343739E+00  0.00000000000E+00 0. -1.
          1    1    1    2  502    0 -0.12461232144E+02 -0.28404550901E+02  0.91248387239E+03  0.91301090804E+03  0.00000000000E+00 0.  1.
         -1    1    1    2    0  501  0.12461232144E+02  0.28404550901E+02  0.57822111684E+03  0.57905246807E+03  0.00000000000E+00 0. -1.
</event>
<event>
 4    1  0.6718357E+001  0.4351073E+02  0.7546771E-02  0.1329056E+00
          2   -1    0    0  502    0  0.00000000000E+00  0.00000000000E+00  0.39022479480E+02  0.39022479480E+02  0.00000000000E+00 0. -1.
         -2   -1    0    0    0  501 -0.00000000000E+00 -0.00000000000E+00 -0.51432269088E+02  0.51432269088E+02  0.00000000000E+00 0.  1.
          1    1    1    2  502    0  0.12113150080E+02 -0.41790612359E+02 -0.16975902533E+02  0.46705084873E+02  0.00000000000E+00 0.  1.
         -1    1    1    2    0  501 -0.12113150080E+02  0.41790612359E+02  0.45661129248E+01  0.43749663695E+02  0.00000000000E+00 0. -1.
</event>
<event>
 4    1  0.6718357E+001  0.2272615E+02  0.7546771E-02  0.1495966E+00
          2   -1    0    0  502    0  0.00000000000E+00  0.00000000000E+00  0.60180969180E+02  0.60180969180E+02  0.00000000000E+00 0. -1.
         -2   -1    0    0    0  501 -0.00000000000E+00 -0.00000000000E+00 -0.87536468292E+01  0.87536468292E+01  0.00000000000E+00 0.  1.
          1    1    1    2  502    0 -0.16797981146E+01  0.22663985887E+02  0.30538998825E+02  0.38067156805E+02  0.00000000000E+00 0. -1.
         -1    1    1    2    0  501  0.16797981146E+01 -0.22663985887E+02  0.20888323525E+02  0.30867459204E+02  0.00000000000E+00 0.  1.
</event>
<event>
 4    1  0.6718357E+001  0.3287774E+02  0.7546771E-02  0.1396130E+00
          2   -1    0    0  502    0  0.00000000000E+00  0.00000000000E+00  0.58060067458E+03  0.58060067458E+03  0.00000000000E+00 0. -1.
         -2   -1    0    0    0  501 -0.00000000000E+00 -0.00000000000E+00 -0.20558216521E+01  0.20558216521E+01  0.00000000000E+00 0.  1.
          1    1    1    2  502    0 -0.14889806068E+02 -0.29312781637E+02  0.37877745701E+03  0.38020166679E+03  0.00000000000E+00 0.  1.
         -1    1    1    2    0  501  0.14889806068E+02  0.29312781637E+02  0.19976739592E+03  0.20245482944E+03  0.00000000000E+00 0. -1.
</event>
<event>
 4    1  0.6718357E+001  0.1771676E+03  0.7546771E-02  0.1072623E+00
          2   -1    0    0  502    0  0.00000000000E+00  0.00000000000E+00  0.58621281998E+03  0.58621281998E+03  0.00000000000E+00 0. -1.
         -2   -1    0    0    0  501 -0.00000000000E+00 -0.00000000000E+00 -0.53579276549E+02  0.53579276549E+02  0.00000000000E+00 0.  1.
          1    1    1    2  502    0  0.20452718172E+02 -0.17598305987E+03  0.27449090772E+03  0.32670110110E+03  0.00000000000E+00 0.  1.
         -1    1    1    2    0  501 -0.20452718172E+02  0.17598305987E+03  0.25814263572E+03  0.31309099543E+03  0.00000000000E+00 0. -1.
</event>
<event>
 4    1  0.6718357E+001  0.2104789E+02  0.7546771E-02  0.1518582E+00
          2   -1    0    0  502    0  0.00000000000E+00  0.00000000000E+00  0.30094141466E+03  0.30094141466E+03  0.00000000000E+00 0.  1.
         -2   -1    0    0    0  501 -0.00000000000E+00 -0.00000000000E+00 -0.54493654800E+01  0.54493654800E+01  0.00000000000E+00 0. -1.
          1    1    1    2  502    0  0.12068567103E+02 -0.17244224169E+02  0.16868391502E+02  0.26973249915E+02  0.00000000000E+00 0. -1.
         -1    1    1    2    0  501 -0.12068567103E+02  0.17244224169E+02  0.27862365768E+03  0.27941753022E+03  0.00000000000E+00 0.  1.
</event>
<event>
 4    1  0.6718357E+001  0.2017455E+02  0.7546771E-02  0.1531384E+00
          2   -1    0    0  502    0  0.00000000000E+00  0.00000000000E+00  0.15409193389E+02  0.15409193389E+02  0.00000000000E+00 0.  1.
         -2   -1    0    0    0  501 -0.00000000000E+00 -0.00000000000E+00 -0.37366731971E+02  0.37366731971E+02  0.00000000000E+00 0. -1.
          1    1    1    2  502    0 -0.13520333732E+02  0.14973748008E+02  0.33079364126E+01  0.20443947685E+02  0.00000000000E+00 0. -1.
         -1    1    1    2    0  501  0.13520333732E+02 -0.14973748008E+02 -0.25265474995E+02  0.32331977674E+02  0.00000000000E+00 0.  1.
</event>
<event>
 4    1  0.6718357E+001  0.3558983E+02  0.7546771E-02  0.1376463E+00
          2   -1    0    0  502    0  0.00000000000E+00  0.00000000000E+00  0.58814724911E+02  0.58814724911E+02  0.00000000000E+00 0.  1.
         -2   -1    0    0    0  501 -0.00000000000E+00 -0.00000000000E+00 -0.29448707493E+02  0.29448707493E+02  0.00000000000E+00 0. -1.
          1    1    1    2  502    0  0.27910459581E+02  0.22082628130E+02  0.37558960810E+02  0.51742745929E+02  0.00000000000E+00 0.  1.
         -1    1    1    2    0  501 -0.27910459581E+02 -0.22082628130E+02 -0.81929433924E+01  0.36520686475E+02  0.00000000000E+00 0. -1.
</event>
<event>
 4    1  0.6718357E+001  0.2958520E+02  0.7546771E-02  0.1423236E+00
          2   -1    0    0  502    0  0.00000000000E+00  0.00000000000E+00  0.17914366437E+03  0.17914366437E+03  0.00000000000E+00 0.  1.
         -2   -1    0    0    0  501 -0.00000000000E+00 -0.00000000000E+00 -0.51716781556E+01  0.51716781556E+01  0.00000000000E+00 0. -1.
          1    1    1    2  502    0  0.27599360790E+02  0.10656409573E+02  0.10864835795E+03  0.11260439363E+03  0.00000000000E+00 0.  1.
         -1    1    1    2    0  501 -0.27599360790E+02 -0.10656409573E+02  0.65323628267E+02  0.71710948892E+02  0.00000000000E+00 0. -1.
</event>
<event>
 4    1  0.6718357E+001  0.4937269E+02  0.7546771E-02  0.1300915E+00
          2   -1    0    0  502    0  0.00000000000E+00  0.00000000000E+00  0.47966508518E+02  0.47966508518E+02  0.00000000000E+00 0.  1.
         -2   -1    0    0    0  501 -0.00000000000E+00 -0.00000000000E+00 -0.54361264587E+02  0.54361264587E+02  0.00000000000E+00 0. -1.
          1    1    1    2  502    0  0.34973414905E+02 -0.34849999178E+02  0.98610990872E+01  0.50347824859E+02  0.00000000000E+00 0.  1.
         -1    1    1    2    0  501 -0.34973414905E+02  0.34849999178E+02 -0.16255855156E+02  0.51979948247E+02  0.00000000000E+00 0. -1.
</event>
<event>
 4    1  0.6718357E+001  0.2076682E+02  0.7546771E-02  0.1522620E+00
          2   -1    0    0  502    0  0.00000000000E+00  0.00000000000E+00  0.15842750763E+03  0.15842750763E+03  0.00000000000E+00 0. -1.
         -2   -1    0    0    0  501 -0.00000000000E+00 -0.00000000000E+00 -0.35234983872E+01  0.35234983872E+01  0.00000000000E+00 0.  1.
          1    1    1    2  502    0  0.34657548281E+01  0.20475574984E+02  0.11606932275E+03  0.11791246038E+03  0.00000000000E+00 0. -1.
         -1    1    1    2    0  501 -0.34657548281E+01 -0.20475574984E+02  0.38834686490E+02  0.44038545642E+02  0.00000000000E+00 0.  1.
</event>
<event>
 4    1  0.6718357E+001  0.2190391E+02  0.7546771E-02  0.1506740E+00
          2   -1    0    0  502    0  0.00000000000E+00  0.00000000000E+00  0.87453595530E+01  0.87453595530E+01  0.00000000000E+00 0. -1.
         -2   -1    0    0    0  501 -0.00000000000E+00 -0.00000000000E+00 -0.59973437605E+02  0.59973437605E+02  0.00000000000E+00 0.  1.
          1    1    1    2  502    0 -0.53989854339E+01 -0.21228100914E+02 -0.15582450956E+02  0.26881110281E+02  0.00000000000E+00 0. -1.
         -1    1    1    2    0  501  0.53989854339E+01  0.21228100914E+02 -0.35645627096E+02  0.41837686877E+02  0.00000000000E+00 0.  1.
</event>
<event>
 4    1  0.6718357E+001  0.2122576E+02  0.7546771E-02  0.1516066E+00
          2   -1    0    0  502    0  0.00000000000E+00  0.00000000000E+00  0.13176769428E+02  0.13176769428E+02  0.00000000000E+00 0. -1.
         -2   -1    0    0    0  501 -0.00000000000E+00 -0.00000000000E+00 -0.14505058082E+03  0.14505058082E+03  0.00000000000E+00 0.  1.
          1    1    1    2  502    0  0.21122980429E+02  0.20862950717E+01 -0.13510049874E+03  0.13675773356E+03  0.00000000000E+00 0.  1.
         -1    1    1    2    0  501 -0.21122980429E+02 -0.20862950717E+01  0.32266873481E+01  0.21469616684E+02  0.00000000000E+00 0. -1.
</event>
<event>
 4    1  0.6718357E+001  0.2479028E+02  0.7546771E-02  0.1471163E+00
          2   -1    0    0  502    0  0.00000000000E+00  0.00000000000E+00  0.11499714268E+04  0.11499714268E+04  0.00000000000E+00 0. -1.
         -2   -1    0    0    0  501 -0.00000000000E+00 -0.00000000000E+00 -0.23615353027E+01  0.23615353027E+01  0.00000000000E+00 0.  1.
          1    1    1    2  502    0 -0.14136023286E+02  0.20364943740E+02  0.67007121069E+02  0.71445870152E+02  0.00000000000E+00 0.  1.
         -1    1    1    2    0  501  0.14136023286E+02 -0.20364943740E+02  0.10806027704E+04  0.10808870920E+04  0.00000000000E+00 0. -1.
</event>
<event>
 4    1  0.6718357E+001  0.2006462E+02  0.7546771E-02  0.1533050E+00
          2   -1    0    0  502    0  0.00000000000E+00  0.00000000000E+00  0.15793979999E+02  0.15793979999E+02  0.00000000000E+00 0.  1.
         -2   -1    0    0    0  501 -0.00000000000E+00 -0.00000000000E+00 -0.25650190432E+02  0.25650190432E+02  0.00000000000E+00 0. -1.
          1    1    1    2  502    0 -0.64895991012E+01  0.18986157448E+02 -0.65655313803E+01  0.21111496239E+02  0.00000000000E+00 0. -1.
         -1    1    1    2    0  501  0.64895991012E+01 -0.18986157448E+02 -0.32906790525E+01  0.20332674192E+02  0.00000000000E+00 0.  1.
</event>
<event>
 4    1  0.6718357E+001  0.3340891E+02  0.7546771E-02  0.1392108E+00
          2   -1    0    0  502    0  0.00000000000E+00  0.00000000000E+00  0.56758211521E+01  0.56758211521E+01  0.00000000000E+00 0.  1.
         -2   -1    0    0    0  501 -0.00000000000E+00 -0.00000000000E+00 -0.23448246375E+03  0.23448246375E+03  0.00000000000E+00 0. -1.
          1    1    1    2  502    0 -0.73045656535E+00 -0.33400928252E+02 -0.66170873814E+02  0.74126514259E+02  0.00000000000E+00 0.  1.
         -1    1    1    2    0  501  0.73045656535E+00  0.33400928252E+02 -0.16263576879E+03  0.16603177065E+03  0.00000000000E+00 0. -1.
</event>
<event>
 4    1  0.6718357E+001  0.2394617E+02  0.7546771E-02  0.1480947E+00
          2   -1    0    0  502    0  0.00000000000E+00  0.00000000000E+00  0.29068072863E+03  0.29068072863E+03  0.00000000000E+00 0. -1.
         -2   -1    0    0    0  501 -0.00000000000E+00 -0.00000000000E+00 -0.36334558252E+01  0.36334558252E+01  0.00000000000E+00 0.  1.
          1    1    1    2  502    0 -0.95551384969E+01 -0.21957195658E+02  0.24301312275E+03  0.24419008362E+03  0.00000000000E+00 0. -1.
         -1    1    1    2    0  501  0.95551384969E+01  0.21957195658E+02  0.44034150057E+02  0.50124100831E+02  0.00000000000E+00 0.  1.
</event>
<event>
 4    1  0.6718357E+001  0.5092156E+02  0.7546771E-02  0.1294226E+00
          2   -1    0    0  502    0  0.00000000000E+00  0.00000000000E+00  0.22232779837E+03  0.22232779837E+03  0.00000000000E+00 0.  1.
         -2   -1    0    0    0  501 -0.00000000000E+00 -0.00000000000E+00 -0.11665785525E+02  0.11665785525E+02  0.00000000000E+00 0. -1.
          1    1    1    2  502    0  0.36108406607E+02 -0.35905269085E+02  0.10351767675E+03  0.11536426992E+03  0.00000000000E+00 0.  1.
         -1    1    1    2    0  501 -0.36108406607E+02  0.35905269085E+02  0.10714433610E+03  0.11862931398E+03  0.00000000000E+00 0. -1.
</event>
<event>
 4    1  0.6718357E+001  0.2099946E+02  0.7546771E-02  0.1519272E+00
          2   -1    0    0  502    0  0.00000000000E+00  0.00000000000E+00  0.48285316161E+01  0.48285316161E+01  0.00000000000E+00 0. -1.
         -2   -1    0    0    0  501 -0.00000000000E+00 -0.00000000000E+00 -0.95953938536E+02  0.95953938536E+02  0.00000000000E+00 0.  1.
          1    1    1    2  502    0 -0.20521928459E+02  0.44528446939E+01 -0.56627676947E+02  0.60395953258E+02  0.00000000000E+00 0.  1.
         -1    1    1    2    0  501  0.20521928459E+02 -0.44528446939E+01 -0.34497729973E+02  0.40386516894E+02  0.00000000000E+00 0. -1.
</event>
<event>
 4    1  0.6718357E+001  0.3078220E+02  0.7546771E-02  0.1412918E+00
          2   -1    0    0  502    0  0.00000000000E+00  0.00000000000E+00  0.12003183566E+04  0.12003183566E+04  0.00000000000E+00 0.  1.
         -2   -1    0    0    0  501 -0.00000000000E+00 -0.00000000000E+00 -0.79096329510E+00  0.79096329510E+00  0.00000000000E+00 0. -1.
          1    1    1    2  502    0  0.30738101558E+02 -0.16471034073E+01  0.57315396951E+03  0.57397997927E+03  0.00000000000E+00 0. -1.
         -1    1    1    2    0  501 -0.30738101558E+02  0.16471034073E+01  0.62637342376E+03  0.62712934059E+03  0.00000000000E+00 0.  1.
</event>
<event>
 4    1  0.6718357E+001  0.1111645E+03  0.7546771E-02  0.1145752E+00
          2   -1    0    0  502    0  0.00000000000E+00  0.00000000000E+00  0.28681060777E+03  0.28681060777E+03  0.00000000000E+00 0.  1.
         -2   -1    0    0    0  501 -0.00000000000E+00 -0.00000000000E+00 -0.49416526356E+02  0.49416526356E+02  0.00000000000E+00 0. -1.
          1    1    1    2  502    0 -0.44153706332E+02 -0.10201960441E+03  0.17886749124E+03  0.21059707711E+03  0.00000000000E+00 0.  1.
         -1    1    1    2    0  501  0.44153706332E+02  0.10201960441E+03  0.58526590177E+02  0.12563005701E+03  0.00000000000E+00 0. -1.
</event>
<event>
 4    1  0.6718357E+001  0.2898567E+02  0.7546771E-02  0.1428620E+00
          2   -1    0    0  502    0  0.00000000000E+00  0.00000000000E+00  0.11439437741E+02  0.11439437741E+02  0.00000000000E+00 0. -1.
         -2   -1    0    0    0  501 -0.00000000000E+00 -0.00000000000E+00 -0.74929974934E+02  0.74929974934E+02  0.00000000000E+00 0.  1.
          1    1    1    2  502    0  0.13920798054E+02  0.25424013181E+02 -0.25665775556E+02  0.38715644119E+02  0.00000000000E+00 0. -1.
         -1    1    1    2    0  501 -0.13920798054E+02 -0.25424013181E+02 -0.37824761637E+02  0.47653768556E+02  0.00000000000E+00 0.  1.
</event>
<event>
 4    1  0.6718357E+001  0.2028582E+02  0.7546771E-02  0.1529710E+00
          2   -1    0    0  502    0  0.00000000000E+00  0.00000000000E+00  0.15526118388E+01  0.15526118388E+01  0.00000000000E+00 0.  1.
         -2   -1    0    0    0  501 -0.00000000000E+00 -0.00000000000E+00 -0.38826637689E+03  0.38826637689E+03  0.00000000000E+00 0. -1.
          1    1    1    2  502    0 -0.49649158663E+01 -0.19668859804E+02 -0.83555357261E+02  0.85982627097E+02  0.00000000000E+00 0.  1.
         -1    1    1    2    0  501  0.49649158663E+01  0.19668859804E+02 -0.30315840779E+03  0.30383636163E+03  0.00000000000E+00 0. -1.
</event>
<event>
 4    1  0.6718357E+001  0.2039710E+02  0.7546771E-02  0.1528049E+00
          2   -1    0    0  502    0  0.00000000000E+00  0.00000000000E+00  0.84834542397E+02  0.84834542397E+02  0.00000000000E+00 0. -1.
         -2   -1    0    0    0  501 -0.00000000000E+00 -0.00000000000E+00 -0.48789903588E+02  0.48789903588E+02  0.00000000000E+00 0.  1.
          1    1    1    2  502    0  0.17682647017E+02  0.10166893601E+02  0.81387794907E+02  0.83904796591E+02  0.00000000000E+00 0. -1.
         -1    1    1    2    0  501 -0.17682647017E+02 -0.10166893601E+02 -0.45343156098E+02  0.49719649395E+02  0.00000000000E+00 0.  1.
</event>
<event>
 4    1  0.6718357E+001  0.4910955E+02  0.7546771E-02  0.1302080E+00
          2   -1    0    0  502    0  0.00000000000E+00  0.00000000000E+00  0.67492168210E+02  0.67492168210E+02  0.00000000000E+00 0.  1.
         -2   -1    0    0    0  501 -0.00000000000E+00 -0.00000000000E+00 -0.38226820441E+02  0.38226820441E+02  0.00000000000E+00 0. -1.
          1    1    1    2  502    0 -0.90546983417E+01 -0.48267587902E+02  0.11335045609E+01  0.49122626523E+02  0.00000000000E+00 0. -1.
         -1    1    1    2    0  501  0.90546983417E+01  0.48267587902E+02  0.28131843207E+02  0.56596362128E+02  0.00000000000E+00 0.  1.
</event>
<event>
 4    1  0.6718357E+001  0.2149194E+02  0.7546771E-02  0.1512356E+00
          2   -1    0    0  502    0  0.00000000000E+00  0.00000000000E+00  0.44527048779E+03  0.44527048779E+03  0.00000000000E+00 0. -1.
         -2   -1    0    0    0  501 -0.00000000000E+00 -0.00000000000E+00 -0.10508205062E+01  0.10508205062E+01  0.00000000000E+00 0.  1.
          1    1    1    2  502    0  0.12582124932E+02  0.17423942868E+02  0.19684819125E+03  0.19801796396E+03  0.00000000000E+00 0.  1.
         -1    1    1    2    0  501 -0.12582124932E+02 -0.17423942868E+02  0.24737147604E+03  0.24830334434E+03  0.00000000000E+00 0. -1.
</event>
<event>
 4    1  0.6718357E+001  0.2926084E+02  0.7546771E-02  0.1426130E+00
          2   -1    0    0  502    0  0.00000000000E+00  0.00000000000E+00  0.33474673339E+02  0.33474673339E+02  0.00000000000E+00 0. -1.
         -2   -1    0    0    0  501 -0.00000000000E+00 -0.00000000000E+00 -0.29389788314E+02  0.29389788314E+02  0.00000000000E+00 0.  1.
          1    1    1    2  502    0  0.28486667462E+02 -0.66862911012E+01  0.13363130354E+02  0.32167840534E+02  0.00000000000E+00 0.  1.
         -1    1    1    2    0  501 -0.28486667462E+02  0.66862911012E+01 -0.92782453285E+01  0.30696621119E+02  0.00000000000E+00 0. -1.
</event>
<event>
 4    1  0.6718357E+001  0.2123889E+02  0.7546771E-02  0.1515881E+00
          2   -1    0    0  502    0  0.00000000000E+00  0.00000000000E+00  0.39155346385E+02  0.39155346385E+02  0.00000000000E+00 0. -1.
         -2   -1    0    0    0  501 -0.00000000000E+00 -0.00000000000E+00 -0.13427981650E+02  0.13427981650E+02  0.00000000000E+00 0.  1.
          1    1    1    2  502    0 -0.19967945293E+02 -0.72368088324E+01  0.22772909160E+02  0.31139936302E+02  0.00000000000E+00 0. -1.
         -1    1    1    2    0  501  0.19967945293E+02  0.72368088324E+01  0.29544555751E+01  0.21443391733E+02  0.00000000000E+00 0.  1.
</event>
<event>
 4    1  0.6718357E+001  0.4503915E+02  0.7546771E-02  0.1321244E+00
          2   -1    0    0  502    0  0.00000000000E+00  0.00000000000E+00  0.41427959305E+02  0.41427959305E+02  0.00000000000E+00 0. -1.
         -2   -1    0    0    0  501 -0.00000000000E+00 -0.00000000000E+00 -0.58336217092E+02  0.58336217092E+02  0.00000000000E+00 0.  1.
          1    1    1    2  502    0  0.20147943191E+02  0.40281325542E+02  0.11538542278E+02  0.46493685164E+02  0.00000000000E+00 0.  1.
         -1    1    1    2    0  501 -0.20147943191E+02 -0.40281325542E+02 -0.28446800065E+02  0.53270491233E+02  0.00000000000E+00 0. -1.
</event>
<event>
 4    1  0.6718357E+001  0.2332997E+02  0.7546771E-02  0.1488396E+00
          2   -1    0    0  502    0  0.00000000000E+00  0.00000000000E+00  0.57419090770E+02  0.57419090770E+02  0.00000000000E+00 0. -1.
         -2   -1    0    0    0  501 -0.00000000000E+00 -0.00000000000E+00 -0.14226287430E+02  0.14226287430E+02  0.00000000000E+00 0.  1.
          1    1    1    2  502    0  0.14008944644E+02 -0.18655754091E+02  0.90330458333E+00  0.23347454892E+02  0.00000000000E+00 0.  1.
         -1    1    1    2    0  501 -0.14008944644E+02  0.18655754091E+02  0.42289498757E+02  0.48297923308E+02  0.00000000000E+00 0. -1.
</event>
<event>
 4    1  0.6718357E+001  0.2839747E+02  0.7546771E-02  0.1434054E+00
          2   -1    0    0  502    0  0.00000000000E+00  0.00000000000E+00  0.21192213409E+04  0.21192213409E+04  0.00000000000E+00 0.  1.
         -2   -1    0    0    0  501 -0.00000000000E+00 -0.00000000000E+00 -0.38793034921E+00  0.38793034921E+00  0.00000000000E+00 0. -1.
          1    1    1    2  502    0 -0.21357754804E+02 -0.18715309780E+02  0.91298863433E+03  0.91343016313E+03  0.00000000000E+00 0. -1.
         -1    1    1    2    0  501  0.21357754804E+02  0.18715309780E+02  0.12058447762E+04  0.12061791081E+04  0.00000000000E+00 0.  1.
</event>
<event>
 4    1  0.6718357E+001  0.2104053E+02  0.7546771E-02  0.1518687E+00
          2   -1    0    0  502    0  0.00000000000E+00  0.00000000000E+00  0.90939269709E+00  0.90939269709E+00  0.00000000000E+00 0. -1.
         -2   -1    0    0    0  501 -0.00000000000E+00 -0.00000000000E+00 -0.50603398771E+03  0.50603398771E+03  0.00000000000E+00 0.  1.
          1    1    1    2  502    0 -0.20705115851E+02  0.37419101699E+01 -0.30196302479E+03  0.30269518010E+03  0.00000000000E+00 0.  1.
         -1    1    1    2    0  501  0.20705115851E+02 -0.37419101699E+01 -0.20316157022E+03  0.20424820031E+03  0.00000000000E+00 0. -1.
</event>
<event>
 4    1  0.6718357E+001  0.2066311E+02  0.7546771E-02  0.1524130E+00
          2   -1    0    0  502    0  0.00000000000E+00  0.00000000000E+00  0.67323214384E+03  0.67323214384E+03  0.00000000000E+00 0. -1.
         -2   -1    0    0    0  501 -0.00000000000E+00 -0.00000000000E+00 -0.80228347306E+00  0.80228347306E+00  0.00000000000E+00 0.  1.
          1    1    1    2  502    0  0.19045588704E+02 -0.80143336851E+01  0.49047387106E+03  0.49090893472E+03  0.00000000000E+00 0. -1.
         -1    1    1    2    0  501 -0.19045588704E+02  0.80143336851E+01  0.18195598931E+03  0.18312549260E+03  0.00000000000E+00 0.  1.
</event>
<event>
 4    1  0.6718357E+001  0.3227442E+02  0.7546771E-02  0.1400809E+00
          2   -1    0    0  502    0  0.00000000000E+00  0.00000000000E+00  0.83999195421E+03  0.83999195421E+03  0.00000000000E+00 0.  1.
         -2   -1    0    0    0  501 -0.00000000000E+00 -0.00000000000E+00 -0.13630260909E+01  0.13630260909E+01  0.00000000000E+00 0. -1.
          1    1    1    2  502    0  0.64601581627E+01 -0.31621268480E+02  0.29295888804E+03  0.29473131551E+03  0.00000000000E+00 0. -1.
         -1    1    1    2    0  501 -0.64601581627E+01  0.31621268480E+02  0.54567004008E+03  0.54662366478E+03  0.00000000000E+00 0.  1.
</event>
<event>
 4    1  0.6718357E+001  0.4101187E+02  0.7546771E-02  0.1342656E+00
          2   -1    0    0  502    0  0.00000000000E+00  0.00000000000E+00  0.16897061172E+04  0.16897061172E+04  0.00000000000E+00 0.  1.
         -2   -1    0    0    0  501 -0.00000000000E+00 -0.00000000000E+00 -0.12223095192E+01  0.12223095192E+01  0.00000000000E+00 0. -1.
          1    1    1    2  502    0  0.78308707781E+01  0.40257311561E+02  0.12084991671E+04  0.12091948605E+04  0.00000000000E+00 0.  1.
         -1    1    1    2    0  501 -0.78308707781E+01 -0.40257311561E+02  0.47998464050E+03  0.48173356618E+03  0.00000000000E+00 0. -1.
</event>
<event>
 4    1  0.6718357E+001  0.3282929E+02  0.7546771E-02  0.1396502E+00
          2   -1    0    0  502    0  0.00000000000E+00  0.00000000000E+00  0.19970449948E+03  0.19970449948E+03  0.00000000000E+00 0.  1.
         -2   -1    0    0    0  501 -0.00000000000E+00 -0.00000000000E+00 -0.81503934379E+01  0.81503934379E+01  0.00000000000E+00 0. -1.
          1    1    1    2  502    0 -0.14904119870E+02  0.29251150184E+02  0.35369404298E+02  0.48257199842E+02  0.00000000000E+00 0.  1.
         -1    1    1    2    0  501  0.14904119870E+02 -0.29251150184E+02  0.15618470175E+03  0.15959769308E+03  0.00000000000E+00 0. -1.
</event>
<event>
 4    1  0.6718357E+001  0.2283935E+02  0.7546771E-02  0.1494525E+00
          2   -1    0    0  502    0  0.00000000000E+00  0.00000000000E+00  0.29624713030E+02  0.29624713030E+02  0.00000000000E+00 0.  1.
         -2   -1    0    0    0  501 -0.00000000000E+00 -0.00000000000E+00 -0.20597341722E+02  0.20597341722E+02  0.00000000000E+00 0. -1.
          1    1    1    2  502    0 -0.60075602563E+01  0.22035086315E+02  0.14079836085E+02  0.26830534719E+02  0.00000000000E+00 0.  1.
         -1    1    1    2    0  501  0.60075602563E+01 -0.22035086315E+02 -0.50524647759E+01  0.23391520033E+02  0.00000000000E+00 0. -1.
</event>
<event>
 4    1  0.6718357E+001  0.2316974E+02  0.7546771E-02  0.1490378E+00
          2   -1    0    0  502    0  0.00000000000E+00  0.00000000000E+00  0.16357280378E+04  0.16357280378E+04  0.00000000000E+00 0.  1.
         -2   -1    0    0    0  501 -0.00000000000E+00 -0.00000000000E+00 -0.39947166908E+00  0.39947166908E+00  0.00000000000E+00 0. -1.
          1    1    1    2  502    0  0.10780879113E+02 -0.20508764193E+02  0.11632213029E+04  0.11634520344E+04  0.00000000000E+00 0.  1.
         -1    1    1    2    0  501 -0.10780879113E+02  0.20508764193E+02  0.47210726318E+03  0.47267547505E+03  0.00000000000E+00 0. -1.
</event>
<event>
 4    1  0.6718357E+001  0.2279018E+02  0.7546771E-02  0.1495150E+00
          2   -1    0    0  502    0  0.00000000000E+00  0.00000000000E+00  0.25013772571E+03  0.25013772571E+03  0.00000000000E+00 0. -1.
         -2   -1    0    0    0  501 -0.00000000000E+00 -0.00000000000E+00 -0.32242286189E+01  0.32242286189E+01  0.00000000000E+00 0.  1.
          1    1    1    2  502    0  0.19821288548E+02 -0.11247618762E+02  0.19904114487E+03  0.20034163261E+03  0.00000000000E+00 0. -1.
         -1    1    1    2    0  501 -0.19821288548E+02  0.11247618762E+02  0.47872352222E+02  0.53020321715E+02  0.00000000000E+00 0.  1.
</event>
<event>
 4    1  0.6718357E+001  0.2355939E+02  0.7546771E-02  0.1485591E+00
          2   -1    0    0  502    0  0.00000000000E+00  0.00000000000E+00  0.16345818469E+02  0.16345818469E+02  0.00000000000E+00 0. -1.
         -2   -1    0    0    0  501 -0.00000000000E+00 -0.00000000000E+00 -0.86469283923E+02  0.86469283923E+02  0.00000000000E+00 0.  1.
          1    1    1    2  502    0 -0.37694438019E+00 -0.23556374001E+02  0.49999325480E+01  0.24084106141E+02  0.00000000000E+00 0. -1.
         -1    1    1    2    0  501  0.37694438019E+00  0.23556374001E+02 -0.75123398003E+02  0.78730996250E+02  0.00000000000E+00 0.  1.
</event>
<event>
 4    1  0.6718357E+001  0.2079011E+02  0.7546771E-02  0.1522283E+00
          2   -1    0    0  502    0  0.00000000000E+00  0.00000000000E+00  0.53346414708E+00  0.53346414708E+00  0.00000000000E+00 0. -1.
         -2   -1    0    0    0  501 -0.00000000000E+00 -0.00000000000E+00 -0.90793601189E+03  0.90793601189E+03  0.00000000000E+00 0.  1.
          1    1    1    2  502    0 -0.16108113068E+02 -0.13143711934E+02 -0.60271083684E+03  0.60306930059E+03  0.00000000000E+00 0. -1.
         -1    1    1    2    0  501  0.16108113068E+02  0.13143711934E+02 -0.30469171091E+03  0.30540017545E+03  0.00000000000E+00 0.  1.
</event>
<event>
 4    1  0.6718357E+001  0.2448312E+02  0.7546771E-02  0.1474670E+00
          2   -1    0    0  502    0  0.00000000000E+00  0.00000000000E+00  0.16993672489E+04  0.16993672489E+04  0.00000000000E+00 0. -1.
         -2   -1    0    0    0  501 -0.00000000000E+00 -0.00000000000E+00 -0.36722226830E+00  0.36722226830E+00  0.00000000000E+00 0.  1.
          1    1    1    2  502    0  0.23127763512E+02  0.80330303791E+01  0.68068588104E+03  0.68112604683E+03  0.00000000000E+00 0.  1.
         -1    1    1    2    0  501 -0.23127763512E+02 -0.80330303791E+01  0.10183141456E+04  0.10186084243E+04  0.00000000000E+00 0. -1.
</event>
<event>
 4    1  0.6718357E+001  0.3623859E+02  0.7546771E-02  0.1372059E+00
          2   -1    0    0  502    0  0.00000000000E+00  0.00000000000E+00  0.21434770313E+03  0.21434770313E+03  0.00000000000E+00 0.  1.
         -2   -1    0    0    0  501 -0.00000000000E+00 -0.00000000000E+00 -0.19665628213E+02  0.19665628213E+02  0.00000000000E+00 0. -1.
          1    1    1    2  502    0  0.21075855708E+02 -0.29479549785E+02  0.25663279325E+00  0.36239500683E+02  0.00000000000E+00 0. -1.
         -1    1    1    2    0  501 -0.21075855708E+02  0.29479549785E+02  0.19442544213E+03  0.19777383066E+03  0.00000000000E+00 0.  1.
</event>
<event>
 4    1  0.6718357E+001  0.3187795E+02  0.7546771E-02  0.1403950E+00
          2   -1    0    0  502    0  0.00000000000E+00  0.00000000000E+00  0.57889024447E+01  0.57889024447E+01  0.00000000000E+00 0. -1.
         -2   -1    0    0    0  501 -0.00000000000E+00 -0.00000000000E+00 -0.25762797257E+03  0.25762797257E+03  0.00000000000E+00 0.  1.
          1    1    1    2  502    0 -0.31361479613E+02  0.57150007844E+01 -0.20026386493E+03  0.20278515536E+03  0.00000000000E+00 0.  1.
         -1    1    1    2    0  501  0.31361479613E+02 -0.57150007844E+01 -0.51575205197E+02  0.60631719657E+02  0.00000000000E+00 0. -1.
</event>
<event>
 4    1  0.6718357E+001  0.2878959E+02  0.7546771E-02  0.1430415E+00
          2   -1    0    0  502    0  0.00000000000E+00  0.00000000000E+00  0.35055662944E+03  0.35055662944E+03  0.00000000000E+00 0. -1.
         -2   -1    0    0    0  501 -0.00000000000E+00 -0.00000000000E+00 -0.36464463370E+01  0.36464463370E+01  0.00000000000E+00 0.  1.
          1    1    1    2  502    0  0.18158293284E+02 -0.22340921047E+02  0.68441169569E+02  0.74249808486E+02  0.00000000000E+00 0.  1.
         -1    1    1    2    0  501 -0.18158293284E+02  0.22340921047E+02  0.27846901354E+03  0.27995326729E+03  0.00000000000E+00 0. -1.
</event>
<event>
 4    1  0.6718357E+001  0.1334844E+03  0.7546771E-02  0.1115861E+00
          2   -1    0    0  502    0  0.00000000000E+00  0.00000000000E+00  0.18064412898E+04  0.18064412898E+04  0.00000000000E+00 0.  1.
         -2   -1    0    0    0  501 -0.00000000000E+00 -0.00000000000E+00 -0.11633135023E+02  0.11633135023E+02  0.00000000000E+00 0. -1.
          1    1    1    2  502    0 -0.13000125699E+03 -0.30294614240E+02  0.54287024539E+03  0.55904042234E+03  0.00000000000E+00 0.  1.
         -1    1    1    2    0  501  0.13000125699E+03  0.30294614240E+02  0.12519379093E+04  0.12590340024E+04  0.00000000000E+00 0. -1.
</event>
<event>
 4    1  0.6718357E+001  0.2079330E+02  0.7546771E-02  0.1522237E+00
          2   -1    0    0  502    0  0.00000000000E+00  0.00000000000E+00  0.73621479655E+03  0.73621479655E+03  0.00000000000E+00 0. -1.
         -2   -1    0    0    0  501 -0.00000000000E+00 -0.00000000000E+00 -0.58737827753E+00  0.58737827753E+00  0.00000000000E+00 0.  1.
          1    1    1    2  502    0  0.23950061576E+01  0.20654909963E+02  0.37267244764E+03  0.37325207915E+03  0.00000000000E+00 0. -1.
         -1    1    1    2    0  501 -0.23950061576E+01 -0.20654909963E+02  0.36295497063E+03  0.36355009567E+03  0.00000000000E+00 0.  1.
</event>
<event>
 4    1  0.6718357E+001  0.2892674E+02  0.7546771E-02  0.1429158E+00
          2   -1    0    0  502    0  0.00000000000E+00  0.00000000000E+00  0.11430456341E+04  0.11430456341E+04  0.00000000000E+00 0.  1.
         -2   -1    0    0    0  501 -0.00000000000E+00 -0.00000000000E+00 -0.73563472061E+00  0.73563472061E+00  0.00000000000E+00 0. -1.
          1    1    1    2  502    0 -0.28352693422E+02  0.57342066115E+01  0.53118356250E+03  0.53197061331E+03  0.00000000000E+00 0.  1.
         -1    1    1    2    0  501  0.28352693422E+02 -0.57342066115E+01  0.61112643685E+03  0.61181065549E+03  0.00000000000E+00 0. -1.
</event>
<event>
 4    1  0.6718357E+001  0.2516409E+02  0.7546771E-02  0.1466976E+00
          2   -1    0    0  502    0  0.00000000000E+00  0.00000000000E+00  0.25019841229E+02  0.25019841229E+02  0.00000000000E+00 0. -1.
         -2   -1    0    0    0  501 -0.00000000000E+00 -0.00000000000E+00 -0.30173224528E+02  0.30173224528E+02  0.00000000000E+00 0.  1.
          1    1    1    2  502    0  0.18351488524E+02 -0.17217844671E+02 -0.13656776134E+02  0.28631081722E+02  0.00000000000E+00 0.  1.
         -1    1    1    2    0  501 -0.18351488524E+02  0.17217844671E+02  0.85033928354E+01  0.26561984035E+02  0.00000000000E+00 0. -1.
</event>
<event>
 4    1  0.6718357E+001  0.2116102E+02  0.7546771E-02  0.1516978E+00
          2   -1    0    0  502    0  0.00000000000E+00  0.00000000000E+00  0.11316579173E+04  0.11316579173E+04  0.00000000000E+00 0. -1.
         -2   -1    0    0    0  501 -0.00000000000E+00 -0.00000000000E+00 -0.70876465870E+00  0.70876465870E+00  0.00000000000E+00 0.  1.
          1    1    1    2  502    0  0.16628552819E+02 -0.13087404954E+02  0.18917992388E+03  0.19035974505E+03  0.00000000000E+00 0.  1.
         -1    1    1    2    0  501 -0.16628552819E+02  0.13087404954E+02  0.94176922879E+03  0.94200693694E+03  0.00000000000E+00 0. -1.
</event>
<event>
 4    1  0.6718357E+001  0.7442243E+02  0.7546771E-02  0.1217424E+00
          2   -1    0    0  502    0  0.00000000000E+00  0.00000000000E+00  0.17021800481E+04  0.17021800481E+04  0.00000000000E+00 0.  1.
         -2   -1    0    0    0  501 -0.00000000000E+00 -0.00000000000E+00 -0.32629498777E+01  0.32629498777E+01  0.00000000000E+00 0. -1.
          1    1    1    2  502    0 -0.18270482191E+02  0.72144907539E+02  0.80451349651E+03  0.80794842922E+03  0.00000000000E+00 0. -1.
         -1    1    1    2    0  501  0.18270482191E+02 -0.72144907539E+02  0.89440360167E+03  0.89749456872E+03  0.00000000000E+00 0.  1.
</event>
<event>
 4    1  0.6718357E+001  0.2749719E+02  0.7546771E-02  0.1442677E+00
          2   -1    0    0  502    0  0.00000000000E+00  0.00000000000E+00  0.78721820895E+03  0.78721820895E+03  0.00000000000E+00 0. -1.
         -2   -1    0    0    0  501 -0.00000000000E+00 -0.00000000000E+00 -0.36256776594E+01  0.36256776594E+01  0.00000000000E+00 0.  1.
          1    1    1    2  502    0  0.15131756227E+02 -0.22959215755E+02  0.52770976944E+02  0.59505223655E+02  0.00000000000E+00 0.  1.
         -1    1    1    2    0  501 -0.15131756227E+02  0.22959215755E+02  0.73082155435E+03  0.73133866296E+03  0.00000000000E+00 0. -1.
</event>
<event>
 4    1  0.6718357E+001  0.3993742E+02  0.7546771E-02  0.1348853E+00
          2   -1    0    0  502    0  0.00000000000E+00  0.00000000000E+00  0.78913163566E+02  0.78913163566E+02  0.00000000000E+00 0.  1.
         -2   -1    0    0    0  501 -0.00000000000E+00 -0.00000000000E+00 -0.23509794479E+02  0.23509794479E+02  0.00000000000E+00 0. -1.
          1    1    1    2  502    0  0.20801646711E+02 -0.34092357135E+02  0.85215797722E+01  0.40836437683E+02  0.00000000000E+00 0. -1.
         -1    1    1    2    0  501 -0.20801646711E+02  0.34092357135E+02  0.46881789315E+02  0.61586520361E+02  0.00000000000E+00 0.  1.
</event>
<event>
 4    1  0.6718357E+001  0.5815841E+02  0.7546771E-02  0.1266221E+00
          2   -1    0    0  502    0  0.00000000000E+00  0.00000000000E+00  0.10871494062E+04  0.10871494062E+04  0.00000000000E+00 0.  1.
         -2   -1    0    0    0  501 -0.00000000000E+00 -0.00000000000E+00 -0.40983516963E+01  0.40983516963E+01  0.00000000000E+00 0. -1.
          1    1    1    2  502    0 -0.34186325877E+02  0.47049929453E+02  0.27375161781E+03  0.27986130313E+03  0.00000000000E+00 0.  1.
         -1    1    1    2    0  501  0.34186325877E+02 -0.47049929453E+02  0.80929943665E+03  0.81138645472E+03  0.00000000000E+00 0. -1.
</event>
<event>
 4    1  0.6718357E+001  0.2474333E+02  0.7546771E-02  0.1471695E+00
          2   -1    0    0  502    0  0.00000000000E+00  0.00000000000E+00  0.22809326903E+03  0.22809326903E+03  0.00000000000E+00 0.  1.
         -2   -1    0    0    0  501 -0.00000000000E+00 -0.00000000000E+00 -0.27892406165E+01  0.27892406165E+01  0.00000000000E+00 0. -1.
          1    1    1    2  502    0 -0.73357283073E+01  0.23630903146E+02  0.13506175056E+03  0.13730953703E+03  0.00000000000E+00 0.  1.
         -1    1    1    2    0  501  0.73357283073E+01 -0.23630903146E+02  0.90242277852E+02  0.93572972622E+02  0.00000000000E+00 0. -1.
</event>
<event>
 4    1  0.6718357E+001  0.4118945E+02  0.7546771E-02  0.1341653E+00
          2   -1    0    0  502    0  0.00000000000E+00  0.00000000000E+00  0.18592228013E+02  0.18592228013E+02  0.00000000000E+00 0. -1.
         -2   -1    0    0    0  501 -0.00000000000E+00 -0.00000000000E+00 -0.94722179549E+02  0.94722179549E+02  0.00000000000E+00 0.  1.
          1    1    1    2  502    0  0.23111501806E+02 -0.34094419289E+02 -0.27219989925E+02  0.49371031931E+02  0.00000000000E+00 0. -1.
         -1    1    1    2    0  501 -0.23111501806E+02  0.34094419289E+02 -0.48909961610E+02  0.63943375631E+02  0.00000000000E+00 0.  1.
</event>
<event>
 4    1  0.6718357E+001  0.3189180E+02  0.7546771E-02  0.1403839E+00
          2   -1    0    0  502    0  0.00000000000E+00  0.00000000000E+00  0.16792577488E+04  0.16792577488E+04  0.00000000000E+00 0. -1.
         -2   -1    0    0    0  501 -0.00000000000E+00 -0.00000000000E+00 -0.25127042307E+01  0.25127042307E+01  0.00000000000E+00 0.  1.
          1    1    1    2  502    0 -0.31840673719E+02  0.18051336082E+01  0.15709347762E+04  0.15712584632E+04  0.00000000000E+00 0. -1.
         -1    1    1    2    0  501  0.31840673719E+02 -0.18051336082E+01  0.10581026834E+03  0.11051198983E+03  0.00000000000E+00 0.  1.
</event>
<event>
 4    1  0.6718357E+001  0.3167409E+02  0.7546771E-02  0.1405586E+00
          2   -1    0    0  502    0  0.00000000000E+00  0.00000000000E+00  0.13475320653E+04  0.13475320653E+04  0.00000000000E+00 0. -1.
         -2   -1    0    0    0  501 -0.00000000000E+00 -0.00000000000E+00 -0.77241223112E+00  0.77241223112E+00  0.00000000000E+00 0.  1.
          1    1    1    2  502    0  0.20869742790E+02  0.23826493378E+02  0.80151579356E+03  0.80214139357E+03  0.00000000000E+00 0. -1.
         -1    1    1    2    0  501 -0.20869742790E+02 -0.23826493378E+02  0.54524385950E+03  0.54616308395E+03  0.00000000000E+00 0.  1.
</event>
<event>
 4    1  0.6718357E+001  0.3461727E+02  0.7546771E-02  0.1383274E+00
          2   -1    0    0  502    0  0.00000000000E+00  0.00000000000E+00  0.23871393262E+03  0.23871393262E+03  0.00000000000E+00 0. -1.
         -2   -1    0    0    0  501 -0.00000000000E+00 -0.00000000000E+00 -0.55613928894E+01  0.55613928894E+01  0.00000000000E+00 0.  1.
          1    1    1    2  502    0 -0.31217574900E+02 -0.14960556497E+02  0.15468242375E+03  0.15850869835E+03  0.00000000000E+00 0. -1.
         -1    1    1    2    0  501  0.31217574900E+02  0.14960556497E+02  0.78470115973E+02  0.85766627159E+02  0.00000000000E+00 0.  1.
</event>
<event>
 4    1  0.6718357E+001  0.2255700E+02  0.7546771E-02  0.1498137E+00
          2   -1    0    0  502    0  0.00000000000E+00  0.00000000000E+00  0.11239820418E+03  0.11239820418E+03  0.00000000000E+00 0.  1.
         -2   -1    0    0    0  501 -0.00000000000E+00 -0.00000000000E+00 -0.45359878397E+01  0.45359878397E+01  0.00000000000E+00 0. -1.
          1    1    1    2  502    0 -0.21944600008E+02 -0.52204212306E+01  0.56544484783E+02  0.60877721925E+02  0.00000000000E+00 0.  1.
         -1    1    1    2    0  501  0.21944600008E+02  0.52204212306E+01  0.51317731558E+02  0.56056470096E+02  0.00000000000E+00 0. -1.
</event>
<event>
 4    1  0.6718357E+001  0.2035023E+02  0.7546771E-02  0.1528747E+00
          2   -1    0    0  502    0  0.00000000000E+00  0.00000000000E+00  0.26196438681E+02  0.26196438681E+02  0.00000000000E+00 0.  1.
         -2   -1    0    0    0  501 -0.00000000000E+00 -0.00000000000E+00 -0.23465179641E+02  0.23465179641E+02  0.00000000000E+00 0. -1.
          1    1    1    2  502    0  0.39825037066E+01  0.19956739945E+02  0.15549453009E+02  0.25610882333E+02  0.00000000000E+00 0. -1.
         -1    1    1    2    0  501 -0.39825037066E+01 -0.19956739945E+02 -0.12818193969E+02  0.24050735989E+02  0.00000000000E+00 0.  1.
</event>
<event>
 4    1  0.6718357E+001  0.2642081E+02  0.7546771E-02  0.1453514E+00
          2   -1    0    0  502    0  0.00000000000E+00  0.00000000000E+00  0.23910259808E+04  0.23910259808E+04  0.00000000000E+00 0. -1.
         -2   -1    0    0    0  501 -0.00000000000E+00 -0.00000000000E+00 -0.32443262488E+00  0.32443262488E+00  0.00000000000E+00 0.  1.
          1    1    1    2  502    0  0.23439081082E+02  0.12192985632E+02  0.15736872728E+04  0.15739090482E+04  0.00000000000E+00 0. -1.
         -1    1    1    2    0  501 -0.23439081082E+02 -0.12192985632E+02  0.81701427544E+03  0.81744136530E+03  0.00000000000E+00 0.  1.
</event>
<event>
 4    1  0.6718357E+001  0.2537926E+02  0.7546771E-02  0.1464605E+00
          2   -1    0    0  502    0  0.00000000000E+00  0.00000000000E+00  0.33679699264E+03  0.33679699264E+03  0.00000000000E+00 0. -1.
         -2   -1    0    0    0  501 -0.00000000000E+00 -0.00000000000E+00 -0.21072561310E+01  0.21072561310E+01  0.00000000000E+00 0.  1.
          1    1    1    2  502    0  0.17632208305E+02  0.18254099771E+02  0.21886669529E+03  0.22033324133E+03  0.00000000000E+00 0. -1.
         -1    1    1    2    0  501 -0.17632208305E+02 -0.18254099771E+02  0.11582304122E+03  0.11857100745E+03  0.00000000000E+00 0.  1.
</event>
<event>
 4    1  0.6718357E+001  0.2832177E+02  0.7546771E-02  0.1434764E+00
          2   -1    0    0  502    0  0.00000000000E+00  0.00000000000E+00  0.19383729167E+02  0.19383729167E+02  0.00000000000E+00 0.  1.
         -2   -1    0    0    0  501 -0.00000000000E+00 -0.00000000000E+00 -0.54215375281E+02  0.54215375281E+02  0.00000000000E+00 0. -1.
          1    1    1    2  502    0 -0.24947029202E+02 -0.13407772179E+02 -0.35320426977E+02  0.45273117660E+02  0.00000000000E+00 0. -1.
         -1    1    1    2    0  501  0.24947029202E+02  0.13407772179E+02  0.48878086267E+00  0.28325986788E+02  0.00000000000E+00 0.  1.
</event>
<event>
 4    1  0.6718357E+001  0.2562385E+02  0.7546771E-02  0.1461944E+00
          2   -1    0    0  502    0  0.00000000000E+00  0.00000000000E+00  0.12415227713E+03  0.12415227713E+03  0.00000000000E+00 0. -1.
         -2   -1    0    0    0  501 -0.00000000000E+00 -0.00000000000E+00 -0.10726386549E+02  0.10726386549E+02  0.00000000000E+00 0.  1.
          1    1    1    2  502    0  0.19388163980E+02 -0.16753529687E+02  0.10473059013E+03  0.10781965576E+03  0.00000000000E+00 0. -1.
         -1    1    1    2    0  501 -0.19388163980E+02  0.16753529687E+02  0.86953004492E+01  0.27059007916E+02  0.00000000000E+00 0.  1.
</event>
<event>
 4    1  0.6718357E+001  0.2003806E+02  0.7546771E-02  0.1533455E+00
          2   -1    0    0  502    0  0.00000000000E+00  0.00000000000E+00  0.42725307633E+01  0.42725307633E+01  0.00000000000E+00 0. -1.
         -2   -1    0    0    0  501 -0.00000000000E+00 -0.00000000000E+00 -0.11027736454E+03  0.11027736454E+03  0.00000000000E+00 0.  1.
          1    1    1    2  502    0  0.15917886389E+02 -0.12171472818E+02 -0.75021892286E+02  0.77651839513E+02  0.00000000000E+00 0.  1.
         -1    1    1    2    0  501 -0.15917886389E+02  0.12171472818E+02 -0.30982941493E+02  0.36898055792E+02  0.00000000000E+00 0. -1.
</event>
<event>
 4    1  0.6718357E+001  0.2630779E+02  0.7546771E-02  0.1454688E+00
          2   -1    0    0  502    0  0.00000000000E+00  0.00000000000E+00  0.78092816416E+02  0.78092816416E+02  0.00000000000E+00 0.  1.
         -2   -1    0    0    0  501 -0.00000000000E+00 -0.00000000000E+00 -0.90095845842E+01  0.90095845842E+01  0.00000000000E+00 0. -1.
          1    1    1    2  502    0  0.83544164603E+01 -0.24946008734E+02  0.28977543879E+02  0.39138186920E+02  0.00000000000E+00 0. -1.
         -1    1    1    2    0  501 -0.83544164603E+01  0.24946008734E+02  0.40105687953E+02  0.47964214080E+02  0.00000000000E+00 0.  1.
</event>
<event>
 4    1  0.6718357E+001  0.2444849E+02  0.7546771E-02  0.1475069E+00
          2   -1    0    0  502    0  0.00000000000E+00  0.00000000000E+00  0.12762960044E+01  0.12762960044E+01  0.00000000000E+00 0. -1.
         -2   -1    0    0    0  501 -0.00000000000E+00 -0.00000000000E+00 -0.73697088032E+03  0.73697088032E+03  0.00000000000E+00 0.  1.
          1    1    1    2  502    0  0.83372221549E+01 -0.22983027915E+02 -0.59070720960E+03  0.59121293653E+03  0.00000000000E+00 0.  1.
         -1    1    1    2    0  501 -0.83372221549E+01  0.22983027915E+02 -0.14498737471E+03  0.14703423979E+03  0.00000000000E+00 0. -1.
</event>
<event>
 4    1  0.6718357E+001  0.2736886E+02  0.7546771E-02  0.1443938E+00
          2   -1    0    0  502    0  0.00000000000E+00  0.00000000000E+00  0.34871360057E+03  0.34871360057E+03  0.00000000000E+00 0. -1.
         -2   -1    0    0    0  501 -0.00000000000E+00 -0.00000000000E+00 -0.21618810597E+01  0.21618810597E+01  0.00000000000E+00 0.  1.
          1    1    1    2  502    0 -0.27349057919E+02  0.10408799760E+01  0.18730813453E+03  0.18929709893E+03  0.00000000000E+00 0. -1.
         -1    1    1    2    0  501  0.27349057919E+02 -0.10408799760E+01  0.15924358498E+03  0.16157838270E+03  0.00000000000E+00 0.  1.
</event>
<event>
 4    1  0.6718357E+001  0.2563536E+02  0.7546771E-02  0.1461820E+00
          2   -1    0    0  502    0  0.00000000000E+00  0.00000000000E+00  0.16674166030E+03  0.16674166030E+03  0.00000000000E+00 0.  1.
         -2   -1    0    0    0  501 -0.00000000000E+00 -0.00000000000E+00 -0.12407488986E+02  0.12407488986E+02  0.00000000000E+00 0. -1.
          1    1    1    2  502    0 -0.25416480387E+02 -0.33427888554E+01  0.15115961803E+03  0.15331797623E+03  0.00000000000E+00 0.  1.
         -1    1    1    2    0  501  0.25416480387E+02  0.33427888554E+01  0.31745532782E+01  0.25831173049E+02  0.00000000000E+00 0. -1.
</event>
<event>
 4    1  0.6718357E+001  0.2580902E+02  0.7546771E-02  0.1459953E+00
          2   -1    0    0  502    0  0.00000000000E+00  0.00000000000E+00  0.44227048008E+03  0.44227048008E+03  0.00000000000E+00 0.  1.
         -2   -1    0    0    0  501 -0.00000000000E+00 -0.00000000000E+00 -0.17507858880E+01  0.17507858880E+01  0.00000000000E+00 0. -1.
          1    1    1    2  502    0  0.67721130683E+01 -0.24904701881E+02  0.13726378989E+03  0.13966908644E+03  0.00000000000E+00 0. -1.
         -1    1    1    2    0  501 -0.67721130683E+01  0.24904701881E+02  0.30325590430E+03  0.30435217953E+03  0.00000000000E+00 0.  1.
</event>
<event>
 4    1  0.6718357E+001  0.3081729E+02  0.7546771E-02  0.1412624E+00
          2   -1    0    0  502    0  0.00000000000E+00  0.00000000000E+00  0.27355150373E+02  0.27355150373E+02  0.00000000000E+00 0.  1.
         -2   -1    0    0    0  501 -0.00000000000E+00 -0.00000000000E+00 -0.39777839041E+02  0.39777839041E+02  0.00000000000E+00 0. -1.
          1    1    1    2  502    0  0.28152296227E+02 -0.12536090704E+02  0.57607636429E+01  0.31351104459E+02  0.00000000000E+00 0.  1.
         -1    1    1    2    0  501 -0.28152296227E+02  0.12536090704E+02 -0.18183452311E+02  0.35781884956E+02  0.00000000000E+00 0. -1.
</event>
<event>
 4    1  0.6718357E+001  0.2397730E+02  0.7546771E-02  0.1480578E+00
          2   -1    0    0  502    0  0.00000000000E+00  0.00000000000E+00  0.44031769028E+02  0.44031769028E+02  0.00000000000E+00 0.  1.
         -2   -1    0    0    0  501 -0.00000000000E+00 -0.00000000000E+00 -0.15110337102E+02  0.15110337102E+02  0.00000000000E+00 0. -1.
          1    1    1    2  502    0  0.34211168982E+00  0.23974863604E+02  0.35591747978E+01  0.24240025793E+02  0.00000000000E+00 0. -1.
         -1    1    1    2    0  501 -0.34211168982E+00 -0.23974863604E+02  0.25362257128E+02  0.34902080337E+02  0.00000000000E+00 0.  1.
</event>
<event>
 4    1  0.6718357E+001  0.3037960E+02  0.7546771E-02  0.1416326E+00
          2   -1    0    0  502    0  0.00000000000E+00  0.00000000000E+00  0.65730538358E+01  0.65730538358E+01  0.00000000000E+00 0.  1.
         -2   -1    0    0    0  501 -0.00000000000E+00 -0.00000000000E+00 -0.15774169148E+03  0.15774169148E+03  0.00000000000E+00 0. -1.
          1    1    1    2  502    0 -0.91553715230E+01  0.28967210410E+02 -0.10281749600E+03  0.10721174185E+03  0.00000000000E+00 0. -1.
         -1    1    1    2    0  501  0.91553715230E+01 -0.28967210410E+02 -0.48351141649E+02  0.57103003471E+02  0.00000000000E+00 0.  1.
</event>
<event>
 4    1  0.6718357E+001  0.2192954E+02  0.7546771E-02  0.1506396E+00
          2   -1    0    0  502    0  0.00000000000E+00  0.00000000000E+00  0.11360660829E+03  0.11360660829E+03  0.00000000000E+00 0. -1.
         -2   -1    0    0    0  501 -0.00000000000E+00 -0.00000000000E+00 -0.42357794195E+01  0.42357794195E+01  0.00000000000E+00 0.  1.
          1    1    1    2  502    0 -0.20768890635E+02 -0.70397431560E+01  0.56175423766E+02  0.60304088064E+02  0.00000000000E+00 0. -1.
         -1    1    1    2    0  501  0.20768890635E+02  0.70397431560E+01  0.53195405107E+02  0.57538299649E+02  0.00000000000E+00 0.  1.
</event>
<event>
 4    1  0.6718357E+001  0.2710389E+02  0.7546771E-02  0.1446567E+00
          2   -1    0    0  502    0  0.00000000000E+00  0.00000000000E+00  0.10691282208E+04  0.10691282208E+04  0.00000000000E+00 0.  1.
         -2   -1    0    0    0  501 -0.00000000000E+00 -0.00000000000E+00 -0.79944494718E+00  0.79944494718E+00  0.00000000000E+00 0. -1.
          1    1    1    2  502    0 -0.24999511287E+02 -0.10471161555E+02  0.73468808825E+03  0.73518787246E+03  0.00000000000E+00 0. -1.
         -1    1    1    2    0  501  0.24999511287E+02  0.10471161555E+02  0.33364068755E+03  0.33473979324E+03  0.00000000000E+00 0.  1.
</event>
<event>
 4    1  0.6718357E+001  0.2231630E+02  0.7546771E-02  0.1501267E+00
          2   -1    0    0  502    0  0.00000000000E+00  0.00000000000E+00  0.13500150115E+01  0.13500150115E+01  0.00000000000E+00 0.  1.
         -2   -1    0    0    0  501 -0.00000000000E+00 -0.00000000000E+00 -0.41132426537E+03  0.41132426537E+03  0.00000000000E+00 0. -1.
          1    1    1    2  502    0  0.99764323080E+01  0.19962161701E+02 -0.27125536500E+03  0.27217180262E+03  0.00000000000E+00 0.  1.
         -1    1    1    2    0  501 -0.99764323080E+01 -0.19962161701E+02 -0.13871888535E+03  0.14050247775E+03  0.00000000000E+00 0. -1.
</event>
<event>
 4    1  0.6718357E+001  0.2336172E+02  0.7546771E-02  0.1488005E+00
          2   -1    0    0  502    0  0.00000000000E+00  0.00000000000E+00  0.11340624229E+04  0.11340624229E+04  0.00000000000E+00 0.  1.
         -2   -1    0    0    0  501 -0.00000000000E+00 -0.00000000000E+00 -0.50297551976E+00  0.50297551976E+00  0.00000000000E+00 0. -1.
          1    1    1    2  502    0  0.19640002204E+02  0.12650696304E+02  0.68467360362E+03  0.68507204971E+03  0.00000000000E+00 0.  1.
         -1    1    1    2    0  501 -0.19640002204E+02 -0.12650696304E+02  0.44888584375E+03  0.44949334870E+03  0.00000000000E+00 0. -1.
</event>
<event>
 4    1  0.6718357E+001  0.2057447E+02  0.7546771E-02  0.1525428E+00
          2   -1    0    0  502    0  0.00000000000E+00  0.00000000000E+00  0.88759570083E+03  0.88759570083E+03  0.00000000000E+00 0.  1.
         -2   -1    0    0    0  501 -0.00000000000E+00 -0.00000000000E+00 -0.47710603007E+00  0.47710603007E+00  0.00000000000E+00 0. -1.
          1    1    1    2  502    0  0.87806759897E+01  0.18606681101E+02  0.45241424109E+03  0.45288183271E+03  0.00000000000E+00 0. -1.
         -1    1    1    2    0  501 -0.87806759897E+01 -0.18606681101E+02  0.43470435371E+03  0.43519097415E+03  0.00000000000E+00 0.  1.
</event>
<event>
 4    1  0.6718357E+001  0.3147599E+02  0.7546771E-02  0.1407189E+00
          2   -1    0    0  502    0  0.00000000000E+00  0.00000000000E+00  0.13468471906E+04  0.13468471906E+04  0.00000000000E+00 0.  1.
         -2   -1    0    0    0  501 -0.00000000000E+00 -0.00000000000E+00 -0.77371280315E+00  0.77371280315E+00  0.00000000000E+00 0. -1.
          1    1    1    2  502    0 -0.23628926917E+02  0.20794514176E+02  0.52348375455E+03  0.52442919378E+03  0.00000000000E+00 0. -1.
         -1    1    1    2    0  501  0.23628926917E+02 -0.20794514176E+02  0.82258972324E+03  0.82319170962E+03  0.00000000000E+00 0.  1.
</event>
<event>
 4    1  0.6718357E+001  0.3061585E+02  0.7546771E-02  0.1414319E+00
          2   -1    0    0  502    0  0.00000000000E+00  0.00000000000E+00  0.32180109703E+01  0.32180109703E+01  0.00000000000E+00 0.  1.
         -2   -1    0    0    0  501 -0.00000000000E+00 -0.00000000000E+00 -0.38575776870E+03  0.38575776870E+03  0.00000000000E+00 0. -1.
          1    1    1    2  502    0  0.30542511241E+02  0.21177774282E+01 -0.95018093273E+02  0.99828693387E+02  0.00000000000E+00 0.  1.
         -1    1    1    2    0  501 -0.30542511241E+02 -0.21177774282E+01 -0.28752166446E+03  0.28914708628E+03  0.00000000000E+00 0. -1.
</event>
<event>
 4    1  0.6718357E+001  0.4853647E+02  0.7546771E-02  0.1304646E+00
          2   -1    0    0  502    0  0.00000000000E+00  0.00000000000E+00  0.62496225725E+03  0.62496225725E+03  0.00000000000E+00 0.  1.
         -2   -1    0    0    0  501 -0.00000000000E+00 -0.00000000000E+00 -0.38110507423E+01  0.38110507423E+01  0.00000000000E+00 0. -1.
          1    1    1    2  502    0 -0.33038808589E+02 -0.35555949742E+02  0.34340689213E+03  0.34681995617E+03  0.00000000000E+00 0.  1.
         -1    1    1    2    0  501  0.33038808589E+02  0.35555949742E+02  0.27774431437E+03  0.28195335182E+03  0.00000000000E+00 0. -1.
</event>
<event>
 4    1  0.6718357E+001  0.3097263E+02  0.7546771E-02  0.1411328E+00
          2   -1    0    0  502    0  0.00000000000E+00  0.00000000000E+00  0.12463061362E+04  0.12463061362E+04  0.00000000000E+00 0.  1.
         -2   -1    0    0    0  501 -0.00000000000E+00 -0.00000000000E+00 -0.13461528398E+01  0.13461528398E+01  0.00000000000E+00 0. -1.
          1    1    1    2  502    0 -0.20106565595E+02  0.23559067306E+02  0.21426242580E+03  0.21648947028E+03  0.00000000000E+00 0. -1.
         -1    1    1    2    0  501  0.20106565595E+02 -0.23559067306E+02  0.10306975576E+04  0.10311628188E+04  0.00000000000E+00 0.  1.
</event>
<event>
 4    1  0.6718357E+001  0.3458065E+02  0.7546771E-02  0.1383536E+00
          2   -1    0    0  502    0  0.00000000000E+00  0.00000000000E+00  0.59295518547E+02  0.59295518547E+02  0.00000000000E+00 0. -1.
         -2   -1    0    0    0  501 -0.00000000000E+00 -0.00000000000E+00 -0.26108783791E+02  0.26108783791E+02  0.00000000000E+00 0.  1.
          1    1    1    2  502    0 -0.28166990312E+02  0.20060958778E+02 -0.37774990198E+01  0.34786360964E+02  0.00000000000E+00 0.  1.
         -1    1    1    2    0  501  0.28166990312E+02 -0.20060958778E+02  0.36964233775E+02  0.50617941374E+02  0.00000000000E+00 0. -1.
</event>
<event>
 4    1  0.6718357E+001  0.2741253E+02  0.7546771E-02  0.1443508E+00
          2   -1    0    0  502    0  0.00000000000E+00  0.00000000000E+00  0.11407821457E+04  0.11407821457E+04  0.00000000000E+00 0. -1.
         -2   -1    0    0    0  501 -0.00000000000E+00 -0.00000000000E+00 -0.67190293281E+00  0.67190293281E+00  0.00000000000E+00 0.  1.
          1    1    1    2  502    0 -0.24889225564E+02 -0.11487960313E+02  0.65002279706E+03  0.65060055601E+03  0.00000000000E+00 0. -1.
         -1    1    1    2    0  501  0.24889225564E+02  0.11487960313E+02  0.49008744573E+03  0.49085349264E+03  0.00000000000E+00 0.  1.
</event>
<event>
 4    1  0.6718357E+001  0.2909053E+02  0.7546771E-02  0.1427668E+00
          2   -1    0    0  502    0  0.00000000000E+00  0.00000000000E+00  0.14784943235E+02  0.14784943235E+02  0.00000000000E+00 0.  1.
         -2   -1    0    0    0  501 -0.00000000000E+00 -0.00000000000E+00 -0.57614125464E+02  0.57614125464E+02  0.00000000000E+00 0. -1.
          1    1    1    2  502    0 -0.28396230986E+02  0.63176891020E+01 -0.18489351007E+02  0.34469047426E+02  0.00000000000E+00 0. -1.
         -1    1    1    2    0  501  0.28396230986E+02 -0.63176891020E+01 -0.24339831223E+02  0.37930021273E+02  0.00000000000E+00 0.  1.
</event>
<event>
 4    1  0.6718357E+001  0.2397592E+02  0.7546771E-02  0.1480594E+00
          2   -1    0    0  502    0  0.00000000000E+00  0.00000000000E+00  0.14186628789E+04  0.14186628789E+04  0.00000000000E+00 0.  1.
         -2   -1    0    0    0  501 -0.00000000000E+00 -0.00000000000E+00 -0.42284307936E+00  0.42284307936E+00  0.00000000000E+00 0. -1.
          1    1    1    2  502    0  0.83540129659E+01 -0.22473428889E+02  0.56419081215E+03  0.56470002396E+03  0.00000000000E+00 0. -1.
         -1    1    1    2    0  501 -0.83540129659E+01  0.22473428889E+02  0.85404922371E+03  0.85438569806E+03  0.00000000000E+00 0.  1.
</event>
<event>
 4    1  0.6718357E+001  0.2323144E+02  0.7546771E-02  0.1489612E+00
          2   -1    0    0  502    0  0.00000000000E+00  0.00000000000E+00  0.74632285845E+03  0.74632285845E+03  0.00000000000E+00 0. -1.
         -2   -1    0    0    0  501 -0.00000000000E+00 -0.00000000000E+00 -0.77954228407E+00  0.77954228407E+00  0.00000000000E+00 0.  1.
          1    1    1    2  502    0  0.16190807481E+02  0.16660062536E+02  0.47324663420E+03  0.47381650109E+03  0.00000000000E+00 0. -1.
         -1    1    1    2    0  501 -0.16190807481E+02 -0.16660062536E+02  0.27229668197E+03  0.27328589964E+03  0.00000000000E+00 0.  1.
</event>
<event>
 4    1  0.6718357E+001  0.2203278E+02  0.7546771E-02  0.1505014E+00
          2   -1    0    0  502    0  0.00000000000E+00  0.00000000000E+00  0.13628575873E+04  0.13628575873E+04  0.00000000000E+00 0.  1.
         -2   -1    0    0    0  501 -0.00000000000E+00 -0.00000000000E+00 -0.36198660400E+00  0.36198660400E+00  0.00000000000E+00 0. -1.
          1    1    1    2  502    0  0.45010958416E+01 -0.21568110232E+02  0.76746301690E+03  0.76777921667E+03  0.00000000000E+00 0.  1.
         -1    1    1    2    0  501 -0.45010958416E+01  0.21568110232E+02  0.59503258384E+03  0.59544035727E+03  0.00000000000E+00 0. -1.
</event>
<event>
 4    1  0.6718357E+001  0.2331108E+02  0.7546771E-02  0.1488628E+00
          2   -1    0    0  502    0  0.00000000000E+00  0.00000000000E+00  0.15635982262E+01  0.15635982262E+01  0.00000000000E+00 0. -1.
         -2   -1    0    0    0  501 -0.00000000000E+00 -0.00000000000E+00 -0.48211292754E+03  0.48211292754E+03  0.00000000000E+00 0.  1.
          1    1    1    2  502    0 -0.17164199881E+02  0.15773294299E+02 -0.11250256355E+03  0.11489226857E+03  0.00000000000E+00 0. -1.
         -1    1    1    2    0  501  0.17164199881E+02 -0.15773294299E+02 -0.36804676576E+03  0.36878425720E+03  0.00000000000E+00 0.  1.
</event>
<event>
 4    1  0.6718357E+001  0.3378845E+02  0.7546771E-02  0.1389287E+00
          2   -1    0    0  502    0  0.00000000000E+00  0.00000000000E+00  0.15117623483E+02  0.15117623483E+02  0.00000000000E+00 0.  1.
         -2   -1    0    0    0  501 -0.00000000000E+00 -0.00000000000E+00 -0.76994530066E+02  0.76994530066E+02  0.00000000000E+00 0. -1.
          1    1    1    2  502    0  0.31866570037E+02 -0.11233037496E+02 -0.37315398711E+02  0.50339829144E+02  0.00000000000E+00 0. -1.
         -1    1    1    2    0  501 -0.31866570037E+02  0.11233037496E+02 -0.24561507872E+02  0.41772324405E+02  0.00000000000E+00 0.  1.
</event>
<event>
 4    1  0.6718357E+001  0.2218021E+02  0.7546771E-02  0.1503057E+00
          2   -1    0    0  502    0  0.00000000000E+00  0.00000000000E+00  0.20364236685E+03  0.20364236685E+03  0.00000000000E+00 0.  1.
         -2   -1    0    0    0  501 -0.00000000000E+00 -0.00000000000E+00 -0.28291083976E+01  0.28291083976E+01  0.00000000000E+00 0. -1.
          1    1    1    2  502    0  0.63535278850E+01 -0.21250746533E+02  0.60948507039E+02  0.64858939669E+02  0.00000000000E+00 0. -1.
         -1    1    1    2    0  501 -0.63535278850E+01  0.21250746533E+02  0.13986475142E+03  0.14161253558E+03  0.00000000000E+00 0.  1.
</event>
<event>
 4    1  0.6718357E+001  0.2012656E+02  0.7546771E-02  0.1532110E+00
          2   -1    0    0  502    0  0.00000000000E+00  0.00000000000E+00  0.33516513724E+01  0.33516513724E+01  0.00000000000E+00 0.  1.
         -2   -1    0    0    0  501 -0.00000000000E+00 -0.00000000000E+00 -0.14168747839E+03  0.14168747839E+03  0.00000000000E+00 0. -1.
          1    1    1    2  502    0 -0.90306945527E+01 -0.17986801302E+02 -0.41363458054E+02  0.46000153558E+02  0.00000000000E+00 0.  1.
         -1    1    1    2    0  501  0.90306945527E+01  0.17986801302E+02 -0.96972368959E+02  0.99038976200E+02  0.00000000000E+00 0. -1.
</event>
<event>
 4    1  0.6718357E+001  0.2297290E+02  0.7546771E-02  0.1492839E+00
          2   -1    0    0  502    0  0.00000000000E+00  0.00000000000E+00  0.19923080397E+04  0.19923080397E+04  0.00000000000E+00 0. -1.
         -2   -1    0    0    0  501 -0.00000000000E+00 -0.00000000000E+00 -0.35286740061E+00  0.35286740061E+00  0.00000000000E+00 0.  1.
          1    1    1    2  502    0  0.10487347441E+02  0.20439415058E+02  0.14934497031E+04  0.14936263823E+04  0.00000000000E+00 0. -1.
         -1    1    1    2    0  501 -0.10487347441E+02 -0.20439415058E+02  0.49850546920E+03  0.49903452482E+03  0.00000000000E+00 0.  1.
</event>
<event>
 4    1  0.6718357E+001  0.2464792E+02  0.7546771E-02  0.1472781E+00
          2   -1    0    0  502    0  0.00000000000E+00  0.00000000000E+00  0.11359770060E+01  0.11359770060E+01  0.00000000000E+00 0.  1.
         -2   -1    0    0    0  501 -0.00000000000E+00 -0.00000000000E+00 -0.85846442902E+03  0.85846442902E+03  0.00000000000E+00 0. -1.
          1    1    1    2  502    0  0.96915624877E+01  0.22662602305E+02 -0.69257267274E+03  0.69301113047E+03  0.00000000000E+00 0. -1.
         -1    1    1    2    0  501 -0.96915624877E+01 -0.22662602305E+02 -0.16475577927E+03  0.16658927556E+03  0.00000000000E+00 0.  1.
</event>
<event>
 4    1  0.6718357E+001  0.2117493E+02  0.7546771E-02  0.1516782E+00
          2   -1    0    0  502    0  0.00000000000E+00  0.00000000000E+00  0.39896816744E+01  0.39896816744E+01  0.00000000000E+00 0. -1.
         -2   -1    0    0    0  501 -0.00000000000E+00 -0.00000000000E+00 -0.11556713645E+03  0.11556713645E+03  0.00000000000E+00 0.  1.
          1    1    1    2  502    0  0.19198344192E+02 -0.89331557459E+01 -0.45868252267E+02  0.50520038176E+02  0.00000000000E+00 0. -1.
         -1    1    1    2    0  501 -0.19198344192E+02  0.89331557459E+01 -0.65709202510E+02  0.69036779949E+02  0.00000000000E+00 0.  1.
</event>
<event>
 4    1  0.6718357E+001  0.2759612E+02  0.7546771E-02  0.1441710E+00
          2   -1    0    0  502    0  0.00000000000E+00  0.00000000000E+00  0.17089830933E+02  0.17089830933E+02  0.00000000000E+00 0. -1.
         -2   -1    0    0    0  501 -0.00000000000E+00 -0.00000000000E+00 -0.44599111547E+02  0.44599111547E+02  0.00000000000E+00 0.  1.
          1    1    1    2  502    0 -0.29860844925E+01 -0.27434091537E+02 -0.12857229025E+02  0.30444283819E+02  0.00000000000E+00 0.  1.
         -1    1    1    2    0  501  0.29860844925E+01  0.27434091537E+02 -0.14652051588E+02  0.31244658661E+02  0.00000000000E+00 0. -1.
</event>
<event>
 4    1  0.6718357E+001  0.4304653E+02  0.7546771E-02  0.1331502E+00
          2   -1    0    0  502    0  0.00000000000E+00  0.00000000000E+00  0.12133038284E+04  0.12133038284E+04  0.00000000000E+00 0. -1.
         -2   -1    0    0    0  501 -0.00000000000E+00 -0.00000000000E+00 -0.17956336238E+01  0.17956336238E+01  0.00000000000E+00 0.  1.
          1    1    1    2  502    0  0.42921864295E+02 -0.32737167851E+01  0.37086615637E+03  0.37335600919E+03  0.00000000000E+00 0.  1.
         -1    1    1    2    0  501 -0.42921864295E+02  0.32737167851E+01  0.84064203838E+03  0.84174345281E+03  0.00000000000E+00 0. -1.
</event>
<event>
 4    1  0.6718357E+001  0.2098603E+02  0.7546771E-02  0.1519464E+00
          2   -1    0    0  502    0  0.00000000000E+00  0.00000000000E+00  0.97305048722E+03  0.97305048722E+03  0.00000000000E+00 0. -1.
         -2   -1    0    0    0  501 -0.00000000000E+00 -0.00000000000E+00 -0.46222642717E+00  0.46222642717E+00  0.00000000000E+00 0.  1.
          1    1    1    2  502    0 -0.20212699164E+02 -0.56444792879E+01  0.41608905009E+03  0.41661794364E+03  0.00000000000E+00 0. -1.
         -1    1    1    2    0  501  0.20212699164E+02  0.56444792879E+01  0.55649921070E+03  0.55689477001E+03  0.00000000000E+00 0.  1.
</event>
<event>
 4    1  0.6718357E+001  0.2471853E+02  0.7546771E-02  0.1471977E+00
          2   -1    0    0  502    0  0.00000000000E+00  0.00000000000E+00  0.15932128851E+03  0.15932128851E+03  0.00000000000E+00 0. -1.
         -2   -1    0    0    0  501 -0.00000000000E+00 -0.00000000000E+00 -0.46621851297E+01  0.46621851297E+01  0.00000000000E+00 0.  1.
          1    1    1    2  502    0  0.18027726171E+02 -0.16911729267E+02  0.42794276664E+02  0.49420194383E+02  0.00000000000E+00 0. -1.
         -1    1    1    2    0  501 -0.18027726171E+02  0.16911729267E+02  0.11186482672E+03  0.11456327926E+03  0.00000000000E+00 0.  1.
</event>
<event>
 4    1  0.6718357E+001  0.2709597E+02  0.7546771E-02  0.1446646E+00
          2   -1    0    0  502    0  0.00000000000E+00  0.00000000000E+00  0.10653352983E+03  0.10653352983E+03  0.00000000000E+00 0. -1.
         -2   -1    0    0    0  501 -0.00000000000E+00 -0.00000000000E+00 -0.68919083527E+01  0.68919083527E+01  0.00000000000E+00 0.  1.
          1    1    1    2  502    0 -0.26790619786E+02 -0.40564057993E+01  0.49473175213E+02  0.56407329330E+02  0.00000000000E+00 0.  1.
         -1    1    1    2    0  501  0.26790619786E+02  0.40564057993E+01  0.50168446266E+02  0.57018108854E+02  0.00000000000E+00 0. -1.
</event>
<event>
 4    1  0.6718357E+001  0.2084281E+02  0.7546771E-02  0.1521521E+00
          2   -1    0    0  502    0  0.00000000000E+00  0.00000000000E+00  0.63473538316E+02  0.63473538316E+02  0.00000000000E+00 0. -1.
         -2   -1    0    0    0  501 -0.00000000000E+00 -0.00000000000E+00 -0.70146219891E+01  0.70146219891E+01  0.00000000000E+00 0.  1.
          1    1    1    2  502    0  0.83837188437E+01 -0.19082342171E+02  0.33723708064E+02  0.39644810631E+02  0.00000000000E+00 0. -1.
         -1    1    1    2    0  501 -0.83837188437E+01  0.19082342171E+02  0.22735208263E+02  0.30843349674E+02  0.00000000000E+00 0.  1.
</event>
<event>
 4    1  0.6718357E+001  0.3277733E+02  0.7546771E-02  0.1396901E+00
          2   -1    0    0  502    0  0.00000000000E+00  0.00000000000E+00  0.91348876527E+03  0.91348876527E+03  0.00000000000E+00 0. -1.
         -2   -1    0    0    0  501 -0.00000000000E+00 -0.00000000000E+00 -0.12060085314E+01  0.12060085314E+01  0.00000000000E+00 0.  1.
          1    1    1    2  502    0  0.30436122289E+02 -0.12165341297E+02  0.38411741030E+03  0.38551334343E+03  0.00000000000E+00 0. -1.
         -1    1    1    2    0  501 -0.30436122289E+02  0.12165341297E+02  0.52816534645E+03  0.52918143038E+03  0.00000000000E+00 0.  1.
</event>
<event>
 4    1  0.6718357E+001  0.2762326E+02  0.7546771E-02  0.1441446E+00
          2   -1    0    0  502    0  0.00000000000E+00  0.00000000000E+00  0.35577847736E+03  0.35577847736E+03  0.00000000000E+00 0.  1.
         -2   -1    0    0    0  501 -0.00000000000E+00 -0.00000000000E+00 -0.25256226771E+01  0.25256226771E+01  0.00000000000E+00 0. -1.
          1    1    1    2  502    0 -0.26993625191E+02 -0.58642004469E+01  0.24620018671E+03  0.24774498296E+03  0.00000000000E+00 0.  1.
         -1    1    1    2    0  501  0.26993625191E+02  0.58642004469E+01  0.10705266797E+03  0.11055911707E+03  0.00000000000E+00 0. -1.
</event>
<event>
 4    1  0.6718357E+001  0.3067671E+02  0.7546771E-02  0.1413805E+00
          2   -1    0    0  502    0  0.00000000000E+00  0.00000000000E+00  0.68244687867E+03  0.68244687867E+03  0.00000000000E+00 0.  1.
         -2   -1    0    0    0  501 -0.00000000000E+00 -0.00000000000E+00 -0.19213719032E+01  0.19213719032E+01  0.00000000000E+00 0. -1.
          1    1    1    2  502    0  0.27273471511E+02  0.14043437725E+02  0.15845073347E+03  0.16139298414E+03  0.00000000000E+00 0. -1.
         -1    1    1    2    0  501 -0.27273471511E+02 -0.14043437725E+02  0.52207477329E+03  0.52297526643E+03  0.00000000000E+00 0.  1.
</event>
<event>
 4    1  0.6718357E+001  0.2554468E+02  0.7546771E-02  0.1462801E+00
          2   -1    0    0  502    0  0.00000000000E+00  0.00000000000E+00  0.47491431658E+01  0.47491431658E+01  0.00000000000E+00 0. -1.
         -2   -1    0    0    0  501 -0.00000000000E+00 -0.00000000000E+00 -0.14320405971E+03  0.14320405971E+03  0.00000000000E+00 0.  1.
          1    1    1    2  502    0 -0.25311761838E+02  0.34417137223E+01 -0.84120903547E+02  0.87913918660E+02  0.00000000000E+00 0.  1.
         -1    1    1    2    0  501  0.25311761838E+02 -0.34417137223E+01 -0.54334012997E+02  0.60039284215E+02  0.00000000000E+00 0. -1.
</event>
<event>
 4    1  0.6718357E+001  0.2703172E+02  0.7546771E-02  0.1447290E+00
          2   -1    0    0  502    0  0.00000000000E+00  0.00000000000E+00  0.22068881640E+02  0.22068881640E+02  0.00000000000E+00 0.  1.
         -2   -1    0    0    0  501 -0.00000000000E+00 -0.00000000000E+00 -0.54430110013E+02  0.54430110013E+02  0.00000000000E+00 0. -1.
          1    1    1    2  502    0  0.17331895256E+02 -0.20744143754E+02 -0.40118987478E+02  0.48376102050E+02  0.00000000000E+00 0. -1.
         -1    1    1    2    0  501 -0.17331895256E+02  0.20744143754E+02  0.77577591048E+01  0.28122889603E+02  0.00000000000E+00 0.  1.
</event>
<event>
 4    1  0.6718357E+001  0.3513594E+02  0.7546771E-02  0.1379610E+00
          2   -1    0    0  502    0  0.00000000000E+00  0.00000000000E+00  0.22188837399E+02  0.22188837399E+02  0.00000000000E+00 0.  1.
         -2   -1    0    0    0  501 -0.00000000000E+00 -0.00000000000E+00 -0.78293875077E+02  0.78293875077E+02  0.00000000000E+00 0. -1.
          1    1    1    2  502    0 -0.24742671950E+02 -0.24946634363E+02 -0.55079118148E+02  0.65331796525E+02  0.00000000000E+00 0. -1.
         -1    1    1    2    0  501  0.24742671950E+02  0.24946634363E+02 -0.10259195299E+01  0.35150915950E+02  0.00000000000E+00 0.  1.
</event>
<event>
 4    1  0.6718357E+001  0.2157339E+02  0.7546771E-02  0.1511234E+00
          2   -1    0    0  502    0  0.00000000000E+00  0.00000000000E+00  0.48018978925E+02  0.48018978925E+02  0.00000000000E+00 0.  1.
         -2   -1    0    0    0  501 -0.00000000000E+00 -0.00000000000E+00 -0.10597247827E+02  0.10597247827E+02  0.00000000000E+00 0. -1.
          1    1    1    2  502    0  0.14094818344E+02 -0.16332398915E+02  0.10146029909E+02  0.23840156908E+02  0.00000000000E+00 0. -1.
         -1    1    1    2    0  501 -0.14094818344E+02  0.16332398915E+02  0.27275701189E+02  0.34776069844E+02  0.00000000000E+00 0.  1.
</event>
<event>
 4    1  0.6718357E+001  0.2010665E+02  0.7546771E-02  0.1532412E+00
          2   -1    0    0  502    0  0.00000000000E+00  0.00000000000E+00  0.74218699725E+01  0.74218699725E+01  0.00000000000E+00 0. -1.
         -2   -1    0    0    0  501 -0.00000000000E+00 -0.00000000000E+00 -0.54695936245E+02  0.54695936245E+02  0.00000000000E+00 0.  1.
          1    1    1    2  502    0  0.17007992359E+02 -0.10724069500E+02 -0.21645739374E+02  0.29543451115E+02  0.00000000000E+00 0. -1.
         -1    1    1    2    0  501 -0.17007992359E+02  0.10724069500E+02 -0.25628326899E+02  0.32574355103E+02  0.00000000000E+00 0.  1.
</event>
<event>
 4    1  0.6718357E+001  0.3518422E+02  0.7546771E-02  0.1379273E+00
          2   -1    0    0  502    0  0.00000000000E+00  0.00000000000E+00  0.32997677827E+04  0.32997677827E+04  0.00000000000E+00 0. -1.
         -2   -1    0    0    0  501 -0.00000000000E+00 -0.00000000000E+00 -0.53121703226E+00  0.53121703226E+00  0.00000000000E+00 0.  1.
          1    1    1    2  502    0 -0.33025022968E+02  0.12135784676E+02  0.75521413453E+03  0.75603327863E+03  0.00000000000E+00 0.  1.
         -1    1    1    2    0  501  0.33025022968E+02 -0.12135784676E+02  0.25440224311E+04  0.25442657211E+04  0.00000000000E+00 0. -1.
</event>
<event>
 4    1  0.6718357E+001  0.3484452E+02  0.7546771E-02  0.1381660E+00
          2   -1    0    0  502    0  0.00000000000E+00  0.00000000000E+00  0.13792877477E+02  0.13792877477E+02  0.00000000000E+00 0.  1.
         -2   -1    0    0    0  501 -0.00000000000E+00 -0.00000000000E+00 -0.10431052506E+03  0.10431052506E+03  0.00000000000E+00 0. -1.
          1    1    1    2  502    0 -0.13249165862E+02  0.32227325155E+02 -0.68590564823E+02  0.76933779742E+02  0.00000000000E+00 0. -1.
         -1    1    1    2    0  501  0.13249165862E+02 -0.32227325155E+02 -0.21927082759E+02  0.41169622794E+02  0.00000000000E+00 0.  1.
</event>
<event>
 4    1  0.6718357E+001  0.2183271E+02  0.7546771E-02  0.1507700E+00
          2   -1    0    0  502    0  0.00000000000E+00  0.00000000000E+00  0.16472637472E+04  0.16472637472E+04  0.00000000000E+00 0.  1.
         -2   -1    0    0    0  501 -0.00000000000E+00 -0.00000000000E+00 -0.54023593502E+00  0.54023593502E+00  0.00000000000E+00 0. -1.
          1    1    1    2  502    0  0.17819575263E+02 -0.12614679848E+02  0.13848043372E+04  0.13849764329E+04  0.00000000000E+00 0.  1.
         -1    1    1    2    0  501 -0.17819575263E+02  0.12614679848E+02  0.26191917408E+03  0.26282755023E+03  0.00000000000E+00 0. -1.
</event>
<event>
 4    1  0.6718357E+001  0.2994801E+02  0.7546771E-02  0.1420049E+00
          2   -1    0    0  502    0  0.00000000000E+00  0.00000000000E+00  0.48688109524E+02  0.48688109524E+02  0.00000000000E+00 0. -1.
         -2   -1    0    0    0  501 -0.00000000000E+00 -0.00000000000E+00 -0.20032987717E+02  0.20032987717E+02  0.00000000000E+00 0.  1.
          1    1    1    2  502    0 -0.26861480958E+02  0.13241751944E+02  0.45805936491E+01  0.30296286769E+02  0.00000000000E+00 0.  1.
         -1    1    1    2    0  501  0.26861480958E+02 -0.13241751944E+02  0.24074528157E+02  0.38424810472E+02  0.00000000000E+00 0. -1.
</event>
<event>
 4    1  0.6718357E+001  0.2095759E+02  0.7546771E-02  0.1519871E+00
          2   -1    0    0  502    0  0.00000000000E+00  0.00000000000E+00  0.11972740525E+04  0.11972740525E+04  0.00000000000E+00 0.  1.
         -2   -1    0    0    0  501 -0.00000000000E+00 -0.00000000000E+00 -0.44433976577E+00  0.44433976577E+00  0.00000000000E+00 0. -1.
          1    1    1    2  502    0 -0.16143293983E+02  0.13364680287E+02  0.34832975304E+03  0.34895965021E+03  0.00000000000E+00 0. -1.
         -1    1    1    2    0  501  0.16143293983E+02 -0.13364680287E+02  0.84849995964E+03  0.84875874201E+03  0.00000000000E+00 0.  1.
</event>
<event>
 4    1  0.6718357E+001  0.3255689E+02  0.7546771E-02  0.1398604E+00
          2   -1    0    0  502    0  0.00000000000E+00  0.00000000000E+00  0.11835482355E+04  0.11835482355E+04  0.00000000000E+00 0.  1.
         -2   -1    0    0    0  501 -0.00000000000E+00 -0.00000000000E+00 -0.92202682715E+00  0.92202682715E+00  0.00000000000E+00 0. -1.
          1    1    1    2  502    0 -0.16921032380E+02 -0.27814199006E+02  0.49099337672E+03  0.49207158726E+03  0.00000000000E+00 0. -1.
         -1    1    1    2    0  501  0.16921032380E+02  0.27814199006E+02  0.69163283196E+03  0.69239867508E+03  0.00000000000E+00 0.  1.
</event>
<event>
 4    1  0.6718357E+001  0.2596953E+02  0.7546771E-02  0.1458243E+00
          2   -1    0    0  502    0  0.00000000000E+00  0.00000000000E+00  0.13576367620E+04  0.13576367620E+04  0.00000000000E+00 0. -1.
         -2   -1    0    0    0  501 -0.00000000000E+00 -0.00000000000E+00 -0.10796906228E+01  0.10796906228E+01  0.00000000000E+00 0.  1.
          1    1    1    2  502    0 -0.23378865844E+02  0.11306851784E+02  0.17909697509E+03  0.18097000512E+03  0.00000000000E+00 0.  1.
         -1    1    1    2    0  501  0.23378865844E+02 -0.11306851784E+02  0.11774600962E+04  0.11777464475E+04  0.00000000000E+00 0. -1.
</event>
<event>
 4    1  0.6718357E+001  0.2462370E+02  0.7546771E-02  0.1473057E+00
          2   -1    0    0  502    0  0.00000000000E+00  0.00000000000E+00  0.17719703157E+03  0.17719703157E+03  0.00000000000E+00 0. -1.
         -2   -1    0    0    0  501 -0.00000000000E+00 -0.00000000000E+00 -0.78552193068E+01  0.78552193068E+01  0.00000000000E+00 0.  1.
          1    1    1    2  502    0  0.24312383771E+02  0.39031211382E+01  0.15418236515E+03  0.15613624846E+03  0.00000000000E+00 0. -1.
         -1    1    1    2    0  501 -0.24312383771E+02 -0.39031211382E+01  0.15159447119E+02  0.28916002424E+02  0.00000000000E+00 0.  1.
</event>
<event>
 4    1  0.6718357E+001  0.2149124E+02  0.7546771E-02  0.1512365E+00
          2   -1    0    0  502    0  0.00000000000E+00  0.00000000000E+00  0.13306974955E+01  0.13306974955E+01  0.00000000000E+00 0.  1.
         -2   -1    0    0    0  501 -0.00000000000E+00 -0.00000000000E+00 -0.37323988827E+03  0.37323988827E+03  0.00000000000E+00 0. -1.
          1    1    1    2  502    0 -0.14088038151E+02 -0.16229626741E+02 -0.23552623420E+03  0.23650471580E+03  0.00000000000E+00 0. -1.
         -1    1    1    2    0  501  0.14088038151E+02  0.16229626741E+02 -0.13638295658E+03  0.13806586996E+03  0.00000000000E+00 0.  1.
</event>
<event>
 4    1  0.6718357E+001  0.2027362E+02  0.7546771E-02  0.1529893E+00
          2   -1    0    0  502    0  0.00000000000E+00  0.00000000000E+00  0.67378091801E+01  0.67378091801E+01  0.00000000000E+00 0.  1.
         -2   -1    0    0    0  501 -0.00000000000E+00 -0.00000000000E+00 -0.14513863137E+03  0.14513863137E+03  0.00000000000E+00 0. -1.
          1    1    1    2  502    0  0.17449880753E+02 -0.10320918162E+02 -0.11382616940E+02  0.23250455014E+02  0.00000000000E+00 0.  1.
         -1    1    1    2    0  501 -0.17449880753E+02  0.10320918162E+02 -0.12701820525E+03  0.12862598553E+03  0.00000000000E+00 0. -1.
</event>
<event>
 4    1  0.6718357E+001  0.2479911E+02  0.7546771E-02  0.1471063E+00
          2   -1    0    0  502    0  0.00000000000E+00  0.00000000000E+00  0.10793324892E+04  0.10793324892E+04  0.00000000000E+00 0. -1.
         -2   -1    0    0    0  501 -0.00000000000E+00 -0.00000000000E+00 -0.74945344194E+00  0.74945344194E+00  0.00000000000E+00 0.  1.
          1    1    1    2  502    0  0.17891379217E+02 -0.17172494879E+02  0.27487980680E+03  0.27599620327E+03  0.00000000000E+00 0.  1.
         -1    1    1    2    0  501 -0.17891379217E+02  0.17172494879E+02  0.80370322892E+03  0.80408573934E+03  0.00000000000E+00 0. -1.
</event>
<event>
 4    1  0.6718357E+001  0.2556856E+02  0.7546771E-02  0.1462542E+00
          2   -1    0    0  502    0  0.00000000000E+00  0.00000000000E+00  0.22977133308E+04  0.22977133308E+04  0.00000000000E+00 0.  1.
         -2   -1    0    0    0  501 -0.00000000000E+00 -0.00000000000E+00 -0.33735500095E+00  0.33735500095E+00  0.00000000000E+00 0. -1.
          1    1    1    2  502    0 -0.20438880117E+02 -0.15362396486E+02  0.16034003757E+04  0.16036042267E+04  0.00000000000E+00 0.  1.
         -1    1    1    2    0  501  0.20438880117E+02  0.15362396486E+02  0.69397560011E+03  0.69444645912E+03  0.00000000000E+00 0. -1.
</event>
<event>
 4    1  0.6718357E+001  0.4145399E+02  0.7546771E-02  0.1340170E+00
          2   -1    0    0  502    0  0.00000000000E+00  0.00000000000E+00  0.81034668296E+03  0.81034668296E+03  0.00000000000E+00 0.  1.
         -2   -1    0    0    0  501 -0.00000000000E+00 -0.00000000000E+00 -0.21549890926E+01  0.21549890926E+01  0.00000000000E+00 0. -1.
          1    1    1    2  502    0 -0.37163705158E+02  0.18365514014E+02  0.45540434016E+03  0.45728715937E+03  0.00000000000E+00 0.  1.
         -1    1    1    2    0  501  0.37163705158E+02 -0.18365514014E+02  0.35278735371E+03  0.35521451269E+03  0.00000000000E+00 0. -1.
</event>
<event>
 4    1  0.6718357E+001  0.2559554E+02  0.7546771E-02  0.1462250E+00
          2   -1    0    0  502    0  0.00000000000E+00  0.00000000000E+00  0.49594519848E+01  0.49594519848E+01  0.00000000000E+00 0. -1.
         -2   -1    0    0    0  501 -0.00000000000E+00 -0.00000000000E+00 -0.13213557284E+03  0.13213557284E+03  0.00000000000E+00 0.  1.
          1    1    1    2  502    0 -0.14462367549E+02 -0.21118034323E+02 -0.62425239058E+02  0.67468821839E+02  0.00000000000E+00 0.  1.
         -1    1    1    2    0  501  0.14462367549E+02  0.21118034323E+02 -0.64750881794E+02  0.69626202983E+02  0.00000000000E+00 0. -1.
</event>
<event>
 4    1  0.6718357E+001  0.2153087E+02  0.7546771E-02  0.1511819E+00
          2   -1    0    0  502    0  0.00000000000E+00  0.00000000000E+00  0.76385570974E+03  0.76385570974E+03  0.00000000000E+00 0.  1.
         -2   -1    0    0    0  501 -0.00000000000E+00 -0.00000000000E+00 -0.62047196831E+00  0.62047196831E+00  0.00000000000E+00 0. -1.
          1    1    1    2  502    0 -0.71606046406E+01 -0.20305272599E+02  0.43816508609E+03  0.43869376679E+03  0.00000000000E+00 0. -1.
         -1    1    1    2    0  501  0.71606046406E+01  0.20305272599E+02  0.32507015168E+03  0.32578241491E+03  0.00000000000E+00 0.  1.
</event>
<event>
 4    1  0.6718357E+001  0.3231978E+02  0.7546771E-02  0.1400453E+00
          2   -1    0    0  502    0  0.00000000000E+00  0.00000000000E+00  0.38240107280E+02  0.38240107280E+02  0.00000000000E+00 0.  1.
         -2   -1    0    0    0  501 -0.00000000000E+00 -0.00000000000E+00 -0.57294182194E+02  0.57294182194E+02  0.00000000000E+00 0. -1.
          1    1    1    2  502    0 -0.19689648296E+02 -0.25629786652E+02 -0.44079292269E+02  0.54658505475E+02  0.00000000000E+00 0. -1.
         -1    1    1    2    0  501  0.19689648296E+02  0.25629786652E+02  0.25025217355E+02  0.40875783999E+02  0.00000000000E+00 0.  1.
</event>
<event>
 4    1  0.6718357E+001  0.2286642E+02  0.7546771E-02  0.1494182E+00
          2   -1    0    0  502    0  0.00000000000E+00  0.00000000000E+00  0.66852933252E+03  0.66852933252E+03  0.00000000000E+00 0.  1.
         -2   -1    0    0    0  501 -0.00000000000E+00 -0.00000000000E+00 -0.13133534367E+01  0.13133534367E+01  0.00000000000E+00 0. -1.
          1    1    1    2  502    0 -0.20687522635E+02 -0.97416297823E+01  0.54661456821E+03  0.54709264218E+03  0.00000000000E+00 0.  1.
         -1    1    1    2    0  501  0.20687522635E+02  0.97416297823E+01  0.12060141088E+03  0.12275004379E+03  0.00000000000E+00 0. -1.
</event>
<event>
 4    1  0.6718357E+001  0.2013338E+02  0.7546771E-02  0.1532007E+00
          2   -1    0    0  502    0  0.00000000000E+00  0.00000000000E+00  0.43091051113E+03  0.43091051113E+03  0.00000000000E+00 0.  1.
         -2   -1    0    0    0  501 -0.00000000000E+00 -0.00000000000E+00 -0.95066022580E+00  0.95066022580E+00  0.00000000000E+00 0. -1.
          1    1    1    2  502    0 -0.14818722660E+02  0.13629317852E+02  0.19286567061E+03  0.19391369149E+03  0.00000000000E+00 0.  1.
         -1    1    1    2    0  501  0.14818722660E+02 -0.13629317852E+02  0.23709418029E+03  0.23794747987E+03  0.00000000000E+00 0. -1.
</event>
<event>
 4    1  0.6718357E+001  0.2003924E+02  0.7546771E-02  0.1533437E+00
          2   -1    0    0  502    0  0.00000000000E+00  0.00000000000E+00  0.94099762972E+01  0.94099762972E+01  0.00000000000E+00 0.  1.
         -2   -1    0    0    0  501 -0.00000000000E+00 -0.00000000000E+00 -0.43532993432E+02  0.43532993432E+02  0.00000000000E+00 0. -1.
          1    1    1    2  502    0  0.18477293742E+02 -0.77563307574E+01 -0.13345278293E+02  0.24076285087E+02  0.00000000000E+00 0. -1.
         -1    1    1    2    0  501 -0.18477293742E+02  0.77563307574E+01 -0.20777738841E+02  0.28866684642E+02  0.00000000000E+00 0.  1.
</event>
<event>
 4    1  0.6718357E+001  0.2317590E+02  0.7546771E-02  0.1490301E+00
          2   -1    0    0  502    0  0.00000000000E+00  0.00000000000E+00  0.35999252319E+02  0.35999252319E+02  0.00000000000E+00 0. -1.
         -2   -1    0    0    0  501 -0.00000000000E+00 -0.00000000000E+00 -0.15116751343E+02  0.15116751343E+02  0.00000000000E+00 0.  1.
          1    1    1    2  502    0  0.10241574574E+02  0.20790201816E+02  0.75282380519E+01  0.24367944301E+02  0.00000000000E+00 0.  1.
         -1    1    1    2    0  501 -0.10241574574E+02 -0.20790201816E+02  0.13354262924E+02  0.26748059360E+02  0.00000000000E+00 0. -1.
</event>
<event>
 4    1  0.6718357E+001  0.2250562E+02  0.7546771E-02  0.1498801E+00
          2   -1    0    0  502    0  0.00000000000E+00  0.00000000000E+00  0.75272125286E+03  0.75272125286E+03  0.00000000000E+00 0. -1.
         -2   -1    0    0    0  501 -0.00000000000E+00 -0.00000000000E+00 -0.10412401846E+01  0.10412401846E+01  0.00000000000E+00 0.  1.
          1    1    1    2  502    0 -0.11911965849E+02 -0.19094712206E+02  0.15168104891E+03  0.15334159111E+03  0.00000000000E+00 0.  1.
         -1    1    1    2    0  501  0.11911965849E+02  0.19094712206E+02  0.59999896377E+03  0.60042090194E+03  0.00000000000E+00 0. -1.
</event>
<event>
 4    1  0.6718357E+001  0.2673955E+02  0.7546771E-02  0.1450242E+00
          2   -1    0    0  502    0  0.00000000000E+00  0.00000000000E+00  0.21311548131E+03  0.21311548131E+03  0.00000000000E+00 0. -1.
         -2   -1    0    0    0  501 -0.00000000000E+00 -0.00000000000E+00 -0.33914153328E+01  0.33914153328E+01  0.00000000000E+00 0.  1.
          1    1    1    2  502    0 -0.98734819385E+01  0.24849903591E+02  0.93645263148E+02  0.97388082762E+02  0.00000000000E+00 0.  1.
         -1    1    1    2    0  501  0.98734819385E+01 -0.24849903591E+02  0.11607880283E+03  0.11911881389E+03  0.00000000000E+00 0. -1.
</event>
<event>
 4    1  0.6718357E+001  0.2758286E+02  0.7546771E-02  0.1441839E+00
          2   -1    0    0  502    0  0.00000000000E+00  0.00000000000E+00  0.11073301419E+04  0.11073301419E+04  0.00000000000E+00 0. -1.
         -2   -1    0    0    0  501 -0.00000000000E+00 -0.00000000000E+00 -0.70775216186E+00  0.70775216186E+00  0.00000000000E+00 0.  1.
          1    1    1    2  502    0  0.24204697694E+02 -0.13226739508E+02  0.45860567990E+03  0.45943441716E+03  0.00000000000E+00 0.  1.
         -1    1    1    2    0  501 -0.24204697694E+02  0.13226739508E+02  0.64801670982E+03  0.64860347690E+03  0.00000000000E+00 0. -1.
</event>
<event>
 4    1  0.6718357E+001  0.9393055E+02  0.7546771E-02  0.1174762E+00
          2   -1    0    0  502    0  0.00000000000E+00  0.00000000000E+00  0.10687625288E+04  0.10687625288E+04  0.00000000000E+00 0.  1.
         -2   -1    0    0    0  501 -0.00000000000E+00 -0.00000000000E+00 -0.88806404647E+01  0.88806404647E+01  0.00000000000E+00 0. -1.
          1    1    1    2  502    0 -0.69045580019E+02  0.63684038649E+02  0.38695834486E+03  0.39819556697E+03  0.00000000000E+00 0. -1.
         -1    1    1    2    0  501  0.69045580019E+02 -0.63684038649E+02  0.67292354344E+03  0.67944760226E+03  0.00000000000E+00 0.  1.
</event>
<event>
 4    1  0.6718357E+001  0.3650781E+02  0.7546771E-02  0.1370262E+00
          2   -1    0    0  502    0  0.00000000000E+00  0.00000000000E+00  0.13565518422E+04  0.13565518422E+04  0.00000000000E+00 0.  1.
         -2   -1    0    0    0  501 -0.00000000000E+00 -0.00000000000E+00 -0.11544335316E+01  0.11544335316E+01  0.00000000000E+00 0. -1.
          1    1    1    2  502    0 -0.36424457953E+02  0.24655227796E+01  0.41572093771E+03  0.41732088133E+03  0.00000000000E+00 0. -1.
         -1    1    1    2    0  501  0.36424457953E+02 -0.24655227796E+01  0.93967647097E+03  0.94038539442E+03  0.00000000000E+00 0.  1.
</event>
<event>
 4    1  0.6718357E+001  0.2434505E+02  0.7546771E-02  0.1476265E+00
          2   -1    0    0  502    0  0.00000000000E+00  0.00000000000E+00  0.26683860407E+03  0.26683860407E+03  0.00000000000E+00 0. -1.
         -2   -1    0    0    0  501 -0.00000000000E+00 -0.00000000000E+00 -0.24708218249E+01  0.24708218249E+01  0.00000000000E+00 0.  1.
          1    1    1    2  502    0 -0.14856035400E+02 -0.19286771759E+02  0.89377450291E+02  0.92633741008E+02  0.00000000000E+00 0.  1.
         -1    1    1    2    0  501  0.14856035400E+02  0.19286771759E+02  0.17499033195E+03  0.17667568489E+03  0.00000000000E+00 0. -1.
</event>
<event>
 4    1  0.6718357E+001  0.2109075E+02  0.7546771E-02  0.1517973E+00
          2   -1    0    0  502    0  0.00000000000E+00  0.00000000000E+00  0.22831005340E+03  0.22831005340E+03  0.00000000000E+00 0.  1.
         -2   -1    0    0    0  501 -0.00000000000E+00 -0.00000000000E+00 -0.29623351800E+01  0.29623351800E+01  0.00000000000E+00 0. -1.
          1    1    1    2  502    0  0.11957756655E+02 -0.17373308649E+02  0.45018829473E+02  0.49714331985E+02  0.00000000000E+00 0. -1.
         -1    1    1    2    0  501 -0.11957756655E+02  0.17373308649E+02  0.18032888875E+03  0.18155805659E+03  0.00000000000E+00 0.  1.
</event>
<event>
 4    1  0.6718357E+001  0.2922110E+02  0.7546771E-02  0.1426488E+00
          2   -1    0    0  502    0  0.00000000000E+00  0.00000000000E+00  0.65386417467E+01  0.65386417467E+01  0.00000000000E+00 0. -1.
         -2   -1    0    0    0  501 -0.00000000000E+00 -0.00000000000E+00 -0.22156214213E+03  0.22156214213E+03  0.00000000000E+00 0.  1.
          1    1    1    2  502    0  0.29189862242E+02 -0.13508136774E+01 -0.18059305742E+03  0.18294186274E+03  0.00000000000E+00 0.  1.
         -1    1    1    2    0  501 -0.29189862242E+02  0.13508136774E+01 -0.34430442960E+02  0.45158921131E+02  0.00000000000E+00 0. -1.
</event>
<event>
 4    1  0.6718357E+001  0.2330876E+02  0.7546771E-02  0.1488657E+00
          2   -1    0    0  502    0  0.00000000000E+00  0.00000000000E+00  0.10742679516E+04  0.10742679516E+04  0.00000000000E+00 0. -1.
         -2   -1    0    0    0  501 -0.00000000000E+00 -0.00000000000E+00 -0.50640980257E+00  0.50640980257E+00  0.00000000000E+00 0.  1.
          1    1    1    2  502    0  0.18716072153E+02 -0.13892690939E+02  0.51730904731E+03  0.51783390063E+03  0.00000000000E+00 0.  1.
         -1    1    1    2    0  501 -0.18716072153E+02  0.13892690939E+02  0.55645249445E+03  0.55694046073E+03  0.00000000000E+00 0. -1.
</event>
<event>
 4    1  0.6718357E+001  0.2103804E+02  0.7546771E-02  0.1518722E+00
          2   -1    0    0  502    0  0.00000000000E+00  0.00000000000E+00  0.50285079593E+02  0.50285079593E+02  0.00000000000E+00 0.  1.
         -2   -1    0    0    0  501 -0.00000000000E+00 -0.00000000000E+00 -0.12407233235E+02  0.12407233235E+02  0.00000000000E+00 0. -1.
          1    1    1    2  502    0  0.63665670243E+01  0.20051582001E+02  0.35836548204E+02  0.41555472607E+02  0.00000000000E+00 0. -1.
         -1    1    1    2    0  501 -0.63665670243E+01 -0.20051582001E+02  0.20412981540E+01  0.21136840222E+02  0.00000000000E+00 0.  1.
</event>
<event>
 4    1  0.6718357E+001  0.5872812E+02  0.7546771E-02  0.1264216E+00
          2   -1    0    0  502    0  0.00000000000E+00  0.00000000000E+00  0.29302851344E+02  0.29302851344E+02  0.00000000000E+00 0. -1.
         -2   -1    0    0    0  501 -0.00000000000E+00 -0.00000000000E+00 -0.11785176091E+03  0.11785176091E+03  0.00000000000E+00 0.  1.
          1    1    1    2  502    0  0.32031502432E+02 -0.49223728094E+02 -0.41648114818E+02  0.71996930653E+02  0.00000000000E+00 0.  1.
         -1    1    1    2    0  501 -0.32031502432E+02  0.49223728094E+02 -0.46900794747E+02  0.75157681600E+02  0.00000000000E+00 0. -1.
</event>
<event>
 4    1  0.6718357E+001  0.2276465E+02  0.7546771E-02  0.1495475E+00
          2   -1    0    0  502    0  0.00000000000E+00  0.00000000000E+00  0.60194996827E+01  0.60194996827E+01  0.00000000000E+00 0. -1.
         -2   -1    0    0    0  501 -0.00000000000E+00 -0.00000000000E+00 -0.91694414989E+02  0.91694414989E+02  0.00000000000E+00 0.  1.
          1    1    1    2  502    0  0.14530395112E+02 -0.17524176161E+02 -0.54914292757E+02  0.59445846627E+02  0.00000000000E+00 0. -1.
         -1    1    1    2    0  501 -0.14530395112E+02  0.17524176161E+02 -0.30760622549E+02  0.38268068044E+02  0.00000000000E+00 0.  1.
</event>
<event>
 4    1  0.6718357E+001  0.2596075E+02  0.7546771E-02  0.1458336E+00
          2   -1    0    0  502    0  0.00000000000E+00  0.00000000000E+00  0.30597316358E+03  0.30597316358E+03  0.00000000000E+00 0.  1.
         -2   -1    0    0    0  501 -0.00000000000E+00 -0.00000000000E+00 -0.22848708844E+01  0.22848708844E+01  0.00000000000E+00 0. -1.
          1    1    1    2  502    0  0.35236195421E+00 -0.25958354685E+02  0.18107697579E+03  0.18292848739E+03  0.00000000000E+00 0. -1.
         -1    1    1    2    0  501 -0.35236195421E+00  0.25958354685E+02  0.12261131690E+03  0.12532954707E+03  0.00000000000E+00 0.  1.
</event>
<event>
 4    1  0.6718357E+001  0.2099185E+02  0.7546771E-02  0.1519381E+00
          2   -1    0    0  502    0  0.00000000000E+00  0.00000000000E+00  0.12346703180E+04  0.12346703180E+04  0.00000000000E+00 0. -1.
         -2   -1    0    0    0  501 -0.00000000000E+00 -0.00000000000E+00 -0.51594171355E+00  0.51594171355E+00  0.00000000000E+00 0.  1.
          1    1    1    2  502    0 -0.67535073024E+00 -0.20980987447E+02  0.27418852327E+03  0.27499091662E+03  0.00000000000E+00 0. -1.
         -1    1    1    2    0  501  0.67535073024E+00  0.20980987447E+02  0.95996585302E+03  0.96019534309E+03  0.00000000000E+00 0.  1.
</event>
<event>
 4    1  0.6718357E+001  0.2426525E+02  0.7546771E-02  0.1477193E+00
          2   -1    0    0  502    0  0.00000000000E+00  0.00000000000E+00  0.35553514505E+03  0.35553514505E+03  0.00000000000E+00 0.  1.
         -2   -1    0    0    0  501 -0.00000000000E+00 -0.00000000000E+00 -0.18802811974E+01  0.18802811974E+01  0.00000000000E+00 0. -1.
          1    1    1    2  502    0 -0.94094796236E+00  0.24246999616E+02  0.11512109024E+03  0.11765061747E+03  0.00000000000E+00 0. -1.
         -1    1    1    2    0  501  0.94094796236E+00 -0.24246999616E+02  0.23853377361E+03  0.23976480877E+03  0.00000000000E+00 0.  1.
</event>
<event>
 4    1  0.6718357E+001  0.2778553E+02  0.7546771E-02  0.1439873E+00
          2   -1    0    0  502    0  0.00000000000E+00  0.00000000000E+00  0.97023245479E+01  0.97023245479E+01  0.00000000000E+00 0.  1.
         -2   -1    0    0    0  501 -0.00000000000E+00 -0.00000000000E+00 -0.12297862538E+03  0.12297862538E+03  0.00000000000E+00 0. -1.
          1    1    1    2  502    0  0.55308145279E+01 -0.27229500410E+02 -0.96051252628E+02  0.99989393105E+02  0.00000000000E+00 0. -1.
         -1    1    1    2    0  501 -0.55308145279E+01  0.27229500410E+02 -0.17225048203E+02  0.32691556823E+02  0.00000000000E+00 0.  1.
</event>
<event>
 4    1  0.6718357E+001  0.2598348E+02  0.7546771E-02  0.1458095E+00
          2   -1    0    0  502    0  0.00000000000E+00  0.00000000000E+00  0.87196013121E+03  0.87196013121E+03  0.00000000000E+00 0.  1.
         -2   -1    0    0    0  501 -0.00000000000E+00 -0.00000000000E+00 -0.10565179797E+01  0.10565179797E+01  0.00000000000E+00 0. -1.
          1    1    1    2  502    0  0.11845094746E+02 -0.23126498563E+02  0.20983996695E+03  0.21144255233E+03  0.00000000000E+00 0. -1.
         -1    1    1    2    0  501 -0.11845094746E+02  0.23126498563E+02  0.66106364628E+03  0.66157409686E+03  0.00000000000E+00 0.  1.
</event>
<event>
 4    1  0.6718357E+001  0.2313791E+02  0.7546771E-02  0.1490774E+00
          2   -1    0    0  502    0  0.00000000000E+00  0.00000000000E+00  0.58082763962E+02  0.58082763962E+02  0.00000000000E+00 0.  1.
         -2   -1    0    0    0  501 -0.00000000000E+00 -0.00000000000E+00 -0.93903238876E+01  0.93903238876E+01  0.00000000000E+00 0. -1.
          1    1    1    2  502    0  0.23106751314E+02 -0.12002896577E+01  0.28926492332E+02  0.37041930433E+02  0.00000000000E+00 0. -1.
         -1    1    1    2    0  501 -0.23106751314E+02  0.12002896577E+01  0.19765947742E+02  0.30431157416E+02  0.00000000000E+00 0.  1.
</event>
<event>
 4    1  0.6718357E+001  0.2049972E+02  0.7546771E-02  0.1526529E+00
          2   -1    0    0  502    0  0.00000000000E+00  0.00000000000E+00  0.11493816406E+03  0.11493816406E+03  0.00000000000E+00 0.  1.
         -2   -1    0    0    0  501 -0.00000000000E+00 -0.00000000000E+00 -0.38413497307E+01  0.38413497307E+01  0.00000000000E+00 0. -1.
          1    1    1    2  502    0 -0.20209443228E+02 -0.34375803590E+01  0.68586511196E+02  0.71584551911E+02  0.00000000000E+00 0. -1.
         -1    1    1    2    0  501  0.20209443228E+02  0.34375803590E+01  0.42510303137E+02  0.47194961883E+02  0.00000000000E+00 0.  1.
</event>
<event>
 4    1  0.6718357E+001  0.2426673E+02  0.7546771E-02  0.1477176E+00
          2   -1    0    0  502    0  0.00000000000E+00  0.00000000000E+00  0.78157054307E+03  0.78157054307E+03  0.00000000000E+00 0. -1.
         -2   -1    0    0    0  501 -0.00000000000E+00 -0.00000000000E+00 -0.75945850773E+00  0.75945850773E+00  0.00000000000E+00 0.  1.
          1    1    1    2  502    0 -0.24168413785E+02  0.21821634481E+01  0.42519947021E+03  0.42589137527E+03  0.00000000000E+00 0.  1.
         -1    1    1    2    0  501  0.24168413785E+02 -0.21821634481E+01  0.35561161435E+03  0.35643862631E+03  0.00000000000E+00 0. -1.
</event>
<event>
 4    1  0.6718357E+001  0.2064180E+02  0.7546771E-02  0.1524441E+00
          2   -1    0    0  502    0  0.00000000000E+00  0.00000000000E+00  0.10564870661E+03  0.10564870661E+03  0.00000000000E+00 0.  1.
         -2   -1    0    0    0  501 -0.00000000000E+00 -0.00000000000E+00 -0.51291767305E+01  0.51291767305E+01  0.00000000000E+00 0. -1.
          1    1    1    2  502    0  0.93326568182E+01 -0.18411556025E+02  0.75865341877E+02  0.78623367879E+02  0.00000000000E+00 0.  1.
         -1    1    1    2    0  501 -0.93326568182E+01  0.18411556025E+02  0.24654188007E+02  0.32154515466E+02  0.00000000000E+00 0. -1.
</event>
<event>
 4    1  0.6718357E+001  0.6814795E+02  0.7546771E-02  0.1234408E+00
          2   -1    0    0  502    0  0.00000000000E+00  0.00000000000E+00  0.38069774214E+02  0.38069774214E+02  0.00000000000E+00 0. -1.
         -2   -1    0    0    0  501 -0.00000000000E+00 -0.00000000000E+00 -0.13584944683E+03  0.13584944683E+03  0.00000000000E+00 0.  1.
          1    1    1    2  502    0 -0.62894632273E+02 -0.26237528865E+02 -0.21114642538E+02  0.71344031420E+02  0.00000000000E+00 0. -1.
         -1    1    1    2    0  501  0.62894632273E+02  0.26237528865E+02 -0.76665030079E+02  0.10257518963E+03  0.00000000000E+00 0.  1.
</event>
<event>
 4    1  0.6718357E+001  0.3317834E+02  0.7546771E-02  0.1393843E+00
          2   -1    0    0  502    0  0.00000000000E+00  0.00000000000E+00  0.68352166330E+03  0.68352166330E+03  0.00000000000E+00 0. -1.
         -2   -1    0    0    0  501 -0.00000000000E+00 -0.00000000000E+00 -0.23798615000E+01  0.23798615000E+01  0.00000000000E+00 0.  1.
          1    1    1    2  502    0 -0.29423875712E+02 -0.15330951100E+02  0.14557525243E+03  0.14930826046E+03  0.00000000000E+00 0.  1.
         -1    1    1    2    0  501  0.29423875712E+02  0.15330951100E+02  0.53556654938E+03  0.53659326434E+03  0.00000000000E+00 0. -1.
</event>
<event>
 4    1  0.6718357E+001  0.2060605E+02  0.7546771E-02  0.1524964E+00
          2   -1    0    0  502    0  0.00000000000E+00  0.00000000000E+00  0.59871714647E+03  0.59871714647E+03  0.00000000000E+00 0. -1.
         -2   -1    0    0    0  501 -0.00000000000E+00 -0.00000000000E+00 -0.83073236810E+00  0.83073236810E+00  0.00000000000E+00 0.  1.
          1    1    1    2  502    0 -0.17283951993E+02 -0.11219370894E+02  0.41360323312E+03  0.41411622007E+03  0.00000000000E+00 0. -1.
         -1    1    1    2    0  501  0.17283951993E+02  0.11219370894E+02  0.18428318099E+03  0.18543165877E+03  0.00000000000E+00 0.  1.
</event>
<event>
 4    1  0.6718357E+001  0.2955057E+02  0.7546771E-02  0.1423543E+00
          2   -1    0    0  502    0  0.00000000000E+00  0.00000000000E+00  0.34195579320E+02  0.34195579320E+02  0.00000000000E+00 0. -1.
         -2   -1    0    0    0  501 -0.00000000000E+00 -0.00000000000E+00 -0.31007687020E+02  0.31007687020E+02  0.00000000000E+00 0.  1.
          1    1    1    2  502    0 -0.27403603746E+02  0.11057959836E+02  0.15288402551E+02  0.33271177114E+02  0.00000000000E+00 0. -1.
         -1    1    1    2    0  501  0.27403603746E+02 -0.11057959836E+02 -0.12100510251E+02  0.31932089226E+02  0.00000000000E+00 0.  1.
</event>
<event>
 4    1  0.6718357E+001  0.2327018E+02  0.7546771E-02  0.1489133E+00
          2   -1    0    0  502    0  0.00000000000E+00  0.00000000000E+00  0.65329230435E+02  0.65329230435E+02  0.00000000000E+00 0.  1.
         -2   -1    0    0    0  501 -0.00000000000E+00 -0.00000000000E+00 -0.11087994228E+02  0.11087994228E+02  0.00000000000E+00 0. -1.
          1    1    1    2  502    0  0.16867063056E+02  0.16031320687E+02  0.79228329288E+01  0.24581951524E+02  0.00000000000E+00 0. -1.
         -1    1    1    2    0  501 -0.16867063056E+02 -0.16031320687E+02  0.46318403278E+02  0.51835273139E+02  0.00000000000E+00 0.  1.
</event>
<event>
 4    1  0.6718357E+001  0.2687979E+02  0.7546771E-02  0.1448819E+00
          2   -1    0    0  502    0  0.00000000000E+00  0.00000000000E+00  0.17030910066E+01  0.17030910066E+01  0.00000000000E+00 0.  1.
         -2   -1    0    0    0  501 -0.00000000000E+00 -0.00000000000E+00 -0.56905696843E+03  0.56905696843E+03  0.00000000000E+00 0. -1.
          1    1    1    2  502    0  0.20898640080E+02  0.16904734320E+02 -0.13971356233E+03  0.14227579801E+03  0.00000000000E+00 0.  1.
         -1    1    1    2    0  501 -0.20898640080E+02 -0.16904734320E+02 -0.42764031508E+03  0.42848426142E+03  0.00000000000E+00 0. -1.
</event>
<event>
 4    1  0.6718357E+001  0.3322384E+02  0.7546771E-02  0.1393499E+00
          2   -1    0    0  502    0  0.00000000000E+00  0.00000000000E+00  0.22395532459E+04  0.22395532459E+04  0.00000000000E+00 0.  1.
         -2   -1    0    0    0  501 -0.00000000000E+00 -0.00000000000E+00 -0.54755036575E+00  0.54755036575E+00  0.00000000000E+00 0. -1.
          1    1    1    2  502    0  0.20839380377E+02 -0.25875546710E+02  0.14734304917E+04  0.14738050202E+04  0.00000000000E+00 0. -1.
         -1    1    1    2    0  501 -0.20839380377E+02  0.25875546710E+02  0.76557520375E+03  0.76629577598E+03  0.00000000000E+00 0.  1.
</event>
<event>
 4    1  0.6718357E+001  0.2336510E+02  0.7546771E-02  0.1487964E+00
          2   -1    0    0  502    0  0.00000000000E+00  0.00000000000E+00  0.32785934886E+02  0.32785934886E+02  0.00000000000E+00 0. -1.
         -2   -1    0    0    0  501 -0.00000000000E+00 -0.00000000000E+00 -0.16826827456E+02  0.16826827456E+02  0.00000000000E+00 0.  1.
          1    1    1    2  502    0 -0.60588250613E+01 -0.22565870623E+02  0.54458494034E+01  0.23991355815E+02  0.00000000000E+00 0.  1.
         -1    1    1    2    0  501  0.60588250613E+01  0.22565870623E+02  0.10513258027E+02  0.25621406527E+02  0.00000000000E+00 0. -1.
</event>
<event>
 4    1  0.6718357E+001  0.2205576E+02  0.7546771E-02  0.1504708E+00
          2   -1    0    0  502    0  0.00000000000E+00  0.00000000000E+00  0.12648544275E+03  0.12648544275E+03  0.00000000000E+00 0. -1.
         -2   -1    0    0    0  501 -0.00000000000E+00 -0.00000000000E+00 -0.47151163554E+01  0.47151163554E+01  0.00000000000E+00 0.  1.
          1    1    1    2  502    0 -0.96291720920E-01 -0.22055551573E+02  0.32720078772E+02  0.39459601900E+02  0.00000000000E+00 0.  1.
         -1    1    1    2    0  501  0.96291720920E-01  0.22055551573E+02  0.89050247621E+02  0.91740957203E+02  0.00000000000E+00 0. -1.
</event>
<event>
 4    1  0.6718357E+001  0.2268784E+02  0.7546771E-02  0.1496456E+00
          2   -1    0    0  502    0  0.00000000000E+00  0.00000000000E+00  0.24355475390E+02  0.24355475390E+02  0.00000000000E+00 0. -1.
         -2   -1    0    0    0  501 -0.00000000000E+00 -0.00000000000E+00 -0.49897556724E+02  0.49897556724E+02  0.00000000000E+00 0.  1.
          1    1    1    2  502    0  0.97990765224E+01 -0.20462553530E+02 -0.40958954979E+02  0.46822793495E+02  0.00000000000E+00 0.  1.
         -1    1    1    2    0  501 -0.97990765224E+01  0.20462553530E+02  0.15416873646E+02  0.27430238619E+02  0.00000000000E+00 0. -1.
</event>
<event>
 4    1  0.6718357E+001  0.2907899E+02  0.7546771E-02  0.1427772E+00
          2   -1    0    0  502    0  0.00000000000E+00  0.00000000000E+00  0.14502760768E+02  0.14502760768E+02  0.00000000000E+00 0. -1.
         -2   -1    0    0    0  501 -0.00000000000E+00 -0.00000000000E+00 -0.70679559821E+02  0.70679559821E+02  0.00000000000E+00 0.  1.
          1    1    1    2  502    0 -0.28959116639E+02  0.26376309736E+01 -0.45909417663E+02  0.54343924810E+02  0.00000000000E+00 0. -1.
         -1    1    1    2    0  501  0.28959116639E+02 -0.26376309736E+01 -0.10267381391E+02  0.30838395780E+02  0.00000000000E+00 0.  1.
</event>
<event>
 4    1  0.6718357E+001  0.2741319E+02  0.7546771E-02  0.1443501E+00
          2   -1    0    0  502    0  0.00000000000E+00  0.00000000000E+00  0.14919462714E+01  0.14919462714E+01  0.00000000000E+00 0. -1.
         -2   -1    0    0    0  501 -0.00000000000E+00 -0.00000000000E+00 -0.51018377889E+03  0.51018377889E+03  0.00000000000E+00 0.  1.
          1    1    1    2  502    0 -0.26626604383E+02  0.65197383533E+01 -0.22548923342E+03  0.22714946057E+03  0.00000000000E+00 0.  1.
         -1    1    1    2    0  501  0.26626604383E+02 -0.65197383533E+01 -0.28320259920E+03  0.28452626459E+03  0.00000000000E+00 0. -1.
</event>
<event>
 4    1  0.6718357E+001  0.2804123E+02  0.7546771E-02  0.1437420E+00
          2   -1    0    0  502    0  0.00000000000E+00  0.00000000000E+00  0.19667298553E+03  0.19667298553E+03  0.00000000000E+00 0.  1.
         -2   -1    0    0    0  501 -0.00000000000E+00 -0.00000000000E+00 -0.40025863138E+01  0.40025863138E+01  0.00000000000E+00 0. -1.
          1    1    1    2  502    0  0.25942229625E+02  0.10644769013E+02  0.99709387285E+02  0.10357737349E+03  0.00000000000E+00 0.  1.
         -1    1    1    2    0  501 -0.25942229625E+02 -0.10644769013E+02  0.92961011931E+02  0.97098198359E+02  0.00000000000E+00 0. -1.
</event>
<event>
 4    1  0.6718357E+001  0.2415816E+02  0.7546771E-02  0.1478445E+00
          2   -1    0    0  502    0  0.00000000000E+00  0.00000000000E+00  0.49944921115E+03  0.49944921115E+03  0.00000000000E+00 0.  1.
         -2   -1    0    0    0  501 -0.00000000000E+00 -0.00000000000E+00 -0.12641038290E+01  0.12641038290E+01  0.00000000000E+00 0. -1.
          1    1    1    2  502    0  0.85000468843E+01 -0.22613405085E+02  0.31793522823E+03  0.31885173080E+03  0.00000000000E+00 0.  1.
         -1    1    1    2    0  501 -0.85000468843E+01  0.22613405085E+02  0.18024987909E+03  0.18186158418E+03  0.00000000000E+00 0. -1.
</event>
<event>
 4    1  0.6718357E+001  0.2286113E+02  0.7546771E-02  0.1494249E+00
          2   -1    0    0  502    0  0.00000000000E+00  0.00000000000E+00  0.85860561571E+01  0.85860561571E+01  0.00000000000E+00 0.  1.
         -2   -1    0    0    0  501 -0.00000000000E+00 -0.00000000000E+00 -0.60960193404E+02  0.60960193404E+02  0.00000000000E+00 0. -1.
          1    1    1    2  502    0  0.13790700708E+02 -0.18233152080E+02 -0.27526318853E+02  0.35781692112E+02  0.00000000000E+00 0. -1.
         -1    1    1    2    0  501 -0.13790700708E+02  0.18233152080E+02 -0.24847818394E+02  0.33764557449E+02  0.00000000000E+00 0.  1.
</event>
<event>
 4    1  0.6718357E+001  0.3967455E+02  0.7546771E-02  0.1350404E+00
          2   -1    0    0  502    0  0.00000000000E+00  0.00000000000E+00  0.18875502229E+03  0.18875502229E+03  0.00000000000E+00 0.  1.
         -2   -1    0    0    0  501 -0.00000000000E+00 -0.00000000000E+00 -0.86380840693E+01  0.86380840693E+01  0.00000000000E+00 0. -1.
          1    1    1    2  502    0 -0.38897746246E+02 -0.78124926523E+01  0.10841666259E+03  0.11544800749E+03  0.00000000000E+00 0.  1.
         -1    1    1    2    0  501  0.38897746246E+02  0.78124926523E+01  0.71700275632E+02  0.81945098878E+02  0.00000000000E+00 0. -1.
</event>
<event>
 4    1  0.6718357E+001  0.3771157E+02  0.7546771E-02  0.1362444E+00
          2   -1    0    0  502    0  0.00000000000E+00  0.00000000000E+00  0.23381844424E+04  0.23381844424E+04  0.00000000000E+00 0. -1.
         -2   -1    0    0    0  501 -0.00000000000E+00 -0.00000000000E+00 -0.10076443604E+01  0.10076443604E+01  0.00000000000E+00 0.  1.
          1    1    1    2  502    0 -0.59011579528E+01 -0.37246993619E+02  0.43222504937E+03  0.43386709428E+03  0.00000000000E+00 0.  1.
         -1    1    1    2    0  501  0.59011579528E+01  0.37246993619E+02  0.19049517486E+04  0.19053249924E+04  0.00000000000E+00 0. -1.
</event>
<event>
 4    1  0.6718357E+001  0.3296686E+02  0.7546771E-02  0.1395449E+00
          2   -1    0    0  502    0  0.00000000000E+00  0.00000000000E+00  0.12541116138E+03  0.12541116138E+03  0.00000000000E+00 0. -1.
         -2   -1    0    0    0  501 -0.00000000000E+00 -0.00000000000E+00 -0.14451734392E+02  0.14451734392E+02  0.00000000000E+00 0.  1.
          1    1    1    2  502    0  0.28205369044E+02  0.17066657323E+02  0.99727507949E+02  0.10503518209E+03  0.00000000000E+00 0. -1.
         -1    1    1    2    0  501 -0.28205369044E+02 -0.17066657323E+02  0.11231919040E+02  0.34827713683E+02  0.00000000000E+00 0.  1.
</event>
<event>
 4    1  0.6718357E+001  0.3653735E+02  0.7546771E-02  0.1370066E+00
          2   -1    0    0  502    0  0.00000000000E+00  0.00000000000E+00  0.22362130742E+04  0.22362130742E+04  0.00000000000E+00 0. -1.
         -2   -1    0    0    0  501 -0.00000000000E+00 -0.00000000000E+00 -0.83249879417E+00  0.83249879417E+00  0.00000000000E+00 0.  1.
          1    1    1    2  502    0 -0.37971230268E+01 -0.36339505586E+02  0.52276224341E+03  0.52403753773E+03  0.00000000000E+00 0.  1.
         -1    1    1    2    0  501  0.37971230268E+01  0.36339505586E+02  0.17126183320E+04  0.17130080353E+04  0.00000000000E+00 0. -1.
</event>
<event>
 4    1  0.6718357E+001  0.2330678E+02  0.7546771E-02  0.1488681E+00
          2   -1    0    0  502    0  0.00000000000E+00  0.00000000000E+00  0.41394360275E+03  0.41394360275E+03  0.00000000000E+00 0. -1.
         -2   -1    0    0    0  501 -0.00000000000E+00 -0.00000000000E+00 -0.74760609584E+01  0.74760609584E+01  0.00000000000E+00 0.  1.
          1    1    1    2  502    0 -0.71933167679E+01  0.22168941219E+02  0.39455904105E+03  0.39524681230E+03  0.00000000000E+00 0. -1.
         -1    1    1    2    0  501  0.71933167679E+01 -0.22168941219E+02  0.11908500745E+02  0.26172851410E+02  0.00000000000E+00 0.  1.
</event>
<event>
 4    1  0.6718357E+001  0.2202939E+02  0.7546771E-02  0.1505060E+00
          2   -1    0    0  502    0  0.00000000000E+00  0.00000000000E+00  0.20994557004E+03  0.20994557004E+03  0.00000000000E+00 0. -1.
         -2   -1    0    0    0  501 -0.00000000000E+00 -0.00000000000E+00 -0.26867234855E+01  0.26867234855E+01  0.00000000000E+00 0.  1.
          1    1    1    2  502    0 -0.21818600150E+02 -0.30401514895E+01  0.14335954860E+03  0.14504224904E+03  0.00000000000E+00 0.  1.
         -1    1    1    2    0  501  0.21818600150E+02  0.30401514895E+01  0.63899297952E+02  0.67590044477E+02  0.00000000000E+00 0. -1.
</event>
<event>
 4    1  0.6718357E+001  0.5772480E+02  0.7546771E-02  0.1267765E+00
          2   -1    0    0  502    0  0.00000000000E+00  0.00000000000E+00  0.15259895947E+04  0.15259895947E+04  0.00000000000E+00 0. -1.
         -2   -1    0    0    0  501 -0.00000000000E+00 -0.00000000000E+00 -0.24458423446E+01  0.24458423446E+01  0.00000000000E+00 0.  1.
          1    1    1    2  502    0  0.98127112830E+01 -0.56884647755E+02  0.10120099730E+04  0.10136549402E+04  0.00000000000E+00 0. -1.
         -1    1    1    2    0  501 -0.98127112830E+01  0.56884647755E+02  0.51153377938E+03  0.51478049681E+03  0.00000000000E+00 0.  1.
</event>
<event>
 4    1  0.6718357E+001  0.2341122E+02  0.7546771E-02  0.1487398E+00
          2   -1    0    0  502    0  0.00000000000E+00  0.00000000000E+00  0.27048621982E+04  0.27048621982E+04  0.00000000000E+00 0. -1.
         -2   -1    0    0    0  501 -0.00000000000E+00 -0.00000000000E+00 -0.21294525128E+00  0.21294525128E+00  0.00000000000E+00 0.  1.
          1    1    1    2  502    0 -0.14002625537E+02  0.18761973196E+02  0.16500141622E+04  0.16501802389E+04  0.00000000000E+00 0. -1.
         -1    1    1    2    0  501  0.14002625537E+02 -0.18761973196E+02  0.10546350907E+04  0.10548949046E+04  0.00000000000E+00 0.  1.
</event>
<event>
 4    1  0.6718357E+001  0.3516348E+02  0.7546771E-02  0.1379418E+00
          2   -1    0    0  502    0  0.00000000000E+00  0.00000000000E+00  0.29844383287E+02  0.29844383287E+02  0.00000000000E+00 0. -1.
         -2   -1    0    0    0  501 -0.00000000000E+00 -0.00000000000E+00 -0.50176513447E+02  0.50176513447E+02  0.00000000000E+00 0.  1.
          1    1    1    2  502    0 -0.34087219779E+02  0.86331923663E+01 -0.26870272911E+02  0.44254741317E+02  0.00000000000E+00 0.  1.
         -1    1    1    2    0  501  0.34087219779E+02 -0.86331923663E+01  0.65381427512E+01  0.35766155417E+02  0.00000000000E+00 0. -1.
</event>
<event>
 4    1  0.6718357E+001  0.2323197E+02  0.7546771E-02  0.1489606E+00
          2   -1    0    0  502    0  0.00000000000E+00  0.00000000000E+00  0.52482667703E+03  0.52482667703E+03  0.00000000000E+00 0. -1.
         -2   -1    0    0    0  501 -0.00000000000E+00 -0.00000000000E+00 -0.10987077165E+01  0.10987077165E+01  0.00000000000E+00 0.  1.
          1    1    1    2  502    0  0.22443900120E+02 -0.59996500863E+01  0.32839091842E+03  0.32921166406E+03  0.00000000000E+00 0. -1.
         -1    1    1    2    0  501 -0.22443900120E+02  0.59996500863E+01  0.19533705090E+03  0.19671372069E+03  0.00000000000E+00 0.  1.
</event>
<event>
 4    1  0.6718357E+001  0.2083216E+02  0.7546771E-02  0.1521675E+00
          2   -1    0    0  502    0  0.00000000000E+00  0.00000000000E+00  0.63992182733E+02  0.63992182733E+02  0.00000000000E+00 0. -1.
         -2   -1    0    0    0  501 -0.00000000000E+00 -0.00000000000E+00 -0.75497323598E+01  0.75497323598E+01  0.00000000000E+00 0.  1.
          1    1    1    2  502    0 -0.54021036193E+01  0.20119549340E+02  0.39630036376E+02  0.44771852456E+02  0.00000000000E+00 0. -1.
         -1    1    1    2    0  501  0.54021036193E+01 -0.20119549340E+02  0.16812413997E+02  0.26770062637E+02  0.00000000000E+00 0.  1.
</event>
<event>
 4    1  0.6718357E+001  0.2719388E+02  0.7546771E-02  0.1445670E+00
          2   -1    0    0  502    0  0.00000000000E+00  0.00000000000E+00  0.15477310244E+03  0.15477310244E+03  0.00000000000E+00 0. -1.
         -2   -1    0    0    0  501 -0.00000000000E+00 -0.00000000000E+00 -0.81071145502E+01  0.81071145502E+01  0.00000000000E+00 0.  1.
          1    1    1    2  502    0  0.18056256307E+02 -0.20334177610E+02  0.12552079711E+03  0.12843277493E+03  0.00000000000E+00 0. -1.
         -1    1    1    2    0  501 -0.18056256307E+02  0.20334177610E+02  0.21145190780E+02  0.34447442054E+02  0.00000000000E+00 0.  1.
</event>
<event>
 4    1  0.6718357E+001  0.2474459E+02  0.7546771E-02  0.1471681E+00
          2   -1    0    0  502    0  0.00000000000E+00  0.00000000000E+00  0.73051208417E+03  0.73051208417E+03  0.00000000000E+00 0.  1.
         -2   -1    0    0    0  501 -0.00000000000E+00 -0.00000000000E+00 -0.86348433798E+00  0.86348433798E+00  0.00000000000E+00 0. -1.
          1    1    1    2  502    0  0.24655203819E+02 -0.21013979161E+01  0.42743481952E+03  0.42815046408E+03  0.00000000000E+00 0.  1.
         -1    1    1    2    0  501 -0.24655203819E+02  0.21013979161E+01  0.30221378031E+03  0.30322510443E+03  0.00000000000E+00 0. -1.
</event>
<event>
 4    1  0.6718357E+001  0.3199313E+02  0.7546771E-02  0.1403032E+00
          2   -1    0    0  502    0  0.00000000000E+00  0.00000000000E+00  0.35293051274E+04  0.35293051274E+04  0.00000000000E+00 0.  1.
         -2   -1    0    0    0  501 -0.00000000000E+00 -0.00000000000E+00 -0.30943630302E+00  0.30943630302E+00  0.00000000000E+00 0. -1.
          1    1    1    2  502    0 -0.65448732129E+01 -0.31316534294E+02  0.13223968401E+04  0.13227837931E+04  0.00000000000E+00 0. -1.
         -1    1    1    2    0  501  0.65448732129E+01  0.31316534294E+02  0.22065988510E+04  0.22068307706E+04  0.00000000000E+00 0.  1.
</event>
<event>
 4    1  0.6718357E+001  0.2176362E+02  0.7546771E-02  0.1508636E+00
          2   -1    0    0  502    0  0.00000000000E+00  0.00000000000E+00  0.16408584748E+04  0.16408584748E+04  0.00000000000E+00 0. -1.
         -2   -1    0    0    0  501 -0.00000000000E+00 -0.00000000000E+00 -0.29460568884E+00  0.29460568884E+00  0.00000000000E+00 0.  1.
          1    1    1    2  502    0 -0.19036818391E+02  0.10547725675E+02  0.70373695815E+03  0.70407340615E+03  0.00000000000E+00 0.  1.
         -1    1    1    2    0  501  0.19036818391E+02 -0.10547725675E+02  0.93682691098E+03  0.93707967437E+03  0.00000000000E+00 0. -1.
</event>
<event>
 4    1  0.6718357E+001  0.2122200E+02  0.7546771E-02  0.1516119E+00
          2   -1    0    0  502    0  0.00000000000E+00  0.00000000000E+00  0.68957560908E+01  0.68957560908E+01  0.00000000000E+00 0. -1.
         -2   -1    0    0    0  501 -0.00000000000E+00 -0.00000000000E+00 -0.66273783005E+02  0.66273783005E+02  0.00000000000E+00 0.  1.
          1    1    1    2  502    0  0.20317862089E+02 -0.61284413098E+01 -0.34097033695E+02  0.40161934958E+02  0.00000000000E+00 0.  1.
         -1    1    1    2    0  501 -0.20317862089E+02  0.61284413098E+01 -0.25280993219E+02  0.33007604138E+02  0.00000000000E+00 0. -1.
</event>
<event>
 4    1  0.6718357E+001  0.2761612E+02  0.7546771E-02  0.1441515E+00
          2   -1    0    0  502    0  0.00000000000E+00  0.00000000000E+00  0.23610124076E+02  0.23610124076E+02  0.00000000000E+00 0.  1.
         -2   -1    0    0    0  501 -0.00000000000E+00 -0.00000000000E+00 -0.47380261762E+02  0.47380261762E+02  0.00000000000E+00 0. -1.
          1    1    1    2  502    0  0.51966140181E+01 -0.27122781384E+02  0.81388460219E+01  0.28790465120E+02  0.00000000000E+00 0.  1.
         -1    1    1    2    0  501 -0.51966140181E+01  0.27122781384E+02 -0.31908983708E+02  0.42199920717E+02  0.00000000000E+00 0. -1.
</event>
<event>
 4    1  0.6718357E+001  0.4047084E+02  0.7546771E-02  0.1345749E+00
          2   -1    0    0  502    0  0.00000000000E+00  0.00000000000E+00  0.12542807612E+04  0.12542807612E+04  0.00000000000E+00 0.  1.
         -2   -1    0    0    0  501 -0.00000000000E+00 -0.00000000000E+00 -0.14839432785E+01  0.14839432785E+01  0.00000000000E+00 0. -1.
          1    1    1    2  502    0 -0.40344300133E+02  0.31978379778E+01  0.40887459172E+03  0.41087263291E+03  0.00000000000E+00 0. -1.
         -1    1    1    2    0  501  0.40344300133E+02 -0.31978379778E+01  0.84392222621E+03  0.84489207157E+03  0.00000000000E+00 0.  1.
</event>
<event>
 4    1  0.6718357E+001  0.2103523E+02  0.7546771E-02  0.1518762E+00
          2   -1    0    0  502    0  0.00000000000E+00  0.00000000000E+00  0.31659893142E+03  0.31659893142E+03  0.00000000000E+00 0. -1.
         -2   -1    0    0    0  501 -0.00000000000E+00 -0.00000000000E+00 -0.14002169182E+01  0.14002169182E+01  0.00000000000E+00 0.  1.
          1    1    1    2  502    0 -0.20945612658E+02  0.19396439738E+01  0.15073491880E+03  0.15219558685E+03  0.00000000000E+00 0. -1.
         -1    1    1    2    0  501  0.20945612658E+02 -0.19396439738E+01  0.16446379570E+03  0.16580356149E+03  0.00000000000E+00 0.  1.
</event>
<event>
 4    1  0.6718357E+001  0.3969914E+02  0.7546771E-02  0.1350258E+00
          2   -1    0    0  502    0  0.00000000000E+00  0.00000000000E+00  0.16822094213E+03  0.16822094213E+03  0.00000000000E+00 0. -1.
         -2   -1    0    0    0  501 -0.00000000000E+00 -0.00000000000E+00 -0.94977381395E+01  0.94977381395E+01  0.00000000000E+00 0.  1.
          1    1    1    2  502    0  0.39610328934E+02  0.26540232566E+01  0.69006666455E+02  0.79611192762E+02  0.00000000000E+00 0. -1.
         -1    1    1    2    0  501 -0.39610328934E+02 -0.26540232566E+01  0.89716537537E+02  0.98107487510E+02  0.00000000000E+00 0.  1.
</event>
<event>
 4    1  0.6718357E+001  0.2128460E+02  0.7546771E-02  0.1515240E+00
          2   -1    0    0  502    0  0.00000000000E+00  0.00000000000E+00  0.11364713166E+04  0.11364713166E+04  0.00000000000E+00 0. -1.
         -2   -1    0    0    0  501 -0.00000000000E+00 -0.00000000000E+00 -0.69379301303E+00  0.69379301303E+00  0.00000000000E+00 0.  1.
          1    1    1    2  502    0  0.31454523822E+01 -0.21050898446E+02  0.19703060859E+03  0.19817692832E+03  0.00000000000E+00 0. -1.
         -1    1    1    2    0  501 -0.31454523822E+01  0.21050898446E+02  0.93874691502E+03  0.93898818132E+03  0.00000000000E+00 0.  1.
</event>
<event>
 4    1  0.6718357E+001  0.2233360E+02  0.7546771E-02  0.1501040E+00
          2   -1    0    0  502    0  0.00000000000E+00  0.00000000000E+00  0.11766394634E+02  0.11766394634E+02  0.00000000000E+00 0. -1.
         -2   -1    0    0    0  501 -0.00000000000E+00 -0.00000000000E+00 -0.42781160496E+02  0.42781160496E+02  0.00000000000E+00 0.  1.
          1    1    1    2  502    0 -0.23651123339E+01  0.22208010773E+02 -0.18111905812E+02  0.28754662770E+02  0.00000000000E+00 0.  1.
         -1    1    1    2    0  501  0.23651123339E+01 -0.22208010773E+02 -0.12902860049E+02  0.25792892360E+02  0.00000000000E+00 0. -1.
</event>
<event>
 4    1  0.6718357E+001  0.2556496E+02  0.7546771E-02  0.1462581E+00
          2   -1    0    0  502    0  0.00000000000E+00  0.00000000000E+00  0.63157569063E+03  0.63157569063E+03  0.00000000000E+00 0. -1.
         -2   -1    0    0    0  501 -0.00000000000E+00 -0.00000000000E+00 -0.10512521294E+01  0.10512521294E+01  0.00000000000E+00 0.  1.
          1    1    1    2  502    0 -0.10524251647E+02  0.23298221675E+02  0.35480928899E+03  0.35572910839E+03  0.00000000000E+00 0.  1.
         -1    1    1    2    0  501  0.10524251647E+02 -0.23298221675E+02  0.27571514951E+03  0.27689783437E+03  0.00000000000E+00 0. -1.
</event>
<event>
 4    1  0.6718357E+001  0.4925552E+02  0.7546771E-02  0.1301433E+00
          2   -1    0    0  502    0  0.00000000000E+00  0.00000000000E+00  0.14486228277E+02  0.14486228277E+02  0.00000000000E+00 0. -1.
         -2   -1    0    0    0  501 -0.00000000000E+00 -0.00000000000E+00 -0.20073140337E+03  0.20073140337E+03  0.00000000000E+00 0.  1.
          1    1    1    2  502    0  0.42091458448E+02  0.25581546254E+02 -0.49323362514E+02  0.69705813766E+02  0.00000000000E+00 0. -1.
         -1    1    1    2    0  501 -0.42091458448E+02 -0.25581546254E+02 -0.13692181258E+03  0.14551181788E+03  0.00000000000E+00 0.  1.
</event>
<event>
 4    1  0.6718357E+001  0.3391724E+02  0.7546771E-02  0.1388339E+00
          2   -1    0    0  502    0  0.00000000000E+00  0.00000000000E+00  0.10116972246E+02  0.10116972246E+02  0.00000000000E+00 0.  1.
         -2   -1    0    0    0  501 -0.00000000000E+00 -0.00000000000E+00 -0.11678163400E+03  0.11678163400E+03  0.00000000000E+00 0. -1.
          1    1    1    2  502    0  0.16931226520E+02  0.29388989808E+02 -0.63626144960E+02  0.72101771656E+02  0.00000000000E+00 0. -1.
         -1    1    1    2    0  501 -0.16931226520E+02 -0.29388989808E+02 -0.43038516799E+02  0.54796834595E+02  0.00000000000E+00 0.  1.
</event>
<event>
 4    1  0.6718357E+001  0.2796803E+02  0.7546771E-02  0.1438119E+00
          2   -1    0    0  502    0  0.00000000000E+00  0.00000000000E+00  0.19423811776E+03  0.19423811776E+03  0.00000000000E+00 0. -1.
         -2   -1    0    0    0  501 -0.00000000000E+00 -0.00000000000E+00 -0.66872282130E+01  0.66872282130E+01  0.00000000000E+00 0.  1.
          1    1    1    2  502    0 -0.15346048520E+02  0.23381816184E+02  0.15713839282E+03  0.15960791030E+03  0.00000000000E+00 0. -1.
         -1    1    1    2    0  501  0.15346048520E+02 -0.23381816184E+02  0.30412496730E+02  0.41317435673E+02  0.00000000000E+00 0.  1.
</event>
<event>
 4    1  0.6718357E+001  0.2409120E+02  0.7546771E-02  0.1479232E+00
          2   -1    0    0  502    0  0.00000000000E+00  0.00000000000E+00  0.69429246849E+02  0.69429246849E+02  0.00000000000E+00 0.  1.
         -2   -1    0    0    0  501 -0.00000000000E+00 -0.00000000000E+00 -0.96637151034E+01  0.96637151034E+01  0.00000000000E+00 0. -1.
          1    1    1    2  502    0 -0.16427195277E+02 -0.17621954868E+02  0.44411540414E+02  0.50524953834E+02  0.00000000000E+00 0. -1.
         -1    1    1    2    0  501  0.16427195277E+02  0.17621954868E+02  0.15353991332E+02  0.28568008118E+02  0.00000000000E+00 0.  1.
</event>
<event>
 4    1  0.6718357E+001  0.9039719E+02  0.7546771E-02  0.1181576E+00
          2   -1    0    0  502    0  0.00000000000E+00  0.00000000000E+00  0.15794207409E+03  0.15794207409E+03  0.00000000000E+00 0.  1.
         -2   -1    0    0    0  501 -0.00000000000E+00 -0.00000000000E+00 -0.52677401783E+02  0.52677401783E+02  0.00000000000E+00 0. -1.
          1    1    1    2  502    0  0.64603013543E+02  0.63230550692E+02  0.38571330934E+02  0.98282243918E+02  0.00000000000E+00 0. -1.
         -1    1    1    2    0  501 -0.64603013543E+02 -0.63230550692E+02  0.66693341371E+02  0.11233723195E+03  0.00000000000E+00 0.  1.
</event>
<event>
 4    1  0.6718357E+001  0.3151629E+02  0.7546771E-02  0.1406862E+00
          2   -1    0    0  502    0  0.00000000000E+00  0.00000000000E+00  0.70128823770E+03  0.70128823770E+03  0.00000000000E+00 0.  1.
         -2   -1    0    0    0  501 -0.00000000000E+00 -0.00000000000E+00 -0.21053628838E+01  0.21053628838E+01  0.00000000000E+00 0. -1.
          1    1    1    2  502    0 -0.31057616298E+02  0.53573378906E+01  0.14839723599E+03  0.15170700791E+03  0.00000000000E+00 0. -1.
         -1    1    1    2    0  501  0.31057616298E+02 -0.53573378906E+01  0.55078563882E+03  0.55168659267E+03  0.00000000000E+00 0.  1.
</event>
<event>
 4    1  0.6718357E+001  0.2441460E+02  0.7546771E-02  0.1475460E+00
          2   -1    0    0  502    0  0.00000000000E+00  0.00000000000E+00  0.21282550152E+04  0.21282550152E+04  0.00000000000E+00 0.  1.
         -2   -1    0    0    0  501 -0.00000000000E+00 -0.00000000000E+00 -0.40816051695E+00  0.40816051695E+00  0.00000000000E+00 0. -1.
          1    1    1    2  502    0 -0.22342800482E+02  0.98423462624E+01  0.46769829071E+03  0.46833509760E+03  0.00000000000E+00 0.  1.
         -1    1    1    2    0  501  0.22342800482E+02 -0.98423462624E+01  0.16601485640E+04  0.16603280782E+04  0.00000000000E+00 0. -1.
</event>
<event>
 4    1  0.6718357E+001  0.2683595E+02  0.7546771E-02  0.1449263E+00
          2   -1    0    0  502    0  0.00000000000E+00  0.00000000000E+00  0.77471724735E+01  0.77471724735E+01  0.00000000000E+00 0.  1.
         -2   -1    0    0    0  501 -0.00000000000E+00 -0.00000000000E+00 -0.94064045427E+02  0.94064045427E+02  0.00000000000E+00 0. -1.
          1    1    1    2  502    0 -0.22941572662E+02  0.13923087299E+02 -0.37640501356E+02  0.46227431883E+02  0.00000000000E+00 0.  1.
         -1    1    1    2    0  501  0.22941572662E+02 -0.13923087299E+02 -0.48676371598E+02  0.55583786018E+02  0.00000000000E+00 0. -1.
</event>
<event>
 4    1  0.6718357E+001  0.3870578E+02  0.7546771E-02  0.1356241E+00
          2   -1    0    0  502    0  0.00000000000E+00  0.00000000000E+00  0.15824721652E+03  0.15824721652E+03  0.00000000000E+00 0. -1.
         -2   -1    0    0    0  501 -0.00000000000E+00 -0.00000000000E+00 -0.95350188702E+01  0.95350188702E+01  0.00000000000E+00 0.  1.
          1    1    1    2  502    0  0.19728676282E+02  0.33300397410E+02  0.81438054423E+02  0.90168142066E+02  0.00000000000E+00 0. -1.
         -1    1    1    2    0  501 -0.19728676282E+02 -0.33300397410E+02  0.67274143222E+02  0.77614093319E+02  0.00000000000E+00 0.  1.
</event>
<event>
 4    1  0.6718357E+001  0.8262531E+02  0.7546771E-02  0.1197881E+00
          2   -1    0    0  502    0  0.00000000000E+00  0.00000000000E+00  0.73804089207E+02  0.73804089207E+02  0.00000000000E+00 0. -1.
         -2   -1    0    0    0  501 -0.00000000000E+00 -0.00000000000E+00 -0.93976304063E+02  0.93976304063E+02  0.00000000000E+00 0.  1.
          1    1    1    2  502    0 -0.81073740158E+02  0.15937076855E+02 -0.20597574377E+02  0.85153988939E+02  0.00000000000E+00 0.  1.
         -1    1    1    2    0  501  0.81073740158E+02 -0.15937076855E+02  0.42535952059E+00  0.82626404331E+02  0.00000000000E+00 0. -1.
</event>
<event>
 4    1  0.6718357E+001  0.3851091E+02  0.7546771E-02  0.1357440E+00
          2   -1    0    0  502    0  0.00000000000E+00  0.00000000000E+00  0.35752831119E+03  0.35752831119E+03  0.00000000000E+00 0.  1.
         -2   -1    0    0    0  501 -0.00000000000E+00 -0.00000000000E+00 -0.63363756202E+01  0.63363756202E+01  0.00000000000E+00 0. -1.
          1    1    1    2  502    0  0.33869589908E+02 -0.18328692469E+02  0.28250957949E+03  0.28512234671E+03  0.00000000000E+00 0.  1.
         -1    1    1    2    0  501 -0.33869589908E+02  0.18328692469E+02  0.68682356076E+02  0.78742340099E+02  0.00000000000E+00 0. -1.
</event>
<event>
 4    1  0.6718357E+001  0.2133435E+02  0.7546771E-02  0.1514544E+00
          2   -1    0    0  502    0  0.00000000000E+00  0.00000000000E+00  0.15270688281E+01  0.15270688281E+01  0.00000000000E+00 0. -1.
         -2   -1    0    0    0  501 -0.00000000000E+00 -0.00000000000E+00 -0.30397115819E+03  0.30397115819E+03  0.00000000000E+00 0.  1.
          1    1    1    2  502    0  0.20994324860E+02 -0.37937756487E+01 -0.12991670867E+03  0.13165677196E+03  0.00000000000E+00 0. -1.
         -1    1    1    2    0  501 -0.20994324860E+02  0.37937756487E+01 -0.17252738069E+03  0.17384145506E+03  0.00000000000E+00 0.  1.
</event>
<event>
 4    1  0.6718357E+001  0.2636582E+02  0.7546771E-02  0.1454085E+00
          2   -1    0    0  502    0  0.00000000000E+00  0.00000000000E+00  0.10666495621E+03  0.10666495621E+03  0.00000000000E+00 0.  1.
         -2   -1    0    0    0  501 -0.00000000000E+00 -0.00000000000E+00 -0.68517740658E+01  0.68517740658E+01  0.00000000000E+00 0. -1.
          1    1    1    2  502    0  0.12549884024E+02  0.23187430874E+02  0.62448868485E+02  0.67786559985E+02  0.00000000000E+00 0.  1.
         -1    1    1    2    0  501 -0.12549884024E+02 -0.23187430874E+02  0.37364313657E+02  0.45730170289E+02  0.00000000000E+00 0. -1.
</event>
<event>
 4    1  0.6718357E+001  0.2175103E+02  0.7546771E-02  0.1508807E+00
          2   -1    0    0  502    0  0.00000000000E+00  0.00000000000E+00  0.28117310850E+03  0.28117310850E+03  0.00000000000E+00 0.  1.
         -2   -1    0    0    0  501 -0.00000000000E+00 -0.00000000000E+00 -0.17595910225E+01  0.17595910225E+01  0.00000000000E+00 0. -1.
          1    1    1    2  502    0 -0.21711463426E+02 -0.13113448754E+01  0.11011892446E+03  0.11224653577E+03  0.00000000000E+00 0.  1.
         -1    1    1    2    0  501  0.21711463426E+02  0.13113448754E+01  0.16929459302E+03  0.17068616375E+03  0.00000000000E+00 0. -1.
</event>
<event>
 4    1  0.6718357E+001  0.2031837E+02  0.7546771E-02  0.1529223E+00
          2   -1    0    0  502    0  0.00000000000E+00  0.00000000000E+00  0.55564599314E+03  0.55564599314E+03  0.00000000000E+00 0. -1.
         -2   -1    0    0    0  501 -0.00000000000E+00 -0.00000000000E+00 -0.80340824911E+00  0.80340824911E+00  0.00000000000E+00 0.  1.
          1    1    1    2  502    0 -0.20097526604E+02 -0.29875998141E+01  0.35372253010E+03  0.35430560909E+03  0.00000000000E+00 0.  1.
         -1    1    1    2    0  501  0.20097526604E+02  0.29875998141E+01  0.20112005479E+03  0.20214379230E+03  0.00000000000E+00 0. -1.
</event>
<event>
 4    1  0.6718357E+001  0.9154640E+02  0.7546771E-02  0.1179322E+00
          2   -1    0    0  502    0  0.00000000000E+00  0.00000000000E+00  0.19483027606E+04  0.19483027606E+04  0.00000000000E+00 0.  1.
         -2   -1    0    0    0  501 -0.00000000000E+00 -0.00000000000E+00 -0.56007687886E+01  0.56007687886E+01  0.00000000000E+00 0. -1.
          1    1    1    2  502    0  0.64657641032E+02 -0.64808437444E+02  0.14418823053E+04  0.14447855641E+04  0.00000000000E+00 0.  1.
         -1    1    1    2    0  501 -0.64657641032E+02  0.64808437444E+02  0.50081968654E+03  0.50911796525E+03  0.00000000000E+00 0. -1.
</event>
<event>
 4    1  0.6718357E+001  0.3644052E+02  0.7546771E-02  0.1370709E+00
          2   -1    0    0  502    0  0.00000000000E+00  0.00000000000E+00  0.27806080692E+02  0.27806080692E+02  0.00000000000E+00 0.  1.
         -2   -1    0    0    0  501 -0.00000000000E+00 -0.00000000000E+00 -0.52971789102E+02  0.52971789102E+02  0.00000000000E+00 0. -1.
          1    1    1    2  502    0 -0.24273172045E+02  0.27179485833E+02  0.90567604437E-01  0.36440630261E+02  0.00000000000E+00 0. -1.
         -1    1    1    2    0  501  0.24273172045E+02 -0.27179485833E+02 -0.25256276014E+02  0.44337239533E+02  0.00000000000E+00 0.  1.
</event>
<event>
 4    1  0.6718357E+001  0.2108342E+02  0.7546771E-02  0.1518077E+00
          2   -1    0    0  502    0  0.00000000000E+00  0.00000000000E+00  0.92494190324E+03  0.92494190324E+03  0.00000000000E+00 0. -1.
         -2   -1    0    0    0  501 -0.00000000000E+00 -0.00000000000E+00 -0.53538195159E+00  0.53538195159E+00  0.00000000000E+00 0.  1.
          1    1    1    2  502    0 -0.76539081889E+01 -0.19645059903E+02  0.31415855492E+03  0.31486522246E+03  0.00000000000E+00 0. -1.
         -1    1    1    2    0  501  0.76539081889E+01  0.19645059903E+02  0.61024796637E+03  0.61061206273E+03  0.00000000000E+00 0.  1.
</event>
<event>
 4    1  0.6718357E+001  0.6199493E+02  0.7546771E-02  0.1253201E+00
          2   -1    0    0  502    0  0.00000000000E+00  0.00000000000E+00  0.31254361118E+03  0.31254361118E+03  0.00000000000E+00 0.  1.
         -2   -1    0    0    0  501 -0.00000000000E+00 -0.00000000000E+00 -0.13394409123E+02  0.13394409123E+02  0.00000000000E+00 0. -1.
          1    1    1    2  502    0 -0.16305253352E+02  0.59812293470E+02  0.19622044985E+03  0.20578104062E+03  0.00000000000E+00 0.  1.
         -1    1    1    2    0  501  0.16305253352E+02 -0.59812293470E+02  0.10292875220E+03  0.12015697968E+03  0.00000000000E+00 0. -1.
</event>
<event>
 4    1  0.6718357E+001  0.2371091E+02  0.7546771E-02  0.1483759E+00
          2   -1    0    0  502    0  0.00000000000E+00  0.00000000000E+00  0.20857535021E+01  0.20857535021E+01  0.00000000000E+00 0. -1.
         -2   -1    0    0    0  501 -0.00000000000E+00 -0.00000000000E+00 -0.32872638466E+03  0.32872638466E+03  0.00000000000E+00 0.  1.
          1    1    1    2  502    0  0.95314626522E+01  0.21710790212E+02 -0.23350168808E+03  0.23470246170E+03  0.00000000000E+00 0.  1.
         -1    1    1    2    0  501 -0.95314626522E+01 -0.21710790212E+02 -0.93138943077E+02  0.96109676461E+02  0.00000000000E+00 0. -1.
</event>
<event>
 4    1  0.6718357E+001  0.2801057E+02  0.7546771E-02  0.1437713E+00
          2   -1    0    0  502    0  0.00000000000E+00  0.00000000000E+00  0.30611332647E+02  0.30611332647E+02  0.00000000000E+00 0.  1.
         -2   -1    0    0    0  501 -0.00000000000E+00 -0.00000000000E+00 -0.25934812317E+02  0.25934812317E+02  0.00000000000E+00 0. -1.
          1    1    1    2  502    0  0.10025370915E+02 -0.26155003765E+02  0.53994655030E+01  0.28526242508E+02  0.00000000000E+00 0. -1.
         -1    1    1    2    0  501 -0.10025370915E+02  0.26155003765E+02 -0.72294517305E+00  0.28019902456E+02  0.00000000000E+00 0.  1.
</event>
<event>
 4    1  0.6718357E+001  0.3257847E+02  0.7546771E-02  0.1398436E+00
          2   -1    0    0  502    0  0.00000000000E+00  0.00000000000E+00  0.15714177382E+01  0.15714177382E+01  0.00000000000E+00 0. -1.
         -2   -1    0    0    0  501 -0.00000000000E+00 -0.00000000000E+00 -0.82282650315E+03  0.82282650315E+03  0.00000000000E+00 0.  1.
          1    1    1    2  502    0  0.31380777813E+02 -0.87523425763E+01 -0.23615757180E+03  0.23839411787E+03  0.00000000000E+00 0. -1.
         -1    1    1    2    0  501 -0.31380777813E+02  0.87523425763E+01 -0.58509751361E+03  0.58600380302E+03  0.00000000000E+00 0.  1.
</event>
<event>
 4    1  0.6718357E+001  0.2761886E+02  0.7546771E-02  0.1441489E+00
          2   -1    0    0  502    0  0.00000000000E+00  0.00000000000E+00  0.74228829088E+03  0.74228829088E+03  0.00000000000E+00 0. -1.
         -2   -1    0    0    0  501 -0.00000000000E+00 -0.00000000000E+00 -0.10673847303E+01  0.10673847303E+01  0.00000000000E+00 0.  1.
          1    1    1    2  502    0 -0.13040092435E+02 -0.24346606719E+02  0.29888481312E+03  0.30015817961E+03  0.00000000000E+00 0.  1.
         -1    1    1    2    0  501  0.13040092435E+02  0.24346606719E+02  0.44233609303E+03  0.44319749600E+03  0.00000000000E+00 0. -1.
</event>
<event>
 4    1  0.6718357E+001  0.2147176E+02  0.7546771E-02  0.1512635E+00
          2   -1    0    0  502    0  0.00000000000E+00  0.00000000000E+00  0.21114479182E+04  0.21114479182E+04  0.00000000000E+00 0.  1.
         -2   -1    0    0    0  501 -0.00000000000E+00 -0.00000000000E+00 -0.21940540433E+00  0.21940540433E+00  0.00000000000E+00 0. -1.
          1    1    1    2  502    0 -0.94440269558E+01 -0.19283325692E+02  0.11288159654E+04  0.11290201593E+04  0.00000000000E+00 0. -1.
         -1    1    1    2    0  501  0.94440269558E+01  0.19283325692E+02  0.98241254737E+03  0.98264716431E+03  0.00000000000E+00 0.  1.
</event>
<event>
 4    1  0.6718357E+001  0.2876386E+02  0.7546771E-02  0.1430651E+00
          2   -1    0    0  502    0  0.00000000000E+00  0.00000000000E+00  0.53773041170E+02  0.53773041170E+02  0.00000000000E+00 0. -1.
         -2   -1    0    0    0  501 -0.00000000000E+00 -0.00000000000E+00 -0.21362337738E+02  0.21362337738E+02  0.00000000000E+00 0.  1.
          1    1    1    2  502    0 -0.17153505088E+02 -0.23089326684E+02 -0.36648574334E+01  0.28996395009E+02  0.00000000000E+00 0.  1.
         -1    1    1    2    0  501  0.17153505088E+02  0.23089326684E+02  0.36075560865E+02  0.46138983899E+02  0.00000000000E+00 0. -1.
</event>
<event>
 4    1  0.6718357E+001  0.2290415E+02  0.7546771E-02  0.1493705E+00
          2   -1    0    0  502    0  0.00000000000E+00  0.00000000000E+00  0.17309425820E+04  0.17309425820E+04  0.00000000000E+00 0. -1.
         -2   -1    0    0    0  501 -0.00000000000E+00 -0.00000000000E+00 -0.30351256376E+00  0.30351256376E+00  0.00000000000E+00 0.  1.
          1    1    1    2  502    0  0.20777184536E+02  0.96389213708E+01  0.89829969516E+03  0.89859164392E+03  0.00000000000E+00 0. -1.
         -1    1    1    2    0  501 -0.20777184536E+02 -0.96389213708E+01  0.83233937428E+03  0.83265445064E+03  0.00000000000E+00 0.  1.
</event>
<event>
 4    1  0.6718357E+001  0.2684156E+02  0.7546771E-02  0.1449206E+00
          2   -1    0    0  502    0  0.00000000000E+00  0.00000000000E+00  0.51506587731E+03  0.51506587731E+03  0.00000000000E+00 0. -1.
         -2   -1    0    0    0  501 -0.00000000000E+00 -0.00000000000E+00 -0.26188159064E+01  0.26188159064E+01  0.00000000000E+00 0.  1.
          1    1    1    2  502    0 -0.26115907879E+02 -0.61990722402E+01  0.79551695455E+02  0.83957973956E+02  0.00000000000E+00 0.  1.
         -1    1    1    2    0  501  0.26115907879E+02  0.61990722402E+01  0.43289536595E+03  0.43372671926E+03  0.00000000000E+00 0. -1.
</event>
<event>
 4    1  0.6718357E+001  0.2636252E+02  0.7546771E-02  0.1454119E+00
          2   -1    0    0  502    0  0.00000000000E+00  0.00000000000E+00  0.10728436726E+03  0.10728436726E+03  0.00000000000E+00 0. -1.
         -2   -1    0    0    0  501 -0.00000000000E+00 -0.00000000000E+00 -0.76934194354E+01  0.76934194354E+01  0.00000000000E+00 0.  1.
          1    1    1    2  502    0  0.84486336001E+00  0.26348975504E+02  0.26944904057E+02  0.37696288397E+02  0.00000000000E+00 0.  1.
         -1    1    1    2    0  501 -0.84486336001E+00 -0.26348975504E+02  0.72646043765E+02  0.77281498297E+02  0.00000000000E+00 0. -1.
</event>
<event>
 4    1  0.6718357E+001  0.2169656E+02  0.7546771E-02  0.1509548E+00
          2   -1    0    0  502    0  0.00000000000E+00  0.00000000000E+00  0.15283511078E+03  0.15283511078E+03  0.00000000000E+00 0.  1.
         -2   -1    0    0    0  501 -0.00000000000E+00 -0.00000000000E+00 -0.38937063762E+01  0.38937063762E+01  0.00000000000E+00 0. -1.
          1    1    1    2  502    0 -0.21491920494E+02  0.29728823524E+01  0.38648175276E+02  0.44321801951E+02  0.00000000000E+00 0. -1.
         -1    1    1    2    0  501  0.21491920494E+02 -0.29728823524E+01  0.11029322913E+03  0.11240701521E+03  0.00000000000E+00 0.  1.
</event>
<event>
 4    1  0.6718357E+001  0.2046494E+02  0.7546771E-02  0.1527043E+00
          2   -1    0    0  502    0  0.00000000000E+00  0.00000000000E+00  0.58630184862E+03  0.58630184862E+03  0.00000000000E+00 0. -1.
         -2   -1    0    0    0  501 -0.00000000000E+00 -0.00000000000E+00 -0.11333687678E+01  0.11333687678E+01  0.00000000000E+00 0.  1.
          1    1    1    2  502    0 -0.14580995231E+02 -0.14359955503E+02  0.47117986145E+03  0.47162408291E+03  0.00000000000E+00 0. -1.
         -1    1    1    2    0  501  0.14580995231E+02  0.14359955503E+02  0.11398861840E+03  0.11581113448E+03  0.00000000000E+00 0.  1.
</event>
<event>
 4    1  0.6718357E+001  0.3146270E+02  0.7546771E-02  0.1407298E+00
          2   -1    0    0  502    0  0.00000000000E+00  0.00000000000E+00  0.99195940776E+02  0.99195940776E+02  0.00000000000E+00 0.  1.
         -2   -1    0    0    0  501 -0.00000000000E+00 -0.00000000000E+00 -0.10081358024E+02  0.10081358024E+02  0.00000000000E+00 0. -1.
          1    1    1    2  502    0 -0.22779752724E+02 -0.21702168973E+02  0.39058509321E+02  0.50154445692E+02  0.00000000000E+00 0. -1.
         -1    1    1    2    0  501  0.22779752724E+02  0.21702168973E+02  0.50056073430E+02  0.59122853108E+02  0.00000000000E+00 0.  1.
</event>
<event>
 4    1  0.6718357E+001  0.2157337E+02  0.7546771E-02  0.1511234E+00
          2   -1    0    0  502    0  0.00000000000E+00  0.00000000000E+00  0.17706447147E+02  0.17706447147E+02  0.00000000000E+00 0.  1.
         -2   -1    0    0    0  501 -0.00000000000E+00 -0.00000000000E+00 -0.37976804086E+02  0.37976804086E+02  0.00000000000E+00 0. -1.
          1    1    1    2  502    0  0.17826347753E+02 -0.12150383427E+02 -0.25583446230E+02  0.33465253811E+02  0.00000000000E+00 0. -1.
         -1    1    1    2    0  501 -0.17826347753E+02  0.12150383427E+02  0.53130892913E+01  0.22217997422E+02  0.00000000000E+00 0.  1.
</event>
<event>
 4    1  0.6718357E+001  0.2162870E+02  0.7546771E-02  0.1510475E+00
          2   -1    0    0  502    0  0.00000000000E+00  0.00000000000E+00  0.28835472743E+02  0.28835472743E+02  0.00000000000E+00 0.  1.
         -2   -1    0    0    0  501 -0.00000000000E+00 -0.00000000000E+00 -0.61032452736E+02  0.61032452736E+02  0.00000000000E+00 0. -1.
          1    1    1    2  502    0  0.55439325172E+01 -0.20906114772E+02  0.22403097221E+02  0.31139999802E+02  0.00000000000E+00 0.  1.
         -1    1    1    2    0  501 -0.55439325172E+01  0.20906114772E+02 -0.54600077214E+02  0.58727925677E+02  0.00000000000E+00 0. -1.
</event>
<event>
 4    1  0.6718357E+001  0.2085996E+02  0.7546771E-02  0.1521274E+00
          2   -1    0    0  502    0  0.00000000000E+00  0.00000000000E+00  0.44044510473E+01  0.44044510473E+01  0.00000000000E+00 0.  1.
         -2   -1    0    0    0  501 -0.00000000000E+00 -0.00000000000E+00 -0.16816420750E+03  0.16816420750E+03  0.00000000000E+00 0. -1.
          1    1    1    2  502    0 -0.18449987246E+02 -0.97332368563E+01 -0.13729756301E+03  0.13887317501E+03  0.00000000000E+00 0. -1.
         -1    1    1    2    0  501  0.18449987246E+02  0.97332368563E+01 -0.26462193450E+02  0.33695483543E+02  0.00000000000E+00 0.  1.
</event>
<event>
 4    1  0.6718357E+001  0.2688875E+02  0.7546771E-02  0.1448729E+00
          2   -1    0    0  502    0  0.00000000000E+00  0.00000000000E+00  0.48499581801E+03  0.48499581801E+03  0.00000000000E+00 0. -1.
         -2   -1    0    0    0  501 -0.00000000000E+00 -0.00000000000E+00 -0.15275971918E+01  0.15275971918E+01  0.00000000000E+00 0.  1.
          1    1    1    2  502    0  0.26092867309E+02  0.64936359023E+01  0.27951756862E+03  0.28080789911E+03  0.00000000000E+00 0.  1.
         -1    1    1    2    0  501 -0.26092867309E+02 -0.64936359023E+01  0.20395065220E+03  0.20571551610E+03  0.00000000000E+00 0. -1.
</event>
<event>
 4    1  0.6718357E+001  0.2092476E+02  0.7546771E-02  0.1520342E+00
          2   -1    0    0  502    0  0.00000000000E+00  0.00000000000E+00  0.34452370805E+01  0.34452370805E+01  0.00000000000E+00 0.  1.
         -2   -1    0    0    0  501 -0.00000000000E+00 -0.00000000000E+00 -0.13258915757E+03  0.13258915757E+03  0.00000000000E+00 0. -1.
          1    1    1    2  502    0 -0.15200509459E+02 -0.14380200708E+02 -0.78427450540E+02  0.81170873214E+02  0.00000000000E+00 0. -1.
         -1    1    1    2    0  501  0.15200509459E+02  0.14380200708E+02 -0.50716469953E+02  0.54863521439E+02  0.00000000000E+00 0.  1.
</event>
<event>
 4    1  0.6718357E+001  0.4371766E+02  0.7546771E-02  0.1327977E+00
          2   -1    0    0  502    0  0.00000000000E+00  0.00000000000E+00  0.18615742618E+03  0.18615742618E+03  0.00000000000E+00 0.  1.
         -2   -1    0    0    0  501 -0.00000000000E+00 -0.00000000000E+00 -0.19415977708E+02  0.19415977708E+02  0.00000000000E+00 0. -1.
          1    1    1    2  502    0 -0.31657193899E+02  0.30150556898E+02  0.15392920646E+03  0.16001698225E+03  0.00000000000E+00 0.  1.
         -1    1    1    2    0  501  0.31657193899E+02 -0.30150556898E+02  0.12812242007E+02  0.45556421634E+02  0.00000000000E+00 0. -1.
</event>
<event>
 4    1  0.6718357E+001  0.4744010E+02  0.7546771E-02  0.1309670E+00
          2   -1    0    0  502    0  0.00000000000E+00  0.00000000000E+00  0.12302483944E+04  0.12302483944E+04  0.00000000000E+00 0.  1.
         -2   -1    0    0    0  501 -0.00000000000E+00 -0.00000000000E+00 -0.19140929558E+01  0.19140929558E+01  0.00000000000E+00 0. -1.
          1    1    1    2  502    0  0.46907994880E+02  0.70854220762E+01  0.74379282013E+03  0.74530418117E+03  0.00000000000E+00 0. -1.
         -1    1    1    2    0  501 -0.46907994880E+02 -0.70854220762E+01  0.48454148128E+03  0.48685830616E+03  0.00000000000E+00 0.  1.
</event>
<event>
 4    1  0.6718357E+001  0.4858574E+02  0.7546771E-02  0.1304423E+00
          2   -1    0    0  502    0  0.00000000000E+00  0.00000000000E+00  0.10945099373E+04  0.10945099373E+04  0.00000000000E+00 0.  1.
         -2   -1    0    0    0  501 -0.00000000000E+00 -0.00000000000E+00 -0.82738511048E+01  0.82738511048E+01  0.00000000000E+00 0. -1.
          1    1    1    2  502    0 -0.29706185158E+02 -0.38446283123E+02  0.69007419860E+02  0.84395486363E+02  0.00000000000E+00 0. -1.
         -1    1    1    2    0  501  0.29706185158E+02  0.38446283123E+02  0.10172286663E+04  0.10183883020E+04  0.00000000000E+00 0.  1.
</event>
<event>
 4    1  0.6718357E+001  0.3461894E+02  0.7546771E-02  0.1383262E+00
          2   -1    0    0  502    0  0.00000000000E+00  0.00000000000E+00  0.17661304883E+03  0.17661304883E+03  0.00000000000E+00 0. -1.
         -2   -1    0    0    0  501 -0.00000000000E+00 -0.00000000000E+00 -0.67992601327E+01  0.67992601327E+01  0.00000000000E+00 0.  1.
          1    1    1    2  502    0 -0.53060693907E+01  0.34209889249E+02  0.80835241779E+02  0.87936381596E+02  0.00000000000E+00 0. -1.
         -1    1    1    2    0  501  0.53060693907E+01 -0.34209889249E+02  0.88978546921E+02  0.95475927369E+02  0.00000000000E+00 0.  1.
</event>
<event>
 4    1  0.6718357E+001  0.3550997E+02  0.7546771E-02  0.1377013E+00
          2   -1    0    0  502    0  0.00000000000E+00  0.00000000000E+00  0.11236848396E+04  0.11236848396E+04  0.00000000000E+00 0.  1.
         -2   -1    0    0    0  501 -0.00000000000E+00 -0.00000000000E+00 -0.11757248311E+01  0.11757248311E+01  0.00000000000E+00 0. -1.
          1    1    1    2  502    0  0.10916186736E+00 -0.35509803691E+02  0.68129889190E+03  0.68222367167E+03  0.00000000000E+00 0.  1.
         -1    1    1    2    0  501 -0.10916186736E+00  0.35509803691E+02  0.44121022285E+03  0.44263689275E+03  0.00000000000E+00 0. -1.
</event>
<event>
 4    1  0.6718357E+001  0.2179199E+02  0.7546771E-02  0.1508251E+00
          2   -1    0    0  502    0  0.00000000000E+00  0.00000000000E+00  0.99408399409E+03  0.99408399409E+03  0.00000000000E+00 0.  1.
         -2   -1    0    0    0  501 -0.00000000000E+00 -0.00000000000E+00 -0.62493941106E+00  0.62493941106E+00  0.00000000000E+00 0. -1.
          1    1    1    2  502    0 -0.14167154226E+02  0.16558455633E+02  0.25533123459E+03  0.25625949752E+03  0.00000000000E+00 0. -1.
         -1    1    1    2    0  501  0.14167154226E+02 -0.16558455633E+02  0.73812782010E+03  0.73844943599E+03  0.00000000000E+00 0.  1.
</event>
<event>
 4    1  0.6718357E+001  0.2057305E+02  0.7546771E-02  0.1525449E+00
          2   -1    0    0  502    0  0.00000000000E+00  0.00000000000E+00  0.81293254077E+03  0.81293254077E+03  0.00000000000E+00 0.  1.
         -2   -1    0    0    0  501 -0.00000000000E+00 -0.00000000000E+00 -0.52338277314E+00  0.52338277314E+00  0.00000000000E+00 0. -1.
          1    1    1    2  502    0  0.64639633899E+01 -0.19531195284E+02  0.43561362205E+03  0.43609916088E+03  0.00000000000E+00 0.  1.
         -1    1    1    2    0  501 -0.64639633899E+01  0.19531195284E+02  0.37679553595E+03  0.37735676266E+03  0.00000000000E+00 0. -1.
</event>
<event>
 4    1  0.6718357E+001  0.2300604E+02  0.7546771E-02  0.1492422E+00
          2   -1    0    0  502    0  0.00000000000E+00  0.00000000000E+00  0.31247712029E+03  0.31247712029E+03  0.00000000000E+00 0. -1.
         -2   -1    0    0    0  501 -0.00000000000E+00 -0.00000000000E+00 -0.73523699235E+01  0.73523699235E+01  0.00000000000E+00 0.  1.
          1    1    1    2  502    0  0.21719701230E+02  0.75850113032E+01  0.29285268641E+03  0.29375495528E+03  0.00000000000E+00 0. -1.
         -1    1    1    2    0  501 -0.21719701230E+02 -0.75850113032E+01  0.12272063960E+02  0.26074534930E+02  0.00000000000E+00 0.  1.
</event>
<event>
 4    1  0.6718357E+001  0.2467916E+02  0.7546771E-02  0.1472425E+00
          2   -1    0    0  502    0  0.00000000000E+00  0.00000000000E+00  0.26411027845E+04  0.26411027845E+04  0.00000000000E+00 0.  1.
         -2   -1    0    0    0  501 -0.00000000000E+00 -0.00000000000E+00 -0.24570025063E+00  0.24570025063E+00  0.00000000000E+00 0. -1.
          1    1    1    2  502    0  0.20869803241E+02 -0.13172401830E+02  0.16477407034E+04  0.16479255100E+04  0.00000000000E+00 0.  1.
         -1    1    1    2    0  501 -0.20869803241E+02  0.13172401830E+02  0.99311638083E+03  0.99342297473E+03  0.00000000000E+00 0. -1.
</event>
<event>
 4    1  0.6718357E+001  0.2514767E+02  0.7546771E-02  0.1467158E+00
          2   -1    0    0  502    0  0.00000000000E+00  0.00000000000E+00  0.52216084491E+01  0.52216084491E+01  0.00000000000E+00 0. -1.
         -2   -1    0    0    0  501 -0.00000000000E+00 -0.00000000000E+00 -0.12739815795E+03  0.12739815795E+03  0.00000000000E+00 0.  1.
          1    1    1    2  502    0 -0.13201024064E+02 -0.21404168106E+02 -0.46360077380E+02  0.52741465881E+02  0.00000000000E+00 0. -1.
         -1    1    1    2    0  501  0.13201024064E+02  0.21404168106E+02 -0.75816472117E+02  0.79878300514E+02  0.00000000000E+00 0.  1.
</event>
<event>
 4    1  0.6718357E+001  0.2473659E+02  0.7546771E-02  0.1471772E+00
          2   -1    0    0  502    0  0.00000000000E+00  0.00000000000E+00  0.46321469241E+02  0.46321469241E+02  0.00000000000E+00 0.  1.
         -2   -1    0    0    0  501 -0.00000000000E+00 -0.00000000000E+00 -0.13517838231E+02  0.13517838231E+02  0.00000000000E+00 0. -1.
          1    1    1    2  502    0  0.89630532826E+01 -0.23055635983E+02  0.20918138613E+02  0.32395481132E+02  0.00000000000E+00 0.  1.
         -1    1    1    2    0  501 -0.89630532826E+01  0.23055635983E+02  0.11885492396E+02  0.27443826340E+02  0.00000000000E+00 0. -1.
</event>
<event>
 4    1  0.6718357E+001  0.2122548E+02  0.7546771E-02  0.1516070E+00
          2   -1    0    0  502    0  0.00000000000E+00  0.00000000000E+00  0.43088981861E+02  0.43088981861E+02  0.00000000000E+00 0. -1.
         -2   -1    0    0    0  501 -0.00000000000E+00 -0.00000000000E+00 -0.10475742398E+02  0.10475742398E+02  0.00000000000E+00 0.  1.
          1    1    1    2  502    0  0.57571651563E+01  0.20429786630E+02  0.17481026810E+02  0.27497407709E+02  0.00000000000E+00 0. -1.
         -1    1    1    2    0  501 -0.57571651563E+01 -0.20429786630E+02  0.15132212653E+02  0.26067316551E+02  0.00000000000E+00 0.  1.
</event>
<event>
 4    1  0.6718357E+001  0.3596230E+02  0.7546771E-02  0.1373921E+00
          2   -1    0    0  502    0  0.00000000000E+00  0.00000000000E+00  0.42345519088E+03  0.42345519088E+03  0.00000000000E+00 0. -1.
         -2   -1    0    0    0  501 -0.00000000000E+00 -0.00000000000E+00 -0.31629608732E+01  0.31629608732E+01  0.00000000000E+00 0.  1.
          1    1    1    2  502    0 -0.31171864640E+02  0.17933254715E+02  0.24971378876E+03  0.25229003758E+03  0.00000000000E+00 0. -1.
         -1    1    1    2    0  501  0.31171864640E+02 -0.17933254715E+02  0.17057844125E+03  0.17432811417E+03  0.00000000000E+00 0.  1.
</event>
<event>
 4    1  0.6718357E+001  0.2745043E+02  0.7546771E-02  0.1443135E+00
          2   -1    0    0  502    0  0.00000000000E+00  0.00000000000E+00  0.77985482702E+01  0.77985482702E+01  0.00000000000E+00 0.  1.
         -2   -1    0    0    0  501 -0.00000000000E+00 -0.00000000000E+00 -0.23312482389E+03  0.23312482389E+03  0.00000000000E+00 0. -1.
          1    1    1    2  502    0  0.13905576499E+02 -0.23667724963E+02 -0.20486163340E+02  0.34252140825E+02  0.00000000000E+00 0.  1.
         -1    1    1    2    0  501 -0.13905576499E+02  0.23667724963E+02 -0.20484011228E+03  0.20667123134E+03  0.00000000000E+00 0. -1.
</event>
<event>
 4    1  0.6718357E+001  0.2007764E+02  0.7546771E-02  0.1532852E+00
          2   -1    0    0  502    0  0.00000000000E+00  0.00000000000E+00  0.31156033038E+03  0.31156033038E+03  0.00000000000E+00 0. -1.
         -2   -1    0    0    0  501 -0.00000000000E+00 -0.00000000000E+00 -0.13054770559E+01  0.13054770559E+01  0.00000000000E+00 0.  1.
          1    1    1    2  502    0 -0.87623534078E+01  0.18064681679E+02  0.16989212712E+03  0.17107438855E+03  0.00000000000E+00 0.  1.
         -1    1    1    2    0  501  0.87623534078E+01 -0.18064681679E+02  0.14036272620E+03  0.14179141888E+03  0.00000000000E+00 0. -1.
</event>
<event>
 4    1  0.6718357E+001  0.2833454E+02  0.7546771E-02  0.1434644E+00
          2   -1    0    0  502    0  0.00000000000E+00  0.00000000000E+00  0.40143102604E+01  0.40143102604E+01  0.00000000000E+00 0.  1.
         -2   -1    0    0    0  501 -0.00000000000E+00 -0.00000000000E+00 -0.26746461609E+03  0.26746461609E+03  0.00000000000E+00 0. -1.
          1    1    1    2  502    0  0.28088244437E+02 -0.37278025041E+01 -0.63550353833E+02  0.69580841180E+02  0.00000000000E+00 0.  1.
         -1    1    1    2    0  501 -0.28088244437E+02  0.37278025041E+01 -0.19989995199E+03  0.20189808517E+03  0.00000000000E+00 0. -1.
</event>
<event>
 4    1  0.6718357E+001  0.2226100E+02  0.7546771E-02  0.1501992E+00
          2   -1    0    0  502    0  0.00000000000E+00  0.00000000000E+00  0.36285463274E+02  0.36285463274E+02  0.00000000000E+00 0. -1.
         -2   -1    0    0    0  501 -0.00000000000E+00 -0.00000000000E+00 -0.15115318808E+02  0.15115318808E+02  0.00000000000E+00 0.  1.
          1    1    1    2  502    0  0.50291630979E+01 -0.21685473273E+02  0.18567784935E+02  0.28988185006E+02  0.00000000000E+00 0. -1.
         -1    1    1    2    0  501 -0.50291630979E+01  0.21685473273E+02  0.26023595303E+01  0.22412597076E+02  0.00000000000E+00 0.  1.
</event>
<event>
 4    1  0.6718357E+001  0.2553308E+02  0.7546771E-02  0.1462927E+00
          2   -1    0    0  502    0  0.00000000000E+00  0.00000000000E+00  0.88696704776E+03  0.88696704776E+03  0.00000000000E+00 0.  1.
         -2   -1    0    0    0  501 -0.00000000000E+00 -0.00000000000E+00 -0.73759660994E+00  0.73759660994E+00  0.00000000000E+00 0. -1.
          1    1    1    2  502    0 -0.10110319821E+02 -0.23446097225E+02  0.46935079330E+03  0.47004479064E+03  0.00000000000E+00 0.  1.
         -1    1    1    2    0  501  0.10110319821E+02  0.23446097225E+02  0.41687865785E+03  0.41765985373E+03  0.00000000000E+00 0. -1.
</event>
<event>
 4    1  0.6718357E+001  0.2151367E+02  0.7546771E-02  0.1512056E+00
          2   -1    0    0  502    0  0.00000000000E+00  0.00000000000E+00  0.71393217541E+03  0.71393217541E+03  0.00000000000E+00 0.  1.
         -2   -1    0    0    0  501 -0.00000000000E+00 -0.00000000000E+00 -0.68406866983E+00  0.68406866983E+00  0.00000000000E+00 0. -1.
          1    1    1    2  502    0  0.16922076582E+02  0.13284625595E+02  0.27491300304E+03  0.27575350803E+03  0.00000000000E+00 0. -1.
         -1    1    1    2    0  501 -0.16922076582E+02 -0.13284625595E+02  0.43833510370E+03  0.43886273605E+03  0.00000000000E+00 0.  1.
</event>
<event>
 4    1  0.6718357E+001  0.5076908E+02  0.7546771E-02  0.1294872E+00
          2   -1    0    0  502    0  0.00000000000E+00  0.00000000000E+00  0.17866579112E+03  0.17866579112E+03  0.00000000000E+00 0.  1.
         -2   -1    0    0    0  501 -0.00000000000E+00 -0.00000000000E+00 -0.17892880627E+02  0.17892880627E+02  0.00000000000E+00 0. -1.
          1    1    1    2  502    0  0.56560328381E+01  0.50453037822E+02  0.12364461348E+03  0.13366185011E+03  0.00000000000E+00 0.  1.
         -1    1    1    2    0  501 -0.56560328381E+01 -0.50453037822E+02  0.37128297018E+02  0.62896821640E+02  0.00000000000E+00 0. -1.
</event>
<event>
 4    1  0.6718357E+001  0.2045754E+02  0.7546771E-02  0.1527153E+00
          2   -1    0    0  502    0  0.00000000000E+00  0.00000000000E+00  0.17291374469E+04  0.17291374469E+04  0.00000000000E+00 0. -1.
         -2   -1    0    0    0  501 -0.00000000000E+00 -0.00000000000E+00 -0.29842460774E+00  0.29842460774E+00  0.00000000000E+00 0.  1.
          1    1    1    2  502    0  0.19209355348E+02  0.70364480239E+01  0.12403076114E+04  0.12404763125E+04  0.00000000000E+00 0. -1.
         -1    1    1    2    0  501 -0.19209355348E+02 -0.70364480239E+01  0.48853141088E+03  0.48895955901E+03  0.00000000000E+00 0.  1.
</event>
<event>
 4    1  0.6718357E+001  0.2073588E+02  0.7546771E-02  0.1523069E+00
          2   -1    0    0  502    0  0.00000000000E+00  0.00000000000E+00  0.53702731973E+03  0.53702731973E+03  0.00000000000E+00 0.  1.
         -2   -1    0    0    0  501 -0.00000000000E+00 -0.00000000000E+00 -0.11947418743E+01  0.11947418743E+01  0.00000000000E+00 0. -1.
          1    1    1    2  502    0  0.18496695743E+02 -0.93727877192E+01  0.42247271333E+03  0.42298128849E+03  0.00000000000E+00 0.  1.
         -1    1    1    2    0  501 -0.18496695743E+02  0.93727877192E+01  0.11335986453E+03  0.11524077312E+03  0.00000000000E+00 0. -1.
</event>
<event>
 4    1  0.6718357E+001  0.5294597E+02  0.7546771E-02  0.1285881E+00
          2   -1    0    0  502    0  0.00000000000E+00  0.00000000000E+00  0.24977777249E+03  0.24977777249E+03  0.00000000000E+00 0. -1.
         -2   -1    0    0    0  501 -0.00000000000E+00 -0.00000000000E+00 -0.11589436473E+02  0.11589436473E+02  0.00000000000E+00 0.  1.
          1    1    1    2  502    0  0.34021479671E+02 -0.40568644235E+02  0.14232911885E+03  0.15185800620E+03  0.00000000000E+00 0. -1.
         -1    1    1    2    0  501 -0.34021479671E+02  0.40568644235E+02  0.95859217161E+02  0.10950920276E+03  0.00000000000E+00 0.  1.
</event>
<event>
 4    1  0.6718357E+001  0.2015004E+02  0.7546771E-02  0.1531754E+00
          2   -1    0    0  502    0  0.00000000000E+00  0.00000000000E+00  0.45036085455E+01  0.45036085455E+01  0.00000000000E+00 0.  1.
         -2   -1    0    0    0  501 -0.00000000000E+00 -0.00000000000E+00 -0.91962962807E+02  0.91962962807E+02  0.00000000000E+00 0. -1.
          1    1    1    2  502    0 -0.19657344593E+02 -0.44286450901E+01 -0.50492085103E+02  0.54364278270E+02  0.00000000000E+00 0. -1.
         -1    1    1    2    0  501  0.19657344593E+02  0.44286450901E+01 -0.36967269158E+02  0.42102293082E+02  0.00000000000E+00 0.  1.
</event>
<event>
 4    1  0.6718357E+001  0.4079546E+02  0.7546771E-02  0.1343886E+00
          2   -1    0    0  502    0  0.00000000000E+00  0.00000000000E+00  0.13401259314E+03  0.13401259314E+03  0.00000000000E+00 0. -1.
         -2   -1    0    0    0  501 -0.00000000000E+00 -0.00000000000E+00 -0.13223321028E+02  0.13223321028E+02  0.00000000000E+00 0.  1.
          1    1    1    2  502    0 -0.33430055812E+02  0.23381628711E+02  0.78553767729E+02  0.88515329843E+02  0.00000000000E+00 0. -1.
         -1    1    1    2    0  501  0.33430055812E+02 -0.23381628711E+02  0.42235504378E+02  0.58720584320E+02  0.00000000000E+00 0.  1.
</event>
<event>
 4    1  0.6718357E+001  0.2079041E+02  0.7546771E-02  0.1522278E+00
          2   -1    0    0  502    0  0.00000000000E+00  0.00000000000E+00  0.94020195296E+03  0.94020195296E+03  0.00000000000E+00 0. -1.
         -2   -1    0    0    0  501 -0.00000000000E+00 -0.00000000000E+00 -0.45990326121E+00  0.45990326121E+00  0.00000000000E+00 0.  1.
          1    1    1    2  502    0 -0.11041120885E+01  0.20761074043E+02  0.46080435114E+03  0.46127312005E+03  0.00000000000E+00 0.  1.
         -1    1    1    2    0  501  0.11041120885E+01 -0.20761074043E+02  0.47893769857E+03  0.47938873617E+03  0.00000000000E+00 0. -1.
</event>
<event>
 4    1  0.6718357E+001  0.2362653E+02  0.7546771E-02  0.1484777E+00
          2   -1    0    0  502    0  0.00000000000E+00  0.00000000000E+00  0.13199780293E+02  0.13199780293E+02  0.00000000000E+00 0.  1.
         -2   -1    0    0    0  501 -0.00000000000E+00 -0.00000000000E+00 -0.42568911723E+02  0.42568911723E+02  0.00000000000E+00 0. -1.
          1    1    1    2  502    0  0.23619056849E+02  0.59412248325E+00 -0.16943450865E+02  0.29073929132E+02  0.00000000000E+00 0.  1.
         -1    1    1    2    0  501 -0.23619056849E+02 -0.59412248325E+00 -0.12425680565E+02  0.26694762885E+02  0.00000000000E+00 0. -1.
</event>
<event>
 4    1  0.6718357E+001  0.2166502E+02  0.7546771E-02  0.1509978E+00
          2   -1    0    0  502    0  0.00000000000E+00  0.00000000000E+00  0.15278146518E+04  0.15278146518E+04  0.00000000000E+00 0.  1.
         -2   -1    0    0    0  501 -0.00000000000E+00 -0.00000000000E+00 -0.51139520658E+00  0.51139520658E+00  0.00000000000E+00 0. -1.
          1    1    1    2  502    0 -0.61543516581E+01 -0.20772504997E+02  0.28080329983E+03  0.28163782808E+03  0.00000000000E+00 0. -1.
         -1    1    1    2    0  501  0.61543516581E+01  0.20772504997E+02  0.12464999568E+04  0.12466882189E+04  0.00000000000E+00 0.  1.
</event>
<event>
 4    1  0.6718357E+001  0.2012705E+02  0.7546771E-02  0.1532102E+00
          2   -1    0    0  502    0  0.00000000000E+00  0.00000000000E+00  0.28747516590E+03  0.28747516590E+03  0.00000000000E+00 0. -1.
         -2   -1    0    0    0  501 -0.00000000000E+00 -0.00000000000E+00 -0.14660820176E+01  0.14660820176E+01  0.00000000000E+00 0.  1.
          1    1    1    2  502    0  0.19862784159E+02 -0.32508169439E+01  0.17147190139E+03  0.17264909780E+03  0.00000000000E+00 0. -1.
         -1    1    1    2    0  501 -0.19862784159E+02  0.32508169439E+01  0.11453718249E+03  0.11629215011E+03  0.00000000000E+00 0.  1.
</event>
<event>
 4    1  0.6718357E+001  0.2012704E+02  0.7546771E-02  0.1532102E+00
          2   -1    0    0  502    0  0.00000000000E+00  0.00000000000E+00  0.11762507958E+01  0.11762507958E+01  0.00000000000E+00 0.  1.
         -2   -1    0    0    0  501 -0.00000000000E+00 -0.00000000000E+00 -0.41601073653E+03  0.41601073653E+03  0.00000000000E+00 0. -1.
          1    1    1    2  502    0 -0.17357818025E+02 -0.10188425076E+02 -0.29396286244E+03  0.29465108577E+03  0.00000000000E+00 0. -1.
         -1    1    1    2    0  501  0.17357818025E+02  0.10188425076E+02 -0.12087162330E+03  0.12253590156E+03  0.00000000000E+00 0.  1.
</event>
<event>
 4    1  0.6718357E+001  0.2806536E+02  0.7546771E-02  0.1437190E+00
          2   -1    0    0  502    0  0.00000000000E+00  0.00000000000E+00  0.64294878615E+02  0.64294878615E+02  0.00000000000E+00 0. -1.
         -2   -1    0    0    0  501 -0.00000000000E+00 -0.00000000000E+00 -0.13211934815E+02  0.13211934815E+02  0.00000000000E+00 0.  1.
          1    1    1    2  502    0 -0.16450016397E+01  0.28017109220E+02  0.15089066936E+02  0.31864468933E+02  0.00000000000E+00 0.  1.
         -1    1    1    2    0  501  0.16450016397E+01 -0.28017109220E+02  0.35993876864E+02  0.45642344496E+02  0.00000000000E+00 0. -1.
</event>
<event>
 4    1  0.6718357E+001  0.2715640E+02  0.7546771E-02  0.1446043E+00
          2   -1    0    0  502    0  0.00000000000E+00  0.00000000000E+00  0.55053425200E+03  0.55053425200E+03  0.00000000000E+00 0.  1.
         -2   -1    0    0    0  501 -0.00000000000E+00 -0.00000000000E+00 -0.14968440453E+01  0.14968440453E+01  0.00000000000E+00 0. -1.
          1    1    1    2  502    0 -0.61939732044E+01 -0.26440592679E+02  0.36399256416E+03  0.36500418766E+03  0.00000000000E+00 0.  1.
         -1    1    1    2    0  501  0.61939732044E+01  0.26440592679E+02  0.18504484379E+03  0.18702690838E+03  0.00000000000E+00 0. -1.
</event>
<event>
 4    1  0.6718357E+001  0.2107107E+02  0.7546771E-02  0.1518253E+00
          2   -1    0    0  502    0  0.00000000000E+00  0.00000000000E+00  0.10181921377E+04  0.10181921377E+04  0.00000000000E+00 0.  1.
         -2   -1    0    0    0  501 -0.00000000000E+00 -0.00000000000E+00 -0.72688175667E+00  0.72688175667E+00  0.00000000000E+00 0. -1.
          1    1    1    2  502    0 -0.14702977124E+02  0.15093451632E+02  0.83098303055E+03  0.83125013496E+03  0.00000000000E+00 0. -1.
         -1    1    1    2    0  501  0.14702977124E+02 -0.15093451632E+02  0.18648222541E+03  0.18766888451E+03  0.00000000000E+00 0.  1.
</event>
<event>
 4    1  0.6718357E+001  0.2395712E+02  0.7546771E-02  0.1480817E+00
          2   -1    0    0  502    0  0.00000000000E+00  0.00000000000E+00  0.45791432700E+02  0.45791432700E+02  0.00000000000E+00 0.  1.
         -2   -1    0    0    0  501 -0.00000000000E+00 -0.00000000000E+00 -0.25930057536E+02  0.25930057536E+02  0.00000000000E+00 0. -1.
          1    1    1    2  502    0  0.23956961537E+02 -0.86712949397E-01 -0.15844883627E+02  0.28722880468E+02  0.00000000000E+00 0. -1.
         -1    1    1    2    0  501 -0.23956961537E+02  0.86712949397E-01  0.35706258791E+02  0.42998609769E+02  0.00000000000E+00 0.  1.
</event>
<event>
 4    1  0.6718357E+001  0.2101695E+02  0.7546771E-02  0.1519023E+00
          2   -1    0    0  502    0  0.00000000000E+00  0.00000000000E+00  0.47477270881E+01  0.47477270881E+01  0.00000000000E+00 0.  1.
         -2   -1    0    0    0  501 -0.00000000000E+00 -0.00000000000E+00 -0.14749745503E+03  0.14749745503E+03  0.00000000000E+00 0. -1.
          1    1    1    2  502    0  0.20757321391E+02  0.32932741250E+01 -0.11763041004E+03  0.11949320237E+03  0.00000000000E+00 0. -1.
         -1    1    1    2    0  501 -0.20757321391E+02 -0.32932741250E+01 -0.25119317905E+02  0.32751979754E+02  0.00000000000E+00 0.  1.
</event>
<event>
 4    1  0.6718357E+001  0.2004897E+02  0.7546771E-02  0.1533288E+00
          2   -1    0    0  502    0  0.00000000000E+00  0.00000000000E+00  0.88874758757E+03  0.88874758757E+03  0.00000000000E+00 0.  1.
         -2   -1    0    0    0  501 -0.00000000000E+00 -0.00000000000E+00 -0.13834951800E+01  0.13834951800E+01  0.00000000000E+00 0. -1.
          1    1    1    2  502    0 -0.16739754092E+02 -0.11033666412E+02  0.78541056585E+02  0.81059599870E+02  0.00000000000E+00 0. -1.
         -1    1    1    2    0  501  0.16739754092E+02  0.11033666412E+02  0.80882303580E+03  0.80907148288E+03  0.00000000000E+00 0.  1.
</event>
<event>
 4    1  0.6718357E+001  0.2544520E+02  0.7546771E-02  0.1463884E+00
          2   -1    0    0  502    0  0.00000000000E+00  0.00000000000E+00  0.47400498191E+02  0.47400498191E+02  0.00000000000E+00 0. -1.
         -2   -1    0    0    0  501 -0.00000000000E+00 -0.00000000000E+00 -0.22197253883E+02  0.22197253883E+02  0.00000000000E+00 0.  1.
          1    1    1    2  502    0 -0.14119917133E+02  0.21168044904E+02  0.34183647298E+02  0.42614315992E+02  0.00000000000E+00 0. -1.
         -1    1    1    2    0  501  0.14119917133E+02 -0.21168044904E+02 -0.89804029900E+01  0.26983436082E+02  0.00000000000E+00 0.  1.
</event>
<event>
 4    1  0.6718357E+001  0.2238154E+02  0.7546771E-02  0.1500414E+00
          2   -1    0    0  502    0  0.00000000000E+00  0.00000000000E+00  0.88164472073E+02  0.88164472073E+02  0.00000000000E+00 0.  1.
         -2   -1    0    0    0  501 -0.00000000000E+00 -0.00000000000E+00 -0.64694382016E+01  0.64694382016E+01  0.00000000000E+00 0. -1.
          1    1    1    2  502    0 -0.20512314194E+02  0.89542297723E+01  0.57357466399E+02  0.61569572161E+02  0.00000000000E+00 0.  1.
         -1    1    1    2    0  501  0.20512314194E+02 -0.89542297723E+01  0.24337567472E+02  0.33064338113E+02  0.00000000000E+00 0. -1.
</event>
<event>
 4    1  0.6718357E+001  0.2133067E+02  0.7546771E-02  0.1514596E+00
          2   -1    0    0  502    0  0.00000000000E+00  0.00000000000E+00  0.31360915380E+00  0.31360915380E+00  0.00000000000E+00 0.  1.
         -2   -1    0    0    0  501 -0.00000000000E+00 -0.00000000000E+00 -0.14857715867E+04  0.14857715867E+04  0.00000000000E+00 0. -1.
          1    1    1    2  502    0  0.90830820865E+01  0.19300136608E+02 -0.62880162705E+03  0.62916332047E+03  0.00000000000E+00 0. -1.
         -1    1    1    2    0  501 -0.90830820865E+01 -0.19300136608E+02 -0.85665635048E+03  0.85692187536E+03  0.00000000000E+00 0.  1.
</event>
<event>
 4    1  0.6718357E+001  0.2649402E+02  0.7546771E-02  0.1452758E+00
          2   -1    0    0  502    0  0.00000000000E+00  0.00000000000E+00  0.38008100008E+03  0.38008100008E+03  0.00000000000E+00 0.  1.
         -2   -1    0    0    0  501 -0.00000000000E+00 -0.00000000000E+00 -0.18485465653E+01  0.18485465653E+01  0.00000000000E+00 0. -1.
          1    1    1    2  502    0  0.14231009604E+02 -0.22347520403E+02  0.18324505484E+03  0.18515043459E+03  0.00000000000E+00 0. -1.
         -1    1    1    2    0  501 -0.14231009604E+02  0.22347520403E+02  0.19498739867E+03  0.19677911206E+03  0.00000000000E+00 0.  1.
</event>
<event>
 4    1  0.6718357E+001  0.2367883E+02  0.7546771E-02  0.1484146E+00
          2   -1    0    0  502    0  0.00000000000E+00  0.00000000000E+00  0.38317988111E+03  0.38317988111E+03  0.00000000000E+00 0. -1.
         -2   -1    0    0    0  501 -0.00000000000E+00 -0.00000000000E+00 -0.16836232616E+01  0.16836232616E+01  0.00000000000E+00 0.  1.
          1    1    1    2  502    0  0.21473459666E+02 -0.99788547882E+01  0.26036847269E+03  0.26144297387E+03  0.00000000000E+00 0.  1.
         -1    1    1    2    0  501 -0.21473459666E+02  0.99788547882E+01  0.12112778515E+03  0.12342053050E+03  0.00000000000E+00 0. -1.
</event>
<event>
 4    1  0.6718357E+001  0.2198517E+02  0.7546771E-02  0.1505650E+00
          2   -1    0    0  502    0  0.00000000000E+00  0.00000000000E+00  0.36981318449E+02  0.36981318449E+02  0.00000000000E+00 0. -1.
         -2   -1    0    0    0  501 -0.00000000000E+00 -0.00000000000E+00 -0.13149092653E+02  0.13149092653E+02  0.00000000000E+00 0.  1.
          1    1    1    2  502    0  0.15028830142E+02  0.16046242700E+02  0.99727353753E+01  0.24141315024E+02  0.00000000000E+00 0. -1.
         -1    1    1    2    0  501 -0.15028830142E+02 -0.16046242700E+02  0.13859490421E+02  0.25989096078E+02  0.00000000000E+00 0.  1.
</event>
<event>
 4    1  0.6718357E+001  0.2988436E+02  0.7546771E-02  0.1420604E+00
          2   -1    0    0  502    0  0.00000000000E+00  0.00000000000E+00  0.30457189719E+02  0.30457189719E+02  0.00000000000E+00 0.  1.
         -2   -1    0    0    0  501 -0.00000000000E+00 -0.00000000000E+00 -0.29654282673E+02  0.29654282673E+02  0.00000000000E+00 0. -1.
          1    1    1    2  502    0  0.29471381391E+02 -0.49510125714E+01 -0.27786519836E+01  0.30013259627E+02  0.00000000000E+00 0.  1.
         -1    1    1    2    0  501 -0.29471381391E+02  0.49510125714E+01  0.35815590295E+01  0.30098212765E+02  0.00000000000E+00 0. -1.
</event>
<event>
 4    1  0.6718357E+001  0.2078651E+02  0.7546771E-02  0.1522335E+00
          2   -1    0    0  502    0  0.00000000000E+00  0.00000000000E+00  0.45079746074E+03  0.45079746074E+03  0.00000000000E+00 0.  1.
         -2   -1    0    0    0  501 -0.00000000000E+00 -0.00000000000E+00 -0.12339624589E+01  0.12339624589E+01  0.00000000000E+00 0. -1.
          1    1    1    2  502    0 -0.46331059557E+01  0.20263597612E+02  0.11799019919E+03  0.11980720414E+03  0.00000000000E+00 0. -1.
         -1    1    1    2    0  501  0.46331059557E+01 -0.20263597612E+02  0.33157329908E+03  0.33222421905E+03  0.00000000000E+00 0.  1.
</event>
<event>
 4    1  0.6718357E+001  0.2192388E+02  0.7546771E-02  0.1506472E+00
          2   -1    0    0  502    0  0.00000000000E+00  0.00000000000E+00  0.26740697722E+01  0.26740697722E+01  0.00000000000E+00 0.  1.
         -2   -1    0    0    0  501 -0.00000000000E+00 -0.00000000000E+00 -0.18087258118E+03  0.18087258118E+03  0.00000000000E+00 0. -1.
          1    1    1    2  502    0  0.20225386003E+02  0.84610913808E+01 -0.81859935148E+02  0.84744942555E+02  0.00000000000E+00 0.  1.
         -1    1    1    2    0  501 -0.20225386003E+02 -0.84610913808E+01 -0.96338576263E+02  0.98801708400E+02  0.00000000000E+00 0. -1.
</event>
<event>
 4    1  0.6718357E+001  0.2439768E+02  0.7546771E-02  0.1475656E+00
          2   -1    0    0  502    0  0.00000000000E+00  0.00000000000E+00  0.23805319488E+04  0.23805319488E+04  0.00000000000E+00 0. -1.
         -2   -1    0    0    0  501 -0.00000000000E+00 -0.00000000000E+00 -0.25128530159E+00  0.25128530159E+00  0.00000000000E+00 0.  1.
          1    1    1    2  502    0  0.24385750874E+02 -0.76300503497E+00  0.11066067536E+04  0.11068756723E+04  0.00000000000E+00 0.  1.
         -1    1    1    2    0  501 -0.24385750874E+02  0.76300503497E+00  0.12736739100E+04  0.12739075618E+04  0.00000000000E+00 0. -1.
</event>
<event>
 4    1  0.6718357E+001  0.2333442E+02  0.7546771E-02  0.1488341E+00
          2   -1    0    0  502    0  0.00000000000E+00  0.00000000000E+00  0.20738564342E+03  0.20738564342E+03  0.00000000000E+00 0.  1.
         -2   -1    0    0    0  501 -0.00000000000E+00 -0.00000000000E+00 -0.30253649915E+01  0.30253649915E+01  0.00000000000E+00 0. -1.
          1    1    1    2  502    0  0.12107787953E+02  0.19947350664E+02  0.14042692562E+03  0.14235243857E+03  0.00000000000E+00 0.  1.
         -1    1    1    2    0  501 -0.12107787953E+02 -0.19947350664E+02  0.63933352810E+02  0.68058569843E+02  0.00000000000E+00 0. -1.
</event>
<event>
 4    1  0.6718357E+001  0.2288217E+02  0.7546771E-02  0.1493983E+00
          2   -1    0    0  502    0  0.00000000000E+00  0.00000000000E+00  0.19220790739E+01  0.19220790739E+01  0.00000000000E+00 0.  1.
         -2   -1    0    0    0  501 -0.00000000000E+00 -0.00000000000E+00 -0.27249710220E+03  0.27249710220E+03  0.00000000000E+00 0. -1.
          1    1    1    2  502    0  0.20063152796E+02 -0.11002893150E+02 -0.13283584115E+03  0.13479226406E+03  0.00000000000E+00 0.  1.
         -1    1    1    2    0  501 -0.20063152796E+02  0.11002893150E+02 -0.13773918198E+03  0.13962691722E+03  0.00000000000E+00 0. -1.
</event>
<event>
 4    1  0.6718357E+001  0.2140119E+02  0.7546771E-02  0.1513613E+00
          2   -1    0    0  502    0  0.00000000000E+00  0.00000000000E+00  0.16676578429E+03  0.16676578429E+03  0.00000000000E+00 0.  1.
         -2   -1    0    0    0  501 -0.00000000000E+00 -0.00000000000E+00 -0.32587847118E+01  0.32587847118E+01  0.00000000000E+00 0. -1.
          1    1    1    2  502    0  0.16418994009E+02  0.13726885175E+02  0.11546194657E+03  0.11742858190E+03  0.00000000000E+00 0.  1.
         -1    1    1    2    0  501 -0.16418994009E+02 -0.13726885175E+02  0.48045053009E+02  0.52595987105E+02  0.00000000000E+00 0. -1.
</event>
<event>
 4    1  0.6718357E+001  0.2502656E+02  0.7546771E-02  0.1468506E+00
          2   -1    0    0  502    0  0.00000000000E+00  0.00000000000E+00  0.64380551314E+01  0.64380551314E+01  0.00000000000E+00 0.  1.
         -2   -1    0    0    0  501 -0.00000000000E+00 -0.00000000000E+00 -0.10794304967E+03  0.10794304967E+03  0.00000000000E+00 0. -1.
          1    1    1    2  502    0 -0.13923967309E+02  0.20795477204E+02 -0.68722898240E+02  0.73137989310E+02  0.00000000000E+00 0. -1.
         -1    1    1    2    0  501  0.13923967309E+02 -0.20795477204E+02 -0.32782096302E+02  0.41243115495E+02  0.00000000000E+00 0.  1.
</event>
<event>
 4    1  0.6718357E+001  0.3024046E+02  0.7546771E-02  0.1417518E+00
          2   -1    0    0  502    0  0.00000000000E+00  0.00000000000E+00  0.10795868613E+03  0.10795868613E+03  0.00000000000E+00 0. -1.
         -2   -1    0    0    0  501 -0.00000000000E+00 -0.00000000000E+00 -0.91741084803E+01  0.91741084803E+01  0.00000000000E+00 0.  1.
          1    1    1    2  502    0  0.25640804069E+02 -0.16032298951E+02  0.65609304798E+02  0.72243105685E+02  0.00000000000E+00 0. -1.
         -1    1    1    2    0  501 -0.25640804069E+02  0.16032298951E+02  0.33175272849E+02  0.44889688922E+02  0.00000000000E+00 0.  1.
</event>
<event>
 4    1  0.6718357E+001  0.3116732E+02  0.7546771E-02  0.1409716E+00
          2   -1    0    0  502    0  0.00000000000E+00  0.00000000000E+00  0.27865039781E+01  0.27865039781E+01  0.00000000000E+00 0.  1.
         -2   -1    0    0    0  501 -0.00000000000E+00 -0.00000000000E+00 -0.89741867122E+03  0.89741867122E+03  0.00000000000E+00 0. -1.
          1    1    1    2  502    0 -0.22998229704E+02  0.21035289594E+02 -0.95330717305E+02  0.10029629923E+03  0.00000000000E+00 0.  1.
         -1    1    1    2    0  501  0.22998229704E+02 -0.21035289594E+02 -0.79930144993E+03  0.79990887596E+03  0.00000000000E+00 0. -1.
</event>
<event>
 4    1  0.6718357E+001  0.2199585E+02  0.7546771E-02  0.1505507E+00
          2   -1    0    0  502    0  0.00000000000E+00  0.00000000000E+00  0.10547277323E+01  0.10547277323E+01  0.00000000000E+00 0. -1.
         -2   -1    0    0    0  501 -0.00000000000E+00 -0.00000000000E+00 -0.46924880727E+03  0.46924880727E+03  0.00000000000E+00 0.  1.
          1    1    1    2  502    0  0.21786658770E+02  0.30264026484E+01 -0.19886199078E+03  0.20007475850E+03  0.00000000000E+00 0.  1.
         -1    1    1    2    0  501 -0.21786658770E+02 -0.30264026484E+01 -0.26933208876E+03  0.27022877650E+03  0.00000000000E+00 0. -1.
</event>
<event>
 4    1  0.6718357E+001  0.3144490E+02  0.7546771E-02  0.1407442E+00
          2   -1    0    0  502    0  0.00000000000E+00  0.00000000000E+00  0.11163285692E+04  0.11163285692E+04  0.00000000000E+00 0.  1.
         -2   -1    0    0    0  501 -0.00000000000E+00 -0.00000000000E+00 -0.89720195170E+00  0.89720195170E+00  0.00000000000E+00 0. -1.
          1    1    1    2  502    0  0.19703803575E+02 -0.24505960725E+02  0.62084167788E+03  0.62163749161E+03  0.00000000000E+00 0.  1.
         -1    1    1    2    0  501 -0.19703803575E+02  0.24505960725E+02  0.49458968934E+03  0.49558827951E+03  0.00000000000E+00 0. -1.
</event>
<event>
 4    1  0.6718357E+001  0.2227343E+02  0.7546771E-02  0.1501829E+00
          2   -1    0    0  502    0  0.00000000000E+00  0.00000000000E+00  0.10101351507E+04  0.10101351507E+04  0.00000000000E+00 0.  1.
         -2   -1    0    0    0  501 -0.00000000000E+00 -0.00000000000E+00 -0.51182242125E+00  0.51182242125E+00  0.00000000000E+00 0. -1.
          1    1    1    2  502    0  0.21538514958E+02  0.56743300714E+01  0.60642168860E+03  0.60683059420E+03  0.00000000000E+00 0.  1.
         -1    1    1    2    0  501 -0.21538514958E+02 -0.56743300714E+01  0.40320163972E+03  0.40381637897E+03  0.00000000000E+00 0. -1.
</event>
<event>
 4    1  0.6718357E+001  0.2669825E+02  0.7546771E-02  0.1450663E+00
          2   -1    0    0  502    0  0.00000000000E+00  0.00000000000E+00  0.11285103205E+04  0.11285103205E+04  0.00000000000E+00 0. -1.
         -2   -1    0    0    0  501 -0.00000000000E+00 -0.00000000000E+00 -0.63249205861E+00  0.63249205861E+00  0.00000000000E+00 0.  1.
          1    1    1    2  502    0 -0.43271248358E+01 -0.26345254367E+02  0.54304739511E+03  0.54370329204E+03  0.00000000000E+00 0. -1.
         -1    1    1    2    0  501  0.43271248358E+01  0.26345254367E+02  0.58483043330E+03  0.58543952049E+03  0.00000000000E+00 0.  1.
</event>
<event>
 4    1  0.6718357E+001  0.3269722E+02  0.7546771E-02  0.1397518E+00
          2   -1    0    0  502    0  0.00000000000E+00  0.00000000000E+00  0.96308013702E+02  0.96308013702E+02  0.00000000000E+00 0. -1.
         -2   -1    0    0    0  501 -0.00000000000E+00 -0.00000000000E+00 -0.11103929588E+02  0.11103929588E+02  0.00000000000E+00 0.  1.
          1    1    1    2  502    0  0.28957562168E+02 -0.15184458757E+02  0.43485241025E+02  0.54406565610E+02  0.00000000000E+00 0.  1.
         -1    1    1    2    0  501 -0.28957562168E+02  0.15184458757E+02  0.41718843089E+02  0.53005377681E+02  0.00000000000E+00 0. -1.
</event>
<event>
 4    1  0.6718357E+001  0.2570536E+02  0.7546771E-02  0.1461065E+00
          2   -1    0    0  502    0  0.00000000000E+00  0.00000000000E+00  0.37430698530E+02  0.37430698530E+02  0.00000000000E+00 0.  1.
         -2   -1    0    0    0  501 -0.00000000000E+00 -0.00000000000E+00 -0.18352051167E+02  0.18352051167E+02  0.00000000000E+00 0. -1.
          1    1    1    2  502    0 -0.21211844944E+02 -0.14519750896E+02  0.14982725457E+02  0.29753110663E+02  0.00000000000E+00 0.  1.
         -1    1    1    2    0  501  0.21211844944E+02  0.14519750896E+02  0.40959219064E+01  0.26029639034E+02  0.00000000000E+00 0. -1.
</event>
<event>
 4    1  0.6718357E+001  0.4927409E+02  0.7546771E-02  0.1301351E+00
          2   -1    0    0  502    0  0.00000000000E+00  0.00000000000E+00  0.25995548729E+03  0.25995548729E+03  0.00000000000E+00 0.  1.
         -2   -1    0    0    0  501 -0.00000000000E+00 -0.00000000000E+00 -0.17338307263E+02  0.17338307263E+02  0.00000000000E+00 0. -1.
          1    1    1    2  502    0 -0.47119527585E+01  0.49048279984E+02  0.27138960726E+02  0.56253528400E+02  0.00000000000E+00 0.  1.
         -1    1    1    2    0  501  0.47119527585E+01 -0.49048279984E+02  0.21547821930E+03  0.22104026615E+03  0.00000000000E+00 0. -1.
</event>
<event>
 4    1  0.6718357E+001  0.3228205E+02  0.7546771E-02  0.1400749E+00
          2   -1    0    0  502    0  0.00000000000E+00  0.00000000000E+00  0.10205187335E+04  0.10205187335E+04  0.00000000000E+00 0. -1.
         -2   -1    0    0    0  501 -0.00000000000E+00 -0.00000000000E+00 -0.12277811711E+01  0.12277811711E+01  0.00000000000E+00 0.  1.
          1    1    1    2  502    0 -0.14035502159E+02 -0.29071210877E+02  0.30007897989E+03  0.30181041201E+03  0.00000000000E+00 0.  1.
         -1    1    1    2    0  501  0.14035502159E+02  0.29071210877E+02  0.71921197248E+03  0.71993610271E+03  0.00000000000E+00 0. -1.
</event>
<event>
 4    1  0.6718357E+001  0.2480587E+02  0.7546771E-02  0.1470987E+00
          2   -1    0    0  502    0  0.00000000000E+00  0.00000000000E+00  0.12567874036E+03  0.12567874036E+03  0.00000000000E+00 0.  1.
         -2   -1    0    0    0  501 -0.00000000000E+00 -0.00000000000E+00 -0.86991451003E+01  0.86991451003E+01  0.00000000000E+00 0. -1.
          1    1    1    2  502    0 -0.37568017363E+01  0.24519734980E+02  0.10291479401E+03  0.10586210743E+03  0.00000000000E+00 0.  1.
         -1    1    1    2    0  501  0.37568017363E+01 -0.24519734980E+02  0.14064801255E+02  0.28515778038E+02  0.00000000000E+00 0. -1.
</event>
<event>
 4    1  0.6718357E+001  0.2047076E+02  0.7546771E-02  0.1526957E+00
          2   -1    0    0  502    0  0.00000000000E+00  0.00000000000E+00  0.36096487270E+03  0.36096487270E+03  0.00000000000E+00 0.  1.
         -2   -1    0    0    0  501 -0.00000000000E+00 -0.00000000000E+00 -0.13858037760E+01  0.13858037760E+01  0.00000000000E+00 0. -1.
          1    1    1    2  502    0  0.39697892513E+01  0.20082153460E+02  0.25277312104E+03  0.25360067593E+03  0.00000000000E+00 0.  1.
         -1    1    1    2    0  501 -0.39697892513E+01 -0.20082153460E+02  0.10680594788E+03  0.10875000054E+03  0.00000000000E+00 0. -1.
</event>
<event>
 4    1  0.6718357E+001  0.6188348E+02  0.7546771E-02  0.1253564E+00
          2   -1    0    0  502    0  0.00000000000E+00  0.00000000000E+00  0.17805832799E+02  0.17805832799E+02  0.00000000000E+00 0.  1.
         -2   -1    0    0    0  501 -0.00000000000E+00 -0.00000000000E+00 -0.21582400653E+03  0.21582400653E+03  0.00000000000E+00 0. -1.
          1    1    1    2  502    0  0.40250856962E+02  0.47004613672E+02 -0.10589698119E+03  0.12265290790E+03  0.00000000000E+00 0. -1.
         -1    1    1    2    0  501 -0.40250856962E+02 -0.47004613672E+02 -0.92121192540E+02  0.11097693142E+03  0.00000000000E+00 0.  1.
</event>
<event>
 4    1  0.6718357E+001  0.2253733E+02  0.7546771E-02  0.1498391E+00
          2   -1    0    0  502    0  0.00000000000E+00  0.00000000000E+00  0.90679810174E+03  0.90679810174E+03  0.00000000000E+00 0.  1.
         -2   -1    0    0    0  501 -0.00000000000E+00 -0.00000000000E+00 -0.56018672403E+00  0.56018672403E+00  0.00000000000E+00 0. -1.
          1    1    1    2  502    0  0.21256642322E+02  0.74890996118E+01  0.44885829956E+03  0.44942374719E+03  0.00000000000E+00 0. -1.
         -1    1    1    2    0  501 -0.21256642322E+02 -0.74890996118E+01  0.45737961546E+03  0.45793454128E+03  0.00000000000E+00 0.  1.
</event>
<event>
 4    1  0.6718357E+001  0.7402277E+02  0.7546771E-02  0.1218448E+00
          2   -1    0    0  502    0  0.00000000000E+00  0.00000000000E+00  0.42750361983E+03  0.42750361983E+03  0.00000000000E+00 0. -1.
         -2   -1    0    0    0  501 -0.00000000000E+00 -0.00000000000E+00 -0.12827754347E+02  0.12827754347E+02  0.00000000000E+00 0.  1.
          1    1    1    2  502    0 -0.12720781884E+02 -0.72921549805E+02  0.20100265261E+03  0.21419952632E+03  0.00000000000E+00 0. -1.
         -1    1    1    2    0  501  0.12720781884E+02  0.72921549805E+02  0.21367321287E+03  0.22613184786E+03  0.00000000000E+00 0.  1.
</event>
<event>
 4    1  0.6718357E+001  0.2573791E+02  0.7546771E-02  0.1460715E+00
          2   -1    0    0  502    0  0.00000000000E+00  0.00000000000E+00  0.87519568064E+02  0.87519568064E+02  0.00000000000E+00 0.  1.
         -2   -1    0    0    0  501 -0.00000000000E+00 -0.00000000000E+00 -0.26024980262E+02  0.26024980262E+02  0.00000000000E+00 0. -1.
          1    1    1    2  502    0 -0.45017764691E+01 -0.25341148260E+02 -0.17061642722E+02  0.30879433915E+02  0.00000000000E+00 0. -1.
         -1    1    1    2    0  501  0.45017764691E+01  0.25341148260E+02  0.78556230524E+02  0.82665114411E+02  0.00000000000E+00 0.  1.
</event>
<event>
 4    1  0.6718357E+001  0.5955638E+02  0.7546771E-02  0.1261347E+00
          2   -1    0    0  502    0  0.00000000000E+00  0.00000000000E+00  0.13389929314E+04  0.13389929314E+04  0.00000000000E+00 0.  1.
         -2   -1    0    0    0  501 -0.00000000000E+00 -0.00000000000E+00 -0.28511795265E+01  0.28511795265E+01  0.00000000000E+00 0. -1.
          1    1    1    2  502    0 -0.48024803357E+01 -0.59362433678E+02  0.48940057160E+03  0.49301103622E+03  0.00000000000E+00 0. -1.
         -1    1    1    2    0  501  0.48024803357E+01  0.59362433678E+02  0.84674118025E+03  0.84883307469E+03  0.00000000000E+00 0.  1.
</event>
<event>
 4    1  0.6718357E+001  0.2448137E+02  0.7546771E-02  0.1474690E+00
          2   -1    0    0  502    0  0.00000000000E+00  0.00000000000E+00  0.75874592043E+03  0.75874592043E+03  0.00000000000E+00 0. -1.
         -2   -1    0    0    0  501 -0.00000000000E+00 -0.00000000000E+00 -0.87541622481E+00  0.87541622481E+00  0.00000000000E+00 0.  1.
          1    1    1    2  502    0  0.21682648198E+02  0.11366630328E+02  0.49764061790E+03  0.49824243306E+03  0.00000000000E+00 0. -1.
         -1    1    1    2    0  501 -0.21682648198E+02 -0.11366630328E+02  0.26022988630E+03  0.26137890359E+03  0.00000000000E+00 0.  1.
</event>
<event>
 4    1  0.6718357E+001  0.2306618E+02  0.7546771E-02  0.1491669E+00
          2   -1    0    0  502    0  0.00000000000E+00  0.00000000000E+00  0.17495652681E+03  0.17495652681E+03  0.00000000000E+00 0. -1.
         -2   -1    0    0    0  501 -0.00000000000E+00 -0.00000000000E+00 -0.32453138068E+01  0.32453138068E+01  0.00000000000E+00 0.  1.
          1    1    1    2  502    0 -0.17755602900E+01 -0.22997741180E+02  0.63501013893E+02  0.67560546765E+02  0.00000000000E+00 0.  1.
         -1    1    1    2    0  501  0.17755602900E+01  0.22997741180E+02  0.10821019911E+03  0.11064129385E+03  0.00000000000E+00 0. -1.
</event>
<event>
 4    1  0.6718357E+001  0.2370744E+02  0.7546771E-02  0.1483801E+00
          2   -1    0    0  502    0  0.00000000000E+00  0.00000000000E+00  0.59825904966E+03  0.59825904966E+03  0.00000000000E+00 0.  1.
         -2   -1    0    0    0  501 -0.00000000000E+00 -0.00000000000E+00 -0.26048798011E+01  0.26048798011E+01  0.00000000000E+00 0. -1.
          1    1    1    2  502    0  0.18077671548E+02  0.15337553374E+02  0.57604600944E+02  0.62292317359E+02  0.00000000000E+00 0. -1.
         -1    1    1    2    0  501 -0.18077671548E+02 -0.15337553374E+02  0.53804956892E+03  0.53857161210E+03  0.00000000000E+00 0.  1.
</event>
<event>
 4    1  0.6718357E+001  0.3657742E+02  0.7546771E-02  0.1369800E+00
          2   -1    0    0  502    0  0.00000000000E+00  0.00000000000E+00  0.18498059479E+04  0.18498059479E+04  0.00000000000E+00 0.  1.
         -2   -1    0    0    0  501 -0.00000000000E+00 -0.00000000000E+00 -0.76839817871E+00  0.76839817871E+00  0.00000000000E+00 0. -1.
          1    1    1    2  502    0 -0.19709571801E+02 -0.30812992268E+02  0.70027984409E+03  0.70123445990E+03  0.00000000000E+00 0. -1.
         -1    1    1    2    0  501  0.19709571801E+02  0.30812992268E+02  0.11487577056E+04  0.11493398862E+04  0.00000000000E+00 0.  1.
</event>
<event>
 4    1  0.6718357E+001  0.2472879E+02  0.7546771E-02  0.1471860E+00
          2   -1    0    0  502    0  0.00000000000E+00  0.00000000000E+00  0.64699929957E+03  0.64699929957E+03  0.00000000000E+00 0.  1.
         -2   -1    0    0    0  501 -0.00000000000E+00 -0.00000000000E+00 -0.94573992033E+00  0.94573992033E+00  0.00000000000E+00 0. -1.
          1    1    1    2  502    0  0.24323772637E+02  0.44572762334E+01  0.33109857901E+03  0.33202075575E+03  0.00000000000E+00 0.  1.
         -1    1    1    2    0  501 -0.24323772637E+02 -0.44572762334E+01  0.31495498064E+03  0.31592428374E+03  0.00000000000E+00 0. -1.
</event>
<event>
 4    1  0.6718357E+001  0.3696256E+02  0.7546771E-02  0.1367267E+00
          2   -1    0    0  502    0  0.00000000000E+00  0.00000000000E+00  0.19306064042E+03  0.19306064042E+03  0.00000000000E+00 0.  1.
         -2   -1    0    0    0  501 -0.00000000000E+00 -0.00000000000E+00 -0.26363125997E+02  0.26363125997E+02  0.00000000000E+00 0. -1.
          1    1    1    2  502    0 -0.21677164881E+02  0.29938798928E+02 -0.10489764500E+02  0.38422211256E+02  0.00000000000E+00 0. -1.
         -1    1    1    2    0  501  0.21677164881E+02 -0.29938798928E+02  0.17718727892E+03  0.18100155516E+03  0.00000000000E+00 0.  1.
</event>
<event>
 4    1  0.6718357E+001  0.3470124E+02  0.7546771E-02  0.1382676E+00
          2   -1    0    0  502    0  0.00000000000E+00  0.00000000000E+00  0.20615106685E+04  0.20615106685E+04  0.00000000000E+00 0. -1.
         -2   -1    0    0    0  501 -0.00000000000E+00 -0.00000000000E+00 -0.58433497552E+00  0.58433497552E+00  0.00000000000E+00 0.  1.
          1    1    1    2  502    0 -0.27829261043E+02  0.20729411522E+02  0.10500901668E+04  0.10506633784E+04  0.00000000000E+00 0. -1.
         -1    1    1    2    0  501  0.27829261043E+02 -0.20729411522E+02  0.10108361667E+04  0.10114316251E+04  0.00000000000E+00 0.  1.
</event>
<event>
 4    1  0.6718357E+001  0.6632325E+02  0.7546771E-02  0.1239740E+00
          2   -1    0    0  502    0  0.00000000000E+00  0.00000000000E+00  0.24969805728E+04  0.24969805728E+04  0.00000000000E+00 0.  1.
         -2   -1    0    0    0  501 -0.00000000000E+00 -0.00000000000E+00 -0.32878748201E+01  0.32878748201E+01  0.00000000000E+00 0. -1.
          1    1    1    2  502    0 -0.63218106682E+02 -0.20056029551E+02  0.39510032504E+03  0.40062830677E+03  0.00000000000E+00 0. -1.
         -1    1    1    2    0  501  0.63218106682E+02  0.20056029551E+02  0.20985923730E+04  0.20996401409E+04  0.00000000000E+00 0.  1.
</event>
<event>
 4    1  0.6718357E+001  0.3060316E+02  0.7546771E-02  0.1414426E+00
          2   -1    0    0  502    0  0.00000000000E+00  0.00000000000E+00  0.41785989166E+02  0.41785989166E+02  0.00000000000E+00 0. -1.
         -2   -1    0    0    0  501 -0.00000000000E+00 -0.00000000000E+00 -0.25259954902E+02  0.25259954902E+02  0.00000000000E+00 0.  1.
          1    1    1    2  502    0  0.21440540033E+02 -0.21837050886E+02  0.19517068824E+02  0.36296963011E+02  0.00000000000E+00 0. -1.
         -1    1    1    2    0  501 -0.21440540033E+02  0.21837050886E+02 -0.29910345599E+01  0.30748981057E+02  0.00000000000E+00 0.  1.
</event>
<event>
 4    1  0.6718357E+001  0.2711232E+02  0.7546771E-02  0.1446483E+00
          2   -1    0    0  502    0  0.00000000000E+00  0.00000000000E+00  0.11732099022E+04  0.11732099022E+04  0.00000000000E+00 0.  1.
         -2   -1    0    0    0  501 -0.00000000000E+00 -0.00000000000E+00 -0.65130929140E+00  0.65130929140E+00  0.00000000000E+00 0. -1.
          1    1    1    2  502    0 -0.94475319423E+01 -0.25413024128E+02  0.70070928783E+03  0.70123361565E+03  0.00000000000E+00 0. -1.
         -1    1    1    2    0  501  0.94475319423E+01  0.25413024128E+02  0.47184930503E+03  0.47262759580E+03  0.00000000000E+00 0.  1.
</event>
<event>
 4    1  0.6718357E+001  0.2218788E+02  0.7546771E-02  0.1502956E+00
          2   -1    0    0  502    0  0.00000000000E+00  0.00000000000E+00  0.41350509018E+03  0.41350509018E+03  0.00000000000E+00 0.  1.
         -2   -1    0    0    0  501 -0.00000000000E+00 -0.00000000000E+00 -0.17735079587E+01  0.17735079587E+01  0.00000000000E+00 0. -1.
          1    1    1    2  502    0  0.14472151870E+02 -0.16818405803E+02  0.32491005579E+03  0.32566677188E+03  0.00000000000E+00 0.  1.
         -1    1    1    2    0  501 -0.14472151870E+02  0.16818405803E+02  0.86821526433E+02  0.89611826260E+02  0.00000000000E+00 0. -1.
</event>
<event>
 4    1  0.6718357E+001  0.4600408E+02  0.7546771E-02  0.1316494E+00
          2   -1    0    0  502    0  0.00000000000E+00  0.00000000000E+00  0.12859021300E+02  0.12859021300E+02  0.00000000000E+00 0.  1.
         -2   -1    0    0    0  501 -0.00000000000E+00 -0.00000000000E+00 -0.16462152144E+03  0.16462152144E+03  0.00000000000E+00 0. -1.
          1    1    1    2  502    0  0.41565870076E+02  0.19714315931E+02 -0.74523107157E+02  0.87578931874E+02  0.00000000000E+00 0.  1.
         -1    1    1    2    0  501 -0.41565870076E+02 -0.19714315931E+02 -0.77239392979E+02  0.89901610862E+02  0.00000000000E+00 0. -1.
</event>
<event>
 4    1  0.6718357E+001  0.2823289E+02  0.7546771E-02  0.1435602E+00
          2   -1    0    0  502    0  0.00000000000E+00  0.00000000000E+00  0.39379487072E+02  0.39379487072E+02  0.00000000000E+00 0.  1.
         -2   -1    0    0    0  501 -0.00000000000E+00 -0.00000000000E+00 -0.42690989918E+02  0.42690989918E+02  0.00000000000E+00 0. -1.
          1    1    1    2  502    0 -0.22899816895E+02 -0.16513469271E+02  0.28101510927E+02  0.39834547789E+02  0.00000000000E+00 0.  1.
         -1    1    1    2    0  501  0.22899816895E+02  0.16513469271E+02 -0.31413013774E+02  0.42235929201E+02  0.00000000000E+00 0. -1.
</event>
<event>
 4    1  0.6718357E+001  0.3836626E+02  0.7546771E-02  0.1358335E+00
          2   -1    0    0  502    0  0.00000000000E+00  0.00000000000E+00  0.21654226579E+01  0.21654226579E+01  0.00000000000E+00 0. -1.
         -2   -1    0    0    0  501 -0.00000000000E+00 -0.00000000000E+00 -0.67996211197E+03  0.67996211197E+03  0.00000000000E+00 0.  1.
          1    1    1    2  502    0 -0.36906716288E+02 -0.10481607064E+02 -0.33303222602E+03  0.33523489282E+03  0.00000000000E+00 0. -1.
         -1    1    1    2    0  501  0.36906716288E+02  0.10481607064E+02 -0.34476446329E+03  0.34689264181E+03  0.00000000000E+00 0.  1.
</event>
<event>
 4    1  0.6718357E+001  0.2286430E+02  0.7546771E-02  0.1494209E+00
          2   -1    0    0  502    0  0.00000000000E+00  0.00000000000E+00  0.80774973157E+01  0.80774973157E+01  0.00000000000E+00 0.  1.
         -2   -1    0    0    0  501 -0.00000000000E+00 -0.00000000000E+00 -0.11378306120E+03  0.11378306120E+03  0.00000000000E+00 0. -1.
          1    1    1    2  502    0 -0.19946008347E+02  0.11177348074E+02 -0.12842530460E+02  0.26224167242E+02  0.00000000000E+00 0.  1.
         -1    1    1    2    0  501  0.19946008347E+02 -0.11177348074E+02 -0.92863033427E+02  0.95636391275E+02  0.00000000000E+00 0. -1.
</event>
<event>
 4    1  0.6718357E+001  0.2401888E+02  0.7546771E-02  0.1480085E+00
          2   -1    0    0  502    0  0.00000000000E+00  0.00000000000E+00  0.37263022713E+03  0.37263022713E+03  0.00000000000E+00 0. -1.
         -2   -1    0    0    0  501 -0.00000000000E+00 -0.00000000000E+00 -0.15495626457E+01  0.15495626457E+01  0.00000000000E+00 0.  1.
          1    1    1    2  502    0 -0.23480798170E+02 -0.50555845528E+01  0.17999614914E+03  0.18159163120E+03  0.00000000000E+00 0. -1.
         -1    1    1    2    0  501  0.23480798170E+02  0.50555845528E+01  0.19108451534E+03  0.19258815857E+03  0.00000000000E+00 0.  1.
</event>
<event>
 4    1  0.6718357E+001  0.2109544E+02  0.7546771E-02  0.1517907E+00
          2   -1    0    0  502    0  0.00000000000E+00  0.00000000000E+00  0.34230854548E+02  0.34230854548E+02  0.00000000000E+00 0. -1.
         -2   -1    0    0    0  501 -0.00000000000E+00 -0.00000000000E+00 -0.99844739706E+02  0.99844739706E+02  0.00000000000E+00 0.  1.
          1    1    1    2  502    0  0.49407357188E+01  0.20508693987E+02 -0.95328200782E+02  0.97634436869E+02  0.00000000000E+00 0.  1.
         -1    1    1    2    0  501 -0.49407357188E+01 -0.20508693987E+02  0.29714315624E+02  0.36441157384E+02  0.00000000000E+00 0. -1.
</event>
<event>
 4    1  0.6718357E+001  0.2068861E+02  0.7546771E-02  0.1523757E+00
          2   -1    0    0  502    0  0.00000000000E+00  0.00000000000E+00  0.17542107313E+03  0.17542107313E+03  0.00000000000E+00 0.  1.
         -2   -1    0    0    0  501 -0.00000000000E+00 -0.00000000000E+00 -0.24517235502E+01  0.24517235502E+01  0.00000000000E+00 0. -1.
          1    1    1    2  502    0  0.18686789508E+02 -0.88782097120E+01  0.92647657480E+02  0.94929485126E+02  0.00000000000E+00 0.  1.
         -1    1    1    2    0  501 -0.18686789508E+02  0.88782097120E+01  0.80321692102E+02  0.82943311557E+02  0.00000000000E+00 0. -1.
</event>
<event>
 4    1  0.6718357E+001  0.4446132E+02  0.7546771E-02  0.1324155E+00
          2   -1    0    0  502    0  0.00000000000E+00  0.00000000000E+00  0.22534293054E+04  0.22534293054E+04  0.00000000000E+00 0.  1.
         -2   -1    0    0    0  501 -0.00000000000E+00 -0.00000000000E+00 -0.89424048692E+00  0.89424048692E+00  0.00000000000E+00 0. -1.
          1    1    1    2  502    0 -0.40371212011E+02  0.18627242706E+02  0.97087518035E+03  0.97189270228E+03  0.00000000000E+00 0. -1.
         -1    1    1    2    0  501  0.40371212011E+02 -0.18627242706E+02  0.12816598845E+04  0.12824308436E+04  0.00000000000E+00 0.  1.
</event>
<event>
 4    1  0.6718357E+001  0.3520585E+02  0.7546771E-02  0.1379122E+00
          2   -1    0    0  502    0  0.00000000000E+00  0.00000000000E+00  0.13127185115E+03  0.13127185115E+03  0.00000000000E+00 0. -1.
         -2   -1    0    0    0  501 -0.00000000000E+00 -0.00000000000E+00 -0.99322689714E+01  0.99322689714E+01  0.00000000000E+00 0.  1.
          1    1    1    2  502    0 -0.24089298952E+02  0.25674058503E+02  0.44981760919E+02  0.57121015567E+02  0.00000000000E+00 0.  1.
         -1    1    1    2    0  501  0.24089298952E+02 -0.25674058503E+02  0.76357821263E+02  0.84083104558E+02  0.00000000000E+00 0. -1.
</event>
<event>
 4    1  0.6718357E+001  0.2968209E+02  0.7546771E-02  0.1422380E+00
          2   -1    0    0  502    0  0.00000000000E+00  0.00000000000E+00  0.29763770642E+03  0.29763770642E+03  0.00000000000E+00 0. -1.
         -2   -1    0    0    0  501 -0.00000000000E+00 -0.00000000000E+00 -0.13139773830E+02  0.13139773830E+02  0.00000000000E+00 0.  1.
          1    1    1    2  502    0 -0.23012051836E+02 -0.18747578051E+02  0.27901974889E+03  0.28059409560E+03  0.00000000000E+00 0. -1.
         -1    1    1    2    0  501  0.23012051836E+02  0.18747578051E+02  0.54781836994E+01  0.30183384653E+02  0.00000000000E+00 0.  1.
</event>
<event>
 4    1  0.6718357E+001  0.2218456E+02  0.7546771E-02  0.1503000E+00
          2   -1    0    0  502    0  0.00000000000E+00  0.00000000000E+00  0.46252057189E+03  0.46252057189E+03  0.00000000000E+00 0.  1.
         -2   -1    0    0    0  501 -0.00000000000E+00 -0.00000000000E+00 -0.11003629983E+01  0.11003629983E+01  0.00000000000E+00 0. -1.
          1    1    1    2  502    0  0.21128321567E+02  0.67637829830E+01  0.27280897353E+03  0.27370950070E+03  0.00000000000E+00 0. -1.
         -1    1    1    2    0  501 -0.21128321567E+02 -0.67637829830E+01  0.18861123536E+03  0.18991143419E+03  0.00000000000E+00 0.  1.
</event>
<event>
 4    1  0.6718357E+001  0.2033663E+02  0.7546771E-02  0.1528950E+00
          2   -1    0    0  502    0  0.00000000000E+00  0.00000000000E+00  0.18988032240E+03  0.18988032240E+03  0.00000000000E+00 0. -1.
         -2   -1    0    0    0  501 -0.00000000000E+00 -0.00000000000E+00 -0.21845910682E+01  0.21845910682E+01  0.00000000000E+00 0.  1.
          1    1    1    2  502    0  0.82706276104E+01 -0.18578892722E+02  0.99082119955E+02  0.10114763977E+03  0.00000000000E+00 0.  1.
         -1    1    1    2    0  501 -0.82706276104E+01  0.18578892722E+02  0.88613611380E+02  0.90917273704E+02  0.00000000000E+00 0. -1.
</event>
<event>
 4    1  0.6718357E+001  0.2074940E+02  0.7546771E-02  0.1522873E+00
          2   -1    0    0  502    0  0.00000000000E+00  0.00000000000E+00  0.28575728421E+03  0.28575728421E+03  0.00000000000E+00 0.  1.
         -2   -1    0    0    0  501 -0.00000000000E+00 -0.00000000000E+00 -0.24314529604E+01  0.24314529604E+01  0.00000000000E+00 0. -1.
          1    1    1    2  502    0 -0.24465958841E+01 -0.20604656469E+02  0.52796542502E+02  0.56727529470E+02  0.00000000000E+00 0. -1.
         -1    1    1    2    0  501  0.24465958841E+01  0.20604656469E+02  0.23052928875E+03  0.23146120770E+03  0.00000000000E+00 0.  1.
</event>
<event>
 4    1  0.6718357E+001  0.2628438E+02  0.7546771E-02  0.1454932E+00
          2   -1    0    0  502    0  0.00000000000E+00  0.00000000000E+00  0.34477108787E+03  0.34477108787E+03  0.00000000000E+00 0. -1.
         -2   -1    0    0    0  501 -0.00000000000E+00 -0.00000000000E+00 -0.20590369227E+01  0.20590369227E+01  0.00000000000E+00 0.  1.
          1    1    1    2  502    0  0.20681600954E+01  0.26202885685E+02  0.14296476284E+03  0.14536090230E+03  0.00000000000E+00 0. -1.
         -1    1    1    2    0  501 -0.20681600954E+01 -0.26202885685E+02  0.19974728811E+03  0.20146922249E+03  0.00000000000E+00 0.  1.
</event>
<event>
 4    1  0.6718357E+001  0.2645164E+02  0.7546771E-02  0.1453196E+00
          2   -1    0    0  502    0  0.00000000000E+00  0.00000000000E+00  0.43935223685E+03  0.43935223685E+03  0.00000000000E+00 0. -1.
         -2   -1    0    0    0  501 -0.00000000000E+00 -0.00000000000E+00 -0.15976711791E+01  0.15976711791E+01  0.00000000000E+00 0.  1.
          1    1    1    2  502    0  0.12220686733E+02  0.23459414120E+02  0.23136283108E+03  0.23287002577E+03  0.00000000000E+00 0.  1.
         -1    1    1    2    0  501 -0.12220686733E+02 -0.23459414120E+02  0.20639173459E+03  0.20807988226E+03  0.00000000000E+00 0. -1.
</event>
<event>
 4    1  0.6718357E+001  0.2293325E+02  0.7546771E-02  0.1493338E+00
          2   -1    0    0  502    0  0.00000000000E+00  0.00000000000E+00  0.57076249677E+03  0.57076249677E+03  0.00000000000E+00 0.  1.
         -2   -1    0    0    0  501 -0.00000000000E+00 -0.00000000000E+00 -0.10465327653E+01  0.10465327653E+01  0.00000000000E+00 0. -1.
          1    1    1    2  502    0 -0.85831205565E+01  0.21266499763E+02  0.18601893977E+03  0.18742726569E+03  0.00000000000E+00 0.  1.
         -1    1    1    2    0  501  0.85831205565E+01 -0.21266499763E+02  0.38369702423E+03  0.38438176384E+03  0.00000000000E+00 0. -1.
</event>
<event>
 4    1  0.6718357E+001  0.2113996E+02  0.7546771E-02  0.1517276E+00
          2   -1    0    0  502    0  0.00000000000E+00  0.00000000000E+00  0.29337091386E+03  0.29337091386E+03  0.00000000000E+00 0.  1.
         -2   -1    0    0    0  501 -0.00000000000E+00 -0.00000000000E+00 -0.33455497133E+01  0.33455497133E+01  0.00000000000E+00 0. -1.
          1    1    1    2  502    0  0.16647893125E+02  0.13028649574E+02  0.35521446900E+02  0.41336076799E+02  0.00000000000E+00 0. -1.
         -1    1    1    2    0  501 -0.16647893125E+02 -0.13028649574E+02  0.25450391724E+03  0.25538038677E+03  0.00000000000E+00 0.  1.
</event>
<event>
 4    1  0.6718357E+001  0.2102948E+02  0.7546771E-02  0.1518844E+00
          2   -1    0    0  502    0  0.00000000000E+00  0.00000000000E+00  0.24237083819E+02  0.24237083819E+02  0.00000000000E+00 0.  1.
         -2   -1    0    0    0  501 -0.00000000000E+00 -0.00000000000E+00 -0.29190631987E+02  0.29190631987E+02  0.00000000000E+00 0. -1.
          1    1    1    2  502    0 -0.12880318197E+02  0.16623369200E+02  0.13880387288E+02  0.25197304453E+02  0.00000000000E+00 0.  1.
         -1    1    1    2    0  501  0.12880318197E+02 -0.16623369200E+02 -0.18833935456E+02  0.28230411353E+02  0.00000000000E+00 0. -1.
</event>
<event>
 4    1  0.6718357E+001  0.3373196E+02  0.7546771E-02  0.1389704E+00
          2   -1    0    0  502    0  0.00000000000E+00  0.00000000000E+00  0.13451968163E+04  0.13451968163E+04  0.00000000000E+00 0. -1.
         -2   -1    0    0    0  501 -0.00000000000E+00 -0.00000000000E+00 -0.13301044976E+01  0.13301044976E+01  0.00000000000E+00 0.  1.
          1    1    1    2  502    0 -0.17242615387E+02 -0.28992024870E+02  0.26570009983E+03  0.26783276189E+03  0.00000000000E+00 0.  1.
         -1    1    1    2    0  501  0.17242615387E+02  0.28992024870E+02  0.10781666120E+04  0.10786941590E+04  0.00000000000E+00 0. -1.
</event>
<event>
 4    1  0.6718357E+001  0.2938815E+02  0.7546771E-02  0.1424989E+00
          2   -1    0    0  502    0  0.00000000000E+00  0.00000000000E+00  0.88231794591E+02  0.88231794591E+02  0.00000000000E+00 0.  1.
         -2   -1    0    0    0  501 -0.00000000000E+00 -0.00000000000E+00 -0.11143764409E+02  0.11143764409E+02  0.00000000000E+00 0. -1.
          1    1    1    2  502    0  0.14383023014E+02  0.25627956769E+02  0.55871425539E+02  0.63129071836E+02  0.00000000000E+00 0.  1.
         -1    1    1    2    0  501 -0.14383023014E+02 -0.25627956769E+02  0.21216604643E+02  0.36246487164E+02  0.00000000000E+00 0. -1.
</event>
<event>
 4    1  0.6718357E+001  0.2433142E+02  0.7546771E-02  0.1476424E+00
          2   -1    0    0  502    0  0.00000000000E+00  0.00000000000E+00  0.11702703951E+04  0.11702703951E+04  0.00000000000E+00 0.  1.
         -2   -1    0    0    0  501 -0.00000000000E+00 -0.00000000000E+00 -0.39558355670E+01  0.39558355670E+01  0.00000000000E+00 0. -1.
          1    1    1    2  502    0 -0.24041457111E+02 -0.37451542282E+01  0.34868524253E+02  0.42518605620E+02  0.00000000000E+00 0. -1.
         -1    1    1    2    0  501  0.24041457111E+02  0.37451542282E+01  0.11314460353E+04  0.11317076251E+04  0.00000000000E+00 0.  1.
</event>
<event>
 4    1  0.6718357E+001  0.2559824E+02  0.7546771E-02  0.1462221E+00
          2   -1    0    0  502    0  0.00000000000E+00  0.00000000000E+00  0.47152782296E+03  0.47152782296E+03  0.00000000000E+00 0.  1.
         -2   -1    0    0    0  501 -0.00000000000E+00 -0.00000000000E+00 -0.22860696279E+01  0.22860696279E+01  0.00000000000E+00 0. -1.
          1    1    1    2  502    0 -0.12975809715E+02  0.22065769059E+02  0.86272427090E+02  0.89990007656E+02  0.00000000000E+00 0. -1.
         -1    1    1    2    0  501  0.12975809715E+02 -0.22065769059E+02  0.38296932624E+03  0.38382388493E+03  0.00000000000E+00 0.  1.
</event>
<event>
 4    1  0.6718357E+001  0.2588477E+02  0.7546771E-02  0.1459144E+00
          2   -1    0    0  502    0  0.00000000000E+00  0.00000000000E+00  0.48148210204E+01  0.48148210204E+01  0.00000000000E+00 0. -1.
         -2   -1    0    0    0  501 -0.00000000000E+00 -0.00000000000E+00 -0.41111283754E+03  0.41111283754E+03  0.00000000000E+00 0.  1.
          1    1    1    2  502    0 -0.21795400803E+02 -0.13963586603E+02 -0.37229262667E+03  0.37319140012E+03  0.00000000000E+00 0.  1.
         -1    1    1    2    0  501  0.21795400803E+02  0.13963586603E+02 -0.34005389844E+02  0.42736258440E+02  0.00000000000E+00 0. -1.
</event>
<event>
 4    1  0.6718357E+001  0.2863626E+02  0.7546771E-02  0.1431829E+00
          2   -1    0    0  502    0  0.00000000000E+00  0.00000000000E+00  0.12131096346E+03  0.12131096346E+03  0.00000000000E+00 0.  1.
         -2   -1    0    0    0  501 -0.00000000000E+00 -0.00000000000E+00 -0.84430072121E+01  0.84430072121E+01  0.00000000000E+00 0. -1.
          1    1    1    2  502    0 -0.22180094736E+02 -0.18112944110E+02  0.85401646200E+02  0.90074838443E+02  0.00000000000E+00 0.  1.
         -1    1    1    2    0  501  0.22180094736E+02  0.18112944110E+02  0.27466310047E+02  0.39679132229E+02  0.00000000000E+00 0. -1.
</event>
<event>
 4    1  0.6718357E+001  0.2102963E+02  0.7546771E-02  0.1518842E+00
          2   -1    0    0  502    0  0.00000000000E+00  0.00000000000E+00  0.55453917487E+02  0.55453917487E+02  0.00000000000E+00 0.  1.
         -2   -1    0    0    0  501 -0.00000000000E+00 -0.00000000000E+00 -0.99414738936E+01  0.99414738936E+01  0.00000000000E+00 0. -1.
          1    1    1    2  502    0  0.18349273765E+02 -0.10273723472E+02  0.82138462852E+01  0.22576813604E+02  0.00000000000E+00 0. -1.
         -1    1    1    2    0  501 -0.18349273765E+02  0.10273723472E+02  0.37298597308E+02  0.42818577777E+02  0.00000000000E+00 0.  1.
</event>
<event>
 4    1  0.6718357E+001  0.3914541E+02  0.7546771E-02  0.1353568E+00
          2   -1    0    0  502    0  0.00000000000E+00  0.00000000000E+00  0.15478012211E+02  0.15478012211E+02  0.00000000000E+00 0.  1.
         -2   -1    0    0    0  501 -0.00000000000E+00 -0.00000000000E+00 -0.99170377580E+02  0.99170377580E+02  0.00000000000E+00 0. -1.
          1    1    1    2  502    0  0.39092982860E+02  0.20252911662E+01 -0.39488191126E+02  0.55602880785E+02  0.00000000000E+00 0. -1.
         -1    1    1    2    0  501 -0.39092982860E+02 -0.20252911662E+01 -0.44204174243E+02  0.59045509006E+02  0.00000000000E+00 0.  1.
</event>
<event>
 4    1  0.6718357E+001  0.2043954E+02  0.7546771E-02  0.1527419E+00
          2   -1    0    0  502    0  0.00000000000E+00  0.00000000000E+00  0.13710732760E+04  0.13710732760E+04  0.00000000000E+00 0.  1.
         -2   -1    0    0    0  501 -0.00000000000E+00 -0.00000000000E+00 -0.31028994849E+00  0.31028994849E+00  0.00000000000E+00 0. -1.
          1    1    1    2  502    0 -0.80058601571E+01 -0.18806413248E+02  0.77736189425E+03  0.77763056113E+03  0.00000000000E+00 0.  1.
         -1    1    1    2    0  501  0.80058601571E+01  0.18806413248E+02  0.59340109176E+03  0.59375300477E+03  0.00000000000E+00 0. -1.
</event>
<event>
 4    1  0.6718357E+001  0.3555884E+02  0.7546771E-02  0.1376676E+00
          2   -1    0    0  502    0  0.00000000000E+00  0.00000000000E+00  0.11057792118E+04  0.11057792118E+04  0.00000000000E+00 0. -1.
         -2   -1    0    0    0  501 -0.00000000000E+00 -0.00000000000E+00 -0.11434755529E+01  0.11434755529E+01  0.00000000000E+00 0.  1.
          1    1    1    2  502    0 -0.33680646479E+02 -0.11403740263E+02  0.55206864295E+03  0.55321263341E+03  0.00000000000E+00 0.  1.
         -1    1    1    2    0  501  0.33680646479E+02  0.11403740263E+02  0.55256709328E+03  0.55371005392E+03  0.00000000000E+00 0. -1.
</event>
<event>
 4    1  0.6718357E+001  0.2206256E+02  0.7546771E-02  0.1504618E+00
          2   -1    0    0  502    0  0.00000000000E+00  0.00000000000E+00  0.58049268593E+03  0.58049268593E+03  0.00000000000E+00 0. -1.
         -2   -1    0    0    0  501 -0.00000000000E+00 -0.00000000000E+00 -0.88432628005E+00  0.88432628005E+00  0.00000000000E+00 0.  1.
          1    1    1    2  502    0  0.20721762279E+02  0.75739644762E+01  0.22364795876E+03  0.22473354406E+03  0.00000000000E+00 0.  1.
         -1    1    1    2    0  501 -0.20721762279E+02 -0.75739644762E+01  0.35596040089E+03  0.35664346815E+03  0.00000000000E+00 0. -1.
</event>
<event>
 4    1  0.6718357E+001  0.2057394E+02  0.7546771E-02  0.1525436E+00
          2   -1    0    0  502    0  0.00000000000E+00  0.00000000000E+00  0.13164937500E+04  0.13164937500E+04  0.00000000000E+00 0. -1.
         -2   -1    0    0    0  501 -0.00000000000E+00 -0.00000000000E+00 -0.37711132724E+00  0.37711132724E+00  0.00000000000E+00 0.  1.
          1    1    1    2  502    0  0.60595759352E+01  0.19661349422E+02  0.91084723996E+03  0.91107956933E+03  0.00000000000E+00 0. -1.
         -1    1    1    2    0  501 -0.60595759352E+01 -0.19661349422E+02  0.40526939870E+03  0.40579129198E+03  0.00000000000E+00 0.  1.
</event>
<event>
 4    1  0.6718357E+001  0.3643302E+02  0.7546771E-02  0.1370759E+00
          2   -1    0    0  502    0  0.00000000000E+00  0.00000000000E+00  0.76006628827E+01  0.76006628827E+01  0.00000000000E+00 0. -1.
         -2   -1    0    0    0  501 -0.00000000000E+00 -0.00000000000E+00 -0.19818798853E+03  0.19818798853E+03  0.00000000000E+00 0.  1.
          1    1    1    2  502    0  0.27236371836E+02  0.24198036976E+02 -0.13076255710E+03  0.13574318135E+03  0.00000000000E+00 0.  1.
         -1    1    1    2    0  501 -0.27236371836E+02 -0.24198036976E+02 -0.59824768545E+02  0.70045470059E+02  0.00000000000E+00 0. -1.
</event>
<event>
 4    1  0.6718357E+001  0.8798505E+02  0.7546771E-02  0.1186433E+00
          2   -1    0    0  502    0  0.00000000000E+00  0.00000000000E+00  0.46438357001E+03  0.46438357001E+03  0.00000000000E+00 0. -1.
         -2   -1    0    0    0  501 -0.00000000000E+00 -0.00000000000E+00 -0.63715651002E+02  0.63715651002E+02  0.00000000000E+00 0.  1.
          1    1    1    2  502    0  0.84279183633E+02 -0.25266344838E+02  0.42722704819E+03  0.43619298445E+03  0.00000000000E+00 0. -1.
         -1    1    1    2    0  501 -0.84279183633E+02  0.25266344838E+02 -0.26559129188E+02  0.91906236559E+02  0.00000000000E+00 0.  1.
</event>
<event>
 4    1  0.6718357E+001  0.2392058E+02  0.7546771E-02  0.1481251E+00
          2   -1    0    0  502    0  0.00000000000E+00  0.00000000000E+00  0.17920872427E+02  0.17920872427E+02  0.00000000000E+00 0.  1.
         -2   -1    0    0    0  501 -0.00000000000E+00 -0.00000000000E+00 -0.33827488763E+02  0.33827488763E+02  0.00000000000E+00 0. -1.
          1    1    1    2  502    0 -0.22755749013E+02  0.73736190699E+01 -0.14083063963E+02  0.27758369223E+02  0.00000000000E+00 0. -1.
         -1    1    1    2    0  501  0.22755749013E+02 -0.73736190699E+01 -0.18235523728E+01  0.23989991968E+02  0.00000000000E+00 0.  1.
</event>
<event>
 4    1  0.6718357E+001  0.2282057E+02  0.7546771E-02  0.1494764E+00
          2   -1    0    0  502    0  0.00000000000E+00  0.00000000000E+00  0.59375729793E+03  0.59375729793E+03  0.00000000000E+00 0.  1.
         -2   -1    0    0    0  501 -0.00000000000E+00 -0.00000000000E+00 -0.13176451900E+01  0.13176451900E+01  0.00000000000E+00 0. -1.
          1    1    1    2  502    0  0.16881363614E+02 -0.15355715364E+02  0.12417456374E+03  0.12625411166E+03  0.00000000000E+00 0. -1.
         -1    1    1    2    0  501 -0.16881363614E+02  0.15355715364E+02  0.46826508900E+03  0.46882083146E+03  0.00000000000E+00 0.  1.
</event>
<event>
 4    1  0.6718357E+001  0.2308216E+02  0.7546771E-02  0.1491469E+00
          2   -1    0    0  502    0  0.00000000000E+00  0.00000000000E+00  0.85541385222E+01  0.85541385222E+01  0.00000000000E+00 0. -1.
         -2   -1    0    0    0  501 -0.00000000000E+00 -0.00000000000E+00 -0.10723356499E+03  0.10723356499E+03  0.00000000000E+00 0.  1.
          1    1    1    2  502    0 -0.73602651199E+01 -0.21877217735E+02 -0.86822313304E+02  0.89838189240E+02  0.00000000000E+00 0.  1.
         -1    1    1    2    0  501  0.73602651199E+01  0.21877217735E+02 -0.11857113167E+02  0.25949514275E+02  0.00000000000E+00 0. -1.
</event>
<event>
 4    1  0.6718357E+001  0.2329784E+02  0.7546771E-02  0.1488792E+00
          2   -1    0    0  502    0  0.00000000000E+00  0.00000000000E+00  0.21063185637E+04  0.21063185637E+04  0.00000000000E+00 0. -1.
         -2   -1    0    0    0  501 -0.00000000000E+00 -0.00000000000E+00 -0.28677528468E+00  0.28677528468E+00  0.00000000000E+00 0.  1.
          1    1    1    2  502    0  0.23297796670E+02  0.43189310834E-01  0.13884263314E+04  0.13886217868E+04  0.00000000000E+00 0. -1.
         -1    1    1    2    0  501 -0.23297796670E+02 -0.43189310834E-01  0.71760545705E+03  0.71798355217E+03  0.00000000000E+00 0.  1.
</event>
<event>
 4    1  0.6718357E+001  0.2060396E+02  0.7546771E-02  0.1524995E+00
          2   -1    0    0  502    0  0.00000000000E+00  0.00000000000E+00  0.11855684133E+02  0.11855684133E+02  0.00000000000E+00 0.  1.
         -2   -1    0    0    0  501 -0.00000000000E+00 -0.00000000000E+00 -0.57285999060E+02  0.57285999060E+02  0.00000000000E+00 0. -1.
          1    1    1    2  502    0  0.16732975057E+02  0.12022089398E+02 -0.43883511612E+02  0.48479745040E+02  0.00000000000E+00 0. -1.
         -1    1    1    2    0  501 -0.16732975057E+02 -0.12022089398E+02 -0.15468033151E+01  0.20661938154E+02  0.00000000000E+00 0.  1.
</event>
<event>
 4    1  0.6718357E+001  0.2055206E+02  0.7546771E-02  0.1525757E+00
          2   -1    0    0  502    0  0.00000000000E+00  0.00000000000E+00  0.13114409132E+02  0.13114409132E+02  0.00000000000E+00 0. -1.
         -2   -1    0    0    0  501 -0.00000000000E+00 -0.00000000000E+00 -0.64956367352E+02  0.64956367352E+02  0.00000000000E+00 0.  1.
          1    1    1    2  502    0 -0.20438460719E+02 -0.21579064722E+01 -0.53637792683E+02  0.57440404254E+02  0.00000000000E+00 0.  1.
         -1    1    1    2    0  501  0.20438460719E+02  0.21579064722E+01  0.17958344630E+01  0.20630372230E+02  0.00000000000E+00 0. -1.
</event>
<event>
 4    1  0.6718357E+001  0.2280274E+02  0.7546771E-02  0.1494990E+00
          2   -1    0    0  502    0  0.00000000000E+00  0.00000000000E+00  0.28981060685E+03  0.28981060685E+03  0.00000000000E+00 0. -1.
         -2   -1    0    0    0  501 -0.00000000000E+00 -0.00000000000E+00 -0.47852107929E+01  0.47852107929E+01  0.00000000000E+00 0.  1.
          1    1    1    2  502    0  0.18271586993E+02 -0.13642364366E+02  0.25896775166E+03  0.25996973170E+03  0.00000000000E+00 0. -1.
         -1    1    1    2    0  501 -0.18271586993E+02  0.13642364366E+02  0.26057644399E+02  0.34626085952E+02  0.00000000000E+00 0.  1.
</event>
<event>
 4    1  0.6718357E+001  0.2121704E+02  0.7546771E-02  0.1516189E+00
          2   -1    0    0  502    0  0.00000000000E+00  0.00000000000E+00  0.17721733982E+03  0.17721733982E+03  0.00000000000E+00 0.  1.
         -2   -1    0    0    0  501 -0.00000000000E+00 -0.00000000000E+00 -0.57288922020E+01  0.57288922020E+01  0.00000000000E+00 0. -1.
          1    1    1    2  502    0  0.19053838490E+02 -0.93334867861E+01  0.17499941113E+02  0.27502921222E+02  0.00000000000E+00 0. -1.
         -1    1    1    2    0  501 -0.19053838490E+02  0.93334867861E+01  0.15398850650E+03  0.15544331080E+03  0.00000000000E+00 0.  1.
</event>
<event>
 4    1  0.6718357E+001  0.2520881E+02  0.7546771E-02  0.1466481E+00
          2   -1    0    0  502    0  0.00000000000E+00  0.00000000000E+00  0.23434046791E+03  0.23434046791E+03  0.00000000000E+00 0. -1.
         -2   -1    0    0    0  501 -0.00000000000E+00 -0.00000000000E+00 -0.27451577484E+01  0.27451577484E+01  0.00000000000E+00 0.  1.
          1    1    1    2  502    0  0.19044656653E+02  0.16516207564E+02  0.10272988003E+03  0.10577765506E+03  0.00000000000E+00 0.  1.
         -1    1    1    2    0  501 -0.19044656653E+02 -0.16516207564E+02  0.12886543014E+03  0.13130797060E+03  0.00000000000E+00 0. -1.
</event>
<event>
 4    1  0.6718357E+001  0.2533097E+02  0.7546771E-02  0.1465135E+00
          2   -1    0    0  502    0  0.00000000000E+00  0.00000000000E+00  0.16379830304E+03  0.16379830304E+03  0.00000000000E+00 0. -1.
         -2   -1    0    0    0  501 -0.00000000000E+00 -0.00000000000E+00 -0.41616801983E+01  0.41616801983E+01  0.00000000000E+00 0.  1.
          1    1    1    2  502    0  0.15581244846E+02  0.19972048162E+02  0.10016603609E+03  0.10331937226E+03  0.00000000000E+00 0.  1.
         -1    1    1    2    0  501 -0.15581244846E+02 -0.19972048162E+02  0.59470586754E+02  0.64640610978E+02  0.00000000000E+00 0. -1.
</event>
<event>
 4    1  0.6718357E+001  0.2721288E+02  0.7546771E-02  0.1445481E+00
          2   -1    0    0  502    0  0.00000000000E+00  0.00000000000E+00  0.15688856470E+03  0.15688856470E+03  0.00000000000E+00 0.  1.
         -2   -1    0    0    0  501 -0.00000000000E+00 -0.00000000000E+00 -0.47264285581E+01  0.47264285581E+01  0.00000000000E+00 0. -1.
          1    1    1    2  502    0 -0.89930427202E+01 -0.25683968587E+02  0.79021031241E+02  0.83575501423E+02  0.00000000000E+00 0.  1.
         -1    1    1    2    0  501  0.89930427202E+01  0.25683968587E+02  0.73141104906E+02  0.78039491840E+02  0.00000000000E+00 0. -1.
</event>
<event>
 4    1  0.6718357E+001  0.2658210E+02  0.7546771E-02  0.1451852E+00
          2   -1    0    0  502    0  0.00000000000E+00  0.00000000000E+00  0.87032410054E+01  0.87032410054E+01  0.00000000000E+00 0. -1.
         -2   -1    0    0    0  501 -0.00000000000E+00 -0.00000000000E+00 -0.10871426751E+03  0.10871426751E+03  0.00000000000E+00 0.  1.
          1    1    1    2  502    0  0.11470158004E+01 -0.26557340984E+02 -0.20464536596E+02  0.33547060429E+02  0.00000000000E+00 0. -1.
         -1    1    1    2    0  501 -0.11470158004E+01  0.26557340984E+02 -0.79546489911E+02  0.83870448088E+02  0.00000000000E+00 0.  1.
</event>
<event>
 4    1  0.6718357E+001  0.2018521E+02  0.7546771E-02  0.1531223E+00
          2   -1    0    0  502    0  0.00000000000E+00  0.00000000000E+00  0.23597157588E+03  0.23597157588E+03  0.00000000000E+00 0. -1.
         -2   -1    0    0    0  501 -0.00000000000E+00 -0.00000000000E+00 -0.19860600369E+01  0.19860600369E+01  0.00000000000E+00 0.  1.
          1    1    1    2  502    0  0.94455006739E+01  0.17838863917E+02  0.73993699076E+02  0.76697523114E+02  0.00000000000E+00 0.  1.
         -1    1    1    2    0  501 -0.94455006739E+01 -0.17838863917E+02  0.15999181676E+03  0.16126011280E+03  0.00000000000E+00 0. -1.
</event>
<event>
 4    1  0.6718357E+001  0.2153770E+02  0.7546771E-02  0.1511725E+00
          2   -1    0    0  502    0  0.00000000000E+00  0.00000000000E+00  0.93385506005E+01  0.93385506005E+01  0.00000000000E+00 0.  1.
         -2   -1    0    0    0  501 -0.00000000000E+00 -0.00000000000E+00 -0.50483934128E+02  0.50483934128E+02  0.00000000000E+00 0. -1.
          1    1    1    2  502    0 -0.55225900114E+01 -0.20817623699E+02 -0.16781377011E+02  0.27303609126E+02  0.00000000000E+00 0.  1.
         -1    1    1    2    0  501  0.55225900114E+01  0.20817623699E+02 -0.24364006516E+02  0.32518875603E+02  0.00000000000E+00 0. -1.
</event>
<event>
 4    1  0.6718357E+001  0.2233037E+02  0.7546771E-02  0.1501082E+00
          2   -1    0    0  502    0  0.00000000000E+00  0.00000000000E+00  0.97535663922E+03  0.97535663922E+03  0.00000000000E+00 0.  1.
         -2   -1    0    0    0  501 -0.00000000000E+00 -0.00000000000E+00 -0.27634079816E+01  0.27634079816E+01  0.00000000000E+00 0. -1.
          1    1    1    2  502    0  0.12915723876E+02 -0.18216181919E+02  0.44787507581E+02  0.50045639593E+02  0.00000000000E+00 0. -1.
         -1    1    1    2    0  501 -0.12915723876E+02  0.18216181919E+02  0.92780572366E+03  0.92807440761E+03  0.00000000000E+00 0.  1.
</event>
<event>
 4    1  0.6718357E+001  0.2984658E+02  0.7546771E-02  0.1420935E+00
          2   -1    0    0  502    0  0.00000000000E+00  0.00000000000E+00  0.24289108563E+03  0.24289108563E+03  0.00000000000E+00 0. -1.
         -2   -1    0    0    0  501 -0.00000000000E+00 -0.00000000000E+00 -0.58407996256E+01  0.58407996256E+01  0.00000000000E+00 0.  1.
          1    1    1    2  502    0  0.20797106793E+02 -0.21407910576E+02  0.19438619304E+03  0.19666420704E+03  0.00000000000E+00 0. -1.
         -1    1    1    2    0  501 -0.20797106793E+02  0.21407910576E+02  0.42664092961E+02  0.52067678212E+02  0.00000000000E+00 0.  1.
</event>
<event>
 4    1  0.6718357E+001  0.3346705E+02  0.7546771E-02  0.1391673E+00
          2   -1    0    0  502    0  0.00000000000E+00  0.00000000000E+00  0.11804386592E+03  0.11804386592E+03  0.00000000000E+00 0. -1.
         -2   -1    0    0    0  501 -0.00000000000E+00 -0.00000000000E+00 -0.11039213762E+02  0.11039213762E+02  0.00000000000E+00 0.  1.
          1    1    1    2  502    0  0.20442845161E+02 -0.26497800382E+02  0.77693386538E+02  0.84594950529E+02  0.00000000000E+00 0.  1.
         -1    1    1    2    0  501 -0.20442845161E+02  0.26497800382E+02  0.29311265623E+02  0.44488129155E+02  0.00000000000E+00 0. -1.
</event>
<event>
 4    1  0.6718357E+001  0.2136739E+02  0.7546771E-02  0.1514084E+00
          2   -1    0    0  502    0  0.00000000000E+00  0.00000000000E+00  0.30751860752E+03  0.30751860752E+03  0.00000000000E+00 0. -1.
         -2   -1    0    0    0  501 -0.00000000000E+00 -0.00000000000E+00 -0.17857951609E+01  0.17857951609E+01  0.00000000000E+00 0.  1.
          1    1    1    2  502    0 -0.10700918543E+02  0.18494745477E+02  0.89361099715E+02  0.91880201405E+02  0.00000000000E+00 0.  1.
         -1    1    1    2    0  501  0.10700918543E+02 -0.18494745477E+02  0.21637171264E+03  0.21742420127E+03  0.00000000000E+00 0. -1.
</event>
<event>
 4    1  0.6718357E+001  0.2243808E+02  0.7546771E-02  0.1499677E+00
          2   -1    0    0  502    0  0.00000000000E+00  0.00000000000E+00  0.38587862846E+01  0.38587862846E+01  0.00000000000E+00 0. -1.
         -2   -1    0    0    0  501 -0.00000000000E+00 -0.00000000000E+00 -0.29889366249E+03  0.29889366249E+03  0.00000000000E+00 0.  1.
          1    1    1    2  502    0 -0.20467160312E+02 -0.91958114188E+01 -0.26114846786E+03  0.26211064432E+03  0.00000000000E+00 0.  1.
         -1    1    1    2    0  501  0.20467160312E+02  0.91958114188E+01 -0.33886408340E+02  0.40641804452E+02  0.00000000000E+00 0. -1.
</event>
<event>
 4    1  0.6718357E+001  0.3224093E+02  0.7546771E-02  0.1401072E+00
          2   -1    0    0  502    0  0.00000000000E+00  0.00000000000E+00  0.26087090610E+03  0.26087090610E+03  0.00000000000E+00 0.  1.
         -2   -1    0    0    0  501 -0.00000000000E+00 -0.00000000000E+00 -0.69201465800E+01  0.69201465800E+01  0.00000000000E+00 0. -1.
          1    1    1    2  502    0  0.31037424222E+02 -0.87267351816E+01  0.39768715163E+02  0.51195979481E+02  0.00000000000E+00 0. -1.
         -1    1    1    2    0  501 -0.31037424222E+02  0.87267351816E+01  0.21418204436E+03  0.21659507320E+03  0.00000000000E+00 0.  1.
</event>
<event>
 4    1  0.6718357E+001  0.2295331E+02  0.7546771E-02  0.1493085E+00
          2   -1    0    0  502    0  0.00000000000E+00  0.00000000000E+00  0.26820505333E+04  0.26820505333E+04  0.00000000000E+00 0.  1.
         -2   -1    0    0    0  501 -0.00000000000E+00 -0.00000000000E+00 -0.19666192677E+00  0.19666192677E+00  0.00000000000E+00 0. -1.
          1    1    1    2  502    0 -0.22614067122E+02 -0.39317045960E+01  0.13862683642E+04  0.13864583773E+04  0.00000000000E+00 0. -1.
         -1    1    1    2    0  501  0.22614067122E+02  0.39317045960E+01  0.12955855071E+04  0.12957888179E+04  0.00000000000E+00 0.  1.
</event>
<event>
 4    1  0.6718357E+001  0.2091414E+02  0.7546771E-02  0.1520494E+00
          2   -1    0    0  502    0  0.00000000000E+00  0.00000000000E+00  0.79866146206E+03  0.79866146206E+03  0.00000000000E+00 0. -1.
         -2   -1    0    0    0  501 -0.00000000000E+00 -0.00000000000E+00 -0.54837920837E+00  0.54837920837E+00  0.00000000000E+00 0.  1.
          1    1    1    2  502    0 -0.12797439285E+02  0.16541671670E+02  0.41344710993E+03  0.41397574091E+03  0.00000000000E+00 0.  1.
         -1    1    1    2    0  501  0.12797439285E+02 -0.16541671670E+02  0.38466597293E+03  0.38523410037E+03  0.00000000000E+00 0. -1.
</event>
<event>
 4    1  0.6718357E+001  0.2866369E+02  0.7546771E-02  0.1431576E+00
          2   -1    0    0  502    0  0.00000000000E+00  0.00000000000E+00  0.35570220704E+02  0.35570220704E+02  0.00000000000E+00 0.  1.
         -2   -1    0    0    0  501 -0.00000000000E+00 -0.00000000000E+00 -0.25170059204E+02  0.25170059204E+02  0.00000000000E+00 0. -1.
          1    1    1    2  502    0  0.28550310871E+02 -0.25469470847E+01 -0.35133140441E+01  0.28878202261E+02  0.00000000000E+00 0. -1.
         -1    1    1    2    0  501 -0.28550310871E+02  0.25469470847E+01  0.13913475543E+02  0.31862077647E+02  0.00000000000E+00 0.  1.
</event>
<event>
 4    1  0.6718357E+001  0.2776585E+02  0.7546771E-02  0.1440063E+00
          2   -1    0    0  502    0  0.00000000000E+00  0.00000000000E+00  0.10882938943E+02  0.10882938943E+02  0.00000000000E+00 0. -1.
         -2   -1    0    0    0  501 -0.00000000000E+00 -0.00000000000E+00 -0.15437150114E+03  0.15437150114E+03  0.00000000000E+00 0.  1.
          1    1    1    2  502    0  0.23046319584E+02 -0.15485790943E+02 -0.13252500577E+03  0.13540243618E+03  0.00000000000E+00 0.  1.
         -1    1    1    2    0  501 -0.23046319584E+02  0.15485790943E+02 -0.10963556419E+02  0.29852003900E+02  0.00000000000E+00 0. -1.
</event>
<event>
 4    1  0.6718357E+001  0.3898852E+02  0.7546771E-02  0.1354517E+00
          2   -1    0    0  502    0  0.00000000000E+00  0.00000000000E+00  0.22511946981E+02  0.22511946981E+02  0.00000000000E+00 0.  1.
         -2   -1    0    0    0  501 -0.00000000000E+00 -0.00000000000E+00 -0.21280995405E+03  0.21280995405E+03  0.00000000000E+00 0. -1.
          1    1    1    2  502    0 -0.22781136066E+02  0.31640557249E+02  0.20692122259E+01  0.39043394611E+02  0.00000000000E+00 0.  1.
         -1    1    1    2    0  501  0.22781136066E+02 -0.31640557249E+02 -0.19236721930E+03  0.19627850642E+03  0.00000000000E+00 0. -1.
</event>
<event>
 4    1  0.6718357E+001  0.2727677E+02  0.7546771E-02  0.1444848E+00
          2   -1    0    0  502    0  0.00000000000E+00  0.00000000000E+00  0.13467040882E+04  0.13467040882E+04  0.00000000000E+00 0. -1.
         -2   -1    0    0    0  501 -0.00000000000E+00 -0.00000000000E+00 -0.56365643471E+00  0.56365643471E+00  0.00000000000E+00 0.  1.
          1    1    1    2  502    0 -0.11858366306E+02  0.24564231929E+02  0.57819853470E+03  0.57884157407E+03  0.00000000000E+00 0.  1.
         -1    1    1    2    0  501  0.11858366306E+02 -0.24564231929E+02  0.76794189703E+03  0.76842617053E+03  0.00000000000E+00 0. -1.
</event>
<event>
 4    1  0.6718357E+001  0.5260374E+02  0.7546771E-02  0.1287262E+00
          2   -1    0    0  502    0  0.00000000000E+00  0.00000000000E+00  0.59352359204E+03  0.59352359204E+03  0.00000000000E+00 0.  1.
         -2   -1    0    0    0  501 -0.00000000000E+00 -0.00000000000E+00 -0.10939803602E+02  0.10939803602E+02  0.00000000000E+00 0. -1.
          1    1    1    2  502    0  0.19732081455E+02  0.48762673371E+02  0.62347201487E+02  0.81574057679E+02  0.00000000000E+00 0. -1.
         -1    1    1    2    0  501 -0.19732081455E+02 -0.48762673371E+02  0.52023658695E+03  0.52288933796E+03  0.00000000000E+00 0.  1.
</event>
<event>
 4    1  0.6718357E+001  0.2199306E+02  0.7546771E-02  0.1505545E+00
          2   -1    0    0  502    0  0.00000000000E+00  0.00000000000E+00  0.10678233888E+04  0.10678233888E+04  0.00000000000E+00 0.  1.
         -2   -1    0    0    0  501 -0.00000000000E+00 -0.00000000000E+00 -0.50211865355E+00  0.50211865355E+00  0.00000000000E+00 0. -1.
          1    1    1    2  502    0 -0.13009418244E+02  0.17732724903E+02  0.36654551426E+03  0.36720472290E+03  0.00000000000E+00 0. -1.
         -1    1    1    2    0  501  0.13009418244E+02 -0.17732724903E+02  0.70077575583E+03  0.70112078450E+03  0.00000000000E+00 0.  1.
</event>
<event>
 4    1  0.6718357E+001  0.3610487E+02  0.7546771E-02  0.1372958E+00
          2   -1    0    0  502    0  0.00000000000E+00  0.00000000000E+00  0.22066784464E+01  0.22066784464E+01  0.00000000000E+00 0. -1.
         -2   -1    0    0    0  501 -0.00000000000E+00 -0.00000000000E+00 -0.59463033538E+03  0.59463033538E+03  0.00000000000E+00 0.  1.
          1    1    1    2  502    0  0.35306815968E+02  0.75492052359E+01 -0.27205801386E+03  0.27444329954E+03  0.00000000000E+00 0. -1.
         -1    1    1    2    0  501 -0.35306815968E+02 -0.75492052359E+01 -0.32036564308E+03  0.32239371429E+03  0.00000000000E+00 0.  1.
</event>
<event>
 4    1  0.6718357E+001  0.1124709E+03  0.7546771E-02  0.1143794E+00
          2   -1    0    0  502    0  0.00000000000E+00  0.00000000000E+00  0.35533261704E+03  0.35533261704E+03  0.00000000000E+00 0. -1.
         -2   -1    0    0    0  501 -0.00000000000E+00 -0.00000000000E+00 -0.38147962064E+02  0.38147962064E+02  0.00000000000E+00 0.  1.
          1    1    1    2  502    0  0.10643434227E+03 -0.36351440024E+02  0.20944207851E+03  0.23773026870E+03  0.00000000000E+00 0. -1.
         -1    1    1    2    0  501 -0.10643434227E+03  0.36351440024E+02  0.10774257647E+03  0.15575031040E+03  0.00000000000E+00 0.  1.
</event>
<event>
 4    1  0.6718357E+001  0.2050515E+02  0.7546771E-02  0.1526449E+00
          2   -1    0    0  502    0  0.00000000000E+00  0.00000000000E+00  0.57216909637E+03  0.57216909637E+03  0.00000000000E+00 0.  1.
         -2   -1    0    0    0  501 -0.00000000000E+00 -0.00000000000E+00 -0.92174762868E+00  0.92174762868E+00  0.00000000000E+00 0. -1.
          1    1    1    2  502    0  0.12401244855E+02 -0.16330046240E+02  0.41465157217E+03  0.41515826812E+03  0.00000000000E+00 0.  1.
         -1    1    1    2    0  501 -0.12401244855E+02  0.16330046240E+02  0.15659577657E+03  0.15793257587E+03  0.00000000000E+00 0. -1.
</event>
<event>
 4    1  0.6718357E+001  0.2427675E+02  0.7546771E-02  0.1477059E+00
          2   -1    0    0  502    0  0.00000000000E+00  0.00000000000E+00  0.22179123552E+02  0.22179123552E+02  0.00000000000E+00 0. -1.
         -2   -1    0    0    0  501 -0.00000000000E+00 -0.00000000000E+00 -0.29891187821E+02  0.29891187821E+02  0.00000000000E+00 0.  1.
          1    1    1    2  502    0 -0.23885989179E+02  0.43382020476E+01  0.48186771837E+01  0.24750356076E+02  0.00000000000E+00 0. -1.
         -1    1    1    2    0  501  0.23885989179E+02 -0.43382020476E+01 -0.12530741453E+02  0.27319955297E+02  0.00000000000E+00 0.  1.
</event>
<event>
 4    1  0.6718357E+001  0.2209932E+02  0.7546771E-02  0.1504129E+00
          2   -1    0    0  502    0  0.00000000000E+00  0.00000000000E+00  0.65694370817E+02  0.65694370817E+02  0.00000000000E+00 0. -1.
         -2   -1    0    0    0  501 -0.00000000000E+00 -0.00000000000E+00 -0.81108328897E+01  0.81108328897E+01  0.00000000000E+00 0.  1.
          1    1    1    2  502    0 -0.87750277261E+01  0.20282473030E+02  0.39451016425E+02  0.45219050418E+02  0.00000000000E+00 0. -1.
         -1    1    1    2    0  501  0.87750277261E+01 -0.20282473030E+02  0.18132521502E+02  0.28586153288E+02  0.00000000000E+00 0.  1.
</event>
<event>
 4    1  0.6718357E+001  0.2092010E+02  0.7546771E-02  0.1520409E+00
          2   -1    0    0  502    0  0.00000000000E+00  0.00000000000E+00  0.44907839978E+02  0.44907839978E+02  0.00000000000E+00 0.  1.
         -2   -1    0    0    0  501 -0.00000000000E+00 -0.00000000000E+00 -0.12354304993E+02  0.12354304993E+02  0.00000000000E+00 0. -1.
          1    1    1    2  502    0  0.18474442341E+02  0.98155670848E+01  0.29433479565E+02  0.36110664578E+02  0.00000000000E+00 0.  1.
         -1    1    1    2    0  501 -0.18474442341E+02 -0.98155670848E+01  0.31200554202E+01  0.21151480393E+02  0.00000000000E+00 0. -1.
</event>
<event>
 4    1  0.6718357E+001  0.2021147E+02  0.7546771E-02  0.1530827E+00
          2   -1    0    0  502    0  0.00000000000E+00  0.00000000000E+00  0.63823667620E+00  0.63823667620E+00  0.00000000000E+00 0.  1.
         -2   -1    0    0    0  501 -0.00000000000E+00 -0.00000000000E+00 -0.64018080007E+03  0.64018080007E+03  0.00000000000E+00 0. -1.
          1    1    1    2  502    0  0.38865505253E+00 -0.20207730775E+02 -0.31519276537E+03  0.31584012217E+03  0.00000000000E+00 0. -1.
         -1    1    1    2    0  501 -0.38865505253E+00  0.20207730775E+02 -0.32434979803E+03  0.32497891458E+03  0.00000000000E+00 0.  1.
</event>
<event>
 4    1  0.6718357E+001  0.2658096E+02  0.7546771E-02  0.1451863E+00
          2   -1    0    0  502    0  0.00000000000E+00  0.00000000000E+00  0.15863152774E+04  0.15863152774E+04  0.00000000000E+00 0. -1.
         -2   -1    0    0    0  501 -0.00000000000E+00 -0.00000000000E+00 -0.45659732239E+00  0.45659732239E+00  0.00000000000E+00 0.  1.
          1    1    1    2  502    0 -0.18206541487E+02  0.19366707713E+02  0.66869491670E+03  0.66922301151E+03  0.00000000000E+00 0.  1.
         -1    1    1    2    0  501  0.18206541487E+02 -0.19366707713E+02  0.91716376342E+03  0.91754886325E+03  0.00000000000E+00 0. -1.
</event>
<event>
 4    1  0.6718357E+001  0.2807334E+02  0.7546771E-02  0.1437114E+00
          2   -1    0    0  502    0  0.00000000000E+00  0.00000000000E+00  0.53602589038E+01  0.53602589038E+01  0.00000000000E+00 0.  1.
         -2   -1    0    0    0  501 -0.00000000000E+00 -0.00000000000E+00 -0.15240931877E+03  0.15240931877E+03  0.00000000000E+00 0. -1.
          1    1    1    2  502    0  0.28035244955E+02  0.14619244456E+01 -0.58702711948E+02  0.65070120431E+02  0.00000000000E+00 0.  1.
         -1    1    1    2    0  501 -0.28035244955E+02 -0.14619244456E+01 -0.88346347917E+02  0.92699457242E+02  0.00000000000E+00 0. -1.
</event>
<event>
 4    1  0.6718357E+001  0.2173412E+02  0.7546771E-02  0.1509036E+00
          2   -1    0    0  502    0  0.00000000000E+00  0.00000000000E+00  0.42586154427E+03  0.42586154427E+03  0.00000000000E+00 0.  1.
         -2   -1    0    0    0  501 -0.00000000000E+00 -0.00000000000E+00 -0.15359561096E+01  0.15359561096E+01  0.00000000000E+00 0. -1.
          1    1    1    2  502    0 -0.86724397465E+01  0.19928887428E+02  0.32480343585E+03  0.32552978928E+03  0.00000000000E+00 0.  1.
         -1    1    1    2    0  501  0.86724397465E+01 -0.19928887428E+02  0.99522152309E+02  0.10186771110E+03  0.00000000000E+00 0. -1.
</event>
<event>
 4    1  0.6718357E+001  0.3645871E+02  0.7546771E-02  0.1370588E+00
          2   -1    0    0  502    0  0.00000000000E+00  0.00000000000E+00  0.32603645432E+02  0.32603645432E+02  0.00000000000E+00 0. -1.
         -2   -1    0    0    0  501 -0.00000000000E+00 -0.00000000000E+00 -0.42410590872E+02  0.42410590872E+02  0.00000000000E+00 0.  1.
          1    1    1    2  502    0  0.34145491878E+02 -0.12779790501E+02  0.24743684403E+01  0.36542580095E+02  0.00000000000E+00 0. -1.
         -1    1    1    2    0  501 -0.34145491878E+02  0.12779790501E+02 -0.12281313880E+02  0.38471656209E+02  0.00000000000E+00 0.  1.
</event>
<event>
 4    1  0.6718357E+001  0.2017253E+02  0.7546771E-02  0.1531414E+00
          2   -1    0    0  502    0  0.00000000000E+00  0.00000000000E+00  0.12051421835E+04  0.12051421835E+04  0.00000000000E+00 0. -1.
         -2   -1    0    0    0  501 -0.00000000000E+00 -0.00000000000E+00 -0.63841983987E+00  0.63841983987E+00  0.00000000000E+00 0.  1.
          1    1    1    2  502    0  0.15989209062E+02  0.12299443151E+02  0.10160546162E+04  0.10162548471E+04  0.00000000000E+00 0. -1.
         -1    1    1    2    0  501 -0.15989209062E+02 -0.12299443151E+02  0.18844914748E+03  0.18952575629E+03  0.00000000000E+00 0.  1.
</event>
<event>
 4    1  0.6718357E+001  0.2718081E+02  0.7546771E-02  0.1445800E+00
          2   -1    0    0  502    0  0.00000000000E+00  0.00000000000E+00  0.12488593712E+03  0.12488593712E+03  0.00000000000E+00 0. -1.
         -2   -1    0    0    0  501 -0.00000000000E+00 -0.00000000000E+00 -0.59257462273E+01  0.59257462273E+01  0.00000000000E+00 0.  1.
          1    1    1    2  502    0  0.19718097415E+02 -0.18708097895E+02  0.56796229028E+02  0.62965132607E+02  0.00000000000E+00 0. -1.
         -1    1    1    2    0  501 -0.19718097415E+02  0.18708097895E+02  0.62163961864E+02  0.67846550739E+02  0.00000000000E+00 0.  1.
</event>
<event>
 4    1  0.6718357E+001  0.8256678E+02  0.7546771E-02  0.1198011E+00
          2   -1    0    0  502    0  0.00000000000E+00  0.00000000000E+00  0.18583919833E+04  0.18583919833E+04  0.00000000000E+00 0. -1.
         -2   -1    0    0    0  501 -0.00000000000E+00 -0.00000000000E+00 -0.39617746536E+01  0.39617746536E+01  0.00000000000E+00 0.  1.
          1    1    1    2  502    0 -0.78304499533E+02 -0.26185479198E+02  0.11806223211E+04  0.11835059522E+04  0.00000000000E+00 0.  1.
         -1    1    1    2    0  501  0.78304499533E+02  0.26185479198E+02  0.67380788756E+03  0.67884780570E+03  0.00000000000E+00 0. -1.
</event>
<event>
 4    1  0.6718357E+001  0.2036125E+02  0.7546771E-02  0.1528583E+00
          2   -1    0    0  502    0  0.00000000000E+00  0.00000000000E+00  0.12490468007E+04  0.12490468007E+04  0.00000000000E+00 0. -1.
         -2   -1    0    0    0  501 -0.00000000000E+00 -0.00000000000E+00 -0.33385108183E+00  0.33385108183E+00  0.00000000000E+00 0.  1.
          1    1    1    2  502    0 -0.39318646064E+01  0.19978016293E+02  0.67189562660E+03  0.67220407150E+03  0.00000000000E+00 0. -1.
         -1    1    1    2    0  501  0.39318646064E+01 -0.19978016293E+02  0.57681732299E+03  0.57717658025E+03  0.00000000000E+00 0.  1.
</event>
<event>
 4    1  0.6718357E+001  0.2587016E+02  0.7546771E-02  0.1459300E+00
          2   -1    0    0  502    0  0.00000000000E+00  0.00000000000E+00  0.76157190324E+03  0.76157190324E+03  0.00000000000E+00 0.  1.
         -2   -1    0    0    0  501 -0.00000000000E+00 -0.00000000000E+00 -0.10321497205E+01  0.10321497205E+01  0.00000000000E+00 0. -1.
          1    1    1    2  502    0  0.10185561366E+02  0.23780651621E+02  0.23329357295E+03  0.23472357408E+03  0.00000000000E+00 0. -1.
         -1    1    1    2    0  501 -0.10185561366E+02 -0.23780651621E+02  0.52724618057E+03  0.52788047888E+03  0.00000000000E+00 0.  1.
</event>
<event>
 4    1  0.6718357E+001  0.3860074E+02  0.7546771E-02  0.1356886E+00
          2   -1    0    0  502    0  0.00000000000E+00  0.00000000000E+00  0.36357686286E+02  0.36357686286E+02  0.00000000000E+00 0.  1.
         -2   -1    0    0    0  501 -0.00000000000E+00 -0.00000000000E+00 -0.45109412282E+02  0.45109412282E+02  0.00000000000E+00 0. -1.
          1    1    1    2  502    0  0.38183367575E+02 -0.56610385401E+01 -0.16696937918E+02  0.42057159349E+02  0.00000000000E+00 0.  1.
         -1    1    1    2    0  501 -0.38183367575E+02  0.56610385401E+01  0.79452119213E+01  0.39409939218E+02  0.00000000000E+00 0. -1.
</event>
<event>
 4    1  0.6718357E+001  0.2857936E+02  0.7546771E-02  0.1432357E+00
          2   -1    0    0  502    0  0.00000000000E+00  0.00000000000E+00  0.27720961562E+03  0.27720961562E+03  0.00000000000E+00 0.  1.
         -2   -1    0    0    0  501 -0.00000000000E+00 -0.00000000000E+00 -0.38784546799E+01  0.38784546799E+01  0.00000000000E+00 0. -1.
          1    1    1    2  502    0  0.28016412385E+02 -0.56445112917E+01  0.67769295645E+02  0.73549012929E+02  0.00000000000E+00 0. -1.
         -1    1    1    2    0  501 -0.28016412385E+02  0.56445112917E+01  0.20556186530E+03  0.20753905738E+03  0.00000000000E+00 0.  1.
</event>
<event>
 4    1  0.6718357E+001  0.2112329E+02  0.7546771E-02  0.1517512E+00
          2   -1    0    0  502    0  0.00000000000E+00  0.00000000000E+00  0.24584461724E+01  0.24584461724E+01  0.00000000000E+00 0. -1.
         -2   -1    0    0    0  501 -0.00000000000E+00 -0.00000000000E+00 -0.18220675313E+03  0.18220675313E+03  0.00000000000E+00 0.  1.
          1    1    1    2  502    0  0.76364682917E+01  0.19694608133E+02 -0.84099293967E+02  0.86711501447E+02  0.00000000000E+00 0. -1.
         -1    1    1    2    0  501 -0.76364682917E+01 -0.19694608133E+02 -0.95649012992E+02  0.97953697857E+02  0.00000000000E+00 0.  1.
</event>
<event>
 4    1  0.6718357E+001  0.2051564E+02  0.7546771E-02  0.1526294E+00
          2   -1    0    0  502    0  0.00000000000E+00  0.00000000000E+00  0.52007477608E+02  0.52007477608E+02  0.00000000000E+00 0.  1.
         -2   -1    0    0    0  501 -0.00000000000E+00 -0.00000000000E+00 -0.14244976540E+02  0.14244976540E+02  0.00000000000E+00 0. -1.
          1    1    1    2  502    0 -0.20381735345E+02 -0.23401577406E+01 -0.28884203248E+01  0.20717973982E+02  0.00000000000E+00 0. -1.
         -1    1    1    2    0  501  0.20381735345E+02  0.23401577406E+01  0.40650921393E+02  0.45534480166E+02  0.00000000000E+00 0.  1.
</event>
<event>
 4    1  0.6718357E+001  0.2090172E+02  0.7546771E-02  0.1520673E+00
          2   -1    0    0  502    0  0.00000000000E+00  0.00000000000E+00  0.39596845376E+03  0.39596845376E+03  0.00000000000E+00 0.  1.
         -2   -1    0    0    0  501 -0.00000000000E+00 -0.00000000000E+00 -0.11136374774E+01  0.11136374774E+01  0.00000000000E+00 0. -1.
          1    1    1    2  502    0  0.19004506081E+02 -0.87011979588E+01  0.17832231796E+03  0.17954311789E+03  0.00000000000E+00 0.  1.
         -1    1    1    2    0  501 -0.19004506081E+02  0.87011979588E+01  0.21653249832E+03  0.21753897334E+03  0.00000000000E+00 0. -1.
</event>
<event>
 4    1  0.6718357E+001  0.2176705E+02  0.7546771E-02  0.1508589E+00
          2   -1    0    0  502    0  0.00000000000E+00  0.00000000000E+00  0.73563237035E+03  0.73563237035E+03  0.00000000000E+00 0. -1.
         -2   -1    0    0    0  501 -0.00000000000E+00 -0.00000000000E+00 -0.11422265908E+01  0.11422265908E+01  0.00000000000E+00 0.  1.
          1    1    1    2  502    0  0.13820654371E+02  0.16816473215E+02  0.12396407575E+03  0.12586062266E+03  0.00000000000E+00 0.  1.
         -1    1    1    2    0  501 -0.13820654371E+02 -0.16816473215E+02  0.61052606801E+03  0.61091397428E+03  0.00000000000E+00 0. -1.
</event>
<event>
 4    1  0.6718357E+001  0.2064829E+02  0.7546771E-02  0.1524346E+00
          2   -1    0    0  502    0  0.00000000000E+00  0.00000000000E+00  0.10985232835E+01  0.10985232835E+01  0.00000000000E+00 0. -1.
         -2   -1    0    0    0  501 -0.00000000000E+00 -0.00000000000E+00 -0.39275920877E+03  0.39275920877E+03  0.00000000000E+00 0.  1.
          1    1    1    2  502    0  0.16502959881E+02  0.12409843090E+02 -0.17441303969E+03  0.17563103457E+03  0.00000000000E+00 0. -1.
         -1    1    1    2    0  501 -0.16502959881E+02 -0.12409843090E+02 -0.21724764580E+03  0.21822669748E+03  0.00000000000E+00 0.  1.
</event>
<event>
 4    1  0.6718357E+001  0.2260798E+02  0.7546771E-02  0.1497480E+00
          2   -1    0    0  502    0  0.00000000000E+00  0.00000000000E+00  0.10120483052E+04  0.10120483052E+04  0.00000000000E+00 0. -1.
         -2   -1    0    0    0  501 -0.00000000000E+00 -0.00000000000E+00 -0.61660388687E+00  0.61660388687E+00  0.00000000000E+00 0.  1.
          1    1    1    2  502    0  0.15358116768E+02  0.16590625212E+02  0.29033718262E+03  0.29121607134E+03  0.00000000000E+00 0.  1.
         -1    1    1    2    0  501 -0.15358116768E+02 -0.16590625212E+02  0.72109451869E+03  0.72144883775E+03  0.00000000000E+00 0. -1.
</event>
<event>
 4    1  0.6718357E+001  0.3135350E+02  0.7546771E-02  0.1408188E+00
          2   -1    0    0  502    0  0.00000000000E+00  0.00000000000E+00  0.70663458394E+01  0.70663458394E+01  0.00000000000E+00 0. -1.
         -2   -1    0    0    0  501 -0.00000000000E+00 -0.00000000000E+00 -0.15780847323E+03  0.15780847323E+03  0.00000000000E+00 0.  1.
          1    1    1    2  502    0 -0.25061382534E+02  0.18840620772E+02 -0.46998905856E+02  0.56497248051E+02  0.00000000000E+00 0. -1.
         -1    1    1    2    0  501  0.25061382534E+02 -0.18840620772E+02 -0.10374322154E+03  0.10837757102E+03  0.00000000000E+00 0.  1.
</event>
<event>
 4    1  0.6718357E+001  0.2595021E+02  0.7546771E-02  0.1458448E+00
          2   -1    0    0  502    0  0.00000000000E+00  0.00000000000E+00  0.52554504831E+03  0.52554504831E+03  0.00000000000E+00 0. -1.
         -2   -1    0    0    0  501 -0.00000000000E+00 -0.00000000000E+00 -0.12839156651E+01  0.12839156651E+01  0.00000000000E+00 0.  1.
          1    1    1    2  502    0 -0.30664693025E+01 -0.25768389767E+02  0.25038149982E+03  0.25172268193E+03  0.00000000000E+00 0.  1.
         -1    1    1    2    0  501  0.30664693025E+01  0.25768389767E+02  0.27387963282E+03  0.27510628205E+03  0.00000000000E+00 0. -1.
</event>
<event>
 4    1  0.6718357E+001  0.3778559E+02  0.7546771E-02  0.1361975E+00
          2   -1    0    0  502    0  0.00000000000E+00  0.00000000000E+00  0.38732368898E+03  0.38732368898E+03  0.00000000000E+00 0.  1.
         -2   -1    0    0    0  501 -0.00000000000E+00 -0.00000000000E+00 -0.36936989213E+01  0.36936989213E+01  0.00000000000E+00 0. -1.
          1    1    1    2  502    0  0.34182654533E+02  0.16102691953E+02  0.18300276274E+03  0.18686294905E+03  0.00000000000E+00 0.  1.
         -1    1    1    2    0  501 -0.34182654533E+02 -0.16102691953E+02  0.20062722732E+03  0.20415443885E+03  0.00000000000E+00 0. -1.
</event>
<event>
 4    1  0.6718357E+001  0.2002136E+02  0.7546771E-02  0.1533709E+00
          2   -1    0    0  502    0  0.00000000000E+00  0.00000000000E+00  0.19788414099E+01  0.19788414099E+01  0.00000000000E+00 0.  1.
         -2   -1    0    0    0  501 -0.00000000000E+00 -0.00000000000E+00 -0.24267178280E+03  0.24267178280E+03  0.00000000000E+00 0. -1.
          1    1    1    2  502    0 -0.61338390880E+01  0.19058615386E+02 -0.17007276260E+03  0.17124718795E+03  0.00000000000E+00 0. -1.
         -1    1    1    2    0  501  0.61338390880E+01 -0.19058615386E+02 -0.70620178785E+02  0.73403436254E+02  0.00000000000E+00 0.  1.
</event>
<event>
 4    1  0.6718357E+001  0.3262590E+02  0.7546771E-02  0.1398069E+00
          2   -1    0    0  502    0  0.00000000000E+00  0.00000000000E+00  0.28070093189E+03  0.28070093189E+03  0.00000000000E+00 0.  1.
         -2   -1    0    0    0  501 -0.00000000000E+00 -0.00000000000E+00 -0.56494215859E+01  0.56494215859E+01  0.00000000000E+00 0. -1.
          1    1    1    2  502    0  0.11712014793E+02  0.30451237063E+02  0.21961910673E+03  0.22202927998E+03  0.00000000000E+00 0.  1.
         -1    1    1    2    0  501 -0.11712014793E+02 -0.30451237063E+02  0.55432403575E+02  0.64321073493E+02  0.00000000000E+00 0. -1.
</event>
<event>
 4    1  0.6718357E+001  0.2196170E+02  0.7546771E-02  0.1505964E+00
          2   -1    0    0  502    0  0.00000000000E+00  0.00000000000E+00  0.41204275703E+02  0.41204275703E+02  0.00000000000E+00 0. -1.
         -2   -1    0    0    0  501 -0.00000000000E+00 -0.00000000000E+00 -0.16791960298E+02  0.16791960298E+02  0.00000000000E+00 0.  1.
          1    1    1    2  502    0  0.53630714987E+01 -0.21296804783E+02 -0.37536322089E+01  0.22280174699E+02  0.00000000000E+00 0.  1.
         -1    1    1    2    0  501 -0.53630714987E+01  0.21296804783E+02  0.28165947614E+02  0.35716061301E+02  0.00000000000E+00 0. -1.
</event>
<event>
 4    1  0.6718357E+001  0.2575917E+02  0.7546771E-02  0.1460487E+00
          2   -1    0    0  502    0  0.00000000000E+00  0.00000000000E+00  0.20747354708E+03  0.20747354708E+03  0.00000000000E+00 0. -1.
         -2   -1    0    0    0  501 -0.00000000000E+00 -0.00000000000E+00 -0.34840672245E+01  0.34840672245E+01  0.00000000000E+00 0.  1.
          1    1    1    2  502    0  0.33893141202E+01 -0.25535221561E+02  0.13221021446E+03  0.13469623528E+03  0.00000000000E+00 0. -1.
         -1    1    1    2    0  501 -0.33893141202E+01  0.25535221561E+02  0.71779265391E+02  0.76261379022E+02  0.00000000000E+00 0.  1.
</event>
<event>
 4    1  0.6718357E+001  0.2977999E+02  0.7546771E-02  0.1421518E+00
          2   -1    0    0  502    0  0.00000000000E+00  0.00000000000E+00  0.17797536590E+04  0.17797536590E+04  0.00000000000E+00 0.  1.
         -2   -1    0    0    0  501 -0.00000000000E+00 -0.00000000000E+00 -0.12370041453E+01  0.12370041453E+01  0.00000000000E+00 0. -1.
          1    1    1    2  502    0  0.28016762218E+02 -0.10094986718E+02  0.15774064352E+04  0.15776875196E+04  0.00000000000E+00 0.  1.
         -1    1    1    2    0  501 -0.28016762218E+02  0.10094986718E+02  0.20111021968E+03  0.20330314356E+03  0.00000000000E+00 0. -1.
</event>
<event>
 4    1  0.6718357E+001  0.2291263E+02  0.7546771E-02  0.1493598E+00
          2   -1    0    0  502    0  0.00000000000E+00  0.00000000000E+00  0.49843470388E+02  0.49843470388E+02  0.00000000000E+00 0. -1.
         -2   -1    0    0    0  501 -0.00000000000E+00 -0.00000000000E+00 -0.12367200964E+02  0.12367200964E+02  0.00000000000E+00 0.  1.
          1    1    1    2  502    0 -0.22870011485E+02 -0.13968291302E+01  0.30718025103E+02  0.38322129680E+02  0.00000000000E+00 0. -1.
         -1    1    1    2    0  501  0.22870011485E+02  0.13968291302E+01  0.67582443214E+01  0.23888541673E+02  0.00000000000E+00 0.  1.
</event>
<event>
 4    1  0.6718357E+001  0.2099018E+02  0.7546771E-02  0.1519405E+00
          2   -1    0    0  502    0  0.00000000000E+00  0.00000000000E+00  0.74805655494E+00  0.74805655494E+00  0.00000000000E+00 0.  1.
         -2   -1    0    0    0  501 -0.00000000000E+00 -0.00000000000E+00 -0.58901022323E+03  0.58901022323E+03  0.00000000000E+00 0. -1.
          1    1    1    2  502    0 -0.19843496408E+02 -0.68427452473E+01 -0.29189016000E+03  0.29264390139E+03  0.00000000000E+00 0.  1.
         -1    1    1    2    0  501  0.19843496408E+02  0.68427452473E+01 -0.29637200668E+03  0.29711437840E+03  0.00000000000E+00 0. -1.
</event>
<event>
 4    1  0.6718357E+001  0.2166236E+02  0.7546771E-02  0.1510014E+00
          2   -1    0    0  502    0  0.00000000000E+00  0.00000000000E+00  0.44784418691E+02  0.44784418691E+02  0.00000000000E+00 0. -1.
         -2   -1    0    0    0  501 -0.00000000000E+00 -0.00000000000E+00 -0.17018792521E+02  0.17018792521E+02  0.00000000000E+00 0.  1.
          1    1    1    2  502    0  0.18134347522E+02  0.11849195873E+02  0.33039780998E+02  0.39508038819E+02  0.00000000000E+00 0. -1.
         -1    1    1    2    0  501 -0.18134347522E+02 -0.11849195873E+02 -0.52741548284E+01  0.22295172393E+02  0.00000000000E+00 0.  1.
</event>
<event>
 4    1  0.6718357E+001  0.2000307E+02  0.7546771E-02  0.1533989E+00
          2   -1    0    0  502    0  0.00000000000E+00  0.00000000000E+00  0.13754342413E+03  0.13754342413E+03  0.00000000000E+00 0. -1.
         -2   -1    0    0    0  501 -0.00000000000E+00 -0.00000000000E+00 -0.99120032668E+01  0.99120032668E+01  0.00000000000E+00 0.  1.
          1    1    1    2  502    0  0.13041440220E+02  0.15167183657E+02  0.12578695647E+03  0.12736750386E+03  0.00000000000E+00 0. -1.
         -1    1    1    2    0  501 -0.13041440220E+02 -0.15167183657E+02  0.18444643990E+01  0.20087923536E+02  0.00000000000E+00 0.  1.
</event>
<event>
 4    1  0.6718357E+001  0.2289112E+02  0.7546771E-02  0.1493870E+00
          2   -1    0    0  502    0  0.00000000000E+00  0.00000000000E+00  0.15553811604E+02  0.15553811604E+02  0.00000000000E+00 0. -1.
         -2   -1    0    0    0  501 -0.00000000000E+00 -0.00000000000E+00 -0.52299659408E+02  0.52299659408E+02  0.00000000000E+00 0.  1.
          1    1    1    2  502    0 -0.15543127934E+02 -0.16805197461E+02  0.18649634831E+01  0.22966967072E+02  0.00000000000E+00 0. -1.
         -1    1    1    2    0  501  0.15543127934E+02  0.16805197461E+02 -0.38610811287E+02  0.44886503940E+02  0.00000000000E+00 0.  1.
</event>
<event>
 4    1  0.6718357E+001  0.2514037E+02  0.7546771E-02  0.1467239E+00
          2   -1    0    0  502    0  0.00000000000E+00  0.00000000000E+00  0.76690552314E+03  0.76690552314E+03  0.00000000000E+00 0.  1.
         -2   -1    0    0    0  501 -0.00000000000E+00 -0.00000000000E+00 -0.82959126376E+00  0.82959126376E+00  0.00000000000E+00 0. -1.
          1    1    1    2  502    0 -0.93160102504E+01 -0.23350589764E+02  0.41415285363E+03  0.41491520129E+03  0.00000000000E+00 0. -1.
         -1    1    1    2    0  501  0.93160102504E+01  0.23350589764E+02  0.35192307825E+03  0.35281991312E+03  0.00000000000E+00 0.  1.
</event>
<event>
 4    1  0.6718357E+001  0.2531459E+02  0.7546771E-02  0.1465315E+00
          2   -1    0    0  502    0  0.00000000000E+00  0.00000000000E+00  0.11872623964E+03  0.11872623964E+03  0.00000000000E+00 0.  1.
         -2   -1    0    0    0  501 -0.00000000000E+00 -0.00000000000E+00 -0.62615616857E+01  0.62615616857E+01  0.00000000000E+00 0. -1.
          1    1    1    2  502    0  0.22923023297E+02  0.10740727787E+02  0.33017718945E+02  0.41605264027E+02  0.00000000000E+00 0. -1.
         -1    1    1    2    0  501 -0.22923023297E+02 -0.10740727787E+02  0.79446959005E+02  0.83382537294E+02  0.00000000000E+00 0.  1.
</event>
<event>
 4    1  0.6718357E+001  0.3188052E+02  0.7546771E-02  0.1403929E+00
          2   -1    0    0  502    0  0.00000000000E+00  0.00000000000E+00  0.10275557931E+02  0.10275557931E+02  0.00000000000E+00 0.  1.
         -2   -1    0    0    0  501 -0.00000000000E+00 -0.00000000000E+00 -0.12444873392E+03  0.12444873392E+03  0.00000000000E+00 0. -1.
          1    1    1    2  502    0  0.75586315016E+01 -0.30971516077E+02 -0.87601364248E+02  0.93222136515E+02  0.00000000000E+00 0. -1.
         -1    1    1    2    0  501 -0.75586315016E+01  0.30971516077E+02 -0.26571811740E+02  0.41502155335E+02  0.00000000000E+00 0.  1.
</event>
<event>
 4    1  0.6718357E+001  0.8772673E+02  0.7546771E-02  0.1186963E+00
          2   -1    0    0  502    0  0.00000000000E+00  0.00000000000E+00  0.98159943471E+03  0.98159943471E+03  0.00000000000E+00 0. -1.
         -2   -1    0    0    0  501 -0.00000000000E+00 -0.00000000000E+00 -0.13188227672E+02  0.13188227672E+02  0.00000000000E+00 0.  1.
          1    1    1    2  502    0 -0.78627761847E+02 -0.38905702568E+02  0.16746609984E+03  0.18905256735E+03  0.00000000000E+00 0.  1.
         -1    1    1    2    0  501  0.78627761847E+02  0.38905702568E+02  0.80094510720E+03  0.80573509503E+03  0.00000000000E+00 0. -1.
</event>
<event>
 4    1  0.6718357E+001  0.2878774E+02  0.7546771E-02  0.1430432E+00
          2   -1    0    0  502    0  0.00000000000E+00  0.00000000000E+00  0.13502110658E+03  0.13502110658E+03  0.00000000000E+00 0.  1.
         -2   -1    0    0    0  501 -0.00000000000E+00 -0.00000000000E+00 -0.67495849528E+01  0.67495849528E+01  0.00000000000E+00 0. -1.
          1    1    1    2  502    0 -0.12060024833E+02  0.26139810906E+02  0.42794811469E+02  0.51576446192E+02  0.00000000000E+00 0. -1.
         -1    1    1    2    0  501  0.12060024833E+02 -0.26139810906E+02  0.85476710162E+02  0.90194245345E+02  0.00000000000E+00 0.  1.
</event>
<event>
 4    1  0.6718357E+001  0.2261984E+02  0.7546771E-02  0.1497328E+00
          2   -1    0    0  502    0  0.00000000000E+00  0.00000000000E+00  0.20128910303E+04  0.20128910303E+04  0.00000000000E+00 0.  1.
         -2   -1    0    0    0  501 -0.00000000000E+00 -0.00000000000E+00 -0.25565400232E+00  0.25565400232E+00  0.00000000000E+00 0. -1.
          1    1    1    2  502    0  0.16134059698E+02  0.15853995071E+02  0.10824852462E+04  0.10827215548E+04  0.00000000000E+00 0. -1.
         -1    1    1    2    0  501 -0.16134059698E+02 -0.15853995071E+02  0.93015013009E+03  0.93042512947E+03  0.00000000000E+00 0.  1.
</event>
<event>
 4    1  0.6718357E+001  0.2255623E+02  0.7546771E-02  0.1498147E+00
          2   -1    0    0  502    0  0.00000000000E+00  0.00000000000E+00  0.13910821981E+04  0.13910821981E+04  0.00000000000E+00 0.  1.
         -2   -1    0    0    0  501 -0.00000000000E+00 -0.00000000000E+00 -0.37841857242E+00  0.37841857242E+00  0.00000000000E+00 0. -1.
          1    1    1    2  502    0 -0.77886315639E+01  0.21168860321E+02  0.82266664064E+03  0.82297581074E+03  0.00000000000E+00 0. -1.
         -1    1    1    2    0  501  0.77886315639E+01 -0.21168860321E+02  0.56803713884E+03  0.56848480589E+03  0.00000000000E+00 0.  1.
</event>
<event>
 4    1  0.6718357E+001  0.2150119E+02  0.7546771E-02  0.1512228E+00
          2   -1    0    0  502    0  0.00000000000E+00  0.00000000000E+00  0.48178524020E+02  0.48178524020E+02  0.00000000000E+00 0.  1.
         -2   -1    0    0    0  501 -0.00000000000E+00 -0.00000000000E+00 -0.10111970613E+02  0.10111970613E+02  0.00000000000E+00 0. -1.
          1    1    1    2  502    0  0.12892987103E+02  0.17206738500E+02  0.25619527676E+02  0.33446392400E+02  0.00000000000E+00 0.  1.
         -1    1    1    2    0  501 -0.12892987103E+02 -0.17206738500E+02  0.12447025731E+02  0.24844102233E+02  0.00000000000E+00 0. -1.
</event>
<event>
 4    1  0.6718357E+001  0.2534220E+02  0.7546771E-02  0.1465011E+00
          2   -1    0    0  502    0  0.00000000000E+00  0.00000000000E+00  0.11040932035E+04  0.11040932035E+04  0.00000000000E+00 0.  1.
         -2   -1    0    0    0  501 -0.00000000000E+00 -0.00000000000E+00 -0.24256430736E+01  0.24256430736E+01  0.00000000000E+00 0. -1.
          1    1    1    2  502    0  0.14027708389E+02 -0.21105700118E+02  0.68451141653E+02  0.72991684278E+02  0.00000000000E+00 0. -1.
         -1    1    1    2    0  501 -0.14027708389E+02  0.21105700118E+02  0.10332164188E+04  0.10335271623E+04  0.00000000000E+00 0.  1.
</event>
<event>
 4    1  0.6718357E+001  0.2328253E+02  0.7546771E-02  0.1488981E+00
          2   -1    0    0  502    0  0.00000000000E+00  0.00000000000E+00  0.94897080081E+03  0.94897080081E+03  0.00000000000E+00 0. -1.
         -2   -1    0    0    0  501 -0.00000000000E+00 -0.00000000000E+00 -0.59087801613E+00  0.59087801613E+00  0.00000000000E+00 0.  1.
          1    1    1    2  502    0  0.13392051108E+02 -0.19045454479E+02  0.56077697834E+03  0.56126009640E+03  0.00000000000E+00 0. -1.
         -1    1    1    2    0  501 -0.13392051108E+02  0.19045454479E+02  0.38760294445E+03  0.38830158243E+03  0.00000000000E+00 0.  1.
</event>
<event>
 4    1  0.6718357E+001  0.2826016E+02  0.7546771E-02  0.1435344E+00
          2   -1    0    0  502    0  0.00000000000E+00  0.00000000000E+00  0.66072271468E+03  0.66072271468E+03  0.00000000000E+00 0. -1.
         -2   -1    0    0    0  501 -0.00000000000E+00 -0.00000000000E+00 -0.19140340076E+01  0.19140340076E+01  0.00000000000E+00 0.  1.
          1    1    1    2  502    0  0.27994472768E+02  0.38660390409E+01  0.53052571183E+03  0.53127786296E+03  0.00000000000E+00 0. -1.
         -1    1    1    2    0  501 -0.27994472768E+02 -0.38660390409E+01  0.12828296885E+03  0.13135888573E+03  0.00000000000E+00 0.  1.
</event>
<event>
 4    1  0.6718357E+001  0.2529833E+02  0.7546771E-02  0.1465494E+00
          2   -1    0    0  502    0  0.00000000000E+00  0.00000000000E+00  0.15995363408E+04  0.15995363408E+04  0.00000000000E+00 0.  1.
         -2   -1    0    0    0  501 -0.00000000000E+00 -0.00000000000E+00 -0.65431194398E+00  0.65431194398E+00  0.00000000000E+00 0. -1.
          1    1    1    2  502    0  0.25130319305E+02  0.29107256332E+01  0.12981312287E+04  0.12983777155E+04  0.00000000000E+00 0.  1.
         -1    1    1    2    0  501 -0.25130319305E+02 -0.29107256332E+01  0.30075080013E+03  0.30181293718E+03  0.00000000000E+00 0. -1.
</event>
<event>
 4    1  0.6718357E+001  0.3393097E+02  0.7546771E-02  0.1388239E+00
          2   -1    0    0  502    0  0.00000000000E+00  0.00000000000E+00  0.31397243360E+02  0.31397243360E+02  0.00000000000E+00 0.  1.
         -2   -1    0    0    0  501 -0.00000000000E+00 -0.00000000000E+00 -0.41442009702E+02  0.41442009702E+02  0.00000000000E+00 0. -1.
          1    1    1    2  502    0  0.18819126455E+02 -0.28233861233E+02 -0.17381974405E+02  0.38124053757E+02  0.00000000000E+00 0. -1.
         -1    1    1    2    0  501 -0.18819126455E+02  0.28233861233E+02  0.73372080626E+01  0.34715199305E+02  0.00000000000E+00 0.  1.
</event>
<event>
 4    1  0.6718357E+001  0.3489908E+02  0.7546771E-02  0.1381274E+00
          2   -1    0    0  502    0  0.00000000000E+00  0.00000000000E+00  0.63981781627E+02  0.63981781627E+02  0.00000000000E+00 0.  1.
         -2   -1    0    0    0  501 -0.00000000000E+00 -0.00000000000E+00 -0.23362207826E+02  0.23362207826E+02  0.00000000000E+00 0. -1.
          1    1    1    2  502    0  0.33124018218E+02 -0.10988412548E+02  0.15162413398E+01  0.34932002248E+02  0.00000000000E+00 0.  1.
         -1    1    1    2    0  501 -0.33124018218E+02  0.10988412548E+02  0.39103332461E+02  0.52411987205E+02  0.00000000000E+00 0. -1.
</event>
<event>
 4    1  0.6718357E+001  0.3857281E+02  0.7546771E-02  0.1357058E+00
          2   -1    0    0  502    0  0.00000000000E+00  0.00000000000E+00  0.29802474112E+02  0.29802474112E+02  0.00000000000E+00 0. -1.
         -2   -1    0    0    0  501 -0.00000000000E+00 -0.00000000000E+00 -0.52772017083E+02  0.52772017083E+02  0.00000000000E+00 0.  1.
          1    1    1    2  502    0 -0.57496570677E+00  0.38568527595E+02 -0.21076065411E+02  0.43955232221E+02  0.00000000000E+00 0.  1.
         -1    1    1    2    0  501  0.57496570677E+00 -0.38568527595E+02 -0.18934775601E+01  0.38619258974E+02  0.00000000000E+00 0. -1.
</event>
<event>
 4    1  0.6718357E+001  0.3526426E+02  0.7546771E-02  0.1378715E+00
          2   -1    0    0  502    0  0.00000000000E+00  0.00000000000E+00  0.85179866993E+02  0.85179866993E+02  0.00000000000E+00 0. -1.
         -2   -1    0    0    0  501 -0.00000000000E+00 -0.00000000000E+00 -0.73766522379E+02  0.73766522379E+02  0.00000000000E+00 0.  1.
          1    1    1    2  502    0  0.30977826219E+02 -0.16850589102E+02  0.76882337827E+02  0.84584052516E+02  0.00000000000E+00 0. -1.
         -1    1    1    2    0  501 -0.30977826219E+02  0.16850589102E+02 -0.65468993213E+02  0.74362336856E+02  0.00000000000E+00 0.  1.
</event>
<event>
 4    1  0.6718357E+001  0.2113900E+02  0.7546771E-02  0.1517289E+00
          2   -1    0    0  502    0  0.00000000000E+00  0.00000000000E+00  0.18335625337E+03  0.18335625337E+03  0.00000000000E+00 0.  1.
         -2   -1    0    0    0  501 -0.00000000000E+00 -0.00000000000E+00 -0.31092222314E+01  0.31092222314E+01  0.00000000000E+00 0. -1.
          1    1    1    2  502    0  0.17247149320E+02 -0.12222647317E+02  0.13347132349E+03  0.13513493797E+03  0.00000000000E+00 0.  1.
         -1    1    1    2    0  501 -0.17247149320E+02  0.12222647317E+02  0.46775707649E+02  0.51330537628E+02  0.00000000000E+00 0. -1.
</event>
<event>
 4    1  0.6718357E+001  0.2336886E+02  0.7546771E-02  0.1487918E+00
          2   -1    0    0  502    0  0.00000000000E+00  0.00000000000E+00  0.87285576714E+00  0.87285576714E+00  0.00000000000E+00 0.  1.
         -2   -1    0    0    0  501 -0.00000000000E+00 -0.00000000000E+00 -0.63927309370E+03  0.63927309370E+03  0.00000000000E+00 0. -1.
          1    1    1    2  502    0 -0.16895384526E+02 -0.16144644755E+02 -0.36592183602E+03  0.36666727922E+03  0.00000000000E+00 0. -1.
         -1    1    1    2    0  501  0.16895384526E+02  0.16144644755E+02 -0.27247840192E+03  0.27347867025E+03  0.00000000000E+00 0.  1.
</event>
<event>
 4    1  0.6718357E+001  0.2332998E+02  0.7546771E-02  0.1488396E+00
          2   -1    0    0  502    0  0.00000000000E+00  0.00000000000E+00  0.33735544219E+02  0.33735544219E+02  0.00000000000E+00 0.  1.
         -2   -1    0    0    0  501 -0.00000000000E+00 -0.00000000000E+00 -0.16139241654E+02  0.16139241654E+02  0.00000000000E+00 0. -1.
          1    1    1    2  502    0 -0.16280049748E+02 -0.16710717857E+02  0.83472695001E+01  0.24778317522E+02  0.00000000000E+00 0. -1.
         -1    1    1    2    0  501  0.16280049748E+02  0.16710717857E+02  0.92490330648E+01  0.25096468352E+02  0.00000000000E+00 0.  1.
</event>
<event>
 4    1  0.6718357E+001  0.2644259E+02  0.7546771E-02  0.1453289E+00
          2   -1    0    0  502    0  0.00000000000E+00  0.00000000000E+00  0.18270489478E+04  0.18270489478E+04  0.00000000000E+00 0.  1.
         -2   -1    0    0    0  501 -0.00000000000E+00 -0.00000000000E+00 -0.50906543538E+00  0.50906543538E+00  0.00000000000E+00 0. -1.
          1    1    1    2  502    0 -0.48102802170E+01  0.26001383644E+02  0.13685402758E+04  0.13687957106E+04  0.00000000000E+00 0.  1.
         -1    1    1    2    0  501  0.48102802170E+01 -0.26001383644E+02  0.45799960655E+03  0.45876230266E+03  0.00000000000E+00 0. -1.
</event>
<event>
 4    1  0.6718357E+001  0.2050251E+02  0.7546771E-02  0.1526488E+00
          2   -1    0    0  502    0  0.00000000000E+00  0.00000000000E+00  0.18960763438E+04  0.18960763438E+04  0.00000000000E+00 0.  1.
         -2   -1    0    0    0  501 -0.00000000000E+00 -0.00000000000E+00 -0.22296414987E+00  0.22296414987E+00  0.00000000000E+00 0. -1.
          1    1    1    2  502    0 -0.65393948183E+00 -0.20492074150E+02  0.10194300936E+04  0.10196362432E+04  0.00000000000E+00 0.  1.
         -1    1    1    2    0  501  0.65393948183E+00  0.20492074150E+02  0.87642328604E+03  0.87666306473E+03  0.00000000000E+00 0. -1.
</event>
<event>
 4    1  0.6718357E+001  0.3006885E+02  0.7546771E-02  0.1418999E+00
          2   -1    0    0  502    0  0.00000000000E+00  0.00000000000E+00  0.87172155320E+02  0.87172155320E+02  0.00000000000E+00 0.  1.
         -2   -1    0    0    0  501 -0.00000000000E+00 -0.00000000000E+00 -0.10974480506E+02  0.10974480506E+02  0.00000000000E+00 0. -1.
          1    1    1    2  502    0  0.27687125930E+02 -0.11728545175E+02  0.49598426443E+02  0.58001203607E+02  0.00000000000E+00 0.  1.
         -1    1    1    2    0  501 -0.27687125930E+02  0.11728545175E+02  0.26599248371E+02  0.40145432219E+02  0.00000000000E+00 0. -1.
</event>
<event>
 4    1  0.6718357E+001  0.3640536E+02  0.7546771E-02  0.1370943E+00
          2   -1    0    0  502    0  0.00000000000E+00  0.00000000000E+00  0.11632020513E+03  0.11632020513E+03  0.00000000000E+00 0.  1.
         -2   -1    0    0    0  501 -0.00000000000E+00 -0.00000000000E+00 -0.13753046191E+02  0.13753046191E+02  0.00000000000E+00 0. -1.
          1    1    1    2  502    0  0.15408609693E+02 -0.32983705164E+02  0.24347856421E+02  0.43796896823E+02  0.00000000000E+00 0.  1.
         -1    1    1    2    0  501 -0.15408609693E+02  0.32983705164E+02  0.78219302521E+02  0.86276354501E+02  0.00000000000E+00 0. -1.
</event>
<event>
 4    1  0.6718357E+001  0.2086071E+02  0.7546771E-02  0.1521263E+00
          2   -1    0    0  502    0  0.00000000000E+00  0.00000000000E+00  0.45825946154E+03  0.45825946154E+03  0.00000000000E+00 0. -1.
         -2   -1    0    0    0  501 -0.00000000000E+00 -0.00000000000E+00 -0.12971563641E+01  0.12971563641E+01  0.00000000000E+00 0.  1.
          1    1    1    2  502    0  0.17936196801E+02  0.10651863937E+02  0.10954412920E+03  0.11151271499E+03  0.00000000000E+00 0.  1.
         -1    1    1    2    0  501 -0.17936196801E+02 -0.10651863937E+02  0.34741817598E+03  0.34804390292E+03  0.00000000000E+00 0. -1.
</event>
<event>
 4    1  0.6718357E+001  0.3981838E+02  0.7546771E-02  0.1349553E+00
          2   -1    0    0  502    0  0.00000000000E+00  0.00000000000E+00  0.31329082280E+03  0.31329082280E+03  0.00000000000E+00 0.  1.
         -2   -1    0    0    0  501 -0.00000000000E+00 -0.00000000000E+00 -0.20461105370E+02  0.20461105370E+02  0.00000000000E+00 0. -1.
          1    1    1    2  502    0 -0.29538232812E+02 -0.26701995470E+02  0.29118994673E+03  0.29389979387E+03  0.00000000000E+00 0.  1.
         -1    1    1    2    0  501  0.29538232812E+02  0.26701995470E+02  0.16397706922E+01  0.39852134293E+02  0.00000000000E+00 0. -1.
</event>
<event>
 4    1  0.6718357E+001  0.6053720E+02  0.7546771E-02  0.1258018E+00
          2   -1    0    0  502    0  0.00000000000E+00  0.00000000000E+00  0.21197017160E+03  0.21197017160E+03  0.00000000000E+00 0. -1.
         -2   -1    0    0    0  501 -0.00000000000E+00 -0.00000000000E+00 -0.28417732362E+02  0.28417732362E+02  0.00000000000E+00 0.  1.
          1    1    1    2  502    0  0.46607563991E+02  0.38632728627E+02  0.16699230263E+03  0.17762652358E+03  0.00000000000E+00 0. -1.
         -1    1    1    2    0  501 -0.46607563991E+02 -0.38632728627E+02  0.16560136606E+02  0.62761380376E+02  0.00000000000E+00 0.  1.
</event>
<event>
 4    1  0.6718357E+001  0.2130605E+02  0.7546771E-02  0.1514940E+00
          2   -1    0    0  502    0  0.00000000000E+00  0.00000000000E+00  0.11954098109E+04  0.11954098109E+04  0.00000000000E+00 0.  1.
         -2   -1    0    0    0  501 -0.00000000000E+00 -0.00000000000E+00 -0.37974308185E+00  0.37974308185E+00  0.00000000000E+00 0. -1.
          1    1    1    2  502    0 -0.20679436264E+02  0.51291832464E+01  0.59662731526E+03  0.59700762216E+03  0.00000000000E+00 0. -1.
         -1    1    1    2    0  501  0.20679436264E+02 -0.51291832464E+01  0.59840275256E+03  0.59878193183E+03  0.00000000000E+00 0.  1.
</event>
<event>
 4    1  0.6718357E+001  0.2404013E+02  0.7546771E-02  0.1479835E+00
          2   -1    0    0  502    0  0.00000000000E+00  0.00000000000E+00  0.18918596474E+04  0.18918596474E+04  0.00000000000E+00 0.  1.
         -2   -1    0    0    0  501 -0.00000000000E+00 -0.00000000000E+00 -0.33192751349E+00  0.33192751349E+00  0.00000000000E+00 0. -1.
          1    1    1    2  502    0  0.24035684405E+02 -0.46218128744E+00  0.12128155112E+04  0.12130537465E+04  0.00000000000E+00 0. -1.
         -1    1    1    2    0  501 -0.24035684405E+02  0.46218128744E+00  0.67871220873E+03  0.67913782844E+03  0.00000000000E+00 0.  1.
</event>
<event>
 4    1  0.6718357E+001  0.2034944E+02  0.7546771E-02  0.1528759E+00
          2   -1    0    0  502    0  0.00000000000E+00  0.00000000000E+00  0.14034119790E+02  0.14034119790E+02  0.00000000000E+00 0. -1.
         -2   -1    0    0    0  501 -0.00000000000E+00 -0.00000000000E+00 -0.30822955170E+02  0.30822955170E+02  0.00000000000E+00 0.  1.
          1    1    1    2  502    0  0.19787912773E+01 -0.20253000714E+02 -0.37594730163E+01  0.20693798351E+02  0.00000000000E+00 0. -1.
         -1    1    1    2    0  501 -0.19787912773E+01  0.20253000714E+02 -0.13029362364E+02  0.24163276608E+02  0.00000000000E+00 0.  1.
</event>
<event>
 4    1  0.6718357E+001  0.2757739E+02  0.7546771E-02  0.1441893E+00
          2   -1    0    0  502    0  0.00000000000E+00  0.00000000000E+00  0.36851866368E+01  0.36851866368E+01  0.00000000000E+00 0.  1.
         -2   -1    0    0    0  501 -0.00000000000E+00 -0.00000000000E+00 -0.25546840123E+03  0.25546840123E+03  0.00000000000E+00 0. -1.
          1    1    1    2  502    0 -0.59585346024E+01 -0.26925981348E+02 -0.69085956145E+02  0.74386705416E+02  0.00000000000E+00 0. -1.
         -1    1    1    2    0  501  0.59585346024E+01  0.26925981348E+02 -0.18269725845E+03  0.18476688245E+03  0.00000000000E+00 0.  1.
</event>
<event>
 4    1  0.6718357E+001  0.3303427E+02  0.7546771E-02  0.1394936E+00
          2   -1    0    0  502    0  0.00000000000E+00  0.00000000000E+00  0.58069733662E+03  0.58069733662E+03  0.00000000000E+00 0.  1.
         -2   -1    0    0    0  501 -0.00000000000E+00 -0.00000000000E+00 -0.24018660394E+01  0.24018660394E+01  0.00000000000E+00 0. -1.
          1    1    1    2  502    0 -0.24351071765E+02 -0.22322374415E+02  0.15314793141E+03  0.15667020135E+03  0.00000000000E+00 0. -1.
         -1    1    1    2    0  501  0.24351071765E+02  0.22322374415E+02  0.42514753917E+03  0.42642900131E+03  0.00000000000E+00 0.  1.
</event>
<event>
 4    1  0.6718357E+001  0.2589540E+02  0.7546771E-02  0.1459031E+00
          2   -1    0    0  502    0  0.00000000000E+00  0.00000000000E+00  0.16915144899E+01  0.16915144899E+01  0.00000000000E+00 0.  1.
         -2   -1    0    0    0  501 -0.00000000000E+00 -0.00000000000E+00 -0.40205354078E+03  0.40205354078E+03  0.00000000000E+00 0. -1.
          1    1    1    2  502    0 -0.75850112440E+01 -0.24759627968E+02 -0.17631181515E+03  0.17820333255E+03  0.00000000000E+00 0.  1.
         -1    1    1    2    0  501  0.75850112440E+01  0.24759627968E+02 -0.22405021115E+03  0.22554172272E+03  0.00000000000E+00 0. -1.
</event>
<event>
 4    1  0.6718357E+001  0.2692927E+02  0.7546771E-02  0.1448320E+00
          2   -1    0    0  502    0  0.00000000000E+00  0.00000000000E+00  0.54589037403E+01  0.54589037403E+01  0.00000000000E+00 0. -1.
         -2   -1    0    0    0  501 -0.00000000000E+00 -0.00000000000E+00 -0.39837080789E+03  0.39837080789E+03  0.00000000000E+00 0.  1.
          1    1    1    2  502    0  0.10986071554E+02 -0.24586417527E+02 -0.31610016056E+02  0.41525640393E+02  0.00000000000E+00 0. -1.
         -1    1    1    2    0  501 -0.10986071554E+02  0.24586417527E+02 -0.36130188809E+03  0.36230407124E+03  0.00000000000E+00 0.  1.
</event>
<event>
 4    1  0.6718357E+001  0.2113023E+02  0.7546771E-02  0.1517414E+00
          2   -1    0    0  502    0  0.00000000000E+00  0.00000000000E+00  0.61228111543E+02  0.61228111543E+02  0.00000000000E+00 0. -1.
         -2   -1    0    0    0  501 -0.00000000000E+00 -0.00000000000E+00 -0.81072508433E+01  0.81072508433E+01  0.00000000000E+00 0.  1.
          1    1    1    2  502    0 -0.20708623881E+02 -0.41999452190E+01  0.37552631228E+02  0.43089288170E+02  0.00000000000E+00 0. -1.
         -1    1    1    2    0  501  0.20708623881E+02  0.41999452190E+01  0.15568229472E+02  0.26246074216E+02  0.00000000000E+00 0.  1.
</event>
<event>
 4    1  0.6718357E+001  0.3002318E+02  0.7546771E-02  0.1419395E+00
          2   -1    0    0  502    0  0.00000000000E+00  0.00000000000E+00  0.65950969724E+02  0.65950969724E+02  0.00000000000E+00 0. -1.
         -2   -1    0    0    0  501 -0.00000000000E+00 -0.00000000000E+00 -0.17301561959E+02  0.17301561959E+02  0.00000000000E+00 0.  1.
          1    1    1    2  502    0 -0.24224268052E+02 -0.17736287786E+02  0.52474721932E+01  0.30478304276E+02  0.00000000000E+00 0.  1.
         -1    1    1    2    0  501  0.24224268052E+02  0.17736287786E+02  0.43401935571E+02  0.52774227407E+02  0.00000000000E+00 0. -1.
</event>
<event>
 4    1  0.6718357E+001  0.3064053E+02  0.7546771E-02  0.1414110E+00
          2   -1    0    0  502    0  0.00000000000E+00  0.00000000000E+00  0.16267948512E+01  0.16267948512E+01  0.00000000000E+00 0.  1.
         -2   -1    0    0    0  501 -0.00000000000E+00 -0.00000000000E+00 -0.57711213759E+03  0.57711213759E+03  0.00000000000E+00 0. -1.
          1    1    1    2  502    0 -0.19860266152E+02  0.23332632207E+02 -0.28742148410E+03  0.28905008462E+03  0.00000000000E+00 0. -1.
         -1    1    1    2    0  501  0.19860266152E+02 -0.23332632207E+02 -0.28806385864E+03  0.28968884783E+03  0.00000000000E+00 0.  1.
</event>
<event>
 4    1  0.6718357E+001  0.3106532E+02  0.7546771E-02  0.1410559E+00
          2   -1    0    0  502    0  0.00000000000E+00  0.00000000000E+00  0.44255931080E+01  0.44255931080E+01  0.00000000000E+00 0. -1.
         -2   -1    0    0    0  501 -0.00000000000E+00 -0.00000000000E+00 -0.29850054961E+03  0.29850054961E+03  0.00000000000E+00 0.  1.
          1    1    1    2  502    0 -0.29109435848E+02  0.10848719178E+02 -0.22566347012E+03  0.22779169368E+03  0.00000000000E+00 0.  1.
         -1    1    1    2    0  501  0.29109435848E+02 -0.10848719178E+02 -0.68411486380E+02  0.75134449036E+02  0.00000000000E+00 0. -1.
</event>
<event>
 4    1  0.6718357E+001  0.2779723E+02  0.7546771E-02  0.1439760E+00
          2   -1    0    0  502    0  0.00000000000E+00  0.00000000000E+00  0.73528866973E+01  0.73528866973E+01  0.00000000000E+00 0. -1.
         -2   -1    0    0    0  501 -0.00000000000E+00 -0.00000000000E+00 -0.10651725269E+03  0.10651725269E+03  0.00000000000E+00 0.  1.
          1    1    1    2  502    0  0.18939191876E+02 -0.20346816915E+02 -0.56181785854E+02  0.62682366015E+02  0.00000000000E+00 0. -1.
         -1    1    1    2    0  501 -0.18939191876E+02  0.20346816915E+02 -0.42982580140E+02  0.51187773374E+02  0.00000000000E+00 0.  1.
</event>
<event>
 4    1  0.6718357E+001  0.2513983E+02  0.7546771E-02  0.1467245E+00
          2   -1    0    0  502    0  0.00000000000E+00  0.00000000000E+00  0.46425417290E+01  0.46425417290E+01  0.00000000000E+00 0.  1.
         -2   -1    0    0    0  501 -0.00000000000E+00 -0.00000000000E+00 -0.14510022853E+03  0.14510022853E+03  0.00000000000E+00 0. -1.
          1    1    1    2  502    0  0.65178483834E+01  0.24280213167E+02 -0.51617857307E+02  0.57414408400E+02  0.00000000000E+00 0. -1.
         -1    1    1    2    0  501 -0.65178483834E+01 -0.24280213167E+02 -0.88839829490E+02  0.92328361855E+02  0.00000000000E+00 0.  1.
</event>
<event>
 4    1  0.6718357E+001  0.3447869E+02  0.7546771E-02  0.1384266E+00
          2   -1    0    0  502    0  0.00000000000E+00  0.00000000000E+00  0.31965624423E+03  0.31965624423E+03  0.00000000000E+00 0.  1.
         -2   -1    0    0    0  501 -0.00000000000E+00 -0.00000000000E+00 -0.37628730516E+01  0.37628730516E+01  0.00000000000E+00 0. -1.
          1    1    1    2  502    0 -0.17282414379E+02  0.29834517381E+02  0.17542116931E+03  0.17877742284E+03  0.00000000000E+00 0. -1.
         -1    1    1    2    0  501  0.17282414379E+02 -0.29834517381E+02  0.14047220187E+03  0.14464169445E+03  0.00000000000E+00 0.  1.
</event>
<event>
 4    1  0.6718357E+001  0.3919302E+02  0.7546771E-02  0.1353281E+00
          2   -1    0    0  502    0  0.00000000000E+00  0.00000000000E+00  0.92103268775E+01  0.92103268775E+01  0.00000000000E+00 0.  1.
         -2   -1    0    0    0  501 -0.00000000000E+00 -0.00000000000E+00 -0.17173369463E+03  0.17173369463E+03  0.00000000000E+00 0. -1.
          1    1    1    2  502    0 -0.39129139330E+02 -0.22368513210E+01 -0.96628226789E+02  0.10427419269E+03  0.00000000000E+00 0. -1.
         -1    1    1    2    0  501  0.39129139330E+02  0.22368513210E+01 -0.65895140969E+02  0.76669828824E+02  0.00000000000E+00 0.  1.
</event>
<event>
 4    1  0.6718357E+001  0.2974555E+02  0.7546771E-02  0.1421821E+00
          2   -1    0    0  502    0  0.00000000000E+00  0.00000000000E+00  0.59135742263E+02  0.59135742263E+02  0.00000000000E+00 0. -1.
         -2   -1    0    0    0  501 -0.00000000000E+00 -0.00000000000E+00 -0.17137939066E+02  0.17137939066E+02  0.00000000000E+00 0.  1.
          1    1    1    2  502    0 -0.12889006888E+02  0.26808041216E+02  0.74103154515E+01  0.30654695358E+02  0.00000000000E+00 0. -1.
         -1    1    1    2    0  501  0.12889006888E+02 -0.26808041216E+02  0.34587487746E+02  0.45618985971E+02  0.00000000000E+00 0.  1.
</event>
<event>
 4    1  0.6718357E+001  0.2283773E+02  0.7546771E-02  0.1494546E+00
          2   -1    0    0  502    0  0.00000000000E+00  0.00000000000E+00  0.34889748263E+02  0.34889748263E+02  0.00000000000E+00 0. -1.
         -2   -1    0    0    0  501 -0.00000000000E+00 -0.00000000000E+00 -0.19704378277E+02  0.19704378277E+02  0.00000000000E+00 0.  1.
          1    1    1    2  502    0  0.22118251881E+02 -0.56872656699E+01  0.21002826531E+02  0.31027097501E+02  0.00000000000E+00 0. -1.
         -1    1    1    2    0  501 -0.22118251881E+02  0.56872656699E+01 -0.58174565461E+01  0.23567029039E+02  0.00000000000E+00 0.  1.
</event>
<event>
 4    1  0.6718357E+001  0.3715192E+02  0.7546771E-02  0.1366035E+00
          2   -1    0    0  502    0  0.00000000000E+00  0.00000000000E+00  0.14778839708E+03  0.14778839708E+03  0.00000000000E+00 0.  1.
         -2   -1    0    0    0  501 -0.00000000000E+00 -0.00000000000E+00 -0.96748895981E+01  0.96748895981E+01  0.00000000000E+00 0. -1.
          1    1    1    2  502    0  0.31952903463E+02 -0.18954605525E+02  0.54397179432E+02  0.65873501808E+02  0.00000000000E+00 0.  1.
         -1    1    1    2    0  501 -0.31952903463E+02  0.18954605525E+02  0.83716328047E+02  0.91589784867E+02  0.00000000000E+00 0. -1.
</event>
<event>
 4    1  0.6718357E+001  0.4067039E+02  0.7546771E-02  0.1344602E+00
          2   -1    0    0  502    0  0.00000000000E+00  0.00000000000E+00  0.89189883160E+03  0.89189883160E+03  0.00000000000E+00 0.  1.
         -2   -1    0    0    0  501 -0.00000000000E+00 -0.00000000000E+00 -0.19970278753E+01  0.19970278753E+01  0.00000000000E+00 0. -1.
          1    1    1    2  502    0  0.75771013340E+01  0.39958328971E+02  0.56432834636E+03  0.56579197858E+03  0.00000000000E+00 0.  1.
         -1    1    1    2    0  501 -0.75771013340E+01 -0.39958328971E+02  0.32557345736E+03  0.32810388089E+03  0.00000000000E+00 0. -1.
</event>
<event>
 4    1  0.6718357E+001  0.2002669E+02  0.7546771E-02  0.1533628E+00
          2   -1    0    0  502    0  0.00000000000E+00  0.00000000000E+00  0.58682195758E+02  0.58682195758E+02  0.00000000000E+00 0. -1.
         -2   -1    0    0    0  501 -0.00000000000E+00 -0.00000000000E+00 -0.70243498853E+01  0.70243498853E+01  0.00000000000E+00 0.  1.
          1    1    1    2  502    0  0.19182227098E+02  0.57541848888E+01  0.31228789222E+02  0.37098595073E+02  0.00000000000E+00 0. -1.
         -1    1    1    2    0  501 -0.19182227098E+02 -0.57541848888E+01  0.20429056650E+02  0.28607950569E+02  0.00000000000E+00 0.  1.
</event>
<event>
 4    1  0.6718357E+001  0.2375200E+02  0.7546771E-02  0.1483265E+00
          2   -1    0    0  502    0  0.00000000000E+00  0.00000000000E+00  0.12510371207E+04  0.12510371207E+04  0.00000000000E+00 0. -1.
         -2   -1    0    0    0  501 -0.00000000000E+00 -0.00000000000E+00 -0.46027363168E+00  0.46027363168E+00  0.00000000000E+00 0.  1.
          1    1    1    2  502    0  0.23729973118E+02 -0.10226160637E+01  0.53623637658E+03  0.53676215304E+03  0.00000000000E+00 0.  1.
         -1    1    1    2    0  501 -0.23729973118E+02  0.10226160637E+01  0.71434047053E+03  0.71473524133E+03  0.00000000000E+00 0. -1.
</event>
<event>
 4    1  0.6718357E+001  0.2548546E+02  0.7546771E-02  0.1463445E+00
          2   -1    0    0  502    0  0.00000000000E+00  0.00000000000E+00  0.14759967615E+04  0.14759967615E+04  0.00000000000E+00 0. -1.
         -2   -1    0    0    0  501 -0.00000000000E+00 -0.00000000000E+00 -0.55946871163E+00  0.55946871163E+00  0.00000000000E+00 0.  1.
          1    1    1    2  502    0  0.23405052948E+02 -0.10085252457E+02  0.10788115329E+04  0.10791125207E+04  0.00000000000E+00 0. -1.
         -1    1    1    2    0  501 -0.23405052948E+02  0.10085252457E+02  0.39662575985E+03  0.39744370947E+03  0.00000000000E+00 0.  1.
</event>
<event>
 4    1  0.6718357E+001  0.3347788E+02  0.7546771E-02  0.1391592E+00
          2   -1    0    0  502    0  0.00000000000E+00  0.00000000000E+00  0.39278089613E+02  0.39278089613E+02  0.00000000000E+00 0.  1.
         -2   -1    0    0    0  501 -0.00000000000E+00 -0.00000000000E+00 -0.35766235205E+02  0.35766235205E+02  0.00000000000E+00 0. -1.
          1    1    1    2  502    0 -0.28181030545E+02  0.18072021927E+02 -0.15116665407E+02  0.36732574537E+02  0.00000000000E+00 0. -1.
         -1    1    1    2    0  501  0.28181030545E+02 -0.18072021927E+02  0.18628519815E+02  0.38311750281E+02  0.00000000000E+00 0.  1.
</event>
<event>
 4    1  0.6718357E+001  0.2160304E+02  0.7546771E-02  0.1510826E+00
          2   -1    0    0  502    0  0.00000000000E+00  0.00000000000E+00  0.15505088022E+02  0.15505088022E+02  0.00000000000E+00 0.  1.
         -2   -1    0    0    0  501 -0.00000000000E+00 -0.00000000000E+00 -0.30221069380E+02  0.30221069380E+02  0.00000000000E+00 0. -1.
          1    1    1    2  502    0  0.20516597359E+02  0.67646700258E+01 -0.88095579651E+01  0.23330234446E+02  0.00000000000E+00 0.  1.
         -1    1    1    2    0  501 -0.20516597359E+02 -0.67646700258E+01 -0.59064233930E+01  0.22395922956E+02  0.00000000000E+00 0. -1.
</event>
<event>
 4    1  0.6718357E+001  0.7801230E+02  0.7546771E-02  0.1208539E+00
          2   -1    0    0  502    0  0.00000000000E+00  0.00000000000E+00  0.62411460653E+03  0.62411460653E+03  0.00000000000E+00 0. -1.
         -2   -1    0    0    0  501 -0.00000000000E+00 -0.00000000000E+00 -0.97596342984E+01  0.97596342984E+01  0.00000000000E+00 0.  1.
          1    1    1    2  502    0 -0.64067767558E+02 -0.44511125800E+02  0.29790723767E+03  0.30795233627E+03  0.00000000000E+00 0. -1.
         -1    1    1    2    0  501  0.64067767558E+02  0.44511125800E+02  0.31644773456E+03  0.32592190455E+03  0.00000000000E+00 0.  1.
</event>
<event>
 4    1  0.6718357E+001  0.2171710E+02  0.7546771E-02  0.1509268E+00
          2   -1    0    0  502    0  0.00000000000E+00  0.00000000000E+00  0.98850269432E+01  0.98850269432E+01  0.00000000000E+00 0.  1.
         -2   -1    0    0    0  501 -0.00000000000E+00 -0.00000000000E+00 -0.48341005090E+02  0.48341005090E+02  0.00000000000E+00 0. -1.
          1    1    1    2  502    0 -0.10926373026E+02  0.18768239660E+02 -0.22549416857E+02  0.31306686954E+02  0.00000000000E+00 0. -1.
         -1    1    1    2    0  501  0.10926373026E+02 -0.18768239660E+02 -0.15906561289E+02  0.26919345079E+02  0.00000000000E+00 0.  1.
</event>
<event>
 4    1  0.6718357E+001  0.2255565E+02  0.7546771E-02  0.1498154E+00
          2   -1    0    0  502    0  0.00000000000E+00  0.00000000000E+00  0.46006131677E+03  0.46006131677E+03  0.00000000000E+00 0. -1.
         -2   -1    0    0    0  501 -0.00000000000E+00 -0.00000000000E+00 -0.11224567899E+01  0.11224567899E+01  0.00000000000E+00 0.  1.
          1    1    1    2  502    0  0.18223578606E+02 -0.13291299276E+02  0.25751992430E+03  0.25850583913E+03  0.00000000000E+00 0.  1.
         -1    1    1    2    0  501 -0.18223578606E+02  0.13291299276E+02  0.20141893568E+03  0.20267793443E+03  0.00000000000E+00 0. -1.
</event>
<event>
 4    1  0.6718357E+001  0.2824835E+02  0.7546771E-02  0.1435456E+00
          2   -1    0    0  502    0  0.00000000000E+00  0.00000000000E+00  0.19943845619E+03  0.19943845619E+03  0.00000000000E+00 0.  1.
         -2   -1    0    0    0  501 -0.00000000000E+00 -0.00000000000E+00 -0.40082731755E+01  0.40082731755E+01  0.00000000000E+00 0. -1.
          1    1    1    2  502    0 -0.25300326746E+02 -0.12564336271E+02  0.10202455709E+03  0.10586302154E+03  0.00000000000E+00 0. -1.
         -1    1    1    2    0  501  0.25300326746E+02  0.12564336271E+02  0.93405625919E+02  0.97583707824E+02  0.00000000000E+00 0.  1.
</event>
<event>
 4    1  0.6718357E+001  0.4304263E+02  0.7546771E-02  0.1331523E+00
          2   -1    0    0  502    0  0.00000000000E+00  0.00000000000E+00  0.74581288382E+03  0.74581288382E+03  0.00000000000E+00 0.  1.
         -2   -1    0    0    0  501 -0.00000000000E+00 -0.00000000000E+00 -0.31387446741E+01  0.31387446741E+01  0.00000000000E+00 0. -1.
          1    1    1    2  502    0 -0.33685549041E+02  0.26794626251E+02  0.54235871407E+03  0.54406400629E+03  0.00000000000E+00 0.  1.
         -1    1    1    2    0  501  0.33685549041E+02 -0.26794626251E+02  0.20031542508E+03  0.20488762221E+03  0.00000000000E+00 0. -1.
</event>
<event>
 4    1  0.6718357E+001  0.2383266E+02  0.7546771E-02  0.1482299E+00
          2   -1    0    0  502    0  0.00000000000E+00  0.00000000000E+00  0.66028830482E+03  0.66028830482E+03  0.00000000000E+00 0.  1.
         -2   -1    0    0    0  501 -0.00000000000E+00 -0.00000000000E+00 -0.91020733132E+00  0.91020733132E+00  0.00000000000E+00 0. -1.
          1    1    1    2  502    0 -0.34481795819E+01 -0.23581889817E+02  0.25221668864E+03  0.25334019322E+03  0.00000000000E+00 0.  1.
         -1    1    1    2    0  501  0.34481795819E+01  0.23581889817E+02  0.40716140885E+03  0.40785831894E+03  0.00000000000E+00 0. -1.
</event>
<event>
 4    1  0.6718357E+001  0.2925599E+02  0.7546771E-02  0.1426174E+00
          2   -1    0    0  502    0  0.00000000000E+00  0.00000000000E+00  0.14405549477E+03  0.14405549477E+03  0.00000000000E+00 0.  1.
         -2   -1    0    0    0  501 -0.00000000000E+00 -0.00000000000E+00 -0.12116288815E+02  0.12116288815E+02  0.00000000000E+00 0. -1.
          1    1    1    2  502    0  0.17201343669E+02  0.23664889279E+02  0.12171345715E+03  0.12518018557E+03  0.00000000000E+00 0.  1.
         -1    1    1    2    0  501 -0.17201343669E+02 -0.23664889279E+02  0.10225748802E+02  0.30991598009E+02  0.00000000000E+00 0. -1.
</event>
<event>
 4    1  0.6718357E+001  0.5919679E+02  0.7546771E-02  0.1262586E+00
          2   -1    0    0  502    0  0.00000000000E+00  0.00000000000E+00  0.96605173709E+03  0.96605173709E+03  0.00000000000E+00 0. -1.
         -2   -1    0    0    0  501 -0.00000000000E+00 -0.00000000000E+00 -0.38666561059E+01  0.38666561059E+01  0.00000000000E+00 0.  1.
          1    1    1    2  502    0  0.49988837624E+02  0.31707664626E+02  0.36045975420E+03  0.36528823452E+03  0.00000000000E+00 0.  1.
         -1    1    1    2    0  501 -0.49988837624E+02 -0.31707664626E+02  0.60172532679E+03  0.60463015868E+03  0.00000000000E+00 0. -1.
</event>
<event>
 4    1  0.6718357E+001  0.2260635E+02  0.7546771E-02  0.1497501E+00
          2   -1    0    0  502    0  0.00000000000E+00  0.00000000000E+00  0.20933596322E+01  0.20933596322E+01  0.00000000000E+00 0.  1.
         -2   -1    0    0    0  501 -0.00000000000E+00 -0.00000000000E+00 -0.25834923763E+03  0.25834923763E+03  0.00000000000E+00 0. -1.
          1    1    1    2  502    0 -0.18335924704E+02 -0.13222739445E+02 -0.15868083838E+03  0.16028304789E+03  0.00000000000E+00 0. -1.
         -1    1    1    2    0  501  0.18335924704E+02  0.13222739445E+02 -0.97575039613E+02  0.10015954936E+03  0.00000000000E+00 0.  1.
</event>
<event>
 4    1  0.6718357E+001  0.2064123E+02  0.7546771E-02  0.1524449E+00
          2   -1    0    0  502    0  0.00000000000E+00  0.00000000000E+00  0.35536899083E+03  0.35536899083E+03  0.00000000000E+00 0. -1.
         -2   -1    0    0    0  501 -0.00000000000E+00 -0.00000000000E+00 -0.12704058147E+01  0.12704058147E+01  0.00000000000E+00 0.  1.
          1    1    1    2  502    0  0.20015671081E+02  0.50431399765E+01  0.13475065273E+03  0.13632240740E+03  0.00000000000E+00 0.  1.
         -1    1    1    2    0  501 -0.20015671081E+02 -0.50431399765E+01  0.21934793229E+03  0.22031698924E+03  0.00000000000E+00 0. -1.
</event>
<event>
 4    1  0.6718357E+001  0.2295406E+02  0.7546771E-02  0.1493076E+00
          2   -1    0    0  502    0  0.00000000000E+00  0.00000000000E+00  0.59875010801E+03  0.59875010801E+03  0.00000000000E+00 0. -1.
         -2   -1    0    0    0  501 -0.00000000000E+00 -0.00000000000E+00 -0.88293420494E+00  0.88293420494E+00  0.00000000000E+00 0.  1.
          1    1    1    2  502    0  0.20283703261E+02  0.10745242697E+02  0.31627246579E+03  0.31710433847E+03  0.00000000000E+00 0. -1.
         -1    1    1    2    0  501 -0.20283703261E+02 -0.10745242697E+02  0.28159470802E+03  0.28252870375E+03  0.00000000000E+00 0.  1.
</event>
<event>
 4    1  0.6718357E+001  0.2264276E+02  0.7546771E-02  0.1497033E+00
          2   -1    0    0  502    0  0.00000000000E+00  0.00000000000E+00  0.96386242960E+03  0.96386242960E+03  0.00000000000E+00 0.  1.
         -2   -1    0    0    0  501 -0.00000000000E+00 -0.00000000000E+00 -0.58669526468E+00  0.58669526468E+00  0.00000000000E+00 0. -1.
          1    1    1    2  502    0 -0.46061387661E+00 -0.22638073513E+02  0.62898724280E+03  0.62939466644E+03  0.00000000000E+00 0.  1.
         -1    1    1    2    0  501  0.46061387661E+00  0.22638073513E+02  0.33428849154E+03  0.33505445843E+03  0.00000000000E+00 0. -1.
</event>
<event>
 4    1  0.6718357E+001  0.2144787E+02  0.7546771E-02  0.1512966E+00
          2   -1    0    0  502    0  0.00000000000E+00  0.00000000000E+00  0.12452362428E+01  0.12452362428E+01  0.00000000000E+00 0.  1.
         -2   -1    0    0    0  501 -0.00000000000E+00 -0.00000000000E+00 -0.37399370381E+03  0.37399370381E+03  0.00000000000E+00 0. -1.
          1    1    1    2  502    0  0.18876253043E+02  0.10183229067E+02 -0.16561861677E+03  0.16700160868E+03  0.00000000000E+00 0.  1.
         -1    1    1    2    0  501 -0.18876253043E+02 -0.10183229067E+02 -0.20712985080E+03  0.20823733137E+03  0.00000000000E+00 0. -1.
</event>
<event>
 4    1  0.6718357E+001  0.2226635E+02  0.7546771E-02  0.1501922E+00
          2   -1    0    0  502    0  0.00000000000E+00  0.00000000000E+00  0.51731997667E+01  0.51731997667E+01  0.00000000000E+00 0.  1.
         -2   -1    0    0    0  501 -0.00000000000E+00 -0.00000000000E+00 -0.15701165563E+03  0.15701165563E+03  0.00000000000E+00 0. -1.
          1    1    1    2  502    0 -0.18306818430E+02 -0.12674813532E+02 -0.12653613753E+03  0.12848028876E+03  0.00000000000E+00 0. -1.
         -1    1    1    2    0  501  0.18306818430E+02  0.12674813532E+02 -0.25302318336E+02  0.33704566638E+02  0.00000000000E+00 0.  1.
</event>
<event>
 4    1  0.6718357E+001  0.2827345E+02  0.7546771E-02  0.1435219E+00
          2   -1    0    0  502    0  0.00000000000E+00  0.00000000000E+00  0.20202497295E+03  0.20202497295E+03  0.00000000000E+00 0.  1.
         -2   -1    0    0    0  501 -0.00000000000E+00 -0.00000000000E+00 -0.65585424077E+01  0.65585424077E+01  0.00000000000E+00 0. -1.
          1    1    1    2  502    0  0.17348377836E+02 -0.22325359659E+02  0.16341910277E+03  0.16584689037E+03  0.00000000000E+00 0.  1.
         -1    1    1    2    0  501 -0.17348377836E+02  0.22325359659E+02  0.32047327772E+02  0.42736624981E+02  0.00000000000E+00 0. -1.
</event>
<event>
 4    1  0.6718357E+001  0.2046233E+02  0.7546771E-02  0.1527082E+00
          2   -1    0    0  502    0  0.00000000000E+00  0.00000000000E+00  0.22724493851E+03  0.22724493851E+03  0.00000000000E+00 0.  1.
         -2   -1    0    0    0  501 -0.00000000000E+00 -0.00000000000E+00 -0.23386483591E+01  0.23386483591E+01  0.00000000000E+00 0. -1.
          1    1    1    2  502    0 -0.18608408598E+02  0.85108271787E+01  0.16532423543E+03  0.16658574329E+03  0.00000000000E+00 0.  1.
         -1    1    1    2    0  501  0.18608408598E+02 -0.85108271787E+01  0.59582054727E+02  0.62997843577E+02  0.00000000000E+00 0. -1.
</event>
<event>
 4    1  0.6718357E+001  0.3927367E+02  0.7546771E-02  0.1352795E+00
          2   -1    0    0  502    0  0.00000000000E+00  0.00000000000E+00  0.14059629865E+03  0.14059629865E+03  0.00000000000E+00 0.  1.
         -2   -1    0    0    0  501 -0.00000000000E+00 -0.00000000000E+00 -0.31815992888E+02  0.31815992888E+02  0.00000000000E+00 0. -1.
          1    1    1    2  502    0 -0.25748806368E+02  0.29655012980E+02  0.12416853501E+03  0.13023150890E+03  0.00000000000E+00 0.  1.
         -1    1    1    2    0  501  0.25748806368E+02 -0.29655012980E+02 -0.15388229250E+02  0.42180782635E+02  0.00000000000E+00 0. -1.
</event>
<event>
 4    1  0.6718357E+001  0.2060113E+02  0.7546771E-02  0.1525037E+00
          2   -1    0    0  502    0  0.00000000000E+00  0.00000000000E+00  0.19002550615E+02  0.19002550615E+02  0.00000000000E+00 0. -1.
         -2   -1    0    0    0  501 -0.00000000000E+00 -0.00000000000E+00 -0.26888076579E+02  0.26888076579E+02  0.00000000000E+00 0.  1.
          1    1    1    2  502    0  0.17744174396E+02 -0.10466644799E+02 -0.13385670364E+02  0.24567917076E+02  0.00000000000E+00 0.  1.
         -1    1    1    2    0  501 -0.17744174396E+02  0.10466644799E+02  0.55001444003E+01  0.21322710118E+02  0.00000000000E+00 0. -1.
</event>
<event>
 4    1  0.6718357E+001  0.3593662E+02  0.7546771E-02  0.1374095E+00
          2   -1    0    0  502    0  0.00000000000E+00  0.00000000000E+00  0.39445271051E+03  0.39445271051E+03  0.00000000000E+00 0.  1.
         -2   -1    0    0    0  501 -0.00000000000E+00 -0.00000000000E+00 -0.41532811579E+01  0.41532811579E+01  0.00000000000E+00 0. -1.
          1    1    1    2  502    0  0.31949912890E+02 -0.16451258984E+02  0.10344738575E+03  0.10951165451E+03  0.00000000000E+00 0. -1.
         -1    1    1    2    0  501 -0.31949912890E+02  0.16451258984E+02  0.28685204360E+03  0.28909433715E+03  0.00000000000E+00 0.  1.
</event>
<event>
 4    1  0.6718357E+001  0.2392754E+02  0.7546771E-02  0.1481168E+00
          2   -1    0    0  502    0  0.00000000000E+00  0.00000000000E+00  0.25567589410E+03  0.25567589410E+03  0.00000000000E+00 0. -1.
         -2   -1    0    0    0  501 -0.00000000000E+00 -0.00000000000E+00 -0.23665589991E+01  0.23665589991E+01  0.00000000000E+00 0.  1.
          1    1    1    2  502    0 -0.57184837455E+01  0.23234154736E+02  0.15657733556E+03  0.15839504100E+03  0.00000000000E+00 0. -1.
         -1    1    1    2    0  501  0.57184837455E+01 -0.23234154736E+02  0.96731999544E+02  0.99647412101E+02  0.00000000000E+00 0.  1.
</event>
<event>
 4    1  0.6718357E+001  0.3971142E+02  0.7546771E-02  0.1350185E+00
          2   -1    0    0  502    0  0.00000000000E+00  0.00000000000E+00  0.16129527831E+03  0.16129527831E+03  0.00000000000E+00 0. -1.
         -2   -1    0    0    0  501 -0.00000000000E+00 -0.00000000000E+00 -0.98435924800E+01  0.98435924800E+01  0.00000000000E+00 0.  1.
          1    1    1    2  502    0 -0.16015619157E+02 -0.36338644132E+02  0.68692077751E+02  0.79344808652E+02  0.00000000000E+00 0.  1.
         -1    1    1    2    0  501  0.16015619157E+02  0.36338644132E+02  0.82759608076E+02  0.91794062135E+02  0.00000000000E+00 0. -1.
</event>
<event>
 4    1  0.6718357E+001  0.2387611E+02  0.7546771E-02  0.1481780E+00
          2   -1    0    0  502    0  0.00000000000E+00  0.00000000000E+00  0.89520998882E+02  0.89520998882E+02  0.00000000000E+00 0.  1.
         -2   -1    0    0    0  501 -0.00000000000E+00 -0.00000000000E+00 -0.65381570862E+01  0.65381570862E+01  0.00000000000E+00 0. -1.
          1    1    1    2  502    0  0.23033323314E+01  0.23764745184E+02  0.49240037659E+02  0.54723393190E+02  0.00000000000E+00 0.  1.
         -1    1    1    2    0  501 -0.23033323314E+01 -0.23764745184E+02  0.33742804137E+02  0.41335762779E+02  0.00000000000E+00 0. -1.
</event>
<event>
 4    1  0.6718357E+001  0.2094641E+02  0.7546771E-02  0.1520031E+00
          2   -1    0    0  502    0  0.00000000000E+00  0.00000000000E+00  0.61736046993E+01  0.61736046993E+01  0.00000000000E+00 0. -1.
         -2   -1    0    0    0  501 -0.00000000000E+00 -0.00000000000E+00 -0.72056348954E+02  0.72056348954E+02  0.00000000000E+00 0.  1.
          1    1    1    2  502    0  0.11070329352E+02 -0.17782011029E+02 -0.28362744656E+02  0.35259004419E+02  0.00000000000E+00 0.  1.
         -1    1    1    2    0  501 -0.11070329352E+02  0.17782011029E+02 -0.37519999599E+02  0.42970949235E+02  0.00000000000E+00 0. -1.
</event>
<event>
 4    1  0.6718357E+001  0.2032438E+02  0.7546771E-02  0.1529133E+00
          2   -1    0    0  502    0  0.00000000000E+00  0.00000000000E+00  0.22873172355E+03  0.22873172355E+03  0.00000000000E+00 0.  1.
         -2   -1    0    0    0  501 -0.00000000000E+00 -0.00000000000E+00 -0.35134861870E+01  0.35134861870E+01  0.00000000000E+00 0. -1.
          1    1    1    2  502    0 -0.11223201535E+02  0.16944620428E+02  0.31656427443E+02  0.37619274483E+02  0.00000000000E+00 0. -1.
         -1    1    1    2    0  501  0.11223201535E+02 -0.16944620428E+02  0.19356180992E+03  0.19462593525E+03  0.00000000000E+00 0.  1.
</event>
<event>
 4    1  0.6718357E+001  0.2838802E+02  0.7546771E-02  0.1434142E+00
          2   -1    0    0  502    0  0.00000000000E+00  0.00000000000E+00  0.24684082823E+02  0.24684082823E+02  0.00000000000E+00 0.  1.
         -2   -1    0    0    0  501 -0.00000000000E+00 -0.00000000000E+00 -0.56850216303E+02  0.56850216303E+02  0.00000000000E+00 0. -1.
          1    1    1    2  502    0  0.60760406104E+01  0.27730149663E+02  0.10516478104E+02  0.30273351013E+02  0.00000000000E+00 0.  1.
         -1    1    1    2    0  501 -0.60760406104E+01 -0.27730149663E+02 -0.42682611583E+02  0.51260948113E+02  0.00000000000E+00 0. -1.
</event>
<event>
 4    1  0.6718357E+001  0.3718005E+02  0.7546771E-02  0.1365853E+00
          2   -1    0    0  502    0  0.00000000000E+00  0.00000000000E+00  0.23437390965E+03  0.23437390965E+03  0.00000000000E+00 0. -1.
         -2   -1    0    0    0  501 -0.00000000000E+00 -0.00000000000E+00 -0.61419615295E+01  0.61419615295E+01  0.00000000000E+00 0.  1.
          1    1    1    2  502    0 -0.11538780363E+02  0.35344200014E+02  0.13807947095E+03  0.14299753923E+03  0.00000000000E+00 0.  1.
         -1    1    1    2    0  501  0.11538780363E+02 -0.35344200014E+02  0.90152477163E+02  0.97518331946E+02  0.00000000000E+00 0. -1.
</event>
<event>
 4    1  0.6718357E+001  0.2054628E+02  0.7546771E-02  0.1525842E+00
          2   -1    0    0  502    0  0.00000000000E+00  0.00000000000E+00  0.14306531482E+04  0.14306531482E+04  0.00000000000E+00 0. -1.
         -2   -1    0    0    0  501 -0.00000000000E+00 -0.00000000000E+00 -0.29535303458E+00  0.29535303458E+00  0.00000000000E+00 0.  1.
          1    1    1    2  502    0 -0.16910168973E+01  0.20476573400E+02  0.73714134761E+03  0.73742763439E+03  0.00000000000E+00 0. -1.
         -1    1    1    2    0  501  0.16910168973E+01 -0.20476573400E+02  0.69321644756E+03  0.69352086686E+03  0.00000000000E+00 0.  1.
</event>
<event>
 4    1  0.6718357E+001  0.2166572E+02  0.7546771E-02  0.1509969E+00
          2   -1    0    0  502    0  0.00000000000E+00  0.00000000000E+00  0.67126696646E+03  0.67126696646E+03  0.00000000000E+00 0.  1.
         -2   -1    0    0    0  501 -0.00000000000E+00 -0.00000000000E+00 -0.10057362977E+01  0.10057362977E+01  0.00000000000E+00 0. -1.
          1    1    1    2  502    0  0.86406437124E+01  0.19868131490E+02  0.52067930702E+03  0.52112987261E+03  0.00000000000E+00 0.  1.
         -1    1    1    2    0  501 -0.86406437124E+01 -0.19868131490E+02  0.14958192315E+03  0.15114283015E+03  0.00000000000E+00 0. -1.
</event>
<event>
 4    1  0.6718357E+001  0.2623649E+02  0.7546771E-02  0.1455432E+00
          2   -1    0    0  502    0  0.00000000000E+00  0.00000000000E+00  0.12650247844E+04  0.12650247844E+04  0.00000000000E+00 0. -1.
         -2   -1    0    0    0  501 -0.00000000000E+00 -0.00000000000E+00 -0.58278018686E+00  0.58278018686E+00  0.00000000000E+00 0.  1.
          1    1    1    2  502    0  0.23115521586E+02  0.12410725496E+02  0.46928255111E+03  0.47001538934E+03  0.00000000000E+00 0.  1.
         -1    1    1    2    0  501 -0.23115521586E+02 -0.12410725496E+02  0.79515945315E+03  0.79559217529E+03  0.00000000000E+00 0. -1.
</event>
<event>
 4    1  0.6718357E+001  0.3026104E+02  0.7546771E-02  0.1417341E+00
          2   -1    0    0  502    0  0.00000000000E+00  0.00000000000E+00  0.38364783074E+04  0.38364783074E+04  0.00000000000E+00 0. -1.
         -2   -1    0    0    0  501 -0.00000000000E+00 -0.00000000000E+00 -0.24008038458E+00  0.24008038458E+00  0.00000000000E+00 0.  1.
          1    1    1    2  502    0  0.26871868091E+02  0.13915219270E+02  0.17721525739E+04  0.17724109219E+04  0.00000000000E+00 0. -1.
         -1    1    1    2    0  501 -0.26871868091E+02 -0.13915219270E+02  0.20640856531E+04  0.20643074659E+04  0.00000000000E+00 0.  1.
</event>
<event>
 4    1  0.6718357E+001  0.2183354E+02  0.7546771E-02  0.1507689E+00
          2   -1    0    0  502    0  0.00000000000E+00  0.00000000000E+00  0.12929071808E+02  0.12929071808E+02  0.00000000000E+00 0.  1.
         -2   -1    0    0    0  501 -0.00000000000E+00 -0.00000000000E+00 -0.13092992534E+03  0.13092992534E+03  0.00000000000E+00 0. -1.
          1    1    1    2  502    0 -0.19532136020E+02 -0.97570011717E+01 -0.11996651975E+03  0.12193715295E+03  0.00000000000E+00 0. -1.
         -1    1    1    2    0  501  0.19532136020E+02  0.97570011717E+01  0.19656662145E+01  0.21921844198E+02  0.00000000000E+00 0.  1.
</event>
<event>
 4    1  0.6718357E+001  0.2779471E+02  0.7546771E-02  0.1439784E+00
          2   -1    0    0  502    0  0.00000000000E+00  0.00000000000E+00  0.74721993203E+03  0.74721993203E+03  0.00000000000E+00 0. -1.
         -2   -1    0    0    0  501 -0.00000000000E+00 -0.00000000000E+00 -0.35384516740E+01  0.35384516740E+01  0.00000000000E+00 0.  1.
          1    1    1    2  502    0 -0.23572916095E+02  0.14726282148E+02  0.56028374560E+02  0.62543780785E+02  0.00000000000E+00 0.  1.
         -1    1    1    2    0  501  0.23572916095E+02 -0.14726282148E+02  0.68765310579E+03  0.68821460291E+03  0.00000000000E+00 0. -1.
</event>
<event>
 4    1  0.6718357E+001  0.4012928E+02  0.7546771E-02  0.1347730E+00
          2   -1    0    0  502    0  0.00000000000E+00  0.00000000000E+00  0.55722467483E+03  0.55722467483E+03  0.00000000000E+00 0.  1.
         -2   -1    0    0    0  501 -0.00000000000E+00 -0.00000000000E+00 -0.42101625746E+01  0.42101625746E+01  0.00000000000E+00 0. -1.
          1    1    1    2  502    0 -0.10945405159E+00  0.40129132398E+02  0.43370255697E+03  0.43555512529E+03  0.00000000000E+00 0.  1.
         -1    1    1    2    0  501  0.10945405159E+00 -0.40129132398E+02  0.11931195529E+03  0.12587971212E+03  0.00000000000E+00 0. -1.
</event>
<event>
 4    1  0.6718357E+001  0.2612589E+02  0.7546771E-02  0.1456592E+00
          2   -1    0    0  502    0  0.00000000000E+00  0.00000000000E+00  0.12100052265E+02  0.12100052265E+02  0.00000000000E+00 0. -1.
         -2   -1    0    0    0  501 -0.00000000000E+00 -0.00000000000E+00 -0.56436474167E+02  0.56436474167E+02  0.00000000000E+00 0.  1.
          1    1    1    2  502    0  0.19983452953E+02  0.16829249237E+02 -0.21423778493E+02  0.33786688306E+02  0.00000000000E+00 0.  1.
         -1    1    1    2    0  501 -0.19983452953E+02 -0.16829249237E+02 -0.22912643409E+02  0.34749838126E+02  0.00000000000E+00 0. -1.
</event>
<event>
 4    1  0.6718357E+001  0.2732695E+02  0.7546771E-02  0.1444351E+00
          2   -1    0    0  502    0  0.00000000000E+00  0.00000000000E+00  0.22451071953E+03  0.22451071953E+03  0.00000000000E+00 0.  1.
         -2   -1    0    0    0  501 -0.00000000000E+00 -0.00000000000E+00 -0.33680443529E+01  0.33680443529E+01  0.00000000000E+00 0. -1.
          1    1    1    2  502    0 -0.17476875703E+02  0.21007638228E+02  0.97867625576E+02  0.10161119124E+03  0.00000000000E+00 0. -1.
         -1    1    1    2    0  501  0.17476875703E+02 -0.21007638228E+02  0.12327504960E+03  0.12626757265E+03  0.00000000000E+00 0.  1.
</event>
<event>
 4    1  0.6718357E+001  0.2874800E+02  0.7546771E-02  0.1430797E+00
          2   -1    0    0  502    0  0.00000000000E+00  0.00000000000E+00  0.63513375264E+03  0.63513375264E+03  0.00000000000E+00 0.  1.
         -2   -1    0    0    0  501 -0.00000000000E+00 -0.00000000000E+00 -0.49868754690E+01  0.49868754690E+01  0.00000000000E+00 0. -1.
          1    1    1    2  502    0  0.27666012810E+02  0.78127507707E+01  0.39919924830E+02  0.49193980708E+02  0.00000000000E+00 0. -1.
         -1    1    1    2    0  501 -0.27666012810E+02 -0.78127507707E+01  0.59022695234E+03  0.59092664740E+03  0.00000000000E+00 0.  1.
</event>
<event>
 4    1  0.6718357E+001  0.2179955E+02  0.7546771E-02  0.1508149E+00
          2   -1    0    0  502    0  0.00000000000E+00  0.00000000000E+00  0.67042167493E+01  0.67042167493E+01  0.00000000000E+00 0. -1.
         -2   -1    0    0    0  501 -0.00000000000E+00 -0.00000000000E+00 -0.72908808252E+02  0.72908808252E+02  0.00000000000E+00 0.  1.
          1    1    1    2  502    0  0.15912239930E+02 -0.14900362927E+02 -0.26468224126E+02  0.34289751871E+02  0.00000000000E+00 0. -1.
         -1    1    1    2    0  501 -0.15912239930E+02  0.14900362927E+02 -0.39736367376E+02  0.45323273130E+02  0.00000000000E+00 0.  1.
</event>
<event>
 4    1  0.6718357E+001  0.2224982E+02  0.7546771E-02  0.1502139E+00
          2   -1    0    0  502    0  0.00000000000E+00  0.00000000000E+00  0.23953505044E+04  0.23953505044E+04  0.00000000000E+00 0.  1.
         -2   -1    0    0    0  501 -0.00000000000E+00 -0.00000000000E+00 -0.22584785695E+00  0.22584785695E+00  0.00000000000E+00 0. -1.
          1    1    1    2  502    0  0.14511594333E+02  0.16866188753E+02  0.84855373274E+03  0.84884538759E+03  0.00000000000E+00 0. -1.
         -1    1    1    2    0  501 -0.14511594333E+02 -0.16866188753E+02  0.15465709238E+04  0.15467309646E+04  0.00000000000E+00 0.  1.
</event>
<event>
 4    1  0.6718357E+001  0.3644213E+02  0.7546771E-02  0.1370698E+00
          2   -1    0    0  502    0  0.00000000000E+00  0.00000000000E+00  0.17814714541E+04  0.17814714541E+04  0.00000000000E+00 0.  1.
         -2   -1    0    0    0  501 -0.00000000000E+00 -0.00000000000E+00 -0.13324616388E+01  0.13324616388E+01  0.00000000000E+00 0. -1.
          1    1    1    2  502    0 -0.36101996594E+02  0.49673390111E+01  0.29842176505E+03  0.30063861773E+03  0.00000000000E+00 0. -1.
         -1    1    1    2    0  501  0.36101996594E+02 -0.49673390111E+01  0.14817172274E+04  0.14821652980E+04  0.00000000000E+00 0.  1.
</event>
<event>
 4    1  0.6718357E+001  0.2459082E+02  0.7546771E-02  0.1473433E+00
          2   -1    0    0  502    0  0.00000000000E+00  0.00000000000E+00  0.24462380879E+04  0.24462380879E+04  0.00000000000E+00 0.  1.
         -2   -1    0    0    0  501 -0.00000000000E+00 -0.00000000000E+00 -0.27625762138E+00  0.27625762138E+00  0.00000000000E+00 0. -1.
          1    1    1    2  502    0  0.13971433464E+02 -0.20236286510E+02  0.82624985917E+03  0.82661571363E+03  0.00000000000E+00 0. -1.
         -1    1    1    2    0  501 -0.13971433464E+02  0.20236286510E+02  0.16197119711E+04  0.16198986319E+04  0.00000000000E+00 0.  1.
</event>
<event>
 4    1  0.6718357E+001  0.2387594E+02  0.7546771E-02  0.1481782E+00
          2   -1    0    0  502    0  0.00000000000E+00  0.00000000000E+00  0.19317923894E+02  0.19317923894E+02  0.00000000000E+00 0. -1.
         -2   -1    0    0    0  501 -0.00000000000E+00 -0.00000000000E+00 -0.32288093291E+02  0.32288093291E+02  0.00000000000E+00 0.  1.
          1    1    1    2  502    0 -0.23826922904E+02 -0.15291619683E+01 -0.14054606606E+02  0.27705460802E+02  0.00000000000E+00 0. -1.
         -1    1    1    2    0  501  0.23826922904E+02  0.15291619683E+01  0.10844372099E+01  0.23900556383E+02  0.00000000000E+00 0.  1.
</event>
<event>
 4    1  0.6718357E+001  0.2209947E+02  0.7546771E-02  0.1504127E+00
          2   -1    0    0  502    0  0.00000000000E+00  0.00000000000E+00  0.84597587682E+02  0.84597587682E+02  0.00000000000E+00 0.  1.
         -2   -1    0    0    0  501 -0.00000000000E+00 -0.00000000000E+00 -0.58161417319E+01  0.58161417319E+01  0.00000000000E+00 0. -1.
          1    1    1    2  502    0  0.16039783511E+02 -0.15202367825E+02  0.35499807799E+02  0.41816539746E+02  0.00000000000E+00 0. -1.
         -1    1    1    2    0  501 -0.16039783511E+02  0.15202367825E+02  0.43281638151E+02  0.48597189668E+02  0.00000000000E+00 0.  1.
</event>
<event>
 4    1  0.6718357E+001  0.2170857E+02  0.7546771E-02  0.1509384E+00
          2   -1    0    0  502    0  0.00000000000E+00  0.00000000000E+00  0.60874773682E+01  0.60874773682E+01  0.00000000000E+00 0. -1.
         -2   -1    0    0    0  501 -0.00000000000E+00 -0.00000000000E+00 -0.77844118404E+02  0.77844118404E+02  0.00000000000E+00 0.  1.
          1    1    1    2  502    0  0.21653039517E+02  0.15516939911E+01 -0.32762398313E+02  0.39301865322E+02  0.00000000000E+00 0.  1.
         -1    1    1    2    0  501 -0.21653039517E+02 -0.15516939911E+01 -0.38994242723E+02  0.44629730450E+02  0.00000000000E+00 0. -1.
</event>
<event>
 4    1  0.6718357E+001  0.2137641E+02  0.7546771E-02  0.1513958E+00
          2   -1    0    0  502    0  0.00000000000E+00  0.00000000000E+00  0.88507813717E+01  0.88507813717E+01  0.00000000000E+00 0.  1.
         -2   -1    0    0    0  501 -0.00000000000E+00 -0.00000000000E+00 -0.57467436769E+02  0.57467436769E+02  0.00000000000E+00 0. -1.
          1    1    1    2  502    0  0.13349373169E+02 -0.16695664881E+02 -0.13738559843E+02  0.25410608343E+02  0.00000000000E+00 0.  1.
         -1    1    1    2    0  501 -0.13349373169E+02  0.16695664881E+02 -0.34878095555E+02  0.40907609798E+02  0.00000000000E+00 0. -1.
</event>
<event>
 4    1  0.6718357E+001  0.4067912E+02  0.7546771E-02  0.1344551E+00
          2   -1    0    0  502    0  0.00000000000E+00  0.00000000000E+00  0.96921020055E+03  0.96921020055E+03  0.00000000000E+00 0.  1.
         -2   -1    0    0    0  501 -0.00000000000E+00 -0.00000000000E+00 -0.20428705704E+01  0.20428705704E+01  0.00000000000E+00 0. -1.
          1    1    1    2  502    0 -0.37114032646E+02 -0.16653509310E+02  0.68038817410E+03  0.68160315305E+03  0.00000000000E+00 0. -1.
         -1    1    1    2    0  501  0.37114032646E+02  0.16653509310E+02  0.28677915588E+03  0.28964991807E+03  0.00000000000E+00 0.  1.
</event>
<event>
 4    1  0.6718357E+001  0.2005487E+02  0.7546771E-02  0.1533198E+00
          2   -1    0    0  502    0  0.00000000000E+00  0.00000000000E+00  0.33775376921E+02  0.33775376921E+02  0.00000000000E+00 0.  1.
         -2   -1    0    0    0  501 -0.00000000000E+00 -0.00000000000E+00 -0.12072309075E+02  0.12072309075E+02  0.00000000000E+00 0. -1.
          1    1    1    2  502    0 -0.13370511607E+02  0.14947487903E+02  0.81773440670E+01  0.21657953071E+02  0.00000000000E+00 0.  1.
         -1    1    1    2    0  501  0.13370511607E+02 -0.14947487903E+02  0.13525723779E+02  0.24189732925E+02  0.00000000000E+00 0. -1.
</event>
<event>
 4    1  0.6718357E+001  0.5102465E+02  0.7546771E-02  0.1293790E+00
          2   -1    0    0  502    0  0.00000000000E+00  0.00000000000E+00  0.72945520795E+03  0.72945520795E+03  0.00000000000E+00 0. -1.
         -2   -1    0    0    0  501 -0.00000000000E+00 -0.00000000000E+00 -0.35833625287E+01  0.35833625287E+01  0.00000000000E+00 0.  1.
          1    1    1    2  502    0 -0.34385667113E+01 -0.50908655354E+02  0.38604104317E+03  0.38939851302E+03  0.00000000000E+00 0.  1.
         -1    1    1    2    0  501  0.34385667113E+01  0.50908655354E+02  0.33983080226E+03  0.34364005746E+03  0.00000000000E+00 0. -1.
</event>
<event>
 4    1  0.6718357E+001  0.3229385E+02  0.7546771E-02  0.1400656E+00
          2   -1    0    0  502    0  0.00000000000E+00  0.00000000000E+00  0.31928350168E+03  0.31928350168E+03  0.00000000000E+00 0. -1.
         -2   -1    0    0    0  501 -0.00000000000E+00 -0.00000000000E+00 -0.83225237465E+01  0.83225237465E+01  0.00000000000E+00 0.  1.
          1    1    1    2  502    0 -0.25442739368E+02 -0.19888682226E+02  0.28315529996E+03  0.28499090611E+03  0.00000000000E+00 0. -1.
         -1    1    1    2    0  501  0.25442739368E+02  0.19888682226E+02  0.27805677975E+02  0.42615119323E+02  0.00000000000E+00 0.  1.
</event>
<event>
 4    1  0.6718357E+001  0.2436478E+02  0.7546771E-02  0.1476037E+00
          2   -1    0    0  502    0  0.00000000000E+00  0.00000000000E+00  0.13909239882E+03  0.13909239882E+03  0.00000000000E+00 0.  1.
         -2   -1    0    0    0  501 -0.00000000000E+00 -0.00000000000E+00 -0.50514073656E+01  0.50514073656E+01  0.00000000000E+00 0. -1.
          1    1    1    2  502    0  0.34790122810E+01  0.24115115548E+02  0.95403715311E+02  0.98465787050E+02  0.00000000000E+00 0.  1.
         -1    1    1    2    0  501 -0.34790122810E+01 -0.24115115548E+02  0.38637276145E+02  0.45678019137E+02  0.00000000000E+00 0. -1.
</event>
<event>
 4    1  0.6718357E+001  0.2426582E+02  0.7546771E-02  0.1477187E+00
          2   -1    0    0  502    0  0.00000000000E+00  0.00000000000E+00  0.31798933185E+03  0.31798933185E+03  0.00000000000E+00 0. -1.
         -2   -1    0    0    0  501 -0.00000000000E+00 -0.00000000000E+00 -0.18561635494E+01  0.18561635494E+01  0.00000000000E+00 0.  1.
          1    1    1    2  502    0  0.17020814640E+02 -0.17295140916E+02  0.15024971949E+03  0.15219661047E+03  0.00000000000E+00 0. -1.
         -1    1    1    2    0  501 -0.17020814640E+02  0.17295140916E+02  0.16588344881E+03  0.16764888494E+03  0.00000000000E+00 0.  1.
</event>
<event>
 4    1  0.6718357E+001  0.2509004E+02  0.7546771E-02  0.1467799E+00
          2   -1    0    0  502    0  0.00000000000E+00  0.00000000000E+00  0.12104808058E+04  0.12104808058E+04  0.00000000000E+00 0.  1.
         -2   -1    0    0    0  501 -0.00000000000E+00 -0.00000000000E+00 -0.52167934225E+00  0.52167934225E+00  0.00000000000E+00 0. -1.
          1    1    1    2  502    0 -0.22862567918E+02  0.10335039882E+02  0.63882284150E+03  0.63931536262E+03  0.00000000000E+00 0. -1.
         -1    1    1    2    0  501  0.22862567918E+02 -0.10335039882E+02  0.57113628495E+03  0.57168712251E+03  0.00000000000E+00 0.  1.
</event>
<event>
 4    1  0.6718357E+001  0.2322401E+02  0.7546771E-02  0.1489704E+00
          2   -1    0    0  502    0  0.00000000000E+00  0.00000000000E+00  0.15355884297E+04  0.15355884297E+04  0.00000000000E+00 0. -1.
         -2   -1    0    0    0  501 -0.00000000000E+00 -0.00000000000E+00 -0.35154915208E+00  0.35154915208E+00  0.00000000000E+00 0.  1.
          1    1    1    2  502    0  0.62920756737E+01  0.22355412889E+02  0.79052097671E+03  0.79086204190E+03  0.00000000000E+00 0. -1.
         -1    1    1    2    0  501 -0.62920756737E+01 -0.22355412889E+02  0.74471590385E+03  0.74507793697E+03  0.00000000000E+00 0.  1.
</event>
<event>
 4    1  0.6718357E+001  0.3395779E+02  0.7546771E-02  0.1388042E+00
          2   -1    0    0  502    0  0.00000000000E+00  0.00000000000E+00  0.22555918592E+04  0.22555918592E+04  0.00000000000E+00 0. -1.
         -2   -1    0    0    0  501 -0.00000000000E+00 -0.00000000000E+00 -0.57283191385E+00  0.57283191385E+00  0.00000000000E+00 0.  1.
          1    1    1    2  502    0 -0.24902369790E+02 -0.23086872138E+02  0.14974362911E+04  0.14978212769E+04  0.00000000000E+00 0. -1.
         -1    1    1    2    0  501  0.24902369790E+02  0.23086872138E+02  0.75758273619E+03  0.75834341420E+03  0.00000000000E+00 0.  1.
</event>
<event>
 4    1  0.6718357E+001  0.3299634E+02  0.7546771E-02  0.1395224E+00
          2   -1    0    0  502    0  0.00000000000E+00  0.00000000000E+00  0.15652618127E+02  0.15652618127E+02  0.00000000000E+00 0.  1.
         -2   -1    0    0    0  501 -0.00000000000E+00 -0.00000000000E+00 -0.14872208326E+03  0.14872208326E+03  0.00000000000E+00 0. -1.
          1    1    1    2  502    0  0.32279089721E+02 -0.68424189874E+01 -0.65718530481E+01  0.33644428711E+02  0.00000000000E+00 0.  1.
         -1    1    1    2    0  501 -0.32279089721E+02  0.68424189874E+01 -0.12649761208E+03  0.13073027267E+03  0.00000000000E+00 0. -1.
</event>
<event>
 4    1  0.6718357E+001  0.2835754E+02  0.7546771E-02  0.1434428E+00
          2   -1    0    0  502    0  0.00000000000E+00  0.00000000000E+00  0.66859271819E+03  0.66859271819E+03  0.00000000000E+00 0. -1.
         -2   -1    0    0    0  501 -0.00000000000E+00 -0.00000000000E+00 -0.12109344179E+01  0.12109344179E+01  0.00000000000E+00 0.  1.
          1    1    1    2  502    0  0.20386912962E+02  0.19711004265E+02  0.36122369371E+03  0.36233507532E+03  0.00000000000E+00 0.  1.
         -1    1    1    2    0  501 -0.20386912962E+02 -0.19711004265E+02  0.30615809006E+03  0.30746857729E+03  0.00000000000E+00 0. -1.
</event>
<event>
 4    1  0.6718357E+001  0.2171775E+02  0.7546771E-02  0.1509259E+00
          2   -1    0    0  502    0  0.00000000000E+00  0.00000000000E+00  0.15689354839E+03  0.15689354839E+03  0.00000000000E+00 0. -1.
         -2   -1    0    0    0  501 -0.00000000000E+00 -0.00000000000E+00 -0.33023156568E+01  0.33023156568E+01  0.00000000000E+00 0.  1.
          1    1    1    2  502    0 -0.20965679458E+01 -0.21616312040E+02  0.10077893279E+03  0.10309245286E+03  0.00000000000E+00 0. -1.
         -1    1    1    2    0  501  0.20965679458E+01  0.21616312040E+02  0.52812299944E+02  0.57103411183E+02  0.00000000000E+00 0.  1.
</event>
<event>
 4    1  0.6718357E+001  0.2556625E+02  0.7546771E-02  0.1462567E+00
          2   -1    0    0  502    0  0.00000000000E+00  0.00000000000E+00  0.66225633135E+03  0.66225633135E+03  0.00000000000E+00 0.  1.
         -2   -1    0    0    0  501 -0.00000000000E+00 -0.00000000000E+00 -0.10427536916E+01  0.10427536916E+01  0.00000000000E+00 0. -1.
          1    1    1    2  502    0  0.16065990528E+02 -0.19887610614E+02  0.25390472852E+03  0.25518864448E+03  0.00000000000E+00 0. -1.
         -1    1    1    2    0  501 -0.16065990528E+02  0.19887610614E+02  0.40730884914E+03  0.40811044056E+03  0.00000000000E+00 0.  1.
</event>
<event>
 4    1  0.6718357E+001  0.2096573E+02  0.7546771E-02  0.1519755E+00
          2   -1    0    0  502    0  0.00000000000E+00  0.00000000000E+00  0.49052363544E+01  0.49052363544E+01  0.00000000000E+00 0.  1.
         -2   -1    0    0    0  501 -0.00000000000E+00 -0.00000000000E+00 -0.90220694916E+02  0.90220694916E+02  0.00000000000E+00 0. -1.
          1    1    1    2  502    0 -0.20344389701E+02 -0.50663117222E+01 -0.38746837491E+02  0.44055409683E+02  0.00000000000E+00 0. -1.
         -1    1    1    2    0  501  0.20344389701E+02  0.50663117222E+01 -0.46568621071E+02  0.51070521587E+02  0.00000000000E+00 0.  1.
</event>
<event>
 4    1  0.6718357E+001  0.4250945E+02  0.7546771E-02  0.1334376E+00
          2   -1    0    0  502    0  0.00000000000E+00  0.00000000000E+00  0.52079924067E+03  0.52079924067E+03  0.00000000000E+00 0.  1.
         -2   -1    0    0    0  501 -0.00000000000E+00 -0.00000000000E+00 -0.36084540933E+01  0.36084540933E+01  0.00000000000E+00 0. -1.
          1    1    1    2  502    0 -0.14660705766E+02  0.39901345121E+02  0.20719201895E+03  0.21150788721E+03  0.00000000000E+00 0.  1.
         -1    1    1    2    0  501  0.14660705766E+02 -0.39901345121E+02  0.30999876762E+03  0.31289980755E+03  0.00000000000E+00 0. -1.
</event>
<event>
 4    1  0.6718357E+001  0.2455874E+02  0.7546771E-02  0.1473801E+00
          2   -1    0    0  502    0  0.00000000000E+00  0.00000000000E+00  0.27833848840E+03  0.27833848840E+03  0.00000000000E+00 0. -1.
         -2   -1    0    0    0  501 -0.00000000000E+00 -0.00000000000E+00 -0.52210268208E+01  0.52210268208E+01  0.00000000000E+00 0.  1.
          1    1    1    2  502    0 -0.18953021941E+02  0.15617771175E+02  0.28121164134E+02  0.37335394593E+02  0.00000000000E+00 0.  1.
         -1    1    1    2    0  501  0.18953021941E+02 -0.15617771175E+02  0.24499629744E+03  0.24622412062E+03  0.00000000000E+00 0. -1.
</event>
<event>
 4    1  0.6718357E+001  0.2494115E+02  0.7546771E-02  0.1469463E+00
          2   -1    0    0  502    0  0.00000000000E+00  0.00000000000E+00  0.52257470827E+03  0.52257470827E+03  0.00000000000E+00 0. -1.
         -2   -1    0    0    0  501 -0.00000000000E+00 -0.00000000000E+00 -0.12432548495E+01  0.12432548495E+01  0.00000000000E+00 0.  1.
          1    1    1    2  502    0 -0.25794804019E+01 -0.24807398580E+02  0.31468000025E+03  0.31566685493E+03  0.00000000000E+00 0.  1.
         -1    1    1    2    0  501  0.25794804019E+01  0.24807398580E+02  0.20665145316E+03  0.20815110818E+03  0.00000000000E+00 0. -1.
</event>
<event>
 4    1  0.6718357E+001  0.2707918E+02  0.7546771E-02  0.1446814E+00
          2   -1    0    0  502    0  0.00000000000E+00  0.00000000000E+00  0.18832686162E+03  0.18832686162E+03  0.00000000000E+00 0. -1.
         -2   -1    0    0    0  501 -0.00000000000E+00 -0.00000000000E+00 -0.48627198239E+01  0.48627198239E+01  0.00000000000E+00 0.  1.
          1    1    1    2  502    0 -0.14982969098E+02 -0.22556435379E+02  0.13485296368E+03  0.13754491613E+03  0.00000000000E+00 0. -1.
         -1    1    1    2    0  501  0.14982969098E+02  0.22556435379E+02  0.48611178114E+02  0.55644665312E+02  0.00000000000E+00 0.  1.
</event>
<event>
 4    1  0.6718357E+001  0.3080684E+02  0.7546771E-02  0.1412712E+00
          2   -1    0    0  502    0  0.00000000000E+00  0.00000000000E+00  0.52875059212E+01  0.52875059212E+01  0.00000000000E+00 0. -1.
         -2   -1    0    0    0  501 -0.00000000000E+00 -0.00000000000E+00 -0.18179883643E+03  0.18179883643E+03  0.00000000000E+00 0.  1.
          1    1    1    2  502    0  0.23056818218E+02  0.20431460394E+02 -0.98794401428E+02  0.10348620775E+03  0.00000000000E+00 0.  1.
         -1    1    1    2    0  501 -0.23056818218E+02 -0.20431460394E+02 -0.77716929079E+02  0.83600134604E+02  0.00000000000E+00 0. -1.
</event>
<event>
 4    1  0.6718357E+001  0.2662889E+02  0.7546771E-02  0.1451372E+00
          2   -1    0    0  502    0  0.00000000000E+00  0.00000000000E+00  0.49636900395E+03  0.49636900395E+03  0.00000000000E+00 0. -1.
         -2   -1    0    0    0  501 -0.00000000000E+00 -0.00000000000E+00 -0.16066709908E+01  0.16066709908E+01  0.00000000000E+00 0.  1.
          1    1    1    2  502    0 -0.25799526856E+01  0.26503615437E+02  0.33027992440E+03  0.33135166553E+03  0.00000000000E+00 0. -1.
         -1    1    1    2    0  501  0.25799526856E+01 -0.26503615437E+02  0.16448240855E+03  0.16662400941E+03  0.00000000000E+00 0.  1.
</event>
<event>
 4    1  0.6718357E+001  0.2952401E+02  0.7546771E-02  0.1423778E+00
          2   -1    0    0  502    0  0.00000000000E+00  0.00000000000E+00  0.15258878251E+04  0.15258878251E+04  0.00000000000E+00 0. -1.
         -2   -1    0    0    0  501 -0.00000000000E+00 -0.00000000000E+00 -0.12222640043E+01  0.12222640043E+01  0.00000000000E+00 0.  1.
          1    1    1    2  502    0 -0.75590497499E+01  0.28539940709E+02  0.20508015344E+03  0.20719444197E+03  0.00000000000E+00 0.  1.
         -1    1    1    2    0  501  0.75590497499E+01 -0.28539940709E+02  0.13195854077E+04  0.13199156472E+04  0.00000000000E+00 0. -1.
</event>
<event>
 4    1  0.6718357E+001  0.2008780E+02  0.7546771E-02  0.1532698E+00
          2   -1    0    0  502    0  0.00000000000E+00  0.00000000000E+00  0.86670410622E+03  0.86670410622E+03  0.00000000000E+00 0.  1.
         -2   -1    0    0    0  501 -0.00000000000E+00 -0.00000000000E+00 -0.53243313243E+00  0.53243313243E+00  0.00000000000E+00 0. -1.
          1    1    1    2  502    0  0.20051007613E+02 -0.12153197272E+01  0.27943439963E+03  0.28015549897E+03  0.00000000000E+00 0. -1.
         -1    1    1    2    0  501 -0.20051007613E+02  0.12153197272E+01  0.58673727346E+03  0.58708104038E+03  0.00000000000E+00 0.  1.
</event>
<event>
 4    1  0.6718357E+001  0.2126722E+02  0.7546771E-02  0.1515484E+00
          2   -1    0    0  502    0  0.00000000000E+00  0.00000000000E+00  0.13721299297E+04  0.13721299297E+04  0.00000000000E+00 0.  1.
         -2   -1    0    0    0  501 -0.00000000000E+00 -0.00000000000E+00 -0.33008526415E+00  0.33008526415E+00  0.00000000000E+00 0. -1.
          1    1    1    2  502    0  0.13005372397E+02  0.16827206714E+02  0.66040263562E+03  0.66074498540E+03  0.00000000000E+00 0. -1.
         -1    1    1    2    0  501 -0.13005372397E+02 -0.16827206714E+02  0.71139720881E+03  0.71171502956E+03  0.00000000000E+00 0.  1.
</event>
<event>
 4    1  0.6718357E+001  0.2372643E+02  0.7546771E-02  0.1483572E+00
          2   -1    0    0  502    0  0.00000000000E+00  0.00000000000E+00  0.77267487159E+01  0.77267487159E+01  0.00000000000E+00 0.  1.
         -2   -1    0    0    0  501 -0.00000000000E+00 -0.00000000000E+00 -0.73513264696E+02  0.73513264696E+02  0.00000000000E+00 0. -1.
          1    1    1    2  502    0 -0.22154740940E+02 -0.84918168102E+01 -0.29053730131E+02  0.37510834880E+02  0.00000000000E+00 0. -1.
         -1    1    1    2    0  501  0.22154740940E+02  0.84918168102E+01 -0.36732785849E+02  0.43729178532E+02  0.00000000000E+00 0.  1.
</event>
<event>
 4    1  0.6718357E+001  0.2033405E+02  0.7546771E-02  0.1528989E+00
          2   -1    0    0  502    0  0.00000000000E+00  0.00000000000E+00  0.76942513383E+03  0.76942513383E+03  0.00000000000E+00 0. -1.
         -2   -1    0    0    0  501 -0.00000000000E+00 -0.00000000000E+00 -0.70631412410E+00  0.70631412410E+00  0.00000000000E+00 0.  1.
          1    1    1    2  502    0 -0.11448863864E+02 -0.16804671022E+02  0.19604004213E+03  0.19709178463E+03  0.00000000000E+00 0.  1.
         -1    1    1    2    0  501  0.11448863864E+02  0.16804671022E+02  0.57267877758E+03  0.57303966333E+03  0.00000000000E+00 0. -1.
</event>
<event>
 4    1  0.6718357E+001  0.3234113E+02  0.7546771E-02  0.1400286E+00
          2   -1    0    0  502    0  0.00000000000E+00  0.00000000000E+00  0.32092642345E+03  0.32092642345E+03  0.00000000000E+00 0.  1.
         -2   -1    0    0    0  501 -0.00000000000E+00 -0.00000000000E+00 -0.51007043286E+01  0.51007043286E+01  0.00000000000E+00 0. -1.
          1    1    1    2  502    0 -0.30475701991E+02 -0.10824986529E+02  0.25586195369E+03  0.25789782491E+03  0.00000000000E+00 0.  1.
         -1    1    1    2    0  501  0.30475701991E+02  0.10824986529E+02  0.59963765434E+02  0.68129302875E+02  0.00000000000E+00 0. -1.
</event>
<event>
 4    1  0.6718357E+001  0.4053525E+02  0.7546771E-02  0.1345378E+00
          2   -1    0    0  502    0  0.00000000000E+00  0.00000000000E+00  0.73002454803E+02  0.73002454803E+02  0.00000000000E+00 0. -1.
         -2   -1    0    0    0  501 -0.00000000000E+00 -0.00000000000E+00 -0.24383273427E+02  0.24383273427E+02  0.00000000000E+00 0.  1.
          1    1    1    2  502    0 -0.31128982510E+02  0.25963298034E+02  0.37814874797E+02  0.55435287975E+02  0.00000000000E+00 0. -1.
         -1    1    1    2    0  501  0.31128982510E+02 -0.25963298034E+02  0.10804306579E+02  0.41950440255E+02  0.00000000000E+00 0.  1.
</event>
<event>
 4    1  0.6718357E+001  0.5058802E+02  0.7546771E-02  0.1295643E+00
          2   -1    0    0  502    0  0.00000000000E+00  0.00000000000E+00  0.12817480000E+03  0.12817480000E+03  0.00000000000E+00 0. -1.
         -2   -1    0    0    0  501 -0.00000000000E+00 -0.00000000000E+00 -0.38521406213E+02  0.38521406213E+02  0.00000000000E+00 0.  1.
          1    1    1    2  502    0  0.16030331112E+02  0.47980999288E+02 -0.13020057478E+02  0.52236670118E+02  0.00000000000E+00 0.  1.
         -1    1    1    2    0  501 -0.16030331112E+02 -0.47980999288E+02  0.10267345127E+03  0.11445953609E+03  0.00000000000E+00 0. -1.
</event>
<event>
 4    1  0.6718357E+001  0.4708373E+02  0.7546771E-02  0.1311337E+00
          2   -1    0    0  502    0  0.00000000000E+00  0.00000000000E+00  0.75052892545E+03  0.75052892545E+03  0.00000000000E+00 0. -1.
         -2   -1    0    0    0  501 -0.00000000000E+00 -0.00000000000E+00 -0.29727714704E+01  0.29727714704E+01  0.00000000000E+00 0.  1.
          1    1    1    2  502    0  0.38323049719E+02  0.27353643032E+02  0.34364467541E+03  0.34685521600E+03  0.00000000000E+00 0. -1.
         -1    1    1    2    0  501 -0.38323049719E+02 -0.27353643032E+02  0.40391147857E+03  0.40664648092E+03  0.00000000000E+00 0.  1.
</event>
<event>
 4    1  0.6718357E+001  0.2066563E+02  0.7546771E-02  0.1524093E+00
          2   -1    0    0  502    0  0.00000000000E+00  0.00000000000E+00  0.11557557224E+02  0.11557557224E+02  0.00000000000E+00 0. -1.
         -2   -1    0    0    0  501 -0.00000000000E+00 -0.00000000000E+00 -0.38386231561E+02  0.38386231561E+02  0.00000000000E+00 0.  1.
          1    1    1    2  502    0 -0.12116720301E+02 -0.16740770309E+02 -0.18242247734E+02  0.27565338811E+02  0.00000000000E+00 0.  1.
         -1    1    1    2    0  501  0.12116720301E+02  0.16740770309E+02 -0.85864266029E+01  0.22378449973E+02  0.00000000000E+00 0. -1.
</event>
<event>
 4    1  0.6718357E+001  0.2236800E+02  0.7546771E-02  0.1500590E+00
          2   -1    0    0  502    0  0.00000000000E+00  0.00000000000E+00  0.12954003216E+02  0.12954003216E+02  0.00000000000E+00 0.  1.
         -2   -1    0    0    0  501 -0.00000000000E+00 -0.00000000000E+00 -0.43576948883E+02  0.43576948883E+02  0.00000000000E+00 0. -1.
          1    1    1    2  502    0 -0.16625032972E+01 -0.22306135157E+02 -0.57816167723E+01  0.23103131289E+02  0.00000000000E+00 0.  1.
         -1    1    1    2    0  501  0.16625032972E+01  0.22306135157E+02 -0.24841328895E+02  0.33427820810E+02  0.00000000000E+00 0. -1.
</event>
<event>
 4    1  0.6718357E+001  0.2327014E+02  0.7546771E-02  0.1489134E+00
          2   -1    0    0  502    0  0.00000000000E+00  0.00000000000E+00  0.10676424374E+04  0.10676424374E+04  0.00000000000E+00 0. -1.
         -2   -1    0    0    0  501 -0.00000000000E+00 -0.00000000000E+00 -0.50742167004E+00  0.50742167004E+00  0.00000000000E+00 0.  1.
          1    1    1    2  502    0  0.60361284907E+01 -0.22473643707E+02  0.52220060743E+03  0.52271882873E+03  0.00000000000E+00 0.  1.
         -1    1    1    2    0  501 -0.60361284907E+01  0.22473643707E+02  0.54493440835E+03  0.54543103039E+03  0.00000000000E+00 0. -1.
</event>
<event>
 4    1  0.6718357E+001  0.3544481E+02  0.7546771E-02  0.1377463E+00
          2   -1    0    0  502    0  0.00000000000E+00  0.00000000000E+00  0.43175535586E+03  0.43175535586E+03  0.00000000000E+00 0.  1.
         -2   -1    0    0    0  501 -0.00000000000E+00 -0.00000000000E+00 -0.46373469466E+01  0.46373469466E+01  0.00000000000E+00 0. -1.
          1    1    1    2  502    0  0.96883661546E+00  0.35431562954E+02  0.80383619394E+02  0.87851354939E+02  0.00000000000E+00 0. -1.
         -1    1    1    2    0  501 -0.96883661546E+00 -0.35431562954E+02  0.34673438952E+03  0.34854134787E+03  0.00000000000E+00 0.  1.
</event>
<event>
 4    1  0.6718357E+001  0.2024269E+02  0.7546771E-02  0.1530358E+00
          2   -1    0    0  502    0  0.00000000000E+00  0.00000000000E+00  0.12420524725E+03  0.12420524725E+03  0.00000000000E+00 0. -1.
         -2   -1    0    0    0  501 -0.00000000000E+00 -0.00000000000E+00 -0.33443861693E+01  0.33443861693E+01  0.00000000000E+00 0.  1.
          1    1    1    2  502    0 -0.15973378743E+02  0.12434536932E+02  0.67850961196E+02  0.70806210691E+02  0.00000000000E+00 0. -1.
         -1    1    1    2    0  501  0.15973378743E+02 -0.12434536932E+02  0.53009899885E+02  0.56743422728E+02  0.00000000000E+00 0.  1.
</event>
<event>
 4    1  0.6718357E+001  0.2379566E+02  0.7546771E-02  0.1482742E+00
          2   -1    0    0  502    0  0.00000000000E+00  0.00000000000E+00  0.21529285673E+01  0.21529285673E+01  0.00000000000E+00 0.  1.
         -2   -1    0    0    0  501 -0.00000000000E+00 -0.00000000000E+00 -0.29569922372E+03  0.29569922372E+03  0.00000000000E+00 0. -1.
          1    1    1    2  502    0 -0.14181209044E+02 -0.19108292703E+02 -0.97253987973E+02  0.10012278320E+03  0.00000000000E+00 0.  1.
         -1    1    1    2    0  501  0.14181209044E+02  0.19108292703E+02 -0.19629230718E+03  0.19772936908E+03  0.00000000000E+00 0. -1.
</event>
<event>
 4    1  0.6718357E+001  0.2382576E+02  0.7546771E-02  0.1482381E+00
          2   -1    0    0  502    0  0.00000000000E+00  0.00000000000E+00  0.12307515287E+01  0.12307515287E+01  0.00000000000E+00 0. -1.
         -2   -1    0    0    0  501 -0.00000000000E+00 -0.00000000000E+00 -0.47866470091E+03  0.47866470091E+03  0.00000000000E+00 0.  1.
          1    1    1    2  502    0  0.23820150342E+02  0.51693718199E+00 -0.28450318716E+03  0.28549908983E+03  0.00000000000E+00 0. -1.
         -1    1    1    2    0  501 -0.23820150342E+02 -0.51693718199E+00 -0.19293076221E+03  0.19439636261E+03  0.00000000000E+00 0.  1.
</event>
<event>
 4    1  0.6718357E+001  0.2830525E+02  0.7546771E-02  0.1434919E+00
          2   -1    0    0  502    0  0.00000000000E+00  0.00000000000E+00  0.41060813027E+02  0.41060813027E+02  0.00000000000E+00 0. -1.
         -2   -1    0    0    0  501 -0.00000000000E+00 -0.00000000000E+00 -0.19538769177E+02  0.19538769177E+02  0.00000000000E+00 0.  1.
          1    1    1    2  502    0 -0.23938859314E+02  0.15103591149E+02  0.96440308907E+01  0.29903089852E+02  0.00000000000E+00 0.  1.
         -1    1    1    2    0  501  0.23938859314E+02 -0.15103591149E+02  0.11878012959E+02  0.30696492352E+02  0.00000000000E+00 0. -1.
</event>
<event>
 4    1  0.6718357E+001  0.2485871E+02  0.7546771E-02  0.1470390E+00
          2   -1    0    0  502    0  0.00000000000E+00  0.00000000000E+00  0.92717384794E+02  0.92717384794E+02  0.00000000000E+00 0.  1.
         -2   -1    0    0    0  501 -0.00000000000E+00 -0.00000000000E+00 -0.10596995736E+02  0.10596995736E+02  0.00000000000E+00 0. -1.
          1    1    1    2  502    0 -0.93371570629E+01  0.23038506739E+02  0.72526774138E+02  0.76668691535E+02  0.00000000000E+00 0.  1.
         -1    1    1    2    0  501  0.93371570629E+01 -0.23038506739E+02  0.95936149199E+01  0.26645688995E+02  0.00000000000E+00 0. -1.
</event>
<event>
 4    1  0.6718357E+001  0.2461381E+02  0.7546771E-02  0.1473170E+00
          2   -1    0    0  502    0  0.00000000000E+00  0.00000000000E+00  0.13986545472E+04  0.13986545472E+04  0.00000000000E+00 0. -1.
         -2   -1    0    0    0  501 -0.00000000000E+00 -0.00000000000E+00 -0.53703707011E+00  0.53703707011E+00  0.00000000000E+00 0.  1.
          1    1    1    2  502    0 -0.21062083846E+02 -0.12736890143E+02  0.39137321972E+03  0.39214644823E+03  0.00000000000E+00 0.  1.
         -1    1    1    2    0  501  0.21062083846E+02  0.12736890143E+02  0.10067442904E+04  0.10070451361E+04  0.00000000000E+00 0. -1.
</event>
<event>
 4    1  0.6718357E+001  0.2028471E+02  0.7546771E-02  0.1529727E+00
          2   -1    0    0  502    0  0.00000000000E+00  0.00000000000E+00  0.10285392446E+03  0.10285392446E+03  0.00000000000E+00 0.  1.
         -2   -1    0    0    0  501 -0.00000000000E+00 -0.00000000000E+00 -0.46365168456E+01  0.46365168456E+01  0.00000000000E+00 0. -1.
          1    1    1    2  502    0 -0.19529199123E+02  0.54845233339E+01  0.29203346682E+02  0.35557067821E+02  0.00000000000E+00 0. -1.
         -1    1    1    2    0  501  0.19529199123E+02 -0.54845233339E+01  0.69014060933E+02  0.71933373486E+02  0.00000000000E+00 0.  1.
</event>
<event>
 4    1  0.6718357E+001  0.2241318E+02  0.7546771E-02  0.1500001E+00
          2   -1    0    0  502    0  0.00000000000E+00  0.00000000000E+00  0.13305370297E+04  0.13305370297E+04  0.00000000000E+00 0. -1.
         -2   -1    0    0    0  501 -0.00000000000E+00 -0.00000000000E+00 -0.40504260824E+00  0.40504260824E+00  0.00000000000E+00 0.  1.
          1    1    1    2  502    0 -0.14061952583E+02  0.17453134799E+02  0.83842649297E+03  0.83872601876E+03  0.00000000000E+00 0. -1.
         -1    1    1    2    0  501  0.14061952583E+02 -0.17453134799E+02  0.49170549411E+03  0.49221605354E+03  0.00000000000E+00 0.  1.
</event>
<event>
 4    1  0.6718357E+001  0.2218552E+02  0.7546771E-02  0.1502987E+00
          2   -1    0    0  502    0  0.00000000000E+00  0.00000000000E+00  0.74544762475E+02  0.74544762475E+02  0.00000000000E+00 0. -1.
         -2   -1    0    0    0  501 -0.00000000000E+00 -0.00000000000E+00 -0.11201996481E+02  0.11201996481E+02  0.00000000000E+00 0.  1.
          1    1    1    2  502    0 -0.11497524304E+02 -0.18973772105E+02  0.59143078123E+02  0.63167244541E+02  0.00000000000E+00 0. -1.
         -1    1    1    2    0  501  0.11497524304E+02  0.18973772105E+02  0.41996878705E+01  0.22579514415E+02  0.00000000000E+00 0.  1.
</event>
<event>
 4    1  0.6718357E+001  0.4351199E+02  0.7546771E-02  0.1329050E+00
          2   -1    0    0  502    0  0.00000000000E+00  0.00000000000E+00  0.54993855659E+01  0.54993855659E+01  0.00000000000E+00 0.  1.
         -2   -1    0    0    0  501 -0.00000000000E+00 -0.00000000000E+00 -0.34473363441E+03  0.34473363441E+03  0.00000000000E+00 0. -1.
          1    1    1    2  502    0 -0.18266310388E+02 -0.39492215241E+02 -0.16321992949E+03  0.16892021354E+03  0.00000000000E+00 0. -1.
         -1    1    1    2    0  501  0.18266310388E+02  0.39492215241E+02 -0.17601431936E+03  0.18131280644E+03  0.00000000000E+00 0.  1.
</event>
<event>
 4    1  0.6718357E+001  0.2643709E+02  0.7546771E-02  0.1453346E+00
          2   -1    0    0  502    0  0.00000000000E+00  0.00000000000E+00  0.88611304428E+03  0.88611304428E+03  0.00000000000E+00 0.  1.
         -2   -1    0    0    0  501 -0.00000000000E+00 -0.00000000000E+00 -0.80596168097E+00  0.80596168097E+00  0.00000000000E+00 0. -1.
          1    1    1    2  502    0  0.16726348578E+02 -0.20473131662E+02  0.50746236470E+03  0.50815054014E+03  0.00000000000E+00 0. -1.
         -1    1    1    2    0  501 -0.16726348578E+02  0.20473131662E+02  0.37784471790E+03  0.37876846582E+03  0.00000000000E+00 0.  1.
</event>
<event>
 4    1  0.6718357E+001  0.2119214E+02  0.7546771E-02  0.1516539E+00
          2   -1    0    0  502    0  0.00000000000E+00  0.00000000000E+00  0.32908550287E+01  0.32908550287E+01  0.00000000000E+00 0. -1.
         -2   -1    0    0    0  501 -0.00000000000E+00 -0.00000000000E+00 -0.21241721321E+03  0.21241721321E+03  0.00000000000E+00 0.  1.
          1    1    1    2  502    0  0.20913818500E+02 -0.34232939629E+01 -0.16905344904E+03  0.17037656934E+03  0.00000000000E+00 0.  1.
         -1    1    1    2    0  501 -0.20913818500E+02  0.34232939629E+01 -0.40072909134E+02  0.45331498897E+02  0.00000000000E+00 0. -1.
</event>
<event>
 4    1  0.6718357E+001  0.2024739E+02  0.7546771E-02  0.1530287E+00
          2   -1    0    0  502    0  0.00000000000E+00  0.00000000000E+00  0.14451673944E+02  0.14451673944E+02  0.00000000000E+00 0. -1.
         -2   -1    0    0    0  501 -0.00000000000E+00 -0.00000000000E+00 -0.37208734427E+02  0.37208734427E+02  0.00000000000E+00 0.  1.
          1    1    1    2  502    0 -0.17025639724E+02 -0.10958310427E+02 -0.23969620794E+02  0.31376738142E+02  0.00000000000E+00 0. -1.
         -1    1    1    2    0  501  0.17025639724E+02  0.10958310427E+02  0.12125603113E+01  0.20283670229E+02  0.00000000000E+00 0.  1.
</event>
<event>
 4    1  0.6718357E+001  0.2520817E+02  0.7546771E-02  0.1466488E+00
          2   -1    0    0  502    0  0.00000000000E+00  0.00000000000E+00  0.92280624575E+01  0.92280624575E+01  0.00000000000E+00 0.  1.
         -2   -1    0    0    0  501 -0.00000000000E+00 -0.00000000000E+00 -0.75977711378E+02  0.75977711378E+02  0.00000000000E+00 0. -1.
          1    1    1    2  502    0 -0.18727321655E+02 -0.16874225634E+02 -0.46413716815E+02  0.52817470364E+02  0.00000000000E+00 0. -1.
         -1    1    1    2    0  501  0.18727321655E+02  0.16874225634E+02 -0.20335932106E+02  0.32388303471E+02  0.00000000000E+00 0.  1.
</event>
<event>
 4    1  0.6718357E+001  0.2781492E+02  0.7546771E-02  0.1439589E+00
          2   -1    0    0  502    0  0.00000000000E+00  0.00000000000E+00  0.10109879999E+01  0.10109879999E+01  0.00000000000E+00 0.  1.
         -2   -1    0    0    0  501 -0.00000000000E+00 -0.00000000000E+00 -0.77399984635E+03  0.77399984635E+03  0.00000000000E+00 0. -1.
          1    1    1    2  502    0  0.19875981805E+01  0.27743817642E+02 -0.42766886021E+03  0.42857242557E+03  0.00000000000E+00 0. -1.
         -1    1    1    2    0  501 -0.19875981805E+01 -0.27743817642E+02 -0.34531999814E+03  0.34643840878E+03  0.00000000000E+00 0.  1.
</event>
<event>
 4    1  0.6718357E+001  0.2046295E+02  0.7546771E-02  0.1527072E+00
          2   -1    0    0  502    0  0.00000000000E+00  0.00000000000E+00  0.29529926528E+03  0.29529926528E+03  0.00000000000E+00 0. -1.
         -2   -1    0    0    0  501 -0.00000000000E+00 -0.00000000000E+00 -0.24680153221E+01  0.24680153221E+01  0.00000000000E+00 0.  1.
          1    1    1    2  502    0 -0.75225664146E+01 -0.19030061273E+02  0.24352750382E+03  0.24438571430E+03  0.00000000000E+00 0. -1.
         -1    1    1    2    0  501  0.75225664146E+01  0.19030061273E+02  0.49303746136E+02  0.53381566299E+02  0.00000000000E+00 0.  1.
</event>
<event>
 4    1  0.6718357E+001  0.2797484E+02  0.7546771E-02  0.1438054E+00
          2   -1    0    0  502    0  0.00000000000E+00  0.00000000000E+00  0.41299529601E+02  0.41299529601E+02  0.00000000000E+00 0. -1.
         -2   -1    0    0    0  501 -0.00000000000E+00 -0.00000000000E+00 -0.30111298503E+02  0.30111298503E+02  0.00000000000E+00 0.  1.
          1    1    1    2  502    0  0.25389745935E+02 -0.11745311403E+02  0.27333285971E+02  0.39111380192E+02  0.00000000000E+00 0. -1.
         -1    1    1    2    0  501 -0.25389745935E+02  0.11745311403E+02 -0.16145054873E+02  0.32299447912E+02  0.00000000000E+00 0.  1.
</event>
<event>
 4    1  0.6718357E+001  0.2067185E+02  0.7546771E-02  0.1524002E+00
          2   -1    0    0  502    0  0.00000000000E+00  0.00000000000E+00  0.71858910845E+02  0.71858910845E+02  0.00000000000E+00 0. -1.
         -2   -1    0    0    0  501 -0.00000000000E+00 -0.00000000000E+00 -0.60167473711E+01  0.60167473711E+01  0.00000000000E+00 0.  1.
          1    1    1    2  502    0 -0.95321978922E+01 -0.18342913313E+02  0.37121626658E+02  0.42489297843E+02  0.00000000000E+00 0.  1.
         -1    1    1    2    0  501  0.95321978922E+01  0.18342913313E+02  0.28720536815E+02  0.35386360373E+02  0.00000000000E+00 0. -1.
</event>
<event>
 4    1  0.6718357E+001  0.3112350E+02  0.7546771E-02  0.1410078E+00
          2   -1    0    0  502    0  0.00000000000E+00  0.00000000000E+00  0.15512648129E+03  0.15512648129E+03  0.00000000000E+00 0.  1.
         -2   -1    0    0    0  501 -0.00000000000E+00 -0.00000000000E+00 -0.75946942188E+01  0.75946942188E+01  0.00000000000E+00 0. -1.
          1    1    1    2  502    0 -0.30918574919E+02 -0.35656914406E+01  0.39459704118E+02  0.50256747602E+02  0.00000000000E+00 0. -1.
         -1    1    1    2    0  501  0.30918574919E+02  0.35656914406E+01  0.10807208295E+03  0.11246442791E+03  0.00000000000E+00 0.  1.
</event>
<event>
 4    1  0.6718357E+001  0.2003120E+02  0.7546771E-02  0.1533559E+00
          2   -1    0    0  502    0  0.00000000000E+00  0.00000000000E+00  0.21619114955E+01  0.21619114955E+01  0.00000000000E+00 0.  1.
         -2   -1    0    0    0  501 -0.00000000000E+00 -0.00000000000E+00 -0.37946245474E+03  0.37946245474E+03  0.00000000000E+00 0. -1.
          1    1    1    2  502    0 -0.20031039078E+02 -0.80209446121E-01 -0.32503617600E+03  0.32565282844E+03  0.00000000000E+00 0. -1.
         -1    1    1    2    0  501  0.20031039078E+02  0.80209446121E-01 -0.52264367244E+02  0.55971537798E+02  0.00000000000E+00 0.  1.
</event>
<event>
 4    1  0.6718357E+001  0.2057764E+02  0.7546771E-02  0.1525381E+00
          2   -1    0    0  502    0  0.00000000000E+00  0.00000000000E+00  0.28580337480E+03  0.28580337480E+03  0.00000000000E+00 0. -1.
         -2   -1    0    0    0  501 -0.00000000000E+00 -0.00000000000E+00 -0.14884562369E+01  0.14884562369E+01  0.00000000000E+00 0.  1.
          1    1    1    2  502    0 -0.29078177340E+01 -0.20371156258E+02  0.15192371284E+03  0.15331097134E+03  0.00000000000E+00 0. -1.
         -1    1    1    2    0  501  0.29078177340E+01  0.20371156258E+02  0.13239120572E+03  0.13398085969E+03  0.00000000000E+00 0.  1.
</event>
<event>
 4    1  0.6718357E+001  0.3276170E+02  0.7546771E-02  0.1397021E+00
          2   -1    0    0  502    0  0.00000000000E+00  0.00000000000E+00  0.37526266241E+03  0.37526266241E+03  0.00000000000E+00 0. -1.
         -2   -1    0    0    0  501 -0.00000000000E+00 -0.00000000000E+00 -0.30055505236E+01  0.30055505236E+01  0.00000000000E+00 0.  1.
          1    1    1    2  502    0 -0.26101928396E+02  0.19799457463E+02  0.14453706093E+03  0.14820354640E+03  0.00000000000E+00 0.  1.
         -1    1    1    2    0  501  0.26101928396E+02 -0.19799457463E+02  0.22772005095E+03  0.23006466654E+03  0.00000000000E+00 0. -1.
</event>
<event>
 4    1  0.6718357E+001  0.2230877E+02  0.7546771E-02  0.1501365E+00
          2   -1    0    0  502    0  0.00000000000E+00  0.00000000000E+00  0.23270873350E+02  0.23270873350E+02  0.00000000000E+00 0. -1.
         -2   -1    0    0    0  501 -0.00000000000E+00 -0.00000000000E+00 -0.25637502476E+02  0.25637502476E+02  0.00000000000E+00 0.  1.
          1    1    1    2  502    0  0.19306959693E+02  0.11176876684E+02 -0.11141124887E+02  0.24936036749E+02  0.00000000000E+00 0.  1.
         -1    1    1    2    0  501 -0.19306959693E+02 -0.11176876684E+02  0.87744957616E+01  0.23972339078E+02  0.00000000000E+00 0. -1.
</event>
<event>
 4    1  0.6718357E+001  0.2411081E+02  0.7546771E-02  0.1479002E+00
          2   -1    0    0  502    0  0.00000000000E+00  0.00000000000E+00  0.17238938336E+02  0.17238938336E+02  0.00000000000E+00 0. -1.
         -2   -1    0    0    0  501 -0.00000000000E+00 -0.00000000000E+00 -0.43278074051E+02  0.43278074051E+02  0.00000000000E+00 0.  1.
          1    1    1    2  502    0 -0.23294667024E+02 -0.62201168750E+01 -0.27238056097E+02  0.36376408091E+02  0.00000000000E+00 0.  1.
         -1    1    1    2    0  501  0.23294667024E+02  0.62201168750E+01  0.11989203823E+01  0.24140604296E+02  0.00000000000E+00 0. -1.
</event>
<event>
 4    1  0.6718357E+001  0.2072774E+02  0.7546771E-02  0.1523188E+00
          2   -1    0    0  502    0  0.00000000000E+00  0.00000000000E+00  0.91138946459E+03  0.91138946459E+03  0.00000000000E+00 0.  1.
         -2   -1    0    0    0  501 -0.00000000000E+00 -0.00000000000E+00 -0.47929759509E+00  0.47929759509E+00  0.00000000000E+00 0. -1.
          1    1    1    2  502    0  0.13769359247E+01  0.20681959136E+02  0.51393858838E+03  0.51435640563E+03  0.00000000000E+00 0.  1.
         -1    1    1    2    0  501 -0.13769359247E+01 -0.20681959136E+02  0.39697157861E+03  0.39751235655E+03  0.00000000000E+00 0. -1.
</event>
<event>
 4    1  0.6718357E+001  0.2075045E+02  0.7546771E-02  0.1522858E+00
          2   -1    0    0  502    0  0.00000000000E+00  0.00000000000E+00  0.84708292463E+02  0.84708292463E+02  0.00000000000E+00 0. -1.
         -2   -1    0    0    0  501 -0.00000000000E+00 -0.00000000000E+00 -0.50907436889E+01  0.50907436889E+01  0.00000000000E+00 0.  1.
          1    1    1    2  502    0 -0.23931548829E+01  0.20611986649E+02  0.38069582886E+02  0.43357517515E+02  0.00000000000E+00 0.  1.
         -1    1    1    2    0  501  0.23931548829E+01 -0.20611986649E+02  0.41547965888E+02  0.46441518638E+02  0.00000000000E+00 0. -1.
</event>
<event>
 4    1  0.6718357E+001  0.2167873E+02  0.7546771E-02  0.1509791E+00
          2   -1    0    0  502    0  0.00000000000E+00  0.00000000000E+00  0.10299996561E+04  0.10299996561E+04  0.00000000000E+00 0. -1.
         -2   -1    0    0    0  501 -0.00000000000E+00 -0.00000000000E+00 -0.20369171058E+01  0.20369171058E+01  0.00000000000E+00 0.  1.
          1    1    1    2  502    0 -0.75671162836E+01  0.20315164208E+02  0.96854496074E+03  0.96878754540E+03  0.00000000000E+00 0. -1.
         -1    1    1    2    0  501  0.75671162836E+01 -0.20315164208E+02  0.59417778229E+02  0.63249027782E+02  0.00000000000E+00 0.  1.
</event>
<event>
 4    1  0.6718357E+001  0.2092218E+02  0.7546771E-02  0.1520379E+00
          2   -1    0    0  502    0  0.00000000000E+00  0.00000000000E+00  0.14867054411E+04  0.14867054411E+04  0.00000000000E+00 0.  1.
         -2   -1    0    0    0  501 -0.00000000000E+00 -0.00000000000E+00 -0.31013743662E+00  0.31013743662E+00  0.00000000000E+00 0. -1.
          1    1    1    2  502    0 -0.16688045776E+02 -0.12619297006E+02  0.57589708271E+03  0.57627700579E+03  0.00000000000E+00 0. -1.
         -1    1    1    2    0  501  0.16688045776E+02  0.12619297006E+02  0.91049822094E+03  0.91073857274E+03  0.00000000000E+00 0.  1.
</event>
<event>
 4    1  0.6718357E+001  0.2310239E+02  0.7546771E-02  0.1491216E+00
          2   -1    0    0  502    0  0.00000000000E+00  0.00000000000E+00  0.14636547839E+04  0.14636547839E+04  0.00000000000E+00 0. -1.
         -2   -1    0    0    0  501 -0.00000000000E+00 -0.00000000000E+00 -0.36933230465E+00  0.36933230465E+00  0.00000000000E+00 0.  1.
          1    1    1    2  502    0  0.92966106040E+01 -0.21149310137E+02  0.81407261065E+03  0.81440035345E+03  0.00000000000E+00 0.  1.
         -1    1    1    2    0  501 -0.92966106040E+01  0.21149310137E+02  0.64921284097E+03  0.64962376278E+03  0.00000000000E+00 0. -1.
</event>
<event>
 4    1  0.6718357E+001  0.4871902E+02  0.7546771E-02  0.1303824E+00
          2   -1    0    0  502    0  0.00000000000E+00  0.00000000000E+00  0.16748197214E+04  0.16748197214E+04  0.00000000000E+00 0. -1.
         -2   -1    0    0    0  501 -0.00000000000E+00 -0.00000000000E+00 -0.14643074622E+01  0.14643074622E+01  0.00000000000E+00 0.  1.
          1    1    1    2  502    0 -0.23514212935E+02  0.42668773918E+02  0.68633601275E+03  0.68806298031E+03  0.00000000000E+00 0. -1.
         -1    1    1    2    0  501  0.23514212935E+02 -0.42668773918E+02  0.98701940122E+03  0.98822104858E+03  0.00000000000E+00 0.  1.
</event>
<event>
 4    1  0.6718357E+001  0.4339369E+02  0.7546771E-02  0.1329670E+00
          2   -1    0    0  502    0  0.00000000000E+00  0.00000000000E+00  0.12705038232E+02  0.12705038232E+02  0.00000000000E+00 0.  1.
         -2   -1    0    0    0  501 -0.00000000000E+00 -0.00000000000E+00 -0.18904753209E+03  0.18904753209E+03  0.00000000000E+00 0. -1.
          1    1    1    2  502    0  0.42472291646E+02 -0.88947476980E+01 -0.13505625528E+03  0.14185628004E+03  0.00000000000E+00 0. -1.
         -1    1    1    2    0  501 -0.42472291646E+02  0.88947476980E+01 -0.41286238570E+02  0.59896290282E+02  0.00000000000E+00 0.  1.
</event>
<event>
 4    1  0.6718357E+001  0.3562244E+02  0.7546771E-02  0.1376239E+00
          2   -1    0    0  502    0  0.00000000000E+00  0.00000000000E+00  0.13988146976E+04  0.13988146976E+04  0.00000000000E+00 0. -1.
         -2   -1    0    0    0  501 -0.00000000000E+00 -0.00000000000E+00 -0.10268992142E+01  0.10268992142E+01  0.00000000000E+00 0.  1.
          1    1    1    2  502    0 -0.10373644698E+02  0.34078518782E+02  0.93789024181E+03  0.93856649398E+03  0.00000000000E+00 0. -1.
         -1    1    1    2    0  501  0.10373644698E+02 -0.34078518782E+02  0.45989755655E+03  0.46127510281E+03  0.00000000000E+00 0.  1.
</event>
<event>
 4    1  0.6718357E+001  0.6311856E+02  0.7546771E-02  0.1249590E+00
          2   -1    0    0  502    0  0.00000000000E+00  0.00000000000E+00  0.91384608647E+03  0.91384608647E+03  0.00000000000E+00 0.  1.
         -2   -1    0    0    0  501 -0.00000000000E+00 -0.00000000000E+00 -0.83208462969E+01  0.83208462969E+01  0.00000000000E+00 0. -1.
          1    1    1    2  502    0 -0.88326634201E+01  0.62497490346E+02  0.77090006687E+03  0.77347971231E+03  0.00000000000E+00 0.  1.
         -1    1    1    2    0  501  0.88326634201E+01 -0.62497490346E+02  0.13462517330E+03  0.14868722046E+03  0.00000000000E+00 0. -1.
</event>
<event>
 4    1  0.6718357E+001  0.2197317E+02  0.7546771E-02  0.1505811E+00
          2   -1    0    0  502    0  0.00000000000E+00  0.00000000000E+00  0.15582565984E+04  0.15582565984E+04  0.00000000000E+00 0. -1.
         -2   -1    0    0    0  501 -0.00000000000E+00 -0.00000000000E+00 -0.31311667874E+00  0.31311667874E+00  0.00000000000E+00 0.  1.
          1    1    1    2  502    0 -0.44891347943E+01  0.21509717786E+02  0.69933168557E+03  0.69967680162E+03  0.00000000000E+00 0.  1.
         -1    1    1    2    0  501  0.44891347943E+01 -0.21509717786E+02  0.85861179619E+03  0.85889291349E+03  0.00000000000E+00 0. -1.
</event>
<event>
 4    1  0.6718357E+001  0.3588507E+02  0.7546771E-02  0.1374445E+00
          2   -1    0    0  502    0  0.00000000000E+00  0.00000000000E+00  0.83781479075E+03  0.83781479075E+03  0.00000000000E+00 0.  1.
         -2   -1    0    0    0  501 -0.00000000000E+00 -0.00000000000E+00 -0.22429114785E+01  0.22429114785E+01  0.00000000000E+00 0. -1.
          1    1    1    2  502    0  0.31836487615E+02 -0.16558264448E+02  0.65342215253E+03  0.65440679052E+03  0.00000000000E+00 0.  1.
         -1    1    1    2    0  501 -0.31836487615E+02  0.16558264448E+02  0.18214972674E+03  0.18565091171E+03  0.00000000000E+00 0. -1.
</event>
<event>
 4    1  0.6718357E+001  0.2625651E+02  0.7546771E-02  0.1455223E+00
          2   -1    0    0  502    0  0.00000000000E+00  0.00000000000E+00  0.15481237206E+04  0.15481237206E+04  0.00000000000E+00 0. -1.
         -2   -1    0    0    0  501 -0.00000000000E+00 -0.00000000000E+00 -0.54189499547E+00  0.54189499547E+00  0.00000000000E+00 0.  1.
          1    1    1    2  502    0  0.22089912213E+02  0.14192962481E+02  0.11006881310E+04  0.11010012562E+04  0.00000000000E+00 0. -1.
         -1    1    1    2    0  501 -0.22089912213E+02 -0.14192962481E+02  0.44689369467E+03  0.44766435947E+03  0.00000000000E+00 0.  1.
</event>
<event>
 4    1  0.6718357E+001  0.2674633E+02  0.7546771E-02  0.1450173E+00
          2   -1    0    0  502    0  0.00000000000E+00  0.00000000000E+00  0.12415106910E+03  0.12415106910E+03  0.00000000000E+00 0. -1.
         -2   -1    0    0    0  501 -0.00000000000E+00 -0.00000000000E+00 -0.82540211926E+01  0.82540211926E+01  0.00000000000E+00 0.  1.
          1    1    1    2  502    0  0.23066336804E+02 -0.13539222299E+02  0.94324291456E+02  0.98043043571E+02  0.00000000000E+00 0. -1.
         -1    1    1    2    0  501 -0.23066336804E+02  0.13539222299E+02  0.21572756453E+02  0.34362046723E+02  0.00000000000E+00 0.  1.
</event>
<event>
 4    1  0.6718357E+001  0.1007230E+03  0.7546771E-02  0.1162561E+00
          2   -1    0    0  502    0  0.00000000000E+00  0.00000000000E+00  0.58448564319E+03  0.58448564319E+03  0.00000000000E+00 0.  1.
         -2   -1    0    0    0  501 -0.00000000000E+00 -0.00000000000E+00 -0.31883435674E+02  0.31883435674E+02  0.00000000000E+00 0. -1.
          1    1    1    2  502    0  0.91926560211E+02 -0.41165877509E+02  0.48431990534E+03  0.49468261810E+03  0.00000000000E+00 0.  1.
         -1    1    1    2    0  501 -0.91926560211E+02  0.41165877509E+02  0.68282302183E+02  0.12168646077E+03  0.00000000000E+00 0. -1.
</event>
<event>
 4    1  0.6718357E+001  0.2267990E+02  0.7546771E-02  0.1496557E+00
          2   -1    0    0  502    0  0.00000000000E+00  0.00000000000E+00  0.74154880770E+03  0.74154880770E+03  0.00000000000E+00 0. -1.
         -2   -1    0    0    0  501 -0.00000000000E+00 -0.00000000000E+00 -0.71420172680E+00  0.71420172680E+00  0.00000000000E+00 0.  1.
          1    1    1    2  502    0 -0.11571515431E+02  0.19505840723E+02  0.43336885797E+03  0.43396191636E+03  0.00000000000E+00 0. -1.
         -1    1    1    2    0  501  0.11571515431E+02 -0.19505840723E+02  0.30746574801E+03  0.30830109307E+03  0.00000000000E+00 0.  1.
</event>
<event>
 4    1  0.6718357E+001  0.2172566E+02  0.7546771E-02  0.1509151E+00
          2   -1    0    0  502    0  0.00000000000E+00  0.00000000000E+00  0.62036362884E+03  0.62036362884E+03  0.00000000000E+00 0.  1.
         -2   -1    0    0    0  501 -0.00000000000E+00 -0.00000000000E+00 -0.81408142128E+00  0.81408142128E+00  0.00000000000E+00 0. -1.
          1    1    1    2  502    0 -0.10834880774E+02 -0.18831087763E+02  0.38919487723E+03  0.38980079139E+03  0.00000000000E+00 0.  1.
         -1    1    1    2    0  501  0.10834880774E+02  0.18831087763E+02  0.23035467019E+03  0.23137691887E+03  0.00000000000E+00 0. -1.
</event>
<event>
 4    1  0.6718357E+001  0.2618762E+02  0.7546771E-02  0.1455944E+00
          2   -1    0    0  502    0  0.00000000000E+00  0.00000000000E+00  0.43616592751E+01  0.43616592751E+01  0.00000000000E+00 0. -1.
         -2   -1    0    0    0  501 -0.00000000000E+00 -0.00000000000E+00 -0.29525617272E+03  0.29525617272E+03  0.00000000000E+00 0.  1.
          1    1    1    2  502    0  0.21414893631E+02  0.15072939934E+02 -0.43019847869E+02  0.50363662477E+02  0.00000000000E+00 0. -1.
         -1    1    1    2    0  501 -0.21414893631E+02 -0.15072939934E+02 -0.24787466557E+03  0.24925416951E+03  0.00000000000E+00 0.  1.
</event>
<event>
 4    1  0.6718357E+001  0.1414705E+03  0.7546771E-02  0.1106695E+00
          2   -1    0    0  502    0  0.00000000000E+00  0.00000000000E+00  0.49201286716E+03  0.49201286716E+03  0.00000000000E+00 0. -1.
         -2   -1    0    0    0  501 -0.00000000000E+00 -0.00000000000E+00 -0.40965228721E+02  0.40965228721E+02  0.00000000000E+00 0.  1.
          1    1    1    2  502    0  0.13830303464E+03 -0.29768751271E+02  0.24785335050E+03  0.28538603907E+03  0.00000000000E+00 0.  1.
         -1    1    1    2    0  501 -0.13830303464E+03  0.29768751271E+02  0.20319428794E+03  0.24759205681E+03  0.00000000000E+00 0. -1.
</event>
<event>
 4    1  0.6718357E+001  0.4155778E+02  0.7546771E-02  0.1339591E+00
          2   -1    0    0  502    0  0.00000000000E+00  0.00000000000E+00  0.40069576271E+03  0.40069576271E+03  0.00000000000E+00 0.  1.
         -2   -1    0    0    0  501 -0.00000000000E+00 -0.00000000000E+00 -0.44961768873E+01  0.44961768873E+01  0.00000000000E+00 0. -1.
          1    1    1    2  502    0  0.26513587627E+02  0.32001228330E+02  0.23931199304E+03  0.24289355478E+03  0.00000000000E+00 0.  1.
         -1    1    1    2    0  501 -0.26513587627E+02 -0.32001228330E+02  0.15688759279E+03  0.16229838482E+03  0.00000000000E+00 0. -1.
</event>
<event>
 4    1  0.6718357E+001  0.2386947E+02  0.7546771E-02  0.1481860E+00
          2   -1    0    0  502    0  0.00000000000E+00  0.00000000000E+00  0.45513710986E+03  0.45513710986E+03  0.00000000000E+00 0.  1.
         -2   -1    0    0    0  501 -0.00000000000E+00 -0.00000000000E+00 -0.12526091810E+01  0.12526091810E+01  0.00000000000E+00 0. -1.
          1    1    1    2  502    0  0.23138659300E+02  0.58612311760E+01  0.23265527534E+03  0.23387652454E+03  0.00000000000E+00 0.  1.
         -1    1    1    2    0  501 -0.23138659300E+02 -0.58612311760E+01  0.22122922534E+03  0.22251319450E+03  0.00000000000E+00 0. -1.
</event>
<event>
 4    1  0.6718357E+001  0.4312669E+02  0.7546771E-02  0.1331077E+00
          2   -1    0    0  502    0  0.00000000000E+00  0.00000000000E+00  0.54905659391E+02  0.54905659391E+02  0.00000000000E+00 0. -1.
         -2   -1    0    0    0  501 -0.00000000000E+00 -0.00000000000E+00 -0.40604975529E+02  0.40604975529E+02  0.00000000000E+00 0.  1.
          1    1    1    2  502    0 -0.38707138373E+02 -0.19017603805E+02 -0.12292022317E+02  0.44844237402E+02  0.00000000000E+00 0.  1.
         -1    1    1    2    0  501  0.38707138373E+02  0.19017603805E+02  0.26592706180E+02  0.50666397518E+02  0.00000000000E+00 0. -1.
</event>
<event>
 4    1  0.6718357E+001  0.2286878E+02  0.7546771E-02  0.1494153E+00
          2   -1    0    0  502    0  0.00000000000E+00  0.00000000000E+00  0.53115783501E+03  0.53115783501E+03  0.00000000000E+00 0. -1.
         -2   -1    0    0    0  501 -0.00000000000E+00 -0.00000000000E+00 -0.14213320177E+01  0.14213320177E+01  0.00000000000E+00 0.  1.
          1    1    1    2  502    0 -0.21473162471E+02 -0.78666586329E+01  0.41247665994E+03  0.41311012578E+03  0.00000000000E+00 0. -1.
         -1    1    1    2    0  501  0.21473162471E+02  0.78666586329E+01  0.11725984305E+03  0.11946904124E+03  0.00000000000E+00 0.  1.
</event>
<event>
 4    1  0.6718357E+001  0.2119407E+02  0.7546771E-02  0.1516512E+00
          2   -1    0    0  502    0  0.00000000000E+00  0.00000000000E+00  0.14419778405E+03  0.14419778405E+03  0.00000000000E+00 0.  1.
         -2   -1    0    0    0  501 -0.00000000000E+00 -0.00000000000E+00 -0.36453679467E+01  0.36453679467E+01  0.00000000000E+00 0. -1.
          1    1    1    2  502    0  0.76601032027E+01 -0.19761359047E+02  0.42082384999E+02  0.47118102887E+02  0.00000000000E+00 0. -1.
         -1    1    1    2    0  501 -0.76601032027E+01  0.19761359047E+02  0.98470031107E+02  0.10072504911E+03  0.00000000000E+00 0.  1.
</event>
<event>
 4    1  0.6718357E+001  0.2090868E+02  0.7546771E-02  0.1520573E+00
          2   -1    0    0  502    0  0.00000000000E+00  0.00000000000E+00  0.24798485767E+03  0.24798485767E+03  0.00000000000E+00 0.  1.
         -2   -1    0    0    0  501 -0.00000000000E+00 -0.00000000000E+00 -0.24922285485E+01  0.24922285485E+01  0.00000000000E+00 0. -1.
          1    1    1    2  502    0  0.12680296174E+02  0.16624775738E+02  0.19049564251E+03  0.19163966942E+03  0.00000000000E+00 0.  1.
         -1    1    1    2    0  501 -0.12680296174E+02 -0.16624775738E+02  0.54996986610E+02  0.58837416799E+02  0.00000000000E+00 0. -1.
</event>
<event>
 4    1  0.6718357E+001  0.2702286E+02  0.7546771E-02  0.1447379E+00
          2   -1    0    0  502    0  0.00000000000E+00  0.00000000000E+00  0.73414870421E+03  0.73414870421E+03  0.00000000000E+00 0. -1.
         -2   -1    0    0    0  501 -0.00000000000E+00 -0.00000000000E+00 -0.17207960346E+01  0.17207960346E+01  0.00000000000E+00 0.  1.
          1    1    1    2  502    0 -0.11600819137E+02 -0.24406065891E+02  0.12720599044E+03  0.13004460412E+03  0.00000000000E+00 0.  1.
         -1    1    1    2    0  501  0.11600819137E+02  0.24406065891E+02  0.60522191774E+03  0.60582489613E+03  0.00000000000E+00 0. -1.
</event>
<event>
 4    1  0.6718357E+001  0.3366672E+02  0.7546771E-02  0.1390187E+00
          2   -1    0    0  502    0  0.00000000000E+00  0.00000000000E+00  0.43615491796E+03  0.43615491796E+03  0.00000000000E+00 0.  1.
         -2   -1    0    0    0  501 -0.00000000000E+00 -0.00000000000E+00 -0.26283213018E+01  0.26283213018E+01  0.00000000000E+00 0. -1.
          1    1    1    2  502    0 -0.17950154308E+02  0.28482280514E+02  0.24004269437E+03  0.24239212748E+03  0.00000000000E+00 0.  1.
         -1    1    1    2    0  501  0.17950154308E+02 -0.28482280514E+02  0.19348390229E+03  0.19639111178E+03  0.00000000000E+00 0. -1.
</event>
<event>
 4    1  0.6718357E+001  0.3001336E+02  0.7546771E-02  0.1419480E+00
          2   -1    0    0  502    0  0.00000000000E+00  0.00000000000E+00  0.49235018977E+01  0.49235018977E+01  0.00000000000E+00 0. -1.
         -2   -1    0    0    0  501 -0.00000000000E+00 -0.00000000000E+00 -0.18755727784E+03  0.18755727784E+03  0.00000000000E+00 0.  1.
          1    1    1    2  502    0  0.21498280069E+02  0.20943394062E+02 -0.76248701145E+02  0.81943066986E+02  0.00000000000E+00 0. -1.
         -1    1    1    2    0  501 -0.21498280069E+02 -0.20943394062E+02 -0.10638507480E+03  0.11053771275E+03  0.00000000000E+00 0.  1.
</event>
<event>
 4    1  0.6718357E+001  0.2258074E+02  0.7546771E-02  0.1497831E+00
          2   -1    0    0  502    0  0.00000000000E+00  0.00000000000E+00  0.67158460263E+01  0.67158460263E+01  0.00000000000E+00 0.  1.
         -2   -1    0    0    0  501 -0.00000000000E+00 -0.00000000000E+00 -0.11146923589E+03  0.11146923589E+03  0.00000000000E+00 0. -1.
          1    1    1    2  502    0  0.20914131254E+02 -0.85140381220E+01 -0.19007199528E+02  0.29515476706E+02  0.00000000000E+00 0.  1.
         -1    1    1    2    0  501 -0.20914131254E+02  0.85140381220E+01 -0.85746190340E+02  0.88669605215E+02  0.00000000000E+00 0. -1.
</event>
<event>
 4    1  0.6718357E+001  0.2045835E+02  0.7546771E-02  0.1527140E+00
          2   -1    0    0  502    0  0.00000000000E+00  0.00000000000E+00  0.47289207192E+03  0.47289207192E+03  0.00000000000E+00 0.  1.
         -2   -1    0    0    0  501 -0.00000000000E+00 -0.00000000000E+00 -0.11116333640E+01  0.11116333640E+01  0.00000000000E+00 0. -1.
          1    1    1    2  502    0 -0.15048798536E+02  0.13859218279E+02  0.12889548947E+03  0.13050897086E+03  0.00000000000E+00 0. -1.
         -1    1    1    2    0  501  0.15048798536E+02 -0.13859218279E+02  0.34288494909E+03  0.34349473443E+03  0.00000000000E+00 0.  1.
</event>
<event>
 4    1  0.6718357E+001  0.2870343E+02  0.7546771E-02  0.1431208E+00
          2   -1    0    0  502    0  0.00000000000E+00  0.00000000000E+00  0.72048928760E+03  0.72048928760E+03  0.00000000000E+00 0. -1.
         -2   -1    0    0    0  501 -0.00000000000E+00 -0.00000000000E+00 -0.11561604678E+01  0.11561604678E+01  0.00000000000E+00 0.  1.
          1    1    1    2  502    0  0.18616974576E+02  0.21847085133E+02  0.32192375940E+03  0.32320085664E+03  0.00000000000E+00 0. -1.
         -1    1    1    2    0  501 -0.18616974576E+02 -0.21847085133E+02  0.39740936773E+03  0.39844459142E+03  0.00000000000E+00 0.  1.
</event>
<event>
 4    1  0.6718357E+001  0.2336262E+02  0.7546771E-02  0.1487994E+00
          2   -1    0    0  502    0  0.00000000000E+00  0.00000000000E+00  0.14904158774E+03  0.14904158774E+03  0.00000000000E+00 0. -1.
         -2   -1    0    0    0  501 -0.00000000000E+00 -0.00000000000E+00 -0.36647478180E+01  0.36647478180E+01  0.00000000000E+00 0.  1.
          1    1    1    2  502    0  0.68457183003E+01  0.22337147834E+02  0.70653928911E+02  0.74416326858E+02  0.00000000000E+00 0.  1.
         -1    1    1    2    0  501 -0.68457183003E+01 -0.22337147834E+02  0.74722911012E+02  0.78290008702E+02  0.00000000000E+00 0. -1.
</event>
<event>
 4    1  0.6718357E+001  0.2340364E+02  0.7546771E-02  0.1487491E+00
          2   -1    0    0  502    0  0.00000000000E+00  0.00000000000E+00  0.40466243458E+01  0.40466243458E+01  0.00000000000E+00 0. -1.
         -2   -1    0    0    0  501 -0.00000000000E+00 -0.00000000000E+00 -0.18569227808E+03  0.18569227808E+03  0.00000000000E+00 0.  1.
          1    1    1    2  502    0  0.98609271055E+01  0.21224805281E+02 -0.41428739532E+02  0.47582251962E+02  0.00000000000E+00 0. -1.
         -1    1    1    2    0  501 -0.98609271055E+01 -0.21224805281E+02 -0.14021691420E+03  0.14215665046E+03  0.00000000000E+00 0.  1.
</event>
<event>
 4    1  0.6718357E+001  0.2115313E+02  0.7546771E-02  0.1517090E+00
          2   -1    0    0  502    0  0.00000000000E+00  0.00000000000E+00  0.10097391844E+04  0.10097391844E+04  0.00000000000E+00 0. -1.
         -2   -1    0    0    0  501 -0.00000000000E+00 -0.00000000000E+00 -0.48432049982E+00  0.48432049982E+00  0.00000000000E+00 0.  1.
          1    1    1    2  502    0  0.68206609958E+01 -0.20023326899E+02  0.65191665013E+03  0.65225974408E+03  0.00000000000E+00 0. -1.
         -1    1    1    2    0  501 -0.68206609958E+01  0.20023326899E+02  0.35733821377E+03  0.35796376081E+03  0.00000000000E+00 0.  1.
</event>
<event>
 4    1  0.6718357E+001  0.2754156E+02  0.7546771E-02  0.1442243E+00
          2   -1    0    0  502    0  0.00000000000E+00  0.00000000000E+00  0.13038873313E+01  0.13038873313E+01  0.00000000000E+00 0.  1.
         -2   -1    0    0    0  501 -0.00000000000E+00 -0.00000000000E+00 -0.10076864564E+04  0.10076864564E+04  0.00000000000E+00 0. -1.
          1    1    1    2  502    0  0.49328639761E+01  0.27096205182E+02 -0.83118559365E+03  0.83164176698E+03  0.00000000000E+00 0. -1.
         -1    1    1    2    0  501 -0.49328639761E+01 -0.27096205182E+02 -0.17519697540E+03  0.17734857674E+03  0.00000000000E+00 0.  1.
</event>
<event>
 4    1  0.6718357E+001  0.2029714E+02  0.7546771E-02  0.1529541E+00
          2   -1    0    0  502    0  0.00000000000E+00  0.00000000000E+00  0.30273210688E+00  0.30273210688E+00  0.00000000000E+00 0. -1.
         -2   -1    0    0    0  501 -0.00000000000E+00 -0.00000000000E+00 -0.15797408626E+04  0.15797408626E+04  0.00000000000E+00 0.  1.
          1    1    1    2  502    0  0.20096966572E+02 -0.28435256216E+01 -0.49564439481E+03  0.49605981475E+03  0.00000000000E+00 0. -1.
         -1    1    1    2    0  501 -0.20096966572E+02  0.28435256216E+01 -0.10837937357E+04  0.10839837800E+04  0.00000000000E+00 0.  1.
</event>
<event>
 4    1  0.6718357E+001  0.2539914E+02  0.7546771E-02  0.1464387E+00
          2   -1    0    0  502    0  0.00000000000E+00  0.00000000000E+00  0.31711709408E+03  0.31711709408E+03  0.00000000000E+00 0.  1.
         -2   -1    0    0    0  501 -0.00000000000E+00 -0.00000000000E+00 -0.21839339783E+01  0.21839339783E+01  0.00000000000E+00 0. -1.
          1    1    1    2  502    0  0.10542830725E+02 -0.23107678834E+02  0.11567933596E+03  0.11843489718E+03  0.00000000000E+00 0.  1.
         -1    1    1    2    0  501 -0.10542830725E+02  0.23107678834E+02  0.19925382415E+03  0.20086613089E+03  0.00000000000E+00 0. -1.
</event>
<event>
 4    1  0.6718357E+001  0.2669064E+02  0.7546771E-02  0.1450741E+00
          2   -1    0    0  502    0  0.00000000000E+00  0.00000000000E+00  0.89060278002E+03  0.89060278002E+03  0.00000000000E+00 0. -1.
         -2   -1    0    0    0  501 -0.00000000000E+00 -0.00000000000E+00 -0.10384189466E+01  0.10384189466E+01  0.00000000000E+00 0.  1.
          1    1    1    2  502    0 -0.18476909760E+02 -0.19261210078E+02  0.65844949333E+03  0.65899023185E+03  0.00000000000E+00 0. -1.
         -1    1    1    2    0  501  0.18476909760E+02  0.19261210078E+02  0.23111486774E+03  0.23265096711E+03  0.00000000000E+00 0.  1.
</event>
<event>
 4    1  0.6718357E+001  0.2553873E+02  0.7546771E-02  0.1462866E+00
          2   -1    0    0  502    0  0.00000000000E+00  0.00000000000E+00  0.14219297136E+04  0.14219297136E+04  0.00000000000E+00 0. -1.
         -2   -1    0    0    0  501 -0.00000000000E+00 -0.00000000000E+00 -0.75394794371E+00  0.75394794371E+00  0.00000000000E+00 0.  1.
          1    1    1    2  502    0  0.25102600506E+02 -0.46995766340E+01  0.11557391551E+04  0.11560212892E+04  0.00000000000E+00 0. -1.
         -1    1    1    2    0  501 -0.25102600506E+02  0.46995766340E+01  0.26543661061E+03  0.26666237234E+03  0.00000000000E+00 0.  1.
</event>
<event>
 4    1  0.6718357E+001  0.5329165E+02  0.7546771E-02  0.1284499E+00
          2   -1    0    0  502    0  0.00000000000E+00  0.00000000000E+00  0.42075466227E+02  0.42075466227E+02  0.00000000000E+00 0. -1.
         -2   -1    0    0    0  501 -0.00000000000E+00 -0.00000000000E+00 -0.13384738919E+03  0.13384738919E+03  0.00000000000E+00 0.  1.
          1    1    1    2  502    0 -0.53062551817E+02 -0.49361208606E+01  0.16044821358E+02  0.55654613348E+02  0.00000000000E+00 0. -1.
         -1    1    1    2    0  501  0.53062551817E+02  0.49361208606E+01 -0.10781674432E+03  0.12026824207E+03  0.00000000000E+00 0.  1.
</event>
<event>
 4    1  0.6718357E+001  0.3177026E+02  0.7546771E-02  0.1404812E+00
          2   -1    0    0  502    0  0.00000000000E+00  0.00000000000E+00  0.42799372338E+01  0.42799372338E+01  0.00000000000E+00 0. -1.
         -2   -1    0    0    0  501 -0.00000000000E+00 -0.00000000000E+00 -0.24077359704E+03  0.24077359704E+03  0.00000000000E+00 0.  1.
          1    1    1    2  502    0 -0.26790447780E+02  0.17076918622E+02 -0.13579890792E+03  0.13946574000E+03  0.00000000000E+00 0.  1.
         -1    1    1    2    0  501  0.26790447780E+02 -0.17076918622E+02 -0.10069475189E+03  0.10558779427E+03  0.00000000000E+00 0. -1.
</event>
<event>
 4    1  0.6718357E+001  0.3374514E+02  0.7546771E-02  0.1389606E+00
          2   -1    0    0  502    0  0.00000000000E+00  0.00000000000E+00  0.40114226895E+03  0.40114226895E+03  0.00000000000E+00 0.  1.
         -2   -1    0    0    0  501 -0.00000000000E+00 -0.00000000000E+00 -0.29506564367E+01  0.29506564367E+01  0.00000000000E+00 0. -1.
          1    1    1    2  502    0  0.22829230198E+02 -0.24850766273E+02  0.15974446744E+03  0.16326980497E+03  0.00000000000E+00 0.  1.
         -1    1    1    2    0  501 -0.22829230198E+02  0.24850766273E+02  0.23844714507E+03  0.24082312042E+03  0.00000000000E+00 0. -1.
</event>
<event>
 4    1  0.6718357E+001  0.2095779E+02  0.7546771E-02  0.1519868E+00
          2   -1    0    0  502    0  0.00000000000E+00  0.00000000000E+00  0.29650803530E+01  0.29650803530E+01  0.00000000000E+00 0.  1.
         -2   -1    0    0    0  501 -0.00000000000E+00 -0.00000000000E+00 -0.15027105478E+03  0.15027105478E+03  0.00000000000E+00 0. -1.
          1    1    1    2  502    0 -0.30902958538E+01 -0.20728703530E+02 -0.82790036409E+02  0.85401517593E+02  0.00000000000E+00 0.  1.
         -1    1    1    2    0  501  0.30902958538E+01  0.20728703530E+02 -0.64515938016E+02  0.67834617538E+02  0.00000000000E+00 0. -1.
</event>
<event>
 4    1  0.6718357E+001  0.2014453E+02  0.7546771E-02  0.1531838E+00
          2   -1    0    0  502    0  0.00000000000E+00  0.00000000000E+00  0.12661932412E+04  0.12661932412E+04  0.00000000000E+00 0. -1.
         -2   -1    0    0    0  501 -0.00000000000E+00 -0.00000000000E+00 -0.34256221563E+00  0.34256221563E+00  0.00000000000E+00 0.  1.
          1    1    1    2  502    0 -0.17700784538E+01 -0.20066614578E+02  0.79367174951E+03  0.79392735698E+03  0.00000000000E+00 0.  1.
         -1    1    1    2    0  501  0.17700784538E+01  0.20066614578E+02  0.47217892947E+03  0.47260844642E+03  0.00000000000E+00 0. -1.
</event>
<event>
 4    1  0.6718357E+001  0.4968187E+02  0.7546771E-02  0.1299558E+00
          2   -1    0    0  502    0  0.00000000000E+00  0.00000000000E+00  0.86829662967E+03  0.86829662967E+03  0.00000000000E+00 0.  1.
         -2   -1    0    0    0  501 -0.00000000000E+00 -0.00000000000E+00 -0.29303857079E+01  0.29303857079E+01  0.00000000000E+00 0. -1.
          1    1    1    2  502    0  0.49408323003E+02 -0.52063642237E+01  0.50804562342E+03  0.51046904322E+03  0.00000000000E+00 0.  1.
         -1    1    1    2    0  501 -0.49408323003E+02  0.52063642237E+01  0.35732062054E+03  0.36075797215E+03  0.00000000000E+00 0. -1.
</event>
<event>
 4    1  0.6718357E+001  0.2426083E+02  0.7546771E-02  0.1477245E+00
          2   -1    0    0  502    0  0.00000000000E+00  0.00000000000E+00  0.46265904422E+03  0.46265904422E+03  0.00000000000E+00 0.  1.
         -2   -1    0    0    0  501 -0.00000000000E+00 -0.00000000000E+00 -0.28723315915E+01  0.28723315915E+01  0.00000000000E+00 0. -1.
          1    1    1    2  502    0  0.36906478220E+01 -0.23978467296E+02  0.56160646132E+02  0.61176841608E+02  0.00000000000E+00 0. -1.
         -1    1    1    2    0  501 -0.36906478220E+01  0.23978467296E+02  0.40362606650E+03  0.40435453421E+03  0.00000000000E+00 0.  1.
</event>
<event>
 4    1  0.6718357E+001  0.2295666E+02  0.7546771E-02  0.1493043E+00
          2   -1    0    0  502    0  0.00000000000E+00  0.00000000000E+00  0.91262070196E+02  0.91262070196E+02  0.00000000000E+00 0.  1.
         -2   -1    0    0    0  501 -0.00000000000E+00 -0.00000000000E+00 -0.58310721935E+01  0.58310721935E+01  0.00000000000E+00 0. -1.
          1    1    1    2  502    0 -0.17430532846E+02  0.14939366522E+02  0.47490136762E+02  0.52747713098E+02  0.00000000000E+00 0. -1.
         -1    1    1    2    0  501  0.17430532846E+02 -0.14939366522E+02  0.37940861241E+02  0.44345429292E+02  0.00000000000E+00 0.  1.
</event>
<event>
 4    1  0.6718357E+001  0.3559067E+02  0.7546771E-02  0.1376458E+00
          2   -1    0    0  502    0  0.00000000000E+00  0.00000000000E+00  0.25903328979E+04  0.25903328979E+04  0.00000000000E+00 0. -1.
         -2   -1    0    0    0  501 -0.00000000000E+00 -0.00000000000E+00 -0.76086366201E+00  0.76086366201E+00  0.00000000000E+00 0.  1.
          1    1    1    2  502    0  0.30005564637E+02 -0.19140576749E+02  0.20691912199E+04  0.20694972819E+04  0.00000000000E+00 0. -1.
         -1    1    1    2    0  501 -0.30005564637E+02  0.19140576749E+02  0.52038081441E+03  0.52159647966E+03  0.00000000000E+00 0.  1.
</event>
<event>
 4    1  0.6718357E+001  0.3695434E+02  0.7546771E-02  0.1367321E+00
          2   -1    0    0  502    0  0.00000000000E+00  0.00000000000E+00  0.28552630584E+02  0.28552630584E+02  0.00000000000E+00 0.  1.
         -2   -1    0    0    0  501 -0.00000000000E+00 -0.00000000000E+00 -0.96521453135E+02  0.96521453135E+02  0.00000000000E+00 0. -1.
          1    1    1    2  502    0 -0.26761297847E+02 -0.25484426595E+02 -0.78402459379E+02  0.86675075414E+02  0.00000000000E+00 0. -1.
         -1    1    1    2    0  501  0.26761297847E+02  0.25484426595E+02  0.10433636828E+02  0.38399008305E+02  0.00000000000E+00 0.  1.
</event>
<event>
 4    1  0.6718357E+001  0.2017917E+02  0.7546771E-02  0.1531314E+00
          2   -1    0    0  502    0  0.00000000000E+00  0.00000000000E+00  0.10413986183E+04  0.10413986183E+04  0.00000000000E+00 0.  1.
         -2   -1    0    0    0  501 -0.00000000000E+00 -0.00000000000E+00 -0.48466075135E+00  0.48466075135E+00  0.00000000000E+00 0. -1.
          1    1    1    2  502    0 -0.10844078335E+02 -0.17017784974E+02  0.74944978884E+03  0.74972140494E+03  0.00000000000E+00 0.  1.
         -1    1    1    2    0  501  0.10844078335E+02  0.17017784974E+02  0.29146416873E+03  0.29216187413E+03  0.00000000000E+00 0. -1.
</event>
<event>
 4    1  0.6718357E+001  0.2466834E+02  0.7546771E-02  0.1472548E+00
          2   -1    0    0  502    0  0.00000000000E+00  0.00000000000E+00  0.21516879252E+01  0.21516879252E+01  0.00000000000E+00 0.  1.
         -2   -1    0    0    0  501 -0.00000000000E+00 -0.00000000000E+00 -0.31709118312E+03  0.31709118312E+03  0.00000000000E+00 0. -1.
          1    1    1    2  502    0 -0.16211578181E+02  0.18593319552E+02 -0.20995093631E+03  0.21139518078E+03  0.00000000000E+00 0.  1.
         -1    1    1    2    0  501  0.16211578181E+02 -0.18593319552E+02 -0.10498855889E+03  0.10784769027E+03  0.00000000000E+00 0. -1.
</event>
<event>
 4    1  0.6718357E+001  0.2090007E+02  0.7546771E-02  0.1520696E+00
          2   -1    0    0  502    0  0.00000000000E+00  0.00000000000E+00  0.10186315086E+02  0.10186315086E+02  0.00000000000E+00 0.  1.
         -2   -1    0    0    0  501 -0.00000000000E+00 -0.00000000000E+00 -0.81708267525E+02  0.81708267525E+02  0.00000000000E+00 0. -1.
          1    1    1    2  502    0 -0.17415325715E+02  0.11555058135E+02 -0.67433879981E+02  0.70598449753E+02  0.00000000000E+00 0. -1.
         -1    1    1    2    0  501  0.17415325715E+02 -0.11555058135E+02 -0.40880724587E+01  0.21296132858E+02  0.00000000000E+00 0.  1.
</event>
<event>
 4    1  0.6718357E+001  0.2191795E+02  0.7546771E-02  0.1506552E+00
          2   -1    0    0  502    0  0.00000000000E+00  0.00000000000E+00  0.14787578740E+02  0.14787578740E+02  0.00000000000E+00 0.  1.
         -2   -1    0    0    0  501 -0.00000000000E+00 -0.00000000000E+00 -0.33943587144E+02  0.33943587144E+02  0.00000000000E+00 0. -1.
          1    1    1    2  502    0 -0.14096368544E+02 -0.16783588515E+02 -0.45297293628E+01  0.22381128159E+02  0.00000000000E+00 0.  1.
         -1    1    1    2    0  501  0.14096368544E+02  0.16783588515E+02 -0.14626279041E+02  0.26350037726E+02  0.00000000000E+00 0. -1.
</event>
<event>
 4    1  0.6718357E+001  0.2192590E+02  0.7546771E-02  0.1506445E+00
          2   -1    0    0  502    0  0.00000000000E+00  0.00000000000E+00  0.10981186552E+02  0.10981186552E+02  0.00000000000E+00 0.  1.
         -2   -1    0    0    0  501 -0.00000000000E+00 -0.00000000000E+00 -0.44573498429E+02  0.44573498429E+02  0.00000000000E+00 0. -1.
          1    1    1    2  502    0  0.21305263191E+02  0.51798712029E+01 -0.20504673727E+02  0.30019775981E+02  0.00000000000E+00 0. -1.
         -1    1    1    2    0  501 -0.21305263191E+02 -0.51798712029E+01 -0.13087638150E+02  0.25534909000E+02  0.00000000000E+00 0.  1.
</event>
<event>
 4    1  0.6718357E+001  0.2025069E+02  0.7546771E-02  0.1530237E+00
          2   -1    0    0  502    0  0.00000000000E+00  0.00000000000E+00  0.21013255962E+04  0.21013255962E+04  0.00000000000E+00 0.  1.
         -2   -1    0    0    0  501 -0.00000000000E+00 -0.00000000000E+00 -0.22069635982E+00  0.22069635982E+00  0.00000000000E+00 0. -1.
          1    1    1    2  502    0 -0.42027573463E+01 -0.19809774642E+02  0.14079968756E+04  0.14081424970E+04  0.00000000000E+00 0. -1.
         -1    1    1    2    0  501  0.42027573463E+01  0.19809774642E+02  0.69310802426E+03  0.69340379551E+03  0.00000000000E+00 0.  1.
</event>
<event>
 4    1  0.6718357E+001  0.3163976E+02  0.7546771E-02  0.1405863E+00
          2   -1    0    0  502    0  0.00000000000E+00  0.00000000000E+00  0.13974225008E+04  0.13974225008E+04  0.00000000000E+00 0.  1.
         -2   -1    0    0    0  501 -0.00000000000E+00 -0.00000000000E+00 -0.74163662111E+00  0.74163662111E+00  0.00000000000E+00 0. -1.
          1    1    1    2  502    0  0.73631045397E+01  0.30771075690E+02  0.82736981816E+03  0.82797457112E+03  0.00000000000E+00 0. -1.
         -1    1    1    2    0  501 -0.73631045397E+01 -0.30771075690E+02  0.56931104604E+03  0.57018956633E+03  0.00000000000E+00 0.  1.
</event>
<event>
 4    1  0.6718357E+001  0.3072052E+02  0.7546771E-02  0.1413436E+00
          2   -1    0    0  502    0  0.00000000000E+00  0.00000000000E+00  0.78900275625E+02  0.78900275625E+02  0.00000000000E+00 0. -1.
         -2   -1    0    0    0  501 -0.00000000000E+00 -0.00000000000E+00 -0.93852690672E+02  0.93852690672E+02  0.00000000000E+00 0.  1.
          1    1    1    2  502    0 -0.29765264104E+02 -0.76012637247E+01 -0.88160922100E+02  0.93360046824E+02  0.00000000000E+00 0.  1.
         -1    1    1    2    0  501  0.29765264104E+02  0.76012637247E+01  0.73208507054E+02  0.79392919473E+02  0.00000000000E+00 0. -1.
</event>
<event>
 4    1  0.6718357E+001  0.2268349E+02  0.7546771E-02  0.1496511E+00
          2   -1    0    0  502    0  0.00000000000E+00  0.00000000000E+00  0.17374812634E+03  0.17374812634E+03  0.00000000000E+00 0.  1.
         -2   -1    0    0    0  501 -0.00000000000E+00 -0.00000000000E+00 -0.80505657596E+01  0.80505657596E+01  0.00000000000E+00 0. -1.
          1    1    1    2  502    0  0.20433671934E+02 -0.98491460068E+01  0.10576769507E+02  0.25028157722E+02  0.00000000000E+00 0. -1.
         -1    1    1    2    0  501 -0.20433671934E+02  0.98491460068E+01  0.15512079107E+03  0.15677053438E+03  0.00000000000E+00 0.  1.
</event>
<event>
 4    1  0.6718357E+001  0.3233006E+02  0.7546771E-02  0.1400372E+00
          2   -1    0    0  502    0  0.00000000000E+00  0.00000000000E+00  0.39964379807E+01  0.39964379807E+01  0.00000000000E+00 0.  1.
         -2   -1    0    0    0  501 -0.00000000000E+00 -0.00000000000E+00 -0.26492941073E+03  0.26492941073E+03  0.00000000000E+00 0. -1.
          1    1    1    2  502    0 -0.62342118415E+01 -0.31723297367E+02 -0.14567286335E+03  0.14921734520E+03  0.00000000000E+00 0. -1.
         -1    1    1    2    0  501  0.62342118415E+01  0.31723297367E+02 -0.11526010940E+03  0.11970850351E+03  0.00000000000E+00 0.  1.
</event>
<event>
 4    1  0.6718357E+001  0.2474595E+02  0.7546771E-02  0.1471666E+00
          2   -1    0    0  502    0  0.00000000000E+00  0.00000000000E+00  0.88587140524E+00  0.88587140524E+00  0.00000000000E+00 0. -1.
         -2   -1    0    0    0  501 -0.00000000000E+00 -0.00000000000E+00 -0.74039624715E+03  0.74039624715E+03  0.00000000000E+00 0.  1.
          1    1    1    2  502    0  0.14551090043E+02  0.20015691843E+02 -0.46524322910E+03  0.46590087397E+03  0.00000000000E+00 0.  1.
         -1    1    1    2    0  501 -0.14551090043E+02 -0.20015691843E+02 -0.27426714665E+03  0.27538124459E+03  0.00000000000E+00 0. -1.
</event>
<event>
 4    1  0.6718357E+001  0.2831229E+02  0.7546771E-02  0.1434853E+00
          2   -1    0    0  502    0  0.00000000000E+00  0.00000000000E+00  0.10677060435E+04  0.10677060435E+04  0.00000000000E+00 0.  1.
         -2   -1    0    0    0  501 -0.00000000000E+00 -0.00000000000E+00 -0.92143211459E+00  0.92143211459E+00  0.00000000000E+00 0. -1.
          1    1    1    2  502    0 -0.14140471449E+02 -0.24528199537E+02  0.76335240499E+03  0.76387726744E+03  0.00000000000E+00 0.  1.
         -1    1    1    2    0  501  0.14140471449E+02  0.24528199537E+02  0.30343220639E+03  0.30475020817E+03  0.00000000000E+00 0. -1.
</event>
<event>
 4    1  0.6718357E+001  0.3885516E+02  0.7546771E-02  0.1355328E+00
          2   -1    0    0  502    0  0.00000000000E+00  0.00000000000E+00  0.28548321017E+03  0.28548321017E+03  0.00000000000E+00 0. -1.
         -2   -1    0    0    0  501 -0.00000000000E+00 -0.00000000000E+00 -0.84383978185E+01  0.84383978185E+01  0.00000000000E+00 0.  1.
          1    1    1    2  502    0  0.16588024844E+02  0.35136319011E+02  0.22831342685E+03  0.23159608019E+03  0.00000000000E+00 0. -1.
         -1    1    1    2    0  501 -0.16588024844E+02 -0.35136319011E+02  0.48731385504E+02  0.62325527796E+02  0.00000000000E+00 0.  1.
</event>
<event>
 4    1  0.6718357E+001  0.2040686E+02  0.7546771E-02  0.1527904E+00
          2   -1    0    0  502    0  0.00000000000E+00  0.00000000000E+00  0.47634804751E+03  0.47634804751E+03  0.00000000000E+00 0.  1.
         -2   -1    0    0    0  501 -0.00000000000E+00 -0.00000000000E+00 -0.12238493887E+01  0.12238493887E+01  0.00000000000E+00 0. -1.
          1    1    1    2  502    0 -0.13609164017E+00  0.20406402777E+02  0.10993588934E+03  0.11181386122E+03  0.00000000000E+00 0. -1.
         -1    1    1    2    0  501  0.13609164017E+00 -0.20406402777E+02  0.36518830878E+03  0.36575803568E+03  0.00000000000E+00 0.  1.
</event>
<event>
 4    1  0.6718357E+001  0.2144403E+02  0.7546771E-02  0.1513019E+00
          2   -1    0    0  502    0  0.00000000000E+00  0.00000000000E+00  0.64642408411E+03  0.64642408411E+03  0.00000000000E+00 0. -1.
         -2   -1    0    0    0  501 -0.00000000000E+00 -0.00000000000E+00 -0.12838936699E+01  0.12838936699E+01  0.00000000000E+00 0.  1.
          1    1    1    2  502    0 -0.17135096735E+02  0.12893215964E+02  0.53883274939E+03  0.53925928678E+03  0.00000000000E+00 0. -1.
         -1    1    1    2    0  501  0.17135096735E+02 -0.12893215964E+02  0.10630744104E+03  0.10844869100E+03  0.00000000000E+00 0.  1.
</event>
<event>
 4    1  0.6718357E+001  0.2561737E+02  0.7546771E-02  0.1462014E+00
          2   -1    0    0  502    0  0.00000000000E+00  0.00000000000E+00  0.22159620718E+03  0.22159620718E+03  0.00000000000E+00 0.  1.
         -2   -1    0    0    0  501 -0.00000000000E+00 -0.00000000000E+00 -0.36659753366E+01  0.36659753366E+01  0.00000000000E+00 0. -1.
          1    1    1    2  502    0  0.10936014207E+02  0.23165777300E+02  0.15834009029E+03  0.16039898328E+03  0.00000000000E+00 0.  1.
         -1    1    1    2    0  501 -0.10936014207E+02 -0.23165777300E+02  0.59590141550E+02  0.64863199231E+02  0.00000000000E+00 0. -1.
</event>
<event>
 4    1  0.6718357E+001  0.2324656E+02  0.7546771E-02  0.1489425E+00
          2   -1    0    0  502    0  0.00000000000E+00  0.00000000000E+00  0.23956047834E+04  0.23956047834E+04  0.00000000000E+00 0.  1.
         -2   -1    0    0    0  501 -0.00000000000E+00 -0.00000000000E+00 -0.23076739856E+00  0.23076739856E+00  0.00000000000E+00 0. -1.
          1    1    1    2  502    0  0.20132435119E+02  0.11622721028E+02  0.10180984860E+04  0.10183638494E+04  0.00000000000E+00 0. -1.
         -1    1    1    2    0  501 -0.20132435119E+02 -0.11622721028E+02  0.13772755301E+04  0.13774717014E+04  0.00000000000E+00 0.  1.
</event>
<event>
 4    1  0.6718357E+001  0.2600896E+02  0.7546771E-02  0.1457826E+00
          2   -1    0    0  502    0  0.00000000000E+00  0.00000000000E+00  0.10349362933E+03  0.10349362933E+03  0.00000000000E+00 0. -1.
         -2   -1    0    0    0  501 -0.00000000000E+00 -0.00000000000E+00 -0.11751521424E+02  0.11751521424E+02  0.00000000000E+00 0.  1.
          1    1    1    2  502    0 -0.86779525494E+01  0.24518546590E+02  0.84257840691E+02  0.88180778547E+02  0.00000000000E+00 0. -1.
         -1    1    1    2    0  501  0.86779525494E+01 -0.24518546590E+02  0.74842672194E+01  0.27064372210E+02  0.00000000000E+00 0.  1.
</event>
<event>
 4    1  0.6718357E+001  0.2142489E+02  0.7546771E-02  0.1513284E+00
          2   -1    0    0  502    0  0.00000000000E+00  0.00000000000E+00  0.10647506484E+04  0.10647506484E+04  0.00000000000E+00 0.  1.
         -2   -1    0    0    0  501 -0.00000000000E+00 -0.00000000000E+00 -0.76997792402E+00  0.76997792402E+00  0.00000000000E+00 0. -1.
          1    1    1    2  502    0 -0.20354933772E+02  0.66860131793E+01  0.17855734296E+03  0.17983812395E+03  0.00000000000E+00 0. -1.
         -1    1    1    2    0  501  0.20354933772E+02 -0.66860131793E+01  0.88542332751E+03  0.88568250237E+03  0.00000000000E+00 0.  1.
</event>
<event>
 4    1  0.6718357E+001  0.2149223E+02  0.7546771E-02  0.1512352E+00
          2   -1    0    0  502    0  0.00000000000E+00  0.00000000000E+00  0.77819552396E+02  0.77819552396E+02  0.00000000000E+00 0.  1.
         -2   -1    0    0    0  501 -0.00000000000E+00 -0.00000000000E+00 -0.62021410979E+01  0.62021410979E+01  0.00000000000E+00 0. -1.
          1    1    1    2  502    0 -0.97626931691E+01 -0.19146949286E+02  0.44515671518E+02  0.49432386707E+02  0.00000000000E+00 0.  1.
         -1    1    1    2    0  501  0.97626931691E+01  0.19146949286E+02  0.27101739780E+02  0.34589306787E+02  0.00000000000E+00 0. -1.
</event>
<event>
 4    1  0.6718357E+001  0.2550491E+02  0.7546771E-02  0.1463234E+00
          2   -1    0    0  502    0  0.00000000000E+00  0.00000000000E+00  0.18916020438E+03  0.18916020438E+03  0.00000000000E+00 0.  1.
         -2   -1    0    0    0  501 -0.00000000000E+00 -0.00000000000E+00 -0.35790467785E+01  0.35790467785E+01  0.00000000000E+00 0. -1.
          1    1    1    2  502    0 -0.13156908473E+02  0.21849395896E+02  0.11186142825E+03  0.11473220765E+03  0.00000000000E+00 0.  1.
         -1    1    1    2    0  501  0.13156908473E+02 -0.21849395896E+02  0.73719729350E+02  0.78007043509E+02  0.00000000000E+00 0. -1.
</event>
<event>
 4    1  0.6718357E+001  0.3092168E+02  0.7546771E-02  0.1411752E+00
          2   -1    0    0  502    0  0.00000000000E+00  0.00000000000E+00  0.18110905234E+04  0.18110905234E+04  0.00000000000E+00 0. -1.
         -2   -1    0    0    0  501 -0.00000000000E+00 -0.00000000000E+00 -0.52895579021E+00  0.52895579021E+00  0.00000000000E+00 0.  1.
          1    1    1    2  502    0  0.96476267561E+01 -0.29378112355E+02  0.94494220005E+03  0.94544799520E+03  0.00000000000E+00 0.  1.
         -1    1    1    2    0  501 -0.96476267561E+01  0.29378112355E+02  0.86561936753E+03  0.86617148396E+03  0.00000000000E+00 0. -1.
</event>
<event>
 4    1  0.6718357E+001  0.2509665E+02  0.7546771E-02  0.1467725E+00
          2   -1    0    0  502    0  0.00000000000E+00  0.00000000000E+00  0.20563495328E+02  0.20563495328E+02  0.00000000000E+00 0. -1.
         -2   -1    0    0    0  501 -0.00000000000E+00 -0.00000000000E+00 -0.31389440173E+02  0.31389440173E+02  0.00000000000E+00 0.  1.
          1    1    1    2  502    0 -0.22354109386E+02  0.11407693712E+02 -0.94558233744E+01  0.26818916420E+02  0.00000000000E+00 0. -1.
         -1    1    1    2    0  501  0.22354109386E+02 -0.11407693712E+02 -0.13701214704E+01  0.25134019080E+02  0.00000000000E+00 0.  1.
</event>
<event>
 4    1  0.6718357E+001  0.2336602E+02  0.7546771E-02  0.1487952E+00
          2   -1    0    0  502    0  0.00000000000E+00  0.00000000000E+00  0.14293712876E+03  0.14293712876E+03  0.00000000000E+00 0. -1.
         -2   -1    0    0    0  501 -0.00000000000E+00 -0.00000000000E+00 -0.40841873581E+01  0.40841873581E+01  0.00000000000E+00 0.  1.
          1    1    1    2  502    0  0.80267612554E+01 -0.21944063227E+02  0.88134809508E+02  0.91179578055E+02  0.00000000000E+00 0. -1.
         -1    1    1    2    0  501 -0.80267612554E+01  0.21944063227E+02  0.50718131892E+02  0.55841738062E+02  0.00000000000E+00 0.  1.
</event>
<event>
 4    1  0.6718357E+001  0.2001561E+02  0.7546771E-02  0.1533797E+00
          2   -1    0    0  502    0  0.00000000000E+00  0.00000000000E+00  0.71120927255E+00  0.71120927255E+00  0.00000000000E+00 0.  1.
         -2   -1    0    0    0  501 -0.00000000000E+00 -0.00000000000E+00 -0.63093938135E+03  0.63093938135E+03  0.00000000000E+00 0. -1.
          1    1    1    2  502    0  0.17260577557E+02  0.10133956539E+02 -0.41852133103E+03  0.41899967678E+03  0.00000000000E+00 0. -1.
         -1    1    1    2    0  501 -0.17260577557E+02 -0.10133956539E+02 -0.21170684105E+03  0.21265091385E+03  0.00000000000E+00 0.  1.
</event>
<event>
 4    1  0.6718357E+001  0.2098871E+02  0.7546771E-02  0.1519426E+00
          2   -1    0    0  502    0  0.00000000000E+00  0.00000000000E+00  0.79240350224E+02  0.79240350224E+02  0.00000000000E+00 0. -1.
         -2   -1    0    0    0  501 -0.00000000000E+00 -0.00000000000E+00 -0.58684396927E+01  0.58684396927E+01  0.00000000000E+00 0.  1.
          1    1    1    2  502    0 -0.20909113608E+02 -0.18261895684E+01  0.26919992119E+02  0.34135201419E+02  0.00000000000E+00 0.  1.
         -1    1    1    2    0  501  0.20909113608E+02  0.18261895684E+01  0.46451918412E+02  0.50973588498E+02  0.00000000000E+00 0. -1.
</event>
<event>
 4    1  0.6718357E+001  0.2073026E+02  0.7546771E-02  0.1523151E+00
          2   -1    0    0  502    0  0.00000000000E+00  0.00000000000E+00  0.80411038688E+02  0.80411038688E+02  0.00000000000E+00 0. -1.
         -2   -1    0    0    0  501 -0.00000000000E+00 -0.00000000000E+00 -0.58376684556E+01  0.58376684556E+01  0.00000000000E+00 0.  1.
          1    1    1    2  502    0 -0.13416952288E+02  0.15802817525E+02  0.49823075325E+02  0.53963714524E+02  0.00000000000E+00 0. -1.
         -1    1    1    2    0  501  0.13416952288E+02 -0.15802817525E+02  0.24750294908E+02  0.32284992619E+02  0.00000000000E+00 0.  1.
</event>
<event>
 4    1  0.6718357E+001  0.4745884E+02  0.7546771E-02  0.1309583E+00
          2   -1    0    0  502    0  0.00000000000E+00  0.00000000000E+00  0.21858467750E+03  0.21858467750E+03  0.00000000000E+00 0.  1.
         -2   -1    0    0    0  501 -0.00000000000E+00 -0.00000000000E+00 -0.12420917129E+02  0.12420917129E+02  0.00000000000E+00 0. -1.
          1    1    1    2  502    0  0.12600087758E+02  0.45755645523E+02  0.55400745939E+02  0.72949187517E+02  0.00000000000E+00 0. -1.
         -1    1    1    2    0  501 -0.12600087758E+02 -0.45755645523E+02  0.15076301443E+03  0.15805640711E+03  0.00000000000E+00 0.  1.
</event>
<event>
 4    1  0.6718357E+001  0.5614914E+02  0.7546771E-02  0.1273509E+00
          2   -1    0    0  502    0  0.00000000000E+00  0.00000000000E+00  0.76321484298E+03  0.76321484298E+03  0.00000000000E+00 0. -1.
         -2   -1    0    0    0  501 -0.00000000000E+00 -0.00000000000E+00 -0.42010692048E+01  0.42010692048E+01  0.00000000000E+00 0.  1.
          1    1    1    2  502    0 -0.28635377932E+01 -0.56076071112E+02  0.42911475897E+03  0.43277269087E+03  0.00000000000E+00 0.  1.
         -1    1    1    2    0  501  0.28635377932E+01  0.56076071112E+02  0.32989901481E+03  0.33464322132E+03  0.00000000000E+00 0. -1.
</event>
<event>
 4    1  0.6718357E+001  0.2122280E+02  0.7546771E-02  0.1516108E+00
          2   -1    0    0  502    0  0.00000000000E+00  0.00000000000E+00  0.22801532140E+03  0.22801532140E+03  0.00000000000E+00 0. -1.
         -2   -1    0    0    0  501 -0.00000000000E+00 -0.00000000000E+00 -0.19804328000E+01  0.19804328000E+01  0.00000000000E+00 0.  1.
          1    1    1    2  502    0 -0.21011412060E+02 -0.29879154566E+01  0.11885083008E+03  0.12073080339E+03  0.00000000000E+00 0.  1.
         -1    1    1    2    0  501  0.21011412060E+02  0.29879154566E+01  0.10718405851E+03  0.10926495081E+03  0.00000000000E+00 0. -1.
</event>
<event>
 4    1  0.6718357E+001  0.3932847E+02  0.7546771E-02  0.1352467E+00
          2   -1    0    0  502    0  0.00000000000E+00  0.00000000000E+00  0.19291248649E+03  0.19291248649E+03  0.00000000000E+00 0. -1.
         -2   -1    0    0    0  501 -0.00000000000E+00 -0.00000000000E+00 -0.31057967564E+02  0.31057967564E+02  0.00000000000E+00 0.  1.
          1    1    1    2  502    0  0.17862979640E+02  0.35037725854E+02 -0.15526087433E+02  0.42282238181E+02  0.00000000000E+00 0.  1.
         -1    1    1    2    0  501 -0.17862979640E+02 -0.35037725854E+02  0.17738060636E+03  0.18168821587E+03  0.00000000000E+00 0. -1.
</event>
<event>
 4    1  0.6718357E+001  0.2416607E+02  0.7546771E-02  0.1478353E+00
          2   -1    0    0  502    0  0.00000000000E+00  0.00000000000E+00  0.17954316480E+04  0.17954316480E+04  0.00000000000E+00 0. -1.
         -2   -1    0    0    0  501 -0.00000000000E+00 -0.00000000000E+00 -0.35870357761E+00  0.35870357761E+00  0.00000000000E+00 0.  1.
          1    1    1    2  502    0 -0.22035720872E+02  0.99209778758E+01  0.11716646962E+04  0.11719138873E+04  0.00000000000E+00 0.  1.
         -1    1    1    2    0  501  0.22035720872E+02 -0.99209778758E+01  0.62340824820E+03  0.62387646431E+03  0.00000000000E+00 0. -1.
</event>
<event>
 4    1  0.6718357E+001  0.2980519E+02  0.7546771E-02  0.1421297E+00
          2   -1    0    0  502    0  0.00000000000E+00  0.00000000000E+00  0.50927276090E+01  0.50927276090E+01  0.00000000000E+00 0. -1.
         -2   -1    0    0    0  501 -0.00000000000E+00 -0.00000000000E+00 -0.32575964969E+03  0.32575964969E+03  0.00000000000E+00 0.  1.
          1    1    1    2  502    0  0.16948023151E+02  0.24517618305E+02 -0.47584981025E+02  0.56148726746E+02  0.00000000000E+00 0. -1.
         -1    1    1    2    0  501 -0.16948023151E+02 -0.24517618305E+02 -0.27308194106E+03  0.27470365056E+03  0.00000000000E+00 0.  1.
</event>
<event>
 4    1  0.6718357E+001  0.2347534E+02  0.7546771E-02  0.1486614E+00
          2   -1    0    0  502    0  0.00000000000E+00  0.00000000000E+00  0.75615442095E+02  0.75615442095E+02  0.00000000000E+00 0.  1.
         -2   -1    0    0    0  501 -0.00000000000E+00 -0.00000000000E+00 -0.79795062063E+02  0.79795062063E+02  0.00000000000E+00 0. -1.
          1    1    1    2  502    0 -0.14274088677E+01  0.23431907904E+02 -0.76161501665E+02  0.79697340859E+02  0.00000000000E+00 0. -1.
         -1    1    1    2    0  501  0.14274088677E+01 -0.23431907904E+02  0.71981881697E+02  0.75713163299E+02  0.00000000000E+00 0.  1.
</event>
<event>
 4    1  0.6718357E+001  0.2803604E+02  0.7546771E-02  0.1437470E+00
          2   -1    0    0  502    0  0.00000000000E+00  0.00000000000E+00  0.24245612387E+02  0.24245612387E+02  0.00000000000E+00 0. -1.
         -2   -1    0    0    0  501 -0.00000000000E+00 -0.00000000000E+00 -0.73618533833E+02  0.73618533833E+02  0.00000000000E+00 0.  1.
          1    1    1    2  502    0  0.12874366678E+02 -0.24905219283E+02  0.11919012066E+02  0.30464440148E+02  0.00000000000E+00 0. -1.
         -1    1    1    2    0  501 -0.12874366678E+02  0.24905219283E+02 -0.61291933512E+02  0.67399706072E+02  0.00000000000E+00 0.  1.
</event>
<event>
 4    1  0.6718357E+001  0.5577697E+02  0.7546771E-02  0.1274898E+00
          2   -1    0    0  502    0  0.00000000000E+00  0.00000000000E+00  0.99911541324E+03  0.99911541324E+03  0.00000000000E+00 0. -1.
         -2   -1    0    0    0  501 -0.00000000000E+00 -0.00000000000E+00 -0.36350240392E+01  0.36350240392E+01  0.00000000000E+00 0.  1.
          1    1    1    2  502    0 -0.29957699767E+02 -0.47048986351E+02  0.30789007196E+03  0.31290152973E+03  0.00000000000E+00 0.  1.
         -1    1    1    2    0  501  0.29957699767E+02  0.47048986351E+02  0.68759031724E+03  0.68984890755E+03  0.00000000000E+00 0. -1.
</event>
<event>
 4    1  0.6718357E+001  0.2358593E+02  0.7546771E-02  0.1485269E+00
          2   -1    0    0  502    0  0.00000000000E+00  0.00000000000E+00  0.10021829084E+04  0.10021829084E+04  0.00000000000E+00 0. -1.
         -2   -1    0    0    0  501 -0.00000000000E+00 -0.00000000000E+00 -0.56503885972E+00  0.56503885972E+00  0.00000000000E+00 0.  1.
          1    1    1    2  502    0  0.22894085532E+02 -0.56707248862E+01  0.56735581080E+03  0.56784585261E+03  0.00000000000E+00 0. -1.
         -1    1    1    2    0  501 -0.22894085532E+02  0.56707248862E+01  0.43426205876E+03  0.43490209468E+03  0.00000000000E+00 0.  1.
</event>
<event>
 4    1  0.6718357E+001  0.3548946E+02  0.7546771E-02  0.1377154E+00
          2   -1    0    0  502    0  0.00000000000E+00  0.00000000000E+00  0.20916193926E+03  0.20916193926E+03  0.00000000000E+00 0. -1.
         -2   -1    0    0    0  501 -0.00000000000E+00 -0.00000000000E+00 -0.72190884198E+01  0.72190884198E+01  0.00000000000E+00 0.  1.
          1    1    1    2  502    0 -0.17618457071E+02  0.30807336070E+02  0.14503430428E+03  0.14931326600E+03  0.00000000000E+00 0. -1.
         -1    1    1    2    0  501  0.17618457071E+02 -0.30807336070E+02  0.56908546561E+02  0.67067761682E+02  0.00000000000E+00 0.  1.
</event>
<event>
 4    1  0.6718357E+001  0.4798381E+02  0.7546771E-02  0.1307159E+00
          2   -1    0    0  502    0  0.00000000000E+00  0.00000000000E+00  0.65068270988E+01  0.65068270988E+01  0.00000000000E+00 0. -1.
         -2   -1    0    0    0  501 -0.00000000000E+00 -0.00000000000E+00 -0.35983564608E+03  0.35983564608E+03  0.00000000000E+00 0.  1.
          1    1    1    2  502    0  0.46449052121E+02 -0.12038772262E+02 -0.20028707259E+03  0.20595474728E+03  0.00000000000E+00 0.  1.
         -1    1    1    2    0  501 -0.46449052121E+02  0.12038772262E+02 -0.15304174639E+03  0.16038772590E+03  0.00000000000E+00 0. -1.
</event>
<event>
 4    1  0.6718357E+001  0.2790971E+02  0.7546771E-02  0.1438678E+00
          2   -1    0    0  502    0  0.00000000000E+00  0.00000000000E+00  0.45668403473E+03  0.45668403473E+03  0.00000000000E+00 0. -1.
         -2   -1    0    0    0  501 -0.00000000000E+00 -0.00000000000E+00 -0.20328062454E+01  0.20328062454E+01  0.00000000000E+00 0.  1.
          1    1    1    2  502    0 -0.25829613265E+02  0.10572745993E+02  0.13531634569E+03  0.13816463111E+03  0.00000000000E+00 0.  1.
         -1    1    1    2    0  501  0.25829613265E+02 -0.10572745993E+02  0.31933488280E+03  0.32055220987E+03  0.00000000000E+00 0. -1.
</event>
<event>
 4    1  0.6718357E+001  0.2711179E+02  0.7546771E-02  0.1446488E+00
          2   -1    0    0  502    0  0.00000000000E+00  0.00000000000E+00  0.47651019850E+02  0.47651019850E+02  0.00000000000E+00 0.  1.
         -2   -1    0    0    0  501 -0.00000000000E+00 -0.00000000000E+00 -0.15739596043E+02  0.15739596043E+02  0.00000000000E+00 0. -1.
          1    1    1    2  502    0 -0.25850401372E+02 -0.81734872429E+01  0.11479522951E+02  0.29441952924E+02  0.00000000000E+00 0. -1.
         -1    1    1    2    0  501  0.25850401372E+02  0.81734872429E+01  0.20431900856E+02  0.33948662969E+02  0.00000000000E+00 0.  1.
</event>
<event>
 4    1  0.6718357E+001  0.2537137E+02  0.7546771E-02  0.1464691E+00
          2   -1    0    0  502    0  0.00000000000E+00  0.00000000000E+00  0.12488789680E+04  0.12488789680E+04  0.00000000000E+00 0.  1.
         -2   -1    0    0    0  501 -0.00000000000E+00 -0.00000000000E+00 -0.57519514538E+00  0.57519514538E+00  0.00000000000E+00 0. -1.
          1    1    1    2  502    0  0.16245855008E+02  0.19487911274E+02  0.82553173686E+03  0.82592151870E+03  0.00000000000E+00 0.  1.
         -1    1    1    2    0  501 -0.16245855008E+02 -0.19487911274E+02  0.42277203599E+03  0.42353264444E+03  0.00000000000E+00 0. -1.
</event>
<event>
 4    1  0.6718357E+001  0.2908456E+02  0.7546771E-02  0.1427722E+00
          2   -1    0    0  502    0  0.00000000000E+00  0.00000000000E+00  0.17760614771E+04  0.17760614771E+04  0.00000000000E+00 0. -1.
         -2   -1    0    0    0  501 -0.00000000000E+00 -0.00000000000E+00 -0.48223867126E+00  0.48223867126E+00  0.00000000000E+00 0.  1.
          1    1    1    2  502    0 -0.22873249141E+02  0.17964582612E+02  0.78909332163E+03  0.78962914206E+03  0.00000000000E+00 0. -1.
         -1    1    1    2    0  501  0.22873249141E+02 -0.17964582612E+02  0.98648591675E+03  0.98691457366E+03  0.00000000000E+00 0.  1.
</event>
<event>
 4    1  0.6718357E+001  0.2779618E+02  0.7546771E-02  0.1439770E+00
          2   -1    0    0  502    0  0.00000000000E+00  0.00000000000E+00  0.29611539624E+03  0.29611539624E+03  0.00000000000E+00 0.  1.
         -2   -1    0    0    0  501 -0.00000000000E+00 -0.00000000000E+00 -0.36246303259E+01  0.36246303259E+01  0.00000000000E+00 0. -1.
          1    1    1    2  502    0  0.51326556084E+01 -0.27318185937E+02  0.22556957910E+03  0.22727574101E+03  0.00000000000E+00 0.  1.
         -1    1    1    2    0  501 -0.51326556084E+01  0.27318185937E+02  0.66921186815E+02  0.72464285556E+02  0.00000000000E+00 0. -1.
</event>
<event>
 4    1  0.6718357E+001  0.2095387E+02  0.7546771E-02  0.1519924E+00
          2   -1    0    0  502    0  0.00000000000E+00  0.00000000000E+00  0.53805170161E+03  0.53805170161E+03  0.00000000000E+00 0.  1.
         -2   -1    0    0    0  501 -0.00000000000E+00 -0.00000000000E+00 -0.12879100167E+01  0.12879100167E+01  0.00000000000E+00 0. -1.
          1    1    1    2  502    0 -0.85455515026E+01  0.19132120526E+02  0.43161450846E+03  0.43212283948E+03  0.00000000000E+00 0.  1.
         -1    1    1    2    0  501  0.85455515026E+01 -0.19132120526E+02  0.10514928313E+03  0.10721677215E+03  0.00000000000E+00 0. -1.
</event>
<event>
 4    1  0.6718357E+001  0.2070251E+02  0.7546771E-02  0.1523555E+00
          2   -1    0    0  502    0  0.00000000000E+00  0.00000000000E+00  0.30735303191E+03  0.30735303191E+03  0.00000000000E+00 0.  1.
         -2   -1    0    0    0  501 -0.00000000000E+00 -0.00000000000E+00 -0.16503616899E+01  0.16503616899E+01  0.00000000000E+00 0. -1.
          1    1    1    2  502    0 -0.20684980010E+02 -0.85167803403E+00  0.92013455893E+02  0.94313677793E+02  0.00000000000E+00 0. -1.
         -1    1    1    2    0  501  0.20684980010E+02  0.85167803403E+00  0.21368921433E+03  0.21468971581E+03  0.00000000000E+00 0.  1.
</event>
<event>
 4    1  0.6718357E+001  0.3038239E+02  0.7546771E-02  0.1416302E+00
          2   -1    0    0  502    0  0.00000000000E+00  0.00000000000E+00  0.17428254436E+03  0.17428254436E+03  0.00000000000E+00 0.  1.
         -2   -1    0    0    0  501 -0.00000000000E+00 -0.00000000000E+00 -0.13598529269E+02  0.13598529269E+02  0.00000000000E+00 0. -1.
          1    1    1    2  502    0 -0.25450904841E+02 -0.16593406663E+02  0.15374248188E+03  0.15671579511E+03  0.00000000000E+00 0.  1.
         -1    1    1    2    0  501  0.25450904841E+02  0.16593406663E+02  0.69415332118E+01  0.31165278520E+02  0.00000000000E+00 0. -1.
</event>
<event>
 4    1  0.6718357E+001  0.2372035E+02  0.7546771E-02  0.1483645E+00
          2   -1    0    0  502    0  0.00000000000E+00  0.00000000000E+00  0.51757729376E+02  0.51757729376E+02  0.00000000000E+00 0.  1.
         -2   -1    0    0    0  501 -0.00000000000E+00 -0.00000000000E+00 -0.12301963194E+02  0.12301963194E+02  0.00000000000E+00 0. -1.
          1    1    1    2  502    0  0.15528680719E+02 -0.17930844114E+02  0.30652122249E+02  0.38758324188E+02  0.00000000000E+00 0.  1.
         -1    1    1    2    0  501 -0.15528680719E+02  0.17930844114E+02  0.88036439322E+01  0.25301368382E+02  0.00000000000E+00 0. -1.
</event>
<event>
 4    1  0.6718357E+001  0.2032253E+02  0.7546771E-02  0.1529161E+00
          2   -1    0    0  502    0  0.00000000000E+00  0.00000000000E+00  0.11993717870E+02  0.11993717870E+02  0.00000000000E+00 0.  1.
         -2   -1    0    0    0  501 -0.00000000000E+00 -0.00000000000E+00 -0.42496894442E+02  0.42496894442E+02  0.00000000000E+00 0. -1.
          1    1    1    2  502    0  0.17261079395E+02 -0.10726620479E+02 -0.27118237770E+02  0.33888111021E+02  0.00000000000E+00 0. -1.
         -1    1    1    2    0  501 -0.17261079395E+02  0.10726620479E+02 -0.33849388011E+01  0.20602501291E+02  0.00000000000E+00 0.  1.
</event>
<event>
 4    1  0.6718357E+001  0.2154364E+02  0.7546771E-02  0.1511643E+00
          2   -1    0    0  502    0  0.00000000000E+00  0.00000000000E+00  0.73352831701E+02  0.73352831701E+02  0.00000000000E+00 0.  1.
         -2   -1    0    0    0  501 -0.00000000000E+00 -0.00000000000E+00 -0.80250506665E+01  0.80250506665E+01  0.00000000000E+00 0. -1.
          1    1    1    2  502    0 -0.98093140533E+00  0.21521301195E+02  0.51378629245E+02  0.55712585424E+02  0.00000000000E+00 0. -1.
         -1    1    1    2    0  501  0.98093140533E+00 -0.21521301195E+02  0.13949151790E+02  0.25665296944E+02  0.00000000000E+00 0.  1.
</event>
<event>
 4    1  0.6718357E+001  0.2303313E+02  0.7546771E-02  0.1492083E+00
          2   -1    0    0  502    0  0.00000000000E+00  0.00000000000E+00  0.26719903209E+02  0.26719903209E+02  0.00000000000E+00 0.  1.
         -2   -1    0    0    0  501 -0.00000000000E+00 -0.00000000000E+00 -0.21518564534E+02  0.21518564534E+02  0.00000000000E+00 0. -1.
          1    1    1    2  502    0  0.18811681719E+02 -0.13290811575E+02  0.93067693653E+01  0.24842322706E+02  0.00000000000E+00 0.  1.
         -1    1    1    2    0  501 -0.18811681719E+02  0.13290811575E+02 -0.41054306901E+01  0.23396145037E+02  0.00000000000E+00 0. -1.
</event>
<event>
 4    1  0.6718357E+001  0.2526856E+02  0.7546771E-02  0.1465821E+00
          2   -1    0    0  502    0  0.00000000000E+00  0.00000000000E+00  0.37727277620E+02  0.37727277620E+02  0.00000000000E+00 0.  1.
         -2   -1    0    0    0  501 -0.00000000000E+00 -0.00000000000E+00 -0.24027224520E+02  0.24027224520E+02  0.00000000000E+00 0. -1.
          1    1    1    2  502    0  0.19893193063E+02  0.15580792426E+02 -0.99384596052E+01  0.27152775221E+02  0.00000000000E+00 0. -1.
         -1    1    1    2    0  501 -0.19893193063E+02 -0.15580792426E+02  0.23638512705E+02  0.34601726919E+02  0.00000000000E+00 0.  1.
</event>
<event>
 4    1  0.6718357E+001  0.2161368E+02  0.7546771E-02  0.1510681E+00
          2   -1    0    0  502    0  0.00000000000E+00  0.00000000000E+00  0.28903434776E+03  0.28903434776E+03  0.00000000000E+00 0.  1.
         -2   -1    0    0    0  501 -0.00000000000E+00 -0.00000000000E+00 -0.21294150681E+01  0.21294150681E+01  0.00000000000E+00 0. -1.
          1    1    1    2  502    0  0.17416970712E+02 -0.12798452450E+02  0.21491961523E+03  0.21600368576E+03  0.00000000000E+00 0. -1.
         -1    1    1    2    0  501 -0.17416970712E+02  0.12798452450E+02  0.71985317460E+02  0.75160077060E+02  0.00000000000E+00 0.  1.
</event>
<event>
 4    1  0.6718357E+001  0.2128814E+02  0.7546771E-02  0.1515191E+00
          2   -1    0    0  502    0  0.00000000000E+00  0.00000000000E+00  0.26321791255E+03  0.26321791255E+03  0.00000000000E+00 0.  1.
         -2   -1    0    0    0  501 -0.00000000000E+00 -0.00000000000E+00 -0.23629517746E+01  0.23629517746E+01  0.00000000000E+00 0. -1.
          1    1    1    2  502    0  0.21212447662E+02  0.17935332077E+01  0.61252262542E+02  0.64846159206E+02  0.00000000000E+00 0.  1.
         -1    1    1    2    0  501 -0.21212447662E+02 -0.17935332077E+01  0.19960269823E+03  0.20073470512E+03  0.00000000000E+00 0. -1.
</event>
<event>
 4    1  0.6718357E+001  0.3444681E+02  0.7546771E-02  0.1384495E+00
          2   -1    0    0  502    0  0.00000000000E+00  0.00000000000E+00  0.19748999636E+02  0.19748999636E+02  0.00000000000E+00 0. -1.
         -2   -1    0    0    0  501 -0.00000000000E+00 -0.00000000000E+00 -0.81344415702E+02  0.81344415702E+02  0.00000000000E+00 0.  1.
          1    1    1    2  502    0 -0.32031166222E+02  0.12672286886E+02 -0.56639544520E+02  0.66291933656E+02  0.00000000000E+00 0.  1.
         -1    1    1    2    0  501  0.32031166222E+02 -0.12672286886E+02 -0.49558715463E+01  0.34801481682E+02  0.00000000000E+00 0. -1.
</event>
<event>
 4    1  0.6718357E+001  0.2695161E+02  0.7546771E-02  0.1448095E+00
          2   -1    0    0  502    0  0.00000000000E+00  0.00000000000E+00  0.36685831369E+01  0.36685831369E+01  0.00000000000E+00 0.  1.
         -2   -1    0    0    0  501 -0.00000000000E+00 -0.00000000000E+00 -0.21696575502E+03  0.21696575502E+03  0.00000000000E+00 0. -1.
          1    1    1    2  502    0 -0.64487851203E+01  0.26168730669E+02 -0.74034749437E+02  0.78787901473E+02  0.00000000000E+00 0.  1.
         -1    1    1    2    0  501  0.64487851203E+01 -0.26168730669E+02 -0.13926242244E+03  0.14184643668E+03  0.00000000000E+00 0. -1.
</event>
<event>
 4    1  0.6718357E+001  0.3232144E+02  0.7546771E-02  0.1400440E+00
          2   -1    0    0  502    0  0.00000000000E+00  0.00000000000E+00  0.28687915472E+03  0.28687915472E+03  0.00000000000E+00 0.  1.
         -2   -1    0    0    0  501 -0.00000000000E+00 -0.00000000000E+00 -0.36472081427E+01  0.36472081427E+01  0.00000000000E+00 0. -1.
          1    1    1    2  502    0 -0.86635626277E+01 -0.31138691814E+02  0.13587800427E+03  0.13966927898E+03  0.00000000000E+00 0. -1.
         -1    1    1    2    0  501  0.86635626277E+01  0.31138691814E+02  0.14735394231E+03  0.15085708389E+03  0.00000000000E+00 0.  1.
</event>
<event>
 4    1  0.6718357E+001  0.2678342E+02  0.7546771E-02  0.1449796E+00
          2   -1    0    0  502    0  0.00000000000E+00  0.00000000000E+00  0.47227587460E+01  0.47227587460E+01  0.00000000000E+00 0. -1.
         -2   -1    0    0    0  501 -0.00000000000E+00 -0.00000000000E+00 -0.15363444344E+03  0.15363444344E+03  0.00000000000E+00 0.  1.
          1    1    1    2  502    0  0.82049632765E+01  0.25495687792E+02 -0.82886929434E+02  0.87106799903E+02  0.00000000000E+00 0. -1.
         -1    1    1    2    0  501 -0.82049632765E+01 -0.25495687792E+02 -0.66024755259E+02  0.71250402282E+02  0.00000000000E+00 0.  1.
</event>
<event>
 4    1  0.6718357E+001  0.2361015E+02  0.7546771E-02  0.1484975E+00
          2   -1    0    0  502    0  0.00000000000E+00  0.00000000000E+00  0.89928248364E+02  0.89928248364E+02  0.00000000000E+00 0.  1.
         -2   -1    0    0    0  501 -0.00000000000E+00 -0.00000000000E+00 -0.14237606130E+02  0.14237606130E+02  0.00000000000E+00 0. -1.
          1    1    1    2  502    0 -0.19908503392E+02  0.12692146544E+02 -0.12905602547E+01  0.23645393568E+02  0.00000000000E+00 0. -1.
         -1    1    1    2    0  501  0.19908503392E+02 -0.12692146544E+02  0.76981202489E+02  0.80520460927E+02  0.00000000000E+00 0.  1.
</event>
<event>
 4    1  0.6718357E+001  0.2595162E+02  0.7546771E-02  0.1458433E+00
          2   -1    0    0  502    0  0.00000000000E+00  0.00000000000E+00  0.13327383912E+04  0.13327383912E+04  0.00000000000E+00 0.  1.
         -2   -1    0    0    0  501 -0.00000000000E+00 -0.00000000000E+00 -0.51856300215E+00  0.51856300215E+00  0.00000000000E+00 0. -1.
          1    1    1    2  502    0 -0.25431460874E+02  0.51698662961E+01  0.55966142709E+03  0.56026279521E+03  0.00000000000E+00 0.  1.
         -1    1    1    2    0  501  0.25431460874E+02 -0.51698662961E+01  0.77255840110E+03  0.77299415899E+03  0.00000000000E+00 0. -1.
</event>
<event>
 4    1  0.6718357E+001  0.3173186E+02  0.7546771E-02  0.1405121E+00
          2   -1    0    0  502    0  0.00000000000E+00  0.00000000000E+00  0.16730347121E+03  0.16730347121E+03  0.00000000000E+00 0.  1.
         -2   -1    0    0    0  501 -0.00000000000E+00 -0.00000000000E+00 -0.60474419863E+01  0.60474419863E+01  0.00000000000E+00 0. -1.
          1    1    1    2  502    0  0.25069344531E+02 -0.19453512548E+02  0.74628893626E+02  0.81094900885E+02  0.00000000000E+00 0. -1.
         -1    1    1    2    0  501 -0.25069344531E+02  0.19453512548E+02  0.86627135595E+02  0.92256012309E+02  0.00000000000E+00 0.  1.
</event>
<event>
 4    1  0.6718357E+001  0.2098920E+02  0.7546771E-02  0.1519419E+00
          2   -1    0    0  502    0  0.00000000000E+00  0.00000000000E+00  0.36868790367E+03  0.36868790367E+03  0.00000000000E+00 0. -1.
         -2   -1    0    0    0  501 -0.00000000000E+00 -0.00000000000E+00 -0.18188547616E+01  0.18188547616E+01  0.00000000000E+00 0.  1.
          1    1    1    2  502    0  0.13096032149E+02  0.16402454487E+02  0.29193767850E+03  0.29269122757E+03  0.00000000000E+00 0. -1.
         -1    1    1    2    0  501 -0.13096032149E+02 -0.16402454487E+02  0.74931370408E+02  0.77815530857E+02  0.00000000000E+00 0.  1.
</event>
<event>
 4    1  0.6718357E+001  0.2126958E+02  0.7546771E-02  0.1515451E+00
          2   -1    0    0  502    0  0.00000000000E+00  0.00000000000E+00  0.31189984469E+01  0.31189984469E+01  0.00000000000E+00 0. -1.
         -2   -1    0    0    0  501 -0.00000000000E+00 -0.00000000000E+00 -0.15576668532E+03  0.15576668532E+03  0.00000000000E+00 0.  1.
          1    1    1    2  502    0 -0.15492821262E+01  0.21213078401E+02 -0.55481332136E+02  0.59418626591E+02  0.00000000000E+00 0.  1.
         -1    1    1    2    0  501  0.15492821262E+01 -0.21213078401E+02 -0.97166354733E+02  0.99467057172E+02  0.00000000000E+00 0. -1.
</event>
<event>
 4    1  0.6718357E+001  0.2058456E+02  0.7546771E-02  0.1525280E+00
          2   -1    0    0  502    0  0.00000000000E+00  0.00000000000E+00  0.12054767000E+04  0.12054767000E+04  0.00000000000E+00 0.  1.
         -2   -1    0    0    0  501 -0.00000000000E+00 -0.00000000000E+00 -0.35852338430E+00  0.35852338430E+00  0.00000000000E+00 0. -1.
          1    1    1    2  502    0 -0.49816800301E+01  0.19972656338E+02  0.68695008438E+03  0.68725842488E+03  0.00000000000E+00 0.  1.
         -1    1    1    2    0  501  0.49816800301E+01 -0.19972656338E+02  0.51816809227E+03  0.51857679854E+03  0.00000000000E+00 0. -1.
</event>
<event>
 4    1  0.6718357E+001  0.2311684E+02  0.7546771E-02  0.1491036E+00
          2   -1    0    0  502    0  0.00000000000E+00  0.00000000000E+00  0.76575005726E+01  0.76575005726E+01  0.00000000000E+00 0. -1.
         -2   -1    0    0    0  501 -0.00000000000E+00 -0.00000000000E+00 -0.94728076315E+02  0.94728076315E+02  0.00000000000E+00 0.  1.
          1    1    1    2  502    0 -0.16781786920E+02  0.15898425040E+02 -0.17266894882E+02  0.28853664410E+02  0.00000000000E+00 0. -1.
         -1    1    1    2    0  501  0.16781786920E+02 -0.15898425040E+02 -0.69803680860E+02  0.73531912478E+02  0.00000000000E+00 0.  1.
</event>
<event>
 4    1  0.6718357E+001  0.7137367E+02  0.7546771E-02  0.1225428E+00
          2   -1    0    0  502    0  0.00000000000E+00  0.00000000000E+00  0.79904695421E+03  0.79904695421E+03  0.00000000000E+00 0. -1.
         -2   -1    0    0    0  501 -0.00000000000E+00 -0.00000000000E+00 -0.67017353273E+01  0.67017353273E+01  0.00000000000E+00 0.  1.
          1    1    1    2  502    0  0.58890212971E+02  0.40325469993E+02  0.48508126133E+03  0.49030401876E+03  0.00000000000E+00 0. -1.
         -1    1    1    2    0  501 -0.58890212971E+02 -0.40325469993E+02  0.30726395755E+03  0.31544467078E+03  0.00000000000E+00 0.  1.
</event>
<event>
 4    1  0.6718357E+001  0.2777420E+02  0.7546771E-02  0.1439982E+00
          2   -1    0    0  502    0  0.00000000000E+00  0.00000000000E+00  0.15910383425E+04  0.15910383425E+04  0.00000000000E+00 0. -1.
         -2   -1    0    0    0  501 -0.00000000000E+00 -0.00000000000E+00 -0.50090804888E+00  0.50090804888E+00  0.00000000000E+00 0.  1.
          1    1    1    2  502    0  0.47681501205E+01 -0.27361848132E+02  0.93777394902E+03  0.93818515520E+03  0.00000000000E+00 0. -1.
         -1    1    1    2    0  501 -0.47681501205E+01  0.27361848132E+02  0.65276348541E+03  0.65335409532E+03  0.00000000000E+00 0.  1.
</event>
<event>
 4    1  0.6718357E+001  0.2189609E+02  0.7546771E-02  0.1506846E+00
          2   -1    0    0  502    0  0.00000000000E+00  0.00000000000E+00  0.78989779358E+01  0.78989779358E+01  0.00000000000E+00 0. -1.
         -2   -1    0    0    0  501 -0.00000000000E+00 -0.00000000000E+00 -0.91031657323E+02  0.91031657323E+02  0.00000000000E+00 0.  1.
          1    1    1    2  502    0 -0.18801645148E+02  0.11222153837E+02 -0.70121148682E+02  0.73460289201E+02  0.00000000000E+00 0.  1.
         -1    1    1    2    0  501  0.18801645148E+02 -0.11222153837E+02 -0.13011530706E+02  0.25470346058E+02  0.00000000000E+00 0. -1.
</event>
<event>
 4    1  0.6718357E+001  0.2054933E+02  0.7546771E-02  0.1525798E+00
          2   -1    0    0  502    0  0.00000000000E+00  0.00000000000E+00  0.42707719342E+01  0.42707719342E+01  0.00000000000E+00 0. -1.
         -2   -1    0    0    0  501 -0.00000000000E+00 -0.00000000000E+00 -0.11127611685E+03  0.11127611685E+03  0.00000000000E+00 0.  1.
          1    1    1    2  502    0 -0.10931873441E+02  0.17400256956E+02 -0.72788956583E+02  0.75634033342E+02  0.00000000000E+00 0.  1.
         -1    1    1    2    0  501  0.10931873441E+02 -0.17400256956E+02 -0.34216388335E+02  0.39912855445E+02  0.00000000000E+00 0. -1.
</event>
<event>
 4    1  0.6718357E+001  0.2156930E+02  0.7546771E-02  0.1511290E+00
          2   -1    0    0  502    0  0.00000000000E+00  0.00000000000E+00  0.48239502746E+03  0.48239502746E+03  0.00000000000E+00 0. -1.
         -2   -1    0    0    0  501 -0.00000000000E+00 -0.00000000000E+00 -0.10641794551E+01  0.10641794551E+01  0.00000000000E+00 0.  1.
          1    1    1    2  502    0 -0.19741458334E+02  0.86896158660E+01  0.31467451156E+03  0.31541287677E+03  0.00000000000E+00 0. -1.
         -1    1    1    2    0  501  0.19741458334E+02 -0.86896158660E+01  0.16665633644E+03  0.16804633015E+03  0.00000000000E+00 0.  1.
</event>
<event>
 4    1  0.6718357E+001  0.2648479E+02  0.7546771E-02  0.1452853E+00
          2   -1    0    0  502    0  0.00000000000E+00  0.00000000000E+00  0.30778944006E+01  0.30778944006E+01  0.00000000000E+00 0. -1.
         -2   -1    0    0    0  501 -0.00000000000E+00 -0.00000000000E+00 -0.22858126200E+03  0.22858126200E+03  0.00000000000E+00 0.  1.
          1    1    1    2  502    0  0.26482092514E+02 -0.37788582165E+00 -0.10641598206E+03  0.10966223260E+03  0.00000000000E+00 0.  1.
         -1    1    1    2    0  501 -0.26482092514E+02  0.37788582165E+00 -0.11908738554E+03  0.12199692380E+03  0.00000000000E+00 0. -1.
</event>
<event>
 4    1  0.6718357E+001  0.2100081E+02  0.7546771E-02  0.1519253E+00
          2   -1    0    0  502    0  0.00000000000E+00  0.00000000000E+00  0.67199529823E+02  0.67199529823E+02  0.00000000000E+00 0.  1.
         -2   -1    0    0    0  501 -0.00000000000E+00 -0.00000000000E+00 -0.79104015018E+01  0.79104015018E+01  0.00000000000E+00 0. -1.
          1    1    1    2  502    0  0.20983386794E+02  0.85519028092E+00  0.14145389695E+02  0.25320464478E+02  0.00000000000E+00 0. -1.
         -1    1    1    2    0  501 -0.20983386794E+02 -0.85519028092E+00  0.45143738626E+02  0.49789466847E+02  0.00000000000E+00 0.  1.
</event>
<event>
 4    1  0.6718357E+001  0.2034709E+02  0.7546771E-02  0.1528794E+00
          2   -1    0    0  502    0  0.00000000000E+00  0.00000000000E+00  0.12920790496E+04  0.12920790496E+04  0.00000000000E+00 0. -1.
         -2   -1    0    0    0  501 -0.00000000000E+00 -0.00000000000E+00 -0.32371621421E+00  0.32371621421E+00  0.00000000000E+00 0.  1.
          1    1    1    2  502    0 -0.20269880881E+02  0.17708996772E+01  0.71111371803E+03  0.71140475408E+03  0.00000000000E+00 0. -1.
         -1    1    1    2    0  501  0.20269880881E+02 -0.17708996772E+01  0.58064161532E+03  0.58099801170E+03  0.00000000000E+00 0.  1.
</event>
<event>
 4    1  0.6718357E+001  0.3215077E+02  0.7546771E-02  0.1401783E+00
          2   -1    0    0  502    0  0.00000000000E+00  0.00000000000E+00  0.12103097178E+04  0.12103097178E+04  0.00000000000E+00 0. -1.
         -2   -1    0    0    0  501 -0.00000000000E+00 -0.00000000000E+00 -0.85405975620E+00  0.85405975620E+00  0.00000000000E+00 0.  1.
          1    1    1    2  502    0 -0.16287566678E+02  0.27719800911E+02  0.60344594997E+03  0.60430181758E+03  0.00000000000E+00 0. -1.
         -1    1    1    2    0  501  0.16287566678E+02 -0.27719800911E+02  0.60600970804E+03  0.60686195994E+03  0.00000000000E+00 0.  1.
</event>
<event>
 4    1  0.6718357E+001  0.4171289E+02  0.7546771E-02  0.1338730E+00
          2   -1    0    0  502    0  0.00000000000E+00  0.00000000000E+00  0.55185901015E+01  0.55185901015E+01  0.00000000000E+00 0. -1.
         -2   -1    0    0    0  501 -0.00000000000E+00 -0.00000000000E+00 -0.47684026220E+03  0.47684026220E+03  0.00000000000E+00 0.  1.
          1    1    1    2  502    0  0.31245772700E+02  0.27634522423E+02 -0.37604091168E+03  0.37834737002E+03  0.00000000000E+00 0.  1.
         -1    1    1    2    0  501 -0.31245772700E+02 -0.27634522423E+02 -0.95280760416E+02  0.10401148228E+03  0.00000000000E+00 0. -1.
</event>
<event>
 4    1  0.6718357E+001  0.2485606E+02  0.7546771E-02  0.1470420E+00
          2   -1    0    0  502    0  0.00000000000E+00  0.00000000000E+00  0.46631536110E+03  0.46631536110E+03  0.00000000000E+00 0. -1.
         -2   -1    0    0    0  501 -0.00000000000E+00 -0.00000000000E+00 -0.13639153503E+01  0.13639153503E+01  0.00000000000E+00 0.  1.
          1    1    1    2  502    0 -0.24835589695E+02 -0.10084519279E+01  0.19292858158E+03  0.19452316335E+03  0.00000000000E+00 0.  1.
         -1    1    1    2    0  501  0.24835589695E+02  0.10084519279E+01  0.27202286417E+03  0.27315611310E+03  0.00000000000E+00 0. -1.
</event>
<event>
 4    1  0.6718357E+001  0.2039686E+02  0.7546771E-02  0.1528053E+00
          2   -1    0    0  502    0  0.00000000000E+00  0.00000000000E+00  0.12020814861E+01  0.12020814861E+01  0.00000000000E+00 0.  1.
         -2   -1    0    0    0  501 -0.00000000000E+00 -0.00000000000E+00 -0.36107662647E+03  0.36107662647E+03  0.00000000000E+00 0. -1.
          1    1    1    2  502    0 -0.17431583605E+02  0.10591111563E+02 -0.21683710953E+03  0.21779431540E+03  0.00000000000E+00 0.  1.
         -1    1    1    2    0  501  0.17431583605E+02 -0.10591111563E+02 -0.14303743545E+03  0.14448439256E+03  0.00000000000E+00 0. -1.
</event>
<event>
 4    1  0.6718357E+001  0.2745687E+02  0.7546771E-02  0.1443072E+00
          2   -1    0    0  502    0  0.00000000000E+00  0.00000000000E+00  0.26275433859E+03  0.26275433859E+03  0.00000000000E+00 0.  1.
         -2   -1    0    0    0  501 -0.00000000000E+00 -0.00000000000E+00 -0.30580215568E+01  0.30580215568E+01  0.00000000000E+00 0. -1.
          1    1    1    2  502    0  0.14840513467E+02 -0.23100625095E+02  0.16287875816E+03  0.16517678281E+03  0.00000000000E+00 0.  1.
         -1    1    1    2    0  501 -0.14840513467E+02  0.23100625095E+02  0.96817558877E+02  0.10063557734E+03  0.00000000000E+00 0. -1.
</event>
<event>
 4    1  0.6718357E+001  0.2083022E+02  0.7546771E-02  0.1521703E+00
          2   -1    0    0  502    0  0.00000000000E+00  0.00000000000E+00  0.14919172166E+03  0.14919172166E+03  0.00000000000E+00 0. -1.
         -2   -1    0    0    0  501 -0.00000000000E+00 -0.00000000000E+00 -0.49905035963E+01  0.49905035963E+01  0.00000000000E+00 0.  1.
          1    1    1    2  502    0  0.13338168106E+02 -0.15999728745E+02  0.22304994990E+02  0.30519024392E+02  0.00000000000E+00 0.  1.
         -1    1    1    2    0  501 -0.13338168106E+02  0.15999728745E+02  0.12189622308E+03  0.12366320087E+03  0.00000000000E+00 0. -1.
</event>
<event>
 4    1  0.6718357E+001  0.2136533E+02  0.7546771E-02  0.1514112E+00
          2   -1    0    0  502    0  0.00000000000E+00  0.00000000000E+00  0.12994119177E+03  0.12994119177E+03  0.00000000000E+00 0. -1.
         -2   -1    0    0    0  501 -0.00000000000E+00 -0.00000000000E+00 -0.38418912992E+01  0.38418912992E+01  0.00000000000E+00 0.  1.
          1    1    1    2  502    0 -0.19843637657E+02 -0.79187883052E+01  0.43476687054E+02  0.48442744358E+02  0.00000000000E+00 0. -1.
         -1    1    1    2    0  501  0.19843637657E+02  0.79187883052E+01  0.82622613419E+02  0.85340338714E+02  0.00000000000E+00 0.  1.
</event>
<event>
 4    1  0.6718357E+001  0.4554684E+02  0.7546771E-02  0.1318727E+00
          2   -1    0    0  502    0  0.00000000000E+00  0.00000000000E+00  0.75184518615E+03  0.75184518615E+03  0.00000000000E+00 0.  1.
         -2   -1    0    0    0  501 -0.00000000000E+00 -0.00000000000E+00 -0.53576677293E+01  0.53576677293E+01  0.00000000000E+00 0. -1.
          1    1    1    2  502    0 -0.34416531536E+02 -0.29833148510E+02  0.63690752371E+03  0.63853403054E+03  0.00000000000E+00 0.  1.
         -1    1    1    2    0  501  0.34416531536E+02  0.29833148510E+02  0.10957999470E+03  0.11866882334E+03  0.00000000000E+00 0. -1.
</event>
<event>
 4    1  0.6718357E+001  0.5618536E+02  0.7546771E-02  0.1273375E+00
          2   -1    0    0  502    0  0.00000000000E+00  0.00000000000E+00  0.13929939523E+03  0.13929939523E+03  0.00000000000E+00 0. -1.
         -2   -1    0    0    0  501 -0.00000000000E+00 -0.00000000000E+00 -0.24416573125E+02  0.24416573125E+02  0.00000000000E+00 0.  1.
          1    1    1    2  502    0 -0.25019221570E+02  0.50307381978E+02  0.35497591965E+02  0.66459560372E+02  0.00000000000E+00 0.  1.
         -1    1    1    2    0  501  0.25019221570E+02 -0.50307381978E+02  0.79385230141E+02  0.97256407984E+02  0.00000000000E+00 0. -1.
</event>
<event>
 4    1  0.6718357E+001  0.2209544E+02  0.7546771E-02  0.1504180E+00
          2   -1    0    0  502    0  0.00000000000E+00  0.00000000000E+00  0.31670929651E+03  0.31670929651E+03  0.00000000000E+00 0.  1.
         -2   -1    0    0    0  501 -0.00000000000E+00 -0.00000000000E+00 -0.16178830713E+01  0.16178830713E+01  0.00000000000E+00 0. -1.
          1    1    1    2  502    0  0.51960993552E+01  0.21475773118E+02  0.19212854623E+03  0.19339489796E+03  0.00000000000E+00 0. -1.
         -1    1    1    2    0  501 -0.51960993552E+01 -0.21475773118E+02  0.12296286721E+03  0.12493228162E+03  0.00000000000E+00 0.  1.
</event>
<event>
 4    1  0.6718357E+001  0.2331502E+02  0.7546771E-02  0.1488580E+00
          2   -1    0    0  502    0  0.00000000000E+00  0.00000000000E+00  0.13253791227E+03  0.13253791227E+03  0.00000000000E+00 0.  1.
         -2   -1    0    0    0  501 -0.00000000000E+00 -0.00000000000E+00 -0.41319356254E+01  0.41319356254E+01  0.00000000000E+00 0. -1.
          1    1    1    2  502    0  0.19650351637E+02  0.12548065932E+02  0.58327990260E+02  0.62815163184E+02  0.00000000000E+00 0. -1.
         -1    1    1    2    0  501 -0.19650351637E+02 -0.12548065932E+02  0.70077986386E+02  0.73854684712E+02  0.00000000000E+00 0.  1.
</event>
<event>
 4    1  0.6718357E+001  0.2291888E+02  0.7546771E-02  0.1493519E+00
          2   -1    0    0  502    0  0.00000000000E+00  0.00000000000E+00  0.49880206910E+02  0.49880206910E+02  0.00000000000E+00 0. -1.
         -2   -1    0    0    0  501 -0.00000000000E+00 -0.00000000000E+00 -0.12356408772E+02  0.12356408772E+02  0.00000000000E+00 0.  1.
          1    1    1    2  502    0 -0.22355947145E+02  0.50484393805E+01  0.30723291312E+02  0.38330089251E+02  0.00000000000E+00 0. -1.
         -1    1    1    2    0  501  0.22355947145E+02 -0.50484393805E+01  0.68005068264E+01  0.23906526432E+02  0.00000000000E+00 0.  1.
</event>
<event>
 4    1  0.6718357E+001  0.3108865E+02  0.7546771E-02  0.1410366E+00
          2   -1    0    0  502    0  0.00000000000E+00  0.00000000000E+00  0.40918192737E+03  0.40918192737E+03  0.00000000000E+00 0.  1.
         -2   -1    0    0    0  501 -0.00000000000E+00 -0.00000000000E+00 -0.84821799209E+01  0.84821799209E+01  0.00000000000E+00 0. -1.
          1    1    1    2  502    0  0.18625753745E+02  0.24891468785E+02  0.37773782120E+03  0.37901499374E+03  0.00000000000E+00 0.  1.
         -1    1    1    2    0  501 -0.18625753745E+02 -0.24891468785E+02  0.22961926258E+02  0.38649113552E+02  0.00000000000E+00 0. -1.
</event>
<event>
 4    1  0.6718357E+001  0.2924265E+02  0.7546771E-02  0.1426294E+00
          2   -1    0    0  502    0  0.00000000000E+00  0.00000000000E+00  0.18523035915E+03  0.18523035915E+03  0.00000000000E+00 0.  1.
         -2   -1    0    0    0  501 -0.00000000000E+00 -0.00000000000E+00 -0.29283447047E+02  0.29283447047E+02  0.00000000000E+00 0. -1.
          1    1    1    2  502    0  0.29241988005E+02  0.19710464874E+00  0.17641333219E+03  0.17882057065E+03  0.00000000000E+00 0.  1.
         -1    1    1    2    0  501 -0.29241988005E+02 -0.19710464874E+00 -0.20466420087E+02  0.35693235549E+02  0.00000000000E+00 0. -1.
</event>
<event>
 4    1  0.6718357E+001  0.2561247E+02  0.7546771E-02  0.1462067E+00
          2   -1    0    0  502    0  0.00000000000E+00  0.00000000000E+00  0.14032590023E+04  0.14032590023E+04  0.00000000000E+00 0.  1.
         -2   -1    0    0    0  501 -0.00000000000E+00 -0.00000000000E+00 -0.61071643093E+00  0.61071643093E+00  0.00000000000E+00 0. -1.
          1    1    1    2  502    0 -0.23996976576E+02 -0.89522895948E+01  0.10412628899E+04  0.10415778436E+04  0.00000000000E+00 0.  1.
         -1    1    1    2    0  501  0.23996976576E+02  0.89522895948E+01  0.36138539599E+03  0.36229187516E+03  0.00000000000E+00 0. -1.
</event>
<event>
 4    1  0.6718357E+001  0.2053945E+02  0.7546771E-02  0.1525943E+00
          2   -1    0    0  502    0  0.00000000000E+00  0.00000000000E+00  0.88245017746E+02  0.88245017746E+02  0.00000000000E+00 0. -1.
         -2   -1    0    0    0  501 -0.00000000000E+00 -0.00000000000E+00 -0.73268518991E+01  0.73268518991E+01  0.00000000000E+00 0.  1.
          1    1    1    2  502    0 -0.65482762127E+01 -0.19467643785E+02  0.68629111321E+02  0.71636750321E+02  0.00000000000E+00 0. -1.
         -1    1    1    2    0  501  0.65482762127E+01  0.19467643785E+02  0.12289054526E+02  0.23935119324E+02  0.00000000000E+00 0.  1.
</event>
<event>
 4    1  0.6718357E+001  0.7817700E+02  0.7546771E-02  0.1208144E+00
          2   -1    0    0  502    0  0.00000000000E+00  0.00000000000E+00  0.21494521122E+02  0.21494521122E+02  0.00000000000E+00 0. -1.
         -2   -1    0    0    0  501 -0.00000000000E+00 -0.00000000000E+00 -0.28477327327E+03  0.28477327327E+03  0.00000000000E+00 0.  1.
          1    1    1    2  502    0  0.52190940916E+02 -0.58204366472E+02 -0.12563120911E+03  0.14796906195E+03  0.00000000000E+00 0.  1.
         -1    1    1    2    0  501 -0.52190940916E+02  0.58204366472E+02 -0.13764754303E+03  0.15829873245E+03  0.00000000000E+00 0. -1.
</event>
<event>
 4    1  0.6718357E+001  0.2539125E+02  0.7546771E-02  0.1464474E+00
          2   -1    0    0  502    0  0.00000000000E+00  0.00000000000E+00  0.61484316995E+03  0.61484316995E+03  0.00000000000E+00 0.  1.
         -2   -1    0    0    0  501 -0.00000000000E+00 -0.00000000000E+00 -0.18447200318E+01  0.18447200318E+01  0.00000000000E+00 0. -1.
          1    1    1    2  502    0 -0.80723983705E+01  0.24073890448E+02  0.10393472243E+03  0.10699131901E+03  0.00000000000E+00 0. -1.
         -1    1    1    2    0  501  0.80723983705E+01 -0.24073890448E+02  0.50906372749E+03  0.50969657097E+03  0.00000000000E+00 0.  1.
</event>
<event>
 4    1  0.6718357E+001  0.2572990E+02  0.7546771E-02  0.1460801E+00
          2   -1    0    0  502    0  0.00000000000E+00  0.00000000000E+00  0.40804319034E+02  0.40804319034E+02  0.00000000000E+00 0. -1.
         -2   -1    0    0    0  501 -0.00000000000E+00 -0.00000000000E+00 -0.17927874310E+02  0.17927874310E+02  0.00000000000E+00 0.  1.
          1    1    1    2  502    0 -0.21107312122E+02 -0.14714252016E+02  0.20490182017E+02  0.32891874323E+02  0.00000000000E+00 0. -1.
         -1    1    1    2    0  501  0.21107312122E+02  0.14714252016E+02  0.23862627074E+01  0.25840319021E+02  0.00000000000E+00 0.  1.
</event>
<event>
 4    1  0.6718357E+001  0.2785513E+02  0.7546771E-02  0.1439202E+00
          2   -1    0    0  502    0  0.00000000000E+00  0.00000000000E+00  0.12405151633E+01  0.12405151633E+01  0.00000000000E+00 0.  1.
         -2   -1    0    0    0  501 -0.00000000000E+00 -0.00000000000E+00 -0.78671748453E+03  0.78671748453E+03  0.00000000000E+00 0. -1.
          1    1    1    2  502    0 -0.27669388757E+02  0.32113844371E+01 -0.21437463356E+03  0.21617676003E+03  0.00000000000E+00 0.  1.
         -1    1    1    2    0  501  0.27669388757E+02 -0.32113844371E+01 -0.57110233581E+03  0.57178123967E+03  0.00000000000E+00 0. -1.
</event>
<event>
 4    1  0.6718357E+001  0.2406311E+02  0.7546771E-02  0.1479563E+00
          2   -1    0    0  502    0  0.00000000000E+00  0.00000000000E+00  0.30206165642E+01  0.30206165642E+01  0.00000000000E+00 0.  1.
         -2   -1    0    0    0  501 -0.00000000000E+00 -0.00000000000E+00 -0.19720749154E+03  0.19720749154E+03  0.00000000000E+00 0. -1.
          1    1    1    2  502    0  0.21914817056E+02 -0.99385168703E+01 -0.11383347574E+03  0.11634901600E+03  0.00000000000E+00 0. -1.
         -1    1    1    2    0  501 -0.21914817056E+02  0.99385168703E+01 -0.80353399239E+02  0.83879092111E+02  0.00000000000E+00 0.  1.
</event>
<event>
 4    1  0.6718357E+001  0.2400151E+02  0.7546771E-02  0.1480291E+00
          2   -1    0    0  502    0  0.00000000000E+00  0.00000000000E+00  0.34957653340E+03  0.34957653340E+03  0.00000000000E+00 0. -1.
         -2   -1    0    0    0  501 -0.00000000000E+00 -0.00000000000E+00 -0.19414429083E+01  0.19414429083E+01  0.00000000000E+00 0.  1.
          1    1    1    2  502    0  0.10811123454E+02 -0.21428763051E+02  0.10547671962E+03  0.10817305884E+03  0.00000000000E+00 0.  1.
         -1    1    1    2    0  501 -0.10811123454E+02  0.21428763051E+02  0.24215837087E+03  0.24334491747E+03  0.00000000000E+00 0. -1.
</event>
<event>
 4    1  0.6718357E+001  0.2417141E+02  0.7546771E-02  0.1478290E+00
          2   -1    0    0  502    0  0.00000000000E+00  0.00000000000E+00  0.63463576867E+03  0.63463576867E+03  0.00000000000E+00 0. -1.
         -2   -1    0    0    0  501 -0.00000000000E+00 -0.00000000000E+00 -0.10702441883E+01  0.10702441883E+01  0.00000000000E+00 0.  1.
          1    1    1    2  502    0  0.17454479135E+02  0.16721187678E+02  0.19793553874E+03  0.19940595391E+03  0.00000000000E+00 0.  1.
         -1    1    1    2    0  501 -0.17454479135E+02 -0.16721187678E+02  0.43562998575E+03  0.43630005895E+03  0.00000000000E+00 0. -1.
</event>
<event>
 4    1  0.6718357E+001  0.5152330E+02  0.7546771E-02  0.1291700E+00
          2   -1    0    0  502    0  0.00000000000E+00  0.00000000000E+00  0.11896342186E+03  0.11896342186E+03  0.00000000000E+00 0.  1.
         -2   -1    0    0    0  501 -0.00000000000E+00 -0.00000000000E+00 -0.40437096356E+02  0.40437096356E+02  0.00000000000E+00 0. -1.
          1    1    1    2  502    0  0.50789757467E+02 -0.86632006762E+01 -0.14091921202E+02  0.53415660182E+02  0.00000000000E+00 0. -1.
         -1    1    1    2    0  501 -0.50789757467E+02  0.86632006762E+01  0.92618246706E+02  0.10598485803E+03  0.00000000000E+00 0.  1.
</event>
<event>
 4    1  0.6718357E+001  0.4117790E+02  0.7546771E-02  0.1341718E+00
          2   -1    0    0  502    0  0.00000000000E+00  0.00000000000E+00  0.23662160356E+02  0.23662160356E+02  0.00000000000E+00 0.  1.
         -2   -1    0    0    0  501 -0.00000000000E+00 -0.00000000000E+00 -0.73225551067E+02  0.73225551067E+02  0.00000000000E+00 0. -1.
          1    1    1    2  502    0  0.39489870039E+02 -0.11669174898E+02 -0.17697262762E+02  0.44819778980E+02  0.00000000000E+00 0.  1.
         -1    1    1    2    0  501 -0.39489870039E+02  0.11669174898E+02 -0.31866127949E+02  0.52067932444E+02  0.00000000000E+00 0. -1.
</event>
<event>
 4    1  0.6718357E+001  0.3262001E+02  0.7546771E-02  0.1398114E+00
          2   -1    0    0  502    0  0.00000000000E+00  0.00000000000E+00  0.42774185867E+03  0.42774185867E+03  0.00000000000E+00 0. -1.
         -2   -1    0    0    0  501 -0.00000000000E+00 -0.00000000000E+00 -0.25154645474E+01  0.25154645474E+01  0.00000000000E+00 0.  1.
          1    1    1    2  502    0 -0.26391934697E+02 -0.19171085555E+02  0.23524182923E+03  0.23749270085E+03  0.00000000000E+00 0.  1.
         -1    1    1    2    0  501  0.26391934697E+02  0.19171085555E+02  0.18998456490E+03  0.19276462237E+03  0.00000000000E+00 0. -1.
</event>
<event>
 4    1  0.6718357E+001  0.2740139E+02  0.7546771E-02  0.1443617E+00
          2   -1    0    0  502    0  0.00000000000E+00  0.00000000000E+00  0.40269401057E+01  0.40269401057E+01  0.00000000000E+00 0. -1.
         -2   -1    0    0    0  501 -0.00000000000E+00 -0.00000000000E+00 -0.19703589661E+03  0.19703589661E+03  0.00000000000E+00 0.  1.
          1    1    1    2  502    0 -0.53423482431E+01  0.26875554032E+02 -0.11980288284E+03  0.12289656963E+03  0.00000000000E+00 0.  1.
         -1    1    1    2    0  501  0.53423482431E+01 -0.26875554032E+02 -0.73206073662E+02  0.78166267086E+02  0.00000000000E+00 0. -1.
</event>
<event>
 4    1  0.6718357E+001  0.2219503E+02  0.7546771E-02  0.1502861E+00
          2   -1    0    0  502    0  0.00000000000E+00  0.00000000000E+00  0.62263885461E+03  0.62263885461E+03  0.00000000000E+00 0. -1.
         -2   -1    0    0    0  501 -0.00000000000E+00 -0.00000000000E+00 -0.10927476633E+01  0.10927476633E+01  0.00000000000E+00 0.  1.
          1    1    1    2  502    0 -0.11125520951E+02  0.19205266928E+02  0.47460556793E+03  0.47512426228E+03  0.00000000000E+00 0. -1.
         -1    1    1    2    0  501  0.11125520951E+02 -0.19205266928E+02  0.14694053901E+03  0.14860733999E+03  0.00000000000E+00 0.  1.
</event>
<event>
 4    1  0.6718357E+001  0.2078502E+02  0.7546771E-02  0.1522356E+00
          2   -1    0    0  502    0  0.00000000000E+00  0.00000000000E+00  0.57257457596E+02  0.57257457596E+02  0.00000000000E+00 0.  1.
         -2   -1    0    0    0  501 -0.00000000000E+00 -0.00000000000E+00 -0.12224690722E+02  0.12224690722E+02  0.00000000000E+00 0. -1.
          1    1    1    2  502    0 -0.55662001267E+01 -0.20025848434E+02  0.10219976430E+01  0.20810133795E+02  0.00000000000E+00 0. -1.
         -1    1    1    2    0  501  0.55662001267E+01  0.20025848434E+02  0.44010769232E+02  0.48672014523E+02  0.00000000000E+00 0.  1.
</event>
<event>
 4    1  0.6718357E+001  0.2555630E+02  0.7546771E-02  0.1462675E+00
          2   -1    0    0  502    0  0.00000000000E+00  0.00000000000E+00  0.57966269563E+02  0.57966269563E+02  0.00000000000E+00 0. -1.
         -2   -1    0    0    0  501 -0.00000000000E+00 -0.00000000000E+00 -0.12614075407E+02  0.12614075407E+02  0.00000000000E+00 0.  1.
          1    1    1    2  502    0 -0.25283227218E+02  0.37259594121E+01  0.34207200522E+02  0.42699612641E+02  0.00000000000E+00 0. -1.
         -1    1    1    2    0  501  0.25283227218E+02 -0.37259594121E+01  0.11144993633E+02  0.27880732329E+02  0.00000000000E+00 0.  1.
</event>
<event>
 4    1  0.6718357E+001  0.2736164E+02  0.7546771E-02  0.1444009E+00
          2   -1    0    0  502    0  0.00000000000E+00  0.00000000000E+00  0.14133088144E+04  0.14133088144E+04  0.00000000000E+00 0.  1.
         -2   -1    0    0    0  501 -0.00000000000E+00 -0.00000000000E+00 -0.54683278845E+00  0.54683278845E+00  0.00000000000E+00 0. -1.
          1    1    1    2  502    0  0.56082382925E+01 -0.26780719638E+02  0.58132739100E+03  0.58197095702E+03  0.00000000000E+00 0.  1.
         -1    1    1    2    0  501 -0.56082382925E+01  0.26780719638E+02  0.83143459062E+03  0.83188469019E+03  0.00000000000E+00 0. -1.
</event>
<event>
 4    1  0.6718357E+001  0.2951050E+02  0.7546771E-02  0.1423898E+00
          2   -1    0    0  502    0  0.00000000000E+00  0.00000000000E+00  0.52671156041E+03  0.52671156041E+03  0.00000000000E+00 0. -1.
         -2   -1    0    0    0  501 -0.00000000000E+00 -0.00000000000E+00 -0.43521454037E+01  0.43521454037E+01  0.00000000000E+00 0.  1.
          1    1    1    2  502    0  0.74581308634E+01 -0.28552511023E+02  0.52083976368E+02  0.59863262491E+02  0.00000000000E+00 0.  1.
         -1    1    1    2    0  501 -0.74581308634E+01  0.28552511023E+02  0.47027543864E+03  0.47120044332E+03  0.00000000000E+00 0. -1.
</event>
<event>
 4    1  0.6718357E+001  0.2013830E+02  0.7546771E-02  0.1531932E+00
          2   -1    0    0  502    0  0.00000000000E+00  0.00000000000E+00  0.15158054070E+04  0.15158054070E+04  0.00000000000E+00 0.  1.
         -2   -1    0    0    0  501 -0.00000000000E+00 -0.00000000000E+00 -0.27480011806E+00  0.27480011806E+00  0.00000000000E+00 0. -1.
          1    1    1    2  502    0  0.19871946074E+02 -0.32644992934E+01  0.88090737379E+03  0.88113753319E+03  0.00000000000E+00 0.  1.
         -1    1    1    2    0  501 -0.19871946074E+02  0.32644992934E+01  0.63462323313E+03  0.63494267397E+03  0.00000000000E+00 0. -1.
</event>
<event>
 4    1  0.6718357E+001  0.2268658E+02  0.7546771E-02  0.1496472E+00
          2   -1    0    0  502    0  0.00000000000E+00  0.00000000000E+00  0.41500331953E+01  0.41500331953E+01  0.00000000000E+00 0.  1.
         -2   -1    0    0    0  501 -0.00000000000E+00 -0.00000000000E+00 -0.13278797804E+03  0.13278797804E+03  0.00000000000E+00 0. -1.
          1    1    1    2  502    0 -0.14323112200E+02  0.17593453154E+02 -0.81914409181E+02  0.84997950378E+02  0.00000000000E+00 0. -1.
         -1    1    1    2    0  501  0.14323112200E+02 -0.17593453154E+02 -0.46723535666E+02  0.51940060860E+02  0.00000000000E+00 0.  1.
</event>
<event>
 4    1  0.6718357E+001  0.4641621E+02  0.7546771E-02  0.1314506E+00
          2   -1    0    0  502    0  0.00000000000E+00  0.00000000000E+00  0.41492726653E+03  0.41492726653E+03  0.00000000000E+00 0. -1.
         -2   -1    0    0    0  501 -0.00000000000E+00 -0.00000000000E+00 -0.53463984851E+01  0.53463984851E+01  0.00000000000E+00 0.  1.
          1    1    1    2  502    0  0.35239534259E+02 -0.30209933374E+02  0.16912548549E+03  0.17537928809E+03  0.00000000000E+00 0.  1.
         -1    1    1    2    0  501 -0.35239534259E+02  0.30209933374E+02  0.24045538256E+03  0.24489437693E+03  0.00000000000E+00 0. -1.
</event>
<event>
 4    1  0.6718357E+001  0.2605299E+02  0.7546771E-02  0.1457360E+00
          2   -1    0    0  502    0  0.00000000000E+00  0.00000000000E+00  0.66501582531E+03  0.66501582531E+03  0.00000000000E+00 0. -1.
         -2   -1    0    0    0  501 -0.00000000000E+00 -0.00000000000E+00 -0.13576353086E+01  0.13576353086E+01  0.00000000000E+00 0.  1.
          1    1    1    2  502    0 -0.26041332953E+02  0.77940844163E+00  0.16583530768E+03  0.16786931755E+03  0.00000000000E+00 0.  1.
         -1    1    1    2    0  501  0.26041332953E+02 -0.77940844163E+00  0.49782288232E+03  0.49850414307E+03  0.00000000000E+00 0. -1.
</event>
<event>
 4    1  0.6718357E+001  0.2296867E+02  0.7546771E-02  0.1492892E+00
          2   -1    0    0  502    0  0.00000000000E+00  0.00000000000E+00  0.25297386765E+02  0.25297386765E+02  0.00000000000E+00 0.  1.
         -2   -1    0    0    0  501 -0.00000000000E+00 -0.00000000000E+00 -0.27397213640E+02  0.27397213640E+02  0.00000000000E+00 0. -1.
          1    1    1    2  502    0  0.22222554398E+02  0.58067189311E+01  0.11825693424E+02  0.25834220207E+02  0.00000000000E+00 0. -1.
         -1    1    1    2    0  501 -0.22222554398E+02 -0.58067189311E+01 -0.13925520299E+02  0.26860380197E+02  0.00000000000E+00 0.  1.
</event>
<event>
 4    1  0.6718357E+001  0.5548905E+02  0.7546771E-02  0.1275981E+00
          2   -1    0    0  502    0  0.00000000000E+00  0.00000000000E+00  0.12693026061E+02  0.12693026061E+02  0.00000000000E+00 0. -1.
         -2   -1    0    0    0  501 -0.00000000000E+00 -0.00000000000E+00 -0.25989948193E+03  0.25989948193E+03  0.00000000000E+00 0.  1.
          1    1    1    2  502    0 -0.10301094069E+02  0.54524509296E+02 -0.88415778981E+02  0.10438574915E+03  0.00000000000E+00 0. -1.
         -1    1    1    2    0  501  0.10301094069E+02 -0.54524509296E+02 -0.15879067689E+03  0.16820675884E+03  0.00000000000E+00 0.  1.
</event>
<event>
 4    1  0.6718357E+001  0.2763074E+02  0.7546771E-02  0.1441373E+00
          2   -1    0    0  502    0  0.00000000000E+00  0.00000000000E+00  0.28855572067E+02  0.28855572067E+02  0.00000000000E+00 0.  1.
         -2   -1    0    0    0  501 -0.00000000000E+00 -0.00000000000E+00 -0.26458254866E+02  0.26458254866E+02  0.00000000000E+00 0. -1.
          1    1    1    2  502    0 -0.20843109049E+02 -0.18138975079E+02  0.10962475263E+01  0.27652474941E+02  0.00000000000E+00 0.  1.
         -1    1    1    2    0  501  0.20843109049E+02  0.18138975079E+02  0.13010696742E+01  0.27661351992E+02  0.00000000000E+00 0. -1.
</event>
<event>
 4    1  0.6718357E+001  0.3588470E+02  0.7546771E-02  0.1374448E+00
          2   -1    0    0  502    0  0.00000000000E+00  0.00000000000E+00  0.15717131888E+02  0.15717131888E+02  0.00000000000E+00 0. -1.
         -2   -1    0    0    0  501 -0.00000000000E+00 -0.00000000000E+00 -0.83068520680E+02  0.83068520680E+02  0.00000000000E+00 0.  1.
          1    1    1    2  502    0  0.23803069528E+02 -0.26853777222E+02 -0.27894295879E+02  0.45451107936E+02  0.00000000000E+00 0. -1.
         -1    1    1    2    0  501 -0.23803069528E+02  0.26853777222E+02 -0.39457092913E+02  0.53334544632E+02  0.00000000000E+00 0.  1.
</event>
<event>
 4    1  0.6718357E+001  0.2493729E+02  0.7546771E-02  0.1469506E+00
          2   -1    0    0  502    0  0.00000000000E+00  0.00000000000E+00  0.17914734843E+02  0.17914734843E+02  0.00000000000E+00 0.  1.
         -2   -1    0    0    0  501 -0.00000000000E+00 -0.00000000000E+00 -0.49212408046E+02  0.49212408046E+02  0.00000000000E+00 0. -1.
          1    1    1    2  502    0  0.15024458394E+02 -0.19903121711E+02 -0.33867254734E+02  0.42057811962E+02  0.00000000000E+00 0. -1.
         -1    1    1    2    0  501 -0.15024458394E+02  0.19903121711E+02  0.25695815309E+01  0.25069330927E+02  0.00000000000E+00 0.  1.
</event>
<event>
 4    1  0.6718357E+001  0.3299887E+02  0.7546771E-02  0.1395205E+00
          2   -1    0    0  502    0  0.00000000000E+00  0.00000000000E+00  0.53625322027E+03  0.53625322027E+03  0.00000000000E+00 0. -1.
         -2   -1    0    0    0  501 -0.00000000000E+00 -0.00000000000E+00 -0.23342979317E+01  0.23342979317E+01  0.00000000000E+00 0.  1.
          1    1    1    2  502    0 -0.49830660184E+01 -0.32620457304E+02  0.36409016578E+03  0.36558251326E+03  0.00000000000E+00 0. -1.
         -1    1    1    2    0  501  0.49830660184E+01  0.32620457304E+02  0.16982875655E+03  0.17300500494E+03  0.00000000000E+00 0.  1.
</event>
<event>
 4    1  0.6718357E+001  0.2089576E+02  0.7546771E-02  0.1520758E+00
          2   -1    0    0  502    0  0.00000000000E+00  0.00000000000E+00  0.18572125472E+03  0.18572125472E+03  0.00000000000E+00 0.  1.
         -2   -1    0    0    0  501 -0.00000000000E+00 -0.00000000000E+00 -0.48817910049E+01  0.48817910049E+01  0.00000000000E+00 0. -1.
          1    1    1    2  502    0 -0.19131149435E+02  0.84042872733E+01  0.21801843484E+02  0.30198564578E+02  0.00000000000E+00 0. -1.
         -1    1    1    2    0  501  0.19131149435E+02 -0.84042872733E+01  0.15903762023E+03  0.16040448114E+03  0.00000000000E+00 0.  1.
</event>
<event>
 4    1  0.6718357E+001  0.2108540E+02  0.7546771E-02  0.1518049E+00
          2   -1    0    0  502    0  0.00000000000E+00  0.00000000000E+00  0.18967995548E+04  0.18967995548E+04  0.00000000000E+00 0. -1.
         -2   -1    0    0    0  501 -0.00000000000E+00 -0.00000000000E+00 -0.32007949183E+00  0.32007949183E+00  0.00000000000E+00 0.  1.
          1    1    1    2  502    0  0.65664461855E+01 -0.20036866298E+02  0.14390290176E+04  0.14391834865E+04  0.00000000000E+00 0. -1.
         -1    1    1    2    0  501 -0.65664461855E+01  0.20036866298E+02  0.45745045770E+03  0.45793614781E+03  0.00000000000E+00 0.  1.
</event>
<event>
 4    1  0.6718357E+001  0.2420904E+02  0.7546771E-02  0.1477850E+00
          2   -1    0    0  502    0  0.00000000000E+00  0.00000000000E+00  0.25380302572E+04  0.25380302572E+04  0.00000000000E+00 0.  1.
         -2   -1    0    0    0  501 -0.00000000000E+00 -0.00000000000E+00 -0.23176245536E+00  0.23176245536E+00  0.00000000000E+00 0. -1.
          1    1    1    2  502    0 -0.18870388997E+02  0.15165292052E+02  0.13454929219E+04  0.13457106972E+04  0.00000000000E+00 0.  1.
         -1    1    1    2    0  501  0.18870388997E+02 -0.15165292052E+02  0.11923055729E+04  0.11925513225E+04  0.00000000000E+00 0. -1.
</event>
<event>
 4    1  0.6718357E+001  0.6481905E+02  0.7546771E-02  0.1244283E+00
          2   -1    0    0  502    0  0.00000000000E+00  0.00000000000E+00  0.93088239256E+02  0.93088239256E+02  0.00000000000E+00 0. -1.
         -2   -1    0    0    0  501 -0.00000000000E+00 -0.00000000000E+00 -0.50583941370E+02  0.50583941370E+02  0.00000000000E+00 0.  1.
          1    1    1    2  502    0 -0.41687744571E+02  0.49635076169E+02 -0.23257320229E+01  0.64860757498E+02  0.00000000000E+00 0.  1.
         -1    1    1    2    0  501  0.41687744571E+02 -0.49635076169E+02  0.44830029909E+02  0.78811423128E+02  0.00000000000E+00 0. -1.
</event>
<event>
 4    1  0.6718357E+001  0.3356599E+02  0.7546771E-02  0.1390935E+00
          2   -1    0    0  502    0  0.00000000000E+00  0.00000000000E+00  0.15440344446E+03  0.15440344446E+03  0.00000000000E+00 0. -1.
         -2   -1    0    0    0  501 -0.00000000000E+00 -0.00000000000E+00 -0.84733033616E+01  0.84733033616E+01  0.00000000000E+00 0.  1.
          1    1    1    2  502    0  0.83328307161E+01 -0.32515220793E+02  0.10330886564E+03  0.10862503105E+03  0.00000000000E+00 0. -1.
         -1    1    1    2    0  501 -0.83328307161E+01  0.32515220793E+02  0.42621275459E+02  0.54251716772E+02  0.00000000000E+00 0.  1.
</event>
<event>
 4    1  0.6718357E+001  0.2703969E+02  0.7546771E-02  0.1447210E+00
          2   -1    0    0  502    0  0.00000000000E+00  0.00000000000E+00  0.59208563746E+03  0.59208563746E+03  0.00000000000E+00 0.  1.
         -2   -1    0    0    0  501 -0.00000000000E+00 -0.00000000000E+00 -0.12643314248E+01  0.12643314248E+01  0.00000000000E+00 0. -1.
          1    1    1    2  502    0 -0.26775027655E+02  0.37739185268E+01  0.25011777552E+03  0.25157513032E+03  0.00000000000E+00 0. -1.
         -1    1    1    2    0  501  0.26775027655E+02 -0.37739185268E+01  0.34070353052E+03  0.34177483856E+03  0.00000000000E+00 0.  1.
</event>
<event>
 4    1  0.6718357E+001  0.4680651E+02  0.7546771E-02  0.1312646E+00
          2   -1    0    0  502    0  0.00000000000E+00  0.00000000000E+00  0.25186721184E+03  0.25186721184E+03  0.00000000000E+00 0. -1.
         -2   -1    0    0    0  501 -0.00000000000E+00 -0.00000000000E+00 -0.89859035524E+01  0.89859035524E+01  0.00000000000E+00 0.  1.
          1    1    1    2  502    0  0.41773845891E+02  0.21113861556E+02  0.14476900225E+03  0.15214766959E+03  0.00000000000E+00 0.  1.
         -1    1    1    2    0  501 -0.41773845891E+02 -0.21113861556E+02  0.98112306041E+02  0.10870544580E+03  0.00000000000E+00 0. -1.
</event>
<event>
 4    1  0.6718357E+001  0.4758041E+02  0.7546771E-02  0.1309018E+00
          2   -1    0    0  502    0  0.00000000000E+00  0.00000000000E+00  0.67155323470E+02  0.67155323470E+02  0.00000000000E+00 0. -1.
         -2   -1    0    0    0  501 -0.00000000000E+00 -0.00000000000E+00 -0.51918871244E+02  0.51918871244E+02  0.00000000000E+00 0.  1.
          1    1    1    2  502    0 -0.13892350975E+02 -0.45507116826E+02  0.42875661478E+02  0.64048555367E+02  0.00000000000E+00 0. -1.
         -1    1    1    2    0  501  0.13892350975E+02  0.45507116826E+02 -0.27639209251E+02  0.55025639347E+02  0.00000000000E+00 0.  1.
</event>
<event>
 4    1  0.6718357E+001  0.2064813E+02  0.7546771E-02  0.1524348E+00
          2   -1    0    0  502    0  0.00000000000E+00  0.00000000000E+00  0.40636321173E+03  0.40636321173E+03  0.00000000000E+00 0. -1.
         -2   -1    0    0    0  501 -0.00000000000E+00 -0.00000000000E+00 -0.10679905318E+01  0.10679905318E+01  0.00000000000E+00 0.  1.
          1    1    1    2  502    0  0.17091644791E+02 -0.11585383206E+02  0.17560686699E+03  0.17681662014E+03  0.00000000000E+00 0. -1.
         -1    1    1    2    0  501 -0.17091644791E+02  0.11585383206E+02  0.22968835421E+03  0.23061458211E+03  0.00000000000E+00 0.  1.
</event>
<event>
 4    1  0.6718357E+001  0.4822429E+02  0.7546771E-02  0.1306060E+00
          2   -1    0    0  502    0  0.00000000000E+00  0.00000000000E+00  0.65264567699E+03  0.65264567699E+03  0.00000000000E+00 0.  1.
         -2   -1    0    0    0  501 -0.00000000000E+00 -0.00000000000E+00 -0.37102630896E+01  0.37102630896E+01  0.00000000000E+00 0. -1.
          1    1    1    2  502    0 -0.20358245402E+02  0.43716403752E+02  0.38977912055E+03  0.39275099609E+03  0.00000000000E+00 0.  1.
         -1    1    1    2    0  501  0.20358245402E+02 -0.43716403752E+02  0.25915629336E+03  0.26360494400E+03  0.00000000000E+00 0. -1.
</event>
<event>
 4    1  0.6718357E+001  0.2798886E+02  0.7546771E-02  0.1437920E+00
          2   -1    0    0  502    0  0.00000000000E+00  0.00000000000E+00  0.59796595051E+03  0.59796595051E+03  0.00000000000E+00 0. -1.
         -2   -1    0    0    0  501 -0.00000000000E+00 -0.00000000000E+00 -0.20575578073E+01  0.20575578073E+01  0.00000000000E+00 0.  1.
          1    1    1    2  502    0  0.25497952836E+02 -0.11542561773E+02  0.47878181030E+03  0.47959920580E+03  0.00000000000E+00 0. -1.
         -1    1    1    2    0  501 -0.25497952836E+02  0.11542561773E+02  0.11712658241E+03  0.12042430252E+03  0.00000000000E+00 0.  1.
</event>
<event>
 4    1  0.6718357E+001  0.2038392E+02  0.7546771E-02  0.1528245E+00
          2   -1    0    0  502    0  0.00000000000E+00  0.00000000000E+00  0.36618345421E+02  0.36618345421E+02  0.00000000000E+00 0. -1.
         -2   -1    0    0    0  501 -0.00000000000E+00 -0.00000000000E+00 -0.19535787481E+02  0.19535787481E+02  0.00000000000E+00 0.  1.
          1    1    1    2  502    0 -0.15740048117E+02 -0.12952030081E+02 -0.96368460889E+01  0.22547128431E+02  0.00000000000E+00 0.  1.
         -1    1    1    2    0  501  0.15740048117E+02  0.12952030081E+02  0.26719404029E+02  0.33607004472E+02  0.00000000000E+00 0. -1.
</event>
<event>
 4    1  0.6718357E+001  0.2851474E+02  0.7546771E-02  0.1432958E+00
          2   -1    0    0  502    0  0.00000000000E+00  0.00000000000E+00  0.39601613970E+03  0.39601613970E+03  0.00000000000E+00 0.  1.
         -2   -1    0    0    0  501 -0.00000000000E+00 -0.00000000000E+00 -0.22396449737E+01  0.22396449737E+01  0.00000000000E+00 0. -1.
          1    1    1    2  502    0  0.28498865743E+02 -0.95142216720E+00  0.25434573381E+03  0.25593913898E+03  0.00000000000E+00 0. -1.
         -1    1    1    2    0  501 -0.28498865743E+02  0.95142216720E+00  0.13943076092E+03  0.14231664570E+03  0.00000000000E+00 0.  1.
</event>
<event>
 4    1  0.6718357E+001  0.2380021E+02  0.7546771E-02  0.1482687E+00
          2   -1    0    0  502    0  0.00000000000E+00  0.00000000000E+00  0.64849383151E+03  0.64849383151E+03  0.00000000000E+00 0.  1.
         -2   -1    0    0    0  501 -0.00000000000E+00 -0.00000000000E+00 -0.10029259662E+01  0.10029259662E+01  0.00000000000E+00 0. -1.
          1    1    1    2  502    0  0.26089857078E+01 -0.23656776077E+02  0.20707850359E+03  0.20844173409E+03  0.00000000000E+00 0. -1.
         -1    1    1    2    0  501 -0.26089857078E+01  0.23656776077E+02  0.44041240195E+03  0.44105502338E+03  0.00000000000E+00 0.  1.
</event>
<event>
 4    1  0.6718357E+001  0.2170387E+02  0.7546771E-02  0.1509448E+00
          2   -1    0    0  502    0  0.00000000000E+00  0.00000000000E+00  0.10438049877E+02  0.10438049877E+02  0.00000000000E+00 0.  1.
         -2   -1    0    0    0  501 -0.00000000000E+00 -0.00000000000E+00 -0.55951377132E+02  0.55951377132E+02  0.00000000000E+00 0. -1.
          1    1    1    2  502    0  0.21525345203E+02  0.27780175558E+01 -0.37355779926E+02  0.43203149903E+02  0.00000000000E+00 0.  1.
         -1    1    1    2    0  501 -0.21525345203E+02 -0.27780175558E+01 -0.81575473277E+01  0.23186277106E+02  0.00000000000E+00 0. -1.
</event>
<event>
 4    1  0.6718357E+001  0.2284947E+02  0.7546771E-02  0.1494397E+00
          2   -1    0    0  502    0  0.00000000000E+00  0.00000000000E+00  0.16118032413E+02  0.16118032413E+02  0.00000000000E+00 0. -1.
         -2   -1    0    0    0  501 -0.00000000000E+00 -0.00000000000E+00 -0.35865360939E+02  0.35865360939E+02  0.00000000000E+00 0.  1.
          1    1    1    2  502    0  0.15925199802E+02  0.16385555183E+02 -0.17853139054E+01  0.22919113271E+02  0.00000000000E+00 0. -1.
         -1    1    1    2    0  501 -0.15925199802E+02 -0.16385555183E+02 -0.17962014620E+02  0.29064280081E+02  0.00000000000E+00 0.  1.
</event>
<event>
 4    1  0.6718357E+001  0.2116139E+02  0.7546771E-02  0.1516973E+00
          2   -1    0    0  502    0  0.00000000000E+00  0.00000000000E+00  0.18347545743E+03  0.18347545743E+03  0.00000000000E+00 0.  1.
         -2   -1    0    0    0  501 -0.00000000000E+00 -0.00000000000E+00 -0.29645073535E+01  0.29645073535E+01  0.00000000000E+00 0. -1.
          1    1    1    2  502    0  0.18815592060E+02  0.96838937675E+01  0.12944122286E+03  0.13115957639E+03  0.00000000000E+00 0. -1.
         -1    1    1    2    0  501 -0.18815592060E+02 -0.96838937675E+01  0.51069727219E+02  0.55280388397E+02  0.00000000000E+00 0.  1.
</event>
<event>
 4    1  0.6718357E+001  0.2052449E+02  0.7546771E-02  0.1526163E+00
          2   -1    0    0  502    0  0.00000000000E+00  0.00000000000E+00  0.20930731003E+04  0.20930731003E+04  0.00000000000E+00 0.  1.
         -2   -1    0    0    0  501 -0.00000000000E+00 -0.00000000000E+00 -0.20129732019E+00  0.20129732019E+00  0.00000000000E+00 0. -1.
          1    1    1    2  502    0 -0.20476588330E+02 -0.14013783824E+01  0.10324275600E+04  0.10326315515E+04  0.00000000000E+00 0.  1.
         -1    1    1    2    0  501  0.20476588330E+02  0.14013783824E+01  0.10604442430E+04  0.10606428461E+04  0.00000000000E+00 0. -1.
</event>
<event>
 4    1  0.6718357E+001  0.2020477E+02  0.7546771E-02  0.1530928E+00
          2   -1    0    0  502    0  0.00000000000E+00  0.00000000000E+00  0.23099605760E+02  0.23099605760E+02  0.00000000000E+00 0. -1.
         -2   -1    0    0    0  501 -0.00000000000E+00 -0.00000000000E+00 -0.18782598098E+02  0.18782598098E+02  0.00000000000E+00 0.  1.
          1    1    1    2  502    0 -0.17649086073E+02  0.98357742427E+01 -0.29320001667E+01  0.20416398291E+02  0.00000000000E+00 0. -1.
         -1    1    1    2    0  501  0.17649086073E+02 -0.98357742427E+01  0.72490078283E+01  0.21465805568E+02  0.00000000000E+00 0.  1.
</event>
<event>
 4    1  0.6718357E+001  0.3104822E+02  0.7546771E-02  0.1410701E+00
          2   -1    0    0  502    0  0.00000000000E+00  0.00000000000E+00  0.80981422499E+02  0.80981422499E+02  0.00000000000E+00 0.  1.
         -2   -1    0    0    0  501 -0.00000000000E+00 -0.00000000000E+00 -0.12014460722E+02  0.12014460722E+02  0.00000000000E+00 0. -1.
          1    1    1    2  502    0  0.82256564818E+01  0.29938777710E+02  0.38944692523E+02  0.49806434434E+02  0.00000000000E+00 0. -1.
         -1    1    1    2    0  501 -0.82256564818E+01 -0.29938777710E+02  0.30022269254E+02  0.43189448786E+02  0.00000000000E+00 0.  1.
</event>
<event>
 4    1  0.6718357E+001  0.2023136E+02  0.7546771E-02  0.1530528E+00
          2   -1    0    0  502    0  0.00000000000E+00  0.00000000000E+00  0.44222193301E+03  0.44222193301E+03  0.00000000000E+00 0.  1.
         -2   -1    0    0    0  501 -0.00000000000E+00 -0.00000000000E+00 -0.22740173202E+01  0.22740173202E+01  0.00000000000E+00 0. -1.
          1    1    1    2  502    0  0.17912940634E+02  0.94039553973E+01  0.48831505085E+02  0.52856633530E+02  0.00000000000E+00 0. -1.
         -1    1    1    2    0  501 -0.17912940634E+02 -0.94039553973E+01  0.39111641060E+03  0.39163931680E+03  0.00000000000E+00 0.  1.
</event>
<event>
 4    1  0.6718357E+001  0.2518092E+02  0.7546771E-02  0.1466790E+00
          2   -1    0    0  502    0  0.00000000000E+00  0.00000000000E+00  0.95139359864E+03  0.95139359864E+03  0.00000000000E+00 0.  1.
         -2   -1    0    0    0  501 -0.00000000000E+00 -0.00000000000E+00 -0.83087612627E+00  0.83087612627E+00  0.00000000000E+00 0. -1.
          1    1    1    2  502    0  0.22467440819E+02 -0.11370694050E+02  0.68706657565E+03  0.68752785976E+03  0.00000000000E+00 0.  1.
         -1    1    1    2    0  501 -0.22467440819E+02  0.11370694050E+02  0.26349614687E+03  0.26469661500E+03  0.00000000000E+00 0. -1.
</event>
<event>
 4    1  0.6718357E+001  0.2141295E+02  0.7546771E-02  0.1513450E+00
          2   -1    0    0  502    0  0.00000000000E+00  0.00000000000E+00  0.31927299335E+03  0.31927299335E+03  0.00000000000E+00 0. -1.
         -2   -1    0    0    0  501 -0.00000000000E+00 -0.00000000000E+00 -0.17824235933E+01  0.17824235933E+01  0.00000000000E+00 0.  1.
          1    1    1    2  502    0 -0.18380838135E+02  0.10984507621E+02  0.22950278493E+03  0.23049955078E+03  0.00000000000E+00 0. -1.
         -1    1    1    2    0  501  0.18380838135E+02 -0.10984507621E+02  0.87987784828E+02  0.90555866167E+02  0.00000000000E+00 0.  1.
</event>
<event>
 4    1  0.6718357E+001  0.2165428E+02  0.7546771E-02  0.1510125E+00
          2   -1    0    0  502    0  0.00000000000E+00  0.00000000000E+00  0.14475578271E+04  0.14475578271E+04  0.00000000000E+00 0.  1.
         -2   -1    0    0    0  501 -0.00000000000E+00 -0.00000000000E+00 -0.43704494334E+00  0.43704494334E+00  0.00000000000E+00 0. -1.
          1    1    1    2  502    0 -0.17133609591E+02 -0.13241875033E+02  0.35523351829E+03  0.35589290573E+03  0.00000000000E+00 0. -1.
         -1    1    1    2    0  501  0.17133609591E+02  0.13241875033E+02  0.10918872638E+04  0.10921019663E+04  0.00000000000E+00 0.  1.
</event>
<event>
 4    1  0.6718357E+001  0.2755106E+02  0.7546771E-02  0.1442150E+00
          2   -1    0    0  502    0  0.00000000000E+00  0.00000000000E+00  0.40315699551E+01  0.40315699551E+01  0.00000000000E+00 0.  1.
         -2   -1    0    0    0  501 -0.00000000000E+00 -0.00000000000E+00 -0.29010388963E+03  0.29010388963E+03  0.00000000000E+00 0. -1.
          1    1    1    2  502    0 -0.20253983350E+02  0.18677183101E+02 -0.55906296882E+02  0.62326359120E+02  0.00000000000E+00 0.  1.
         -1    1    1    2    0  501  0.20253983350E+02 -0.18677183101E+02 -0.23016602279E+03  0.23180910046E+03  0.00000000000E+00 0. -1.
</event>
<event>
 4    1  0.6718357E+001  0.2063975E+02  0.7546771E-02  0.1524471E+00
          2   -1    0    0  502    0  0.00000000000E+00  0.00000000000E+00  0.31031363167E+02  0.31031363167E+02  0.00000000000E+00 0. -1.
         -2   -1    0    0    0  501 -0.00000000000E+00 -0.00000000000E+00 -0.13983709058E+02  0.13983709058E+02  0.00000000000E+00 0.  1.
          1    1    1    2  502    0 -0.20126556297E+02 -0.45739569942E+01  0.11567289863E+02  0.23660125649E+02  0.00000000000E+00 0. -1.
         -1    1    1    2    0  501  0.20126556297E+02  0.45739569942E+01  0.54803642456E+01  0.21354946575E+02  0.00000000000E+00 0.  1.
</event>
<event>
 4    1  0.6718357E+001  0.2744137E+02  0.7546771E-02  0.1443224E+00
          2   -1    0    0  502    0  0.00000000000E+00  0.00000000000E+00  0.61260217127E+01  0.61260217127E+01  0.00000000000E+00 0.  1.
         -2   -1    0    0    0  501 -0.00000000000E+00 -0.00000000000E+00 -0.12447982841E+03  0.12447982841E+03  0.00000000000E+00 0. -1.
          1    1    1    2  502    0  0.21503549149E+02 -0.17047759226E+02 -0.66480034979E+02  0.71920955023E+02  0.00000000000E+00 0. -1.
         -1    1    1    2    0  501 -0.21503549149E+02  0.17047759226E+02 -0.51873771722E+02  0.58684895104E+02  0.00000000000E+00 0.  1.
</event>
<event>
 4    1  0.6718357E+001  0.3173111E+02  0.7546771E-02  0.1405127E+00
          2   -1    0    0  502    0  0.00000000000E+00  0.00000000000E+00  0.96101379629E+03  0.96101379629E+03  0.00000000000E+00 0. -1.
         -2   -1    0    0    0  501 -0.00000000000E+00 -0.00000000000E+00 -0.15035017939E+01  0.15035017939E+01  0.00000000000E+00 0.  1.
          1    1    1    2  502    0  0.11767719651E+02 -0.29468362928E+02  0.21477710610E+03  0.21710842670E+03  0.00000000000E+00 0.  1.
         -1    1    1    2    0  501 -0.11767719651E+02  0.29468362928E+02  0.74473318840E+03  0.74540887139E+03  0.00000000000E+00 0. -1.
</event>
<event>
 4    1  0.6718357E+001  0.2345618E+02  0.7546771E-02  0.1486848E+00
          2   -1    0    0  502    0  0.00000000000E+00  0.00000000000E+00  0.19555011347E+04  0.19555011347E+04  0.00000000000E+00 0. -1.
         -2   -1    0    0    0  501 -0.00000000000E+00 -0.00000000000E+00 -0.40473417147E+00  0.40473417147E+00  0.00000000000E+00 0.  1.
          1    1    1    2  502    0 -0.23123708313E+02  0.39352732585E+01  0.43760021347E+03  0.43822840973E+03  0.00000000000E+00 0.  1.
         -1    1    1    2    0  501  0.23123708313E+02 -0.39352732585E+01  0.15174961870E+04  0.15176774591E+04  0.00000000000E+00 0. -1.
</event>
<event>
 4    1  0.6718357E+001  0.2807197E+02  0.7546771E-02  0.1437127E+00
          2   -1    0    0  502    0  0.00000000000E+00  0.00000000000E+00  0.33364302915E+03  0.33364302915E+03  0.00000000000E+00 0.  1.
         -2   -1    0    0    0  501 -0.00000000000E+00 -0.00000000000E+00 -0.24750239131E+01  0.24750239131E+01  0.00000000000E+00 0. -1.
          1    1    1    2  502    0  0.26733760439E+02  0.85639701232E+01  0.20151141912E+03  0.20345733598E+03  0.00000000000E+00 0.  1.
         -1    1    1    2    0  501 -0.26733760439E+02 -0.85639701232E+01  0.12965658612E+03  0.13266071708E+03  0.00000000000E+00 0. -1.
</event>
<event>
 4    1  0.6718357E+001  0.2800482E+02  0.7546771E-02  0.1437767E+00
          2   -1    0    0  502    0  0.00000000000E+00  0.00000000000E+00  0.34436081579E+03  0.34436081579E+03  0.00000000000E+00 0. -1.
         -2   -1    0    0    0  501 -0.00000000000E+00 -0.00000000000E+00 -0.26207203988E+01  0.26207203988E+01  0.00000000000E+00 0.  1.
          1    1    1    2  502    0 -0.27993055981E+02  0.81176900001E+00  0.23365764913E+03  0.23532991130E+03  0.00000000000E+00 0. -1.
         -1    1    1    2    0  501  0.27993055981E+02 -0.81176900001E+00  0.10808244625E+03  0.11165162489E+03  0.00000000000E+00 0.  1.
</event>
<event>
 4    1  0.6718357E+001  0.4034096E+02  0.7546771E-02  0.1346499E+00
          2   -1    0    0  502    0  0.00000000000E+00  0.00000000000E+00  0.87673663916E+03  0.87673663916E+03  0.00000000000E+00 0.  1.
         -2   -1    0    0    0  501 -0.00000000000E+00 -0.00000000000E+00 -0.32761820380E+01  0.32761820380E+01  0.00000000000E+00 0. -1.
          1    1    1    2  502    0 -0.36835746323E+02 -0.16447522330E+02  0.14705100329E+03  0.15248406726E+03  0.00000000000E+00 0.  1.
         -1    1    1    2    0  501  0.36835746323E+02  0.16447522330E+02  0.72640945383E+03  0.72752875394E+03  0.00000000000E+00 0. -1.
</event>
<event>
 4    1  0.6718357E+001  0.3073688E+02  0.7546771E-02  0.1413299E+00
          2   -1    0    0  502    0  0.00000000000E+00  0.00000000000E+00  0.62200644551E+03  0.62200644551E+03  0.00000000000E+00 0. -1.
         -2   -1    0    0    0  501 -0.00000000000E+00 -0.00000000000E+00 -0.15193321669E+01  0.15193321669E+01  0.00000000000E+00 0.  1.
          1    1    1    2  502    0 -0.17915963289E+01  0.30684621090E+02  0.30489051748E+03  0.30643593692E+03  0.00000000000E+00 0.  1.
         -1    1    1    2    0  501  0.17915963289E+01 -0.30684621090E+02  0.31559659587E+03  0.31708984076E+03  0.00000000000E+00 0. -1.
</event>
<event>
 4    1  0.6718357E+001  0.2394097E+02  0.7546771E-02  0.1481009E+00
          2   -1    0    0  502    0  0.00000000000E+00  0.00000000000E+00  0.63182128410E+01  0.63182128410E+01  0.00000000000E+00 0. -1.
         -2   -1    0    0    0  501 -0.00000000000E+00 -0.00000000000E+00 -0.90991693457E+02  0.90991693457E+02  0.00000000000E+00 0.  1.
          1    1    1    2  502    0 -0.61569483476E+01  0.23135730551E+02 -0.45009496796E+02  0.50980632037E+02  0.00000000000E+00 0.  1.
         -1    1    1    2    0  501  0.61569483476E+01 -0.23135730551E+02 -0.39663983820E+02  0.46329274261E+02  0.00000000000E+00 0. -1.
</event>
<event>
 4    1  0.6718357E+001  0.2905850E+02  0.7546771E-02  0.1427958E+00
          2   -1    0    0  502    0  0.00000000000E+00  0.00000000000E+00  0.13391086217E+04  0.13391086217E+04  0.00000000000E+00 0.  1.
         -2   -1    0    0    0  501 -0.00000000000E+00 -0.00000000000E+00 -0.71560095364E+00  0.71560095364E+00  0.00000000000E+00 0. -1.
          1    1    1    2  502    0 -0.24194930719E+02  0.16093535539E+02  0.43826630136E+03  0.43922858226E+03  0.00000000000E+00 0.  1.
         -1    1    1    2    0  501  0.24194930719E+02 -0.16093535539E+02  0.90012671942E+03  0.90059564044E+03  0.00000000000E+00 0. -1.
</event>
<event>
 4    1  0.6718357E+001  0.2213927E+02  0.7546771E-02  0.1503599E+00
          2   -1    0    0  502    0  0.00000000000E+00  0.00000000000E+00  0.53564535414E+03  0.53564535414E+03  0.00000000000E+00 0.  1.
         -2   -1    0    0    0  501 -0.00000000000E+00 -0.00000000000E+00 -0.93471404374E+00  0.93471404374E+00  0.00000000000E+00 0. -1.
          1    1    1    2  502    0 -0.21720207324E+02 -0.42871874245E+01  0.30625951083E+03  0.30705868390E+03  0.00000000000E+00 0.  1.
         -1    1    1    2    0  501  0.21720207324E+02  0.42871874245E+01  0.22845112926E+03  0.22952138428E+03  0.00000000000E+00 0. -1.
</event>
<event>
 4    1  0.6718357E+001  0.4558636E+02  0.7546771E-02  0.1318533E+00
          2   -1    0    0  502    0  0.00000000000E+00  0.00000000000E+00  0.52850046083E+03  0.52850046083E+03  0.00000000000E+00 0. -1.
         -2   -1    0    0    0  501 -0.00000000000E+00 -0.00000000000E+00 -0.40327965239E+01  0.40327965239E+01  0.00000000000E+00 0.  1.
          1    1    1    2  502    0  0.40840409705E+02 -0.20252820693E+02  0.22015881547E+03  0.22482886790E+03  0.00000000000E+00 0.  1.
         -1    1    1    2    0  501 -0.40840409705E+02  0.20252820693E+02  0.30430884884E+03  0.30770438946E+03  0.00000000000E+00 0. -1.
</event>
<event>
 4    1  0.6718357E+001  0.2132534E+02  0.7546771E-02  0.1514670E+00
          2   -1    0    0  502    0  0.00000000000E+00  0.00000000000E+00  0.95563141918E+01  0.95563141918E+01  0.00000000000E+00 0.  1.
         -2   -1    0    0    0  501 -0.00000000000E+00 -0.00000000000E+00 -0.52745843917E+02  0.52745843917E+02  0.00000000000E+00 0. -1.
          1    1    1    2  502    0  0.24949961069E+01 -0.21178885193E+02 -0.11853976472E+02  0.24398502859E+02  0.00000000000E+00 0. -1.
         -1    1    1    2    0  501 -0.24949961069E+01  0.21178885193E+02 -0.31335553254E+02  0.37903655250E+02  0.00000000000E+00 0.  1.
</event>
<event>
 4    1  0.6718357E+001  0.2213275E+02  0.7546771E-02  0.1503685E+00
          2   -1    0    0  502    0  0.00000000000E+00  0.00000000000E+00  0.22669642595E+04  0.22669642595E+04  0.00000000000E+00 0.  1.
         -2   -1    0    0    0  501 -0.00000000000E+00 -0.00000000000E+00 -0.22468183921E+00  0.22468183921E+00  0.00000000000E+00 0. -1.
          1    1    1    2  502    0  0.10357393160E+02 -0.19559730226E+02  0.91163973912E+03  0.91190836853E+03  0.00000000000E+00 0.  1.
         -1    1    1    2    0  501 -0.10357393160E+02  0.19559730226E+02  0.13550998385E+04  0.13552805728E+04  0.00000000000E+00 0. -1.
</event>
<event>
 4    1  0.6718357E+001  0.3095648E+02  0.7546771E-02  0.1411463E+00
          2   -1    0    0  502    0  0.00000000000E+00  0.00000000000E+00  0.26700980970E+04  0.26700980970E+04  0.00000000000E+00 0.  1.
         -2   -1    0    0    0  501 -0.00000000000E+00 -0.00000000000E+00 -0.55307539111E+00  0.55307539111E+00  0.00000000000E+00 0. -1.
          1    1    1    2  502    0 -0.29807360874E+02  0.83561228910E+01  0.21259790331E+04  0.21262044005E+04  0.00000000000E+00 0.  1.
         -1    1    1    2    0  501  0.29807360874E+02 -0.83561228910E+01  0.54356598851E+03  0.54444677189E+03  0.00000000000E+00 0. -1.
</event>
<event>
 4    1  0.6718357E+001  0.2028466E+02  0.7546771E-02  0.1529728E+00
          2   -1    0    0  502    0  0.00000000000E+00  0.00000000000E+00  0.11312987778E+01  0.11312987778E+01  0.00000000000E+00 0.  1.
         -2   -1    0    0    0  501 -0.00000000000E+00 -0.00000000000E+00 -0.38249943569E+03  0.38249943569E+03  0.00000000000E+00 0. -1.
          1    1    1    2  502    0 -0.13363861803E+02  0.15260233291E+02 -0.23319452927E+03  0.23407510762E+03  0.00000000000E+00 0.  1.
         -1    1    1    2    0  501  0.13363861803E+02 -0.15260233291E+02 -0.14817360764E+03  0.14955562685E+03  0.00000000000E+00 0. -1.
</event>
<event>
 4    1  0.6718357E+001  0.2521943E+02  0.7546771E-02  0.1466363E+00
          2   -1    0    0  502    0  0.00000000000E+00  0.00000000000E+00  0.21308032054E+02  0.21308032054E+02  0.00000000000E+00 0. -1.
         -2   -1    0    0    0  501 -0.00000000000E+00 -0.00000000000E+00 -0.10438753764E+03  0.10438753764E+03  0.00000000000E+00 0.  1.
          1    1    1    2  502    0  0.10296298820E+02 -0.23021856348E+02  0.11567838373E+02  0.27745892015E+02  0.00000000000E+00 0. -1.
         -1    1    1    2    0  501 -0.10296298820E+02  0.23021856348E+02 -0.94647343954E+02  0.97949677675E+02  0.00000000000E+00 0.  1.
</event>
<event>
 4    1  0.6718357E+001  0.2107813E+02  0.7546771E-02  0.1518152E+00
          2   -1    0    0  502    0  0.00000000000E+00  0.00000000000E+00  0.47443755799E+03  0.47443755799E+03  0.00000000000E+00 0.  1.
         -2   -1    0    0    0  501 -0.00000000000E+00 -0.00000000000E+00 -0.13897215497E+01  0.13897215497E+01  0.00000000000E+00 0. -1.
          1    1    1    2  502    0  0.29685687421E+01  0.20868043553E+02  0.37239720430E+03  0.37299325116E+03  0.00000000000E+00 0.  1.
         -1    1    1    2    0  501 -0.29685687421E+01 -0.20868043553E+02  0.10065063214E+03  0.10283402838E+03  0.00000000000E+00 0. -1.
</event>
<event>
 4    1  0.6718357E+001  0.2517514E+02  0.7546771E-02  0.1466854E+00
          2   -1    0    0  502    0  0.00000000000E+00  0.00000000000E+00  0.34778786805E+03  0.34778786805E+03  0.00000000000E+00 0. -1.
         -2   -1    0    0    0  501 -0.00000000000E+00 -0.00000000000E+00 -0.18542454556E+01  0.18542454556E+01  0.00000000000E+00 0.  1.
          1    1    1    2  502    0  0.24253895010E+02 -0.67480545318E+01  0.15003469281E+03  0.15213216856E+03  0.00000000000E+00 0.  1.
         -1    1    1    2    0  501 -0.24253895010E+02  0.67480545318E+01  0.19589892979E+03  0.19750994495E+03  0.00000000000E+00 0. -1.
</event>
<event>
 4    1  0.6718357E+001  0.2309120E+02  0.7546771E-02  0.1491356E+00
          2   -1    0    0  502    0  0.00000000000E+00  0.00000000000E+00  0.34805124247E+01  0.34805124247E+01  0.00000000000E+00 0. -1.
         -2   -1    0    0    0  501 -0.00000000000E+00 -0.00000000000E+00 -0.15571403926E+03  0.15571403926E+03  0.00000000000E+00 0.  1.
          1    1    1    2  502    0 -0.17938678345E+02 -0.14539845685E+02 -0.86237179421E+02  0.89275161203E+02  0.00000000000E+00 0. -1.
         -1    1    1    2    0  501  0.17938678345E+02  0.14539845685E+02 -0.65996347415E+02  0.69919390483E+02  0.00000000000E+00 0.  1.
</event>
<event>
 4    1  0.6718357E+001  0.2020939E+02  0.7546771E-02  0.1530859E+00
          2   -1    0    0  502    0  0.00000000000E+00  0.00000000000E+00  0.15647805624E+04  0.15647805624E+04  0.00000000000E+00 0. -1.
         -2   -1    0    0    0  501 -0.00000000000E+00 -0.00000000000E+00 -0.26110474356E+00  0.26110474356E+00  0.00000000000E+00 0.  1.
          1    1    1    2  502    0  0.86005120397E+01 -0.18287993979E+02  0.79735779016E+03  0.79761385711E+03  0.00000000000E+00 0. -1.
         -1    1    1    2    0  501 -0.86005120397E+01  0.18287993979E+02  0.76716166750E+03  0.76742781003E+03  0.00000000000E+00 0.  1.
</event>
<event>
 4    1  0.6718357E+001  0.3042978E+02  0.7546771E-02  0.1415898E+00
          2   -1    0    0  502    0  0.00000000000E+00  0.00000000000E+00  0.16011810165E+02  0.16011810165E+02  0.00000000000E+00 0.  1.
         -2   -1    0    0    0  501 -0.00000000000E+00 -0.00000000000E+00 -0.77258310221E+02  0.77258310221E+02  0.00000000000E+00 0. -1.
          1    1    1    2  502    0  0.15172149425E+02 -0.26377596604E+02 -0.72374972819E+01  0.31278636282E+02  0.00000000000E+00 0.  1.
         -1    1    1    2    0  501 -0.15172149425E+02  0.26377596604E+02 -0.54009002774E+02  0.61991484104E+02  0.00000000000E+00 0. -1.
</event>
<event>
 4    1  0.6718357E+001  0.2147045E+02  0.7546771E-02  0.1512653E+00
          2   -1    0    0  502    0  0.00000000000E+00  0.00000000000E+00  0.38055795429E+01  0.38055795429E+01  0.00000000000E+00 0. -1.
         -2   -1    0    0    0  501 -0.00000000000E+00 -0.00000000000E+00 -0.14764376380E+03  0.14764376380E+03  0.00000000000E+00 0.  1.
          1    1    1    2  502    0 -0.66622777353E+01 -0.20410639804E+02 -0.39831040823E+02  0.45249220711E+02  0.00000000000E+00 0. -1.
         -1    1    1    2    0  501  0.66622777353E+01  0.20410639804E+02 -0.10400714344E+03  0.10620012263E+03  0.00000000000E+00 0.  1.
</event>
<event>
 4    1  0.6718357E+001  0.3837340E+02  0.7546771E-02  0.1358291E+00
          2   -1    0    0  502    0  0.00000000000E+00  0.00000000000E+00  0.12285413826E+02  0.12285413826E+02  0.00000000000E+00 0. -1.
         -2   -1    0    0    0  501 -0.00000000000E+00 -0.00000000000E+00 -0.13392159601E+03  0.13392159601E+03  0.00000000000E+00 0.  1.
          1    1    1    2  502    0  0.25502708478E+02  0.28672809075E+02 -0.37129198628E+02  0.53395650672E+02  0.00000000000E+00 0. -1.
         -1    1    1    2    0  501 -0.25502708478E+02 -0.28672809075E+02 -0.84506983555E+02  0.92811359162E+02  0.00000000000E+00 0.  1.
</event>
<event>
 4    1  0.6718357E+001  0.6016263E+02  0.7546771E-02  0.1259281E+00
          2   -1    0    0  502    0  0.00000000000E+00  0.00000000000E+00  0.13941203560E+04  0.13941203560E+04  0.00000000000E+00 0. -1.
         -2   -1    0    0    0  501 -0.00000000000E+00 -0.00000000000E+00 -0.25967620505E+01  0.25967620505E+01  0.00000000000E+00 0.  1.
          1    1    1    2  502    0  0.20352764685E+02  0.56615433797E+02  0.68635771589E+03  0.68898944588E+03  0.00000000000E+00 0. -1.
         -1    1    1    2    0  501 -0.20352764685E+02 -0.56615433797E+02  0.70516587806E+03  0.70772767217E+03  0.00000000000E+00 0.  1.
</event>
<event>
 4    1  0.6718357E+001  0.2418670E+02  0.7546771E-02  0.1478111E+00
          2   -1    0    0  502    0  0.00000000000E+00  0.00000000000E+00  0.67054452168E+03  0.67054452168E+03  0.00000000000E+00 0. -1.
         -2   -1    0    0    0  501 -0.00000000000E+00 -0.00000000000E+00 -0.94112292321E+00  0.94112292321E+00  0.00000000000E+00 0.  1.
          1    1    1    2  502    0  0.23076820948E+02  0.72427068869E+01  0.42551502549E+03  0.42620186929E+03  0.00000000000E+00 0. -1.
         -1    1    1    2    0  501 -0.23076820948E+02 -0.72427068869E+01  0.24408837327E+03  0.24528377532E+03  0.00000000000E+00 0.  1.
</event>
<event>
 4    1  0.6718357E+001  0.4168398E+02  0.7546771E-02  0.1338891E+00
          2   -1    0    0  502    0  0.00000000000E+00  0.00000000000E+00  0.15327828621E+04  0.15327828621E+04  0.00000000000E+00 0. -1.
         -2   -1    0    0    0  501 -0.00000000000E+00 -0.00000000000E+00 -0.18021008252E+01  0.18021008252E+01  0.00000000000E+00 0.  1.
          1    1    1    2  502    0  0.38981046822E+02 -0.14765910197E+02  0.29815981924E+03  0.30105951559E+03  0.00000000000E+00 0.  1.
         -1    1    1    2    0  501 -0.38981046822E+02  0.14765910197E+02  0.12328209420E+04  0.12335254473E+04  0.00000000000E+00 0. -1.
</event>
<event>
 4    1  0.6718357E+001  0.2470448E+02  0.7546771E-02  0.1472137E+00
          2   -1    0    0  502    0  0.00000000000E+00  0.00000000000E+00  0.21155126886E+03  0.21155126886E+03  0.00000000000E+00 0. -1.
         -2   -1    0    0    0  501 -0.00000000000E+00 -0.00000000000E+00 -0.45441625914E+01  0.45441625914E+01  0.00000000000E+00 0.  1.
          1    1    1    2  502    0 -0.32512288741E+01 -0.24489608513E+02  0.16879281987E+03  0.17059111188E+03  0.00000000000E+00 0. -1.
         -1    1    1    2    0  501  0.32512288741E+01  0.24489608513E+02  0.38214286400E+02  0.45504319568E+02  0.00000000000E+00 0.  1.
</event>
<event>
 4    1  0.6718357E+001  0.3342898E+02  0.7546771E-02  0.1391957E+00
          2   -1    0    0  502    0  0.00000000000E+00  0.00000000000E+00  0.76138500180E+03  0.76138500180E+03  0.00000000000E+00 0.  1.
         -2   -1    0    0    0  501 -0.00000000000E+00 -0.00000000000E+00 -0.14695317466E+01  0.14695317466E+01  0.00000000000E+00 0. -1.
          1    1    1    2  502    0  0.26553398141E+02 -0.20307974188E+02  0.39336617556E+03  0.39478404836E+03  0.00000000000E+00 0. -1.
         -1    1    1    2    0  501 -0.26553398141E+02  0.20307974188E+02  0.36654929450E+03  0.36807048518E+03  0.00000000000E+00 0.  1.
</event>
<event>
 4    1  0.6718357E+001  0.2384447E+02  0.7546771E-02  0.1482158E+00
          2   -1    0    0  502    0  0.00000000000E+00  0.00000000000E+00  0.19837331156E+04  0.19837331156E+04  0.00000000000E+00 0.  1.
         -2   -1    0    0    0  501 -0.00000000000E+00 -0.00000000000E+00 -0.35371408941E+00  0.35371408941E+00  0.00000000000E+00 0. -1.
          1    1    1    2  502    0 -0.15056564212E+02  0.18489423740E+02  0.55959684312E+03  0.56010462035E+03  0.00000000000E+00 0. -1.
         -1    1    1    2    0  501  0.15056564212E+02 -0.18489423740E+02  0.14237825584E+04  0.14239822093E+04  0.00000000000E+00 0.  1.
</event>
<event>
 4    1  0.6718357E+001  0.2176400E+02  0.7546771E-02  0.1508631E+00
          2   -1    0    0  502    0  0.00000000000E+00  0.00000000000E+00  0.37125820226E+01  0.37125820226E+01  0.00000000000E+00 0.  1.
         -2   -1    0    0    0  501 -0.00000000000E+00 -0.00000000000E+00 -0.16142586671E+03  0.16142586671E+03  0.00000000000E+00 0. -1.
          1    1    1    2  502    0  0.96312688798E+01 -0.19516924688E+02 -0.11666162780E+03  0.11867437420E+03  0.00000000000E+00 0. -1.
         -1    1    1    2    0  501 -0.96312688798E+01  0.19516924688E+02 -0.41051656888E+02  0.46464074539E+02  0.00000000000E+00 0.  1.
</event>
<event>
 4    1  0.6718357E+001  0.3143600E+02  0.7546771E-02  0.1407515E+00
          2   -1    0    0  502    0  0.00000000000E+00  0.00000000000E+00  0.20130074742E+04  0.20130074742E+04  0.00000000000E+00 0. -1.
         -2   -1    0    0    0  501 -0.00000000000E+00 -0.00000000000E+00 -0.55532391865E+00  0.55532391865E+00  0.00000000000E+00 0.  1.
          1    1    1    2  502    0 -0.21159603415E+02  0.23248504798E+02  0.66335996005E+03  0.66410440323E+03  0.00000000000E+00 0.  1.
         -1    1    1    2    0  501  0.21159603415E+02 -0.23248504798E+02  0.13490921902E+04  0.13494583949E+04  0.00000000000E+00 0. -1.
</event>
<event>
 4    1  0.6718357E+001  0.2029949E+02  0.7546771E-02  0.1529506E+00
          2   -1    0    0  502    0  0.00000000000E+00  0.00000000000E+00  0.14628890270E+04  0.14628890270E+04  0.00000000000E+00 0.  1.
         -2   -1    0    0    0  501 -0.00000000000E+00 -0.00000000000E+00 -0.33057388467E+00  0.33057388467E+00  0.00000000000E+00 0. -1.
          1    1    1    2  502    0 -0.15914534263E+02 -0.12601468684E+02  0.44991821557E+03  0.45037592088E+03  0.00000000000E+00 0. -1.
         -1    1    1    2    0  501  0.15914534263E+02  0.12601468684E+02  0.10126402375E+04  0.10128436800E+04  0.00000000000E+00 0.  1.
</event>
<event>
 4    1  0.6718357E+001  0.4575961E+02  0.7546771E-02  0.1317684E+00
          2   -1    0    0  502    0  0.00000000000E+00  0.00000000000E+00  0.97442052210E+02  0.97442052210E+02  0.00000000000E+00 0.  1.
         -2   -1    0    0    0  501 -0.00000000000E+00 -0.00000000000E+00 -0.25596359105E+02  0.25596359105E+02  0.00000000000E+00 0. -1.
          1    1    1    2  502    0  0.15997666476E+02 -0.42872092988E+02  0.11279604491E+02  0.47129302640E+02  0.00000000000E+00 0. -1.
         -1    1    1    2    0  501 -0.15997666476E+02  0.42872092988E+02  0.60566088614E+02  0.75909108675E+02  0.00000000000E+00 0.  1.
</event>
<event>
 4    1  0.6718357E+001  0.2330954E+02  0.7546771E-02  0.1488647E+00
          2   -1    0    0  502    0  0.00000000000E+00  0.00000000000E+00  0.60698694989E+03  0.60698694989E+03  0.00000000000E+00 0.  1.
         -2   -1    0    0    0  501 -0.00000000000E+00 -0.00000000000E+00 -0.21434326069E+01  0.21434326069E+01  0.00000000000E+00 0. -1.
          1    1    1    2  502    0  0.13102585504E+02  0.19278406855E+02  0.69995829853E+02  0.73775001962E+02  0.00000000000E+00 0. -1.
         -1    1    1    2    0  501 -0.13102585504E+02 -0.19278406855E+02  0.53484768743E+03  0.53535538053E+03  0.00000000000E+00 0.  1.
</event>
<event>
 4    1  0.6718357E+001  0.2124865E+02  0.7546771E-02  0.1515744E+00
          2   -1    0    0  502    0  0.00000000000E+00  0.00000000000E+00  0.17035438210E+04  0.17035438210E+04  0.00000000000E+00 0.  1.
         -2   -1    0    0    0  501 -0.00000000000E+00 -0.00000000000E+00 -0.26546791932E+00  0.26546791932E+00  0.00000000000E+00 0. -1.
          1    1    1    2  502    0 -0.11907678493E+01  0.21215255005E+02  0.81738256477E+03  0.81765870763E+03  0.00000000000E+00 0. -1.
         -1    1    1    2    0  501  0.11907678493E+01 -0.21215255005E+02  0.88589578832E+03  0.88615058130E+03  0.00000000000E+00 0.  1.
</event>
<event>
 4    1  0.6718357E+001  0.2050637E+02  0.7546771E-02  0.1526431E+00
          2   -1    0    0  502    0  0.00000000000E+00  0.00000000000E+00  0.14180988911E+03  0.14180988911E+03  0.00000000000E+00 0.  1.
         -2   -1    0    0    0  501 -0.00000000000E+00 -0.00000000000E+00 -0.31239427319E+01  0.31239427319E+01  0.00000000000E+00 0. -1.
          1    1    1    2  502    0  0.88171087441E+01  0.18514043807E+02  0.53013373004E+02  0.56841260911E+02  0.00000000000E+00 0. -1.
         -1    1    1    2    0  501 -0.88171087441E+01 -0.18514043807E+02  0.85672573374E+02  0.88092570931E+02  0.00000000000E+00 0.  1.
</event>
<event>
 4    1  0.6718357E+001  0.2419283E+02  0.7546771E-02  0.1478039E+00
          2   -1    0    0  502    0  0.00000000000E+00  0.00000000000E+00  0.17585734467E+03  0.17585734467E+03  0.00000000000E+00 0. -1.
         -2   -1    0    0    0  501 -0.00000000000E+00 -0.00000000000E+00 -0.33427445697E+01  0.33427445697E+01  0.00000000000E+00 0.  1.
          1    1    1    2  502    0  0.96096903592E+01  0.22202406376E+02  0.80352331051E+02  0.83915374652E+02  0.00000000000E+00 0. -1.
         -1    1    1    2    0  501 -0.96096903592E+01 -0.22202406376E+02  0.92162269046E+02  0.95284714584E+02  0.00000000000E+00 0.  1.
</event>
<event>
 4    1  0.6718357E+001  0.2285283E+02  0.7546771E-02  0.1494355E+00
          2   -1    0    0  502    0  0.00000000000E+00  0.00000000000E+00  0.11759845420E+02  0.11759845420E+02  0.00000000000E+00 0. -1.
         -2   -1    0    0    0  501 -0.00000000000E+00 -0.00000000000E+00 -0.95010682572E+02  0.95010682572E+02  0.00000000000E+00 0.  1.
          1    1    1    2  502    0  0.19351038584E+02 -0.12156852905E+02 -0.80585014728E+02  0.83762738527E+02  0.00000000000E+00 0.  1.
         -1    1    1    2    0  501 -0.19351038584E+02  0.12156852905E+02 -0.26658224234E+01  0.23007789464E+02  0.00000000000E+00 0. -1.
</event>
<event>
 4    1  0.6718357E+001  0.2191061E+02  0.7546771E-02  0.1506650E+00
          2   -1    0    0  502    0  0.00000000000E+00  0.00000000000E+00  0.19107128692E+03  0.19107128692E+03  0.00000000000E+00 0. -1.
         -2   -1    0    0    0  501 -0.00000000000E+00 -0.00000000000E+00 -0.40645433323E+01  0.40645433323E+01  0.00000000000E+00 0.  1.
          1    1    1    2  502    0  0.22135601058E+01  0.21798505006E+02  0.33213110673E+02  0.39789262237E+02  0.00000000000E+00 0.  1.
         -1    1    1    2    0  501 -0.22135601058E+01 -0.21798505006E+02  0.15379363292E+03  0.15534656802E+03  0.00000000000E+00 0. -1.
</event>
<event>
 4    1  0.6718357E+001  0.2664340E+02  0.7546771E-02  0.1451224E+00
          2   -1    0    0  502    0  0.00000000000E+00  0.00000000000E+00  0.94993635422E+01  0.94993635422E+01  0.00000000000E+00 0. -1.
         -2   -1    0    0    0  501 -0.00000000000E+00 -0.00000000000E+00 -0.10038654368E+03  0.10038654368E+03  0.00000000000E+00 0.  1.
          1    1    1    2  502    0 -0.77667684725E+01 -0.25486228563E+02 -0.17666395415E+02  0.31968297825E+02  0.00000000000E+00 0. -1.
         -1    1    1    2    0  501  0.77667684725E+01  0.25486228563E+02 -0.73220784726E+02  0.77917609401E+02  0.00000000000E+00 0.  1.
</event>
<event>
 4    1  0.6718357E+001  0.2332126E+02  0.7546771E-02  0.1488503E+00
          2   -1    0    0  502    0  0.00000000000E+00  0.00000000000E+00  0.33160068677E+02  0.33160068677E+02  0.00000000000E+00 0.  1.
         -2   -1    0    0    0  501 -0.00000000000E+00 -0.00000000000E+00 -0.16537909170E+02  0.16537909170E+02  0.00000000000E+00 0. -1.
          1    1    1    2  502    0  0.14875258342E+01 -0.23273774373E+02  0.60559018248E+01  0.24094714225E+02  0.00000000000E+00 0. -1.
         -1    1    1    2    0  501 -0.14875258342E+01  0.23273774373E+02  0.10566257683E+02  0.25603263622E+02  0.00000000000E+00 0.  1.
</event>
<event>
 4    1  0.6718357E+001  0.2747352E+02  0.7546771E-02  0.1442909E+00
          2   -1    0    0  502    0  0.00000000000E+00  0.00000000000E+00  0.22985885852E+02  0.22985885852E+02  0.00000000000E+00 0. -1.
         -2   -1    0    0    0  501 -0.00000000000E+00 -0.00000000000E+00 -0.45162509961E+02  0.45162509961E+02  0.00000000000E+00 0.  1.
          1    1    1    2  502    0 -0.15558905240E+02  0.22643204517E+02  0.67122580708E+01  0.28281595632E+02  0.00000000000E+00 0. -1.
         -1    1    1    2    0  501  0.15558905240E+02 -0.22643204517E+02 -0.28888882180E+02  0.39866800181E+02  0.00000000000E+00 0.  1.
</event>
<event>
 4    1  0.6718357E+001  0.2209474E+02  0.7546771E-02  0.1504190E+00
          2   -1    0    0  502    0  0.00000000000E+00  0.00000000000E+00  0.25353151703E+04  0.25353151703E+04  0.00000000000E+00 0.  1.
         -2   -1    0    0    0  501 -0.00000000000E+00 -0.00000000000E+00 -0.19259224424E+00  0.19259224424E+00  0.00000000000E+00 0. -1.
          1    1    1    2  502    0  0.22020588562E+02 -0.18085949281E+01  0.12861255498E+04  0.12863153219E+04  0.00000000000E+00 0.  1.
         -1    1    1    2    0  501 -0.22020588562E+02  0.18085949281E+01  0.12489970282E+04  0.12491924407E+04  0.00000000000E+00 0. -1.
</event>
<event>
 4    1  0.6718357E+001  0.2435080E+02  0.7546771E-02  0.1476199E+00
          2   -1    0    0  502    0  0.00000000000E+00  0.00000000000E+00  0.94312432263E+03  0.94312432263E+03  0.00000000000E+00 0. -1.
         -2   -1    0    0    0  501 -0.00000000000E+00 -0.00000000000E+00 -0.73034951204E+00  0.73034951204E+00  0.00000000000E+00 0.  1.
          1    1    1    2  502    0  0.50063254039E+01 -0.23830616718E+02  0.64723993500E+03  0.64769784239E+03  0.00000000000E+00 0. -1.
         -1    1    1    2    0  501 -0.50063254039E+01  0.23830616718E+02  0.29515403812E+03  0.29615682975E+03  0.00000000000E+00 0.  1.
</event>
<event>
 4    1  0.6718357E+001  0.2468288E+02  0.7546771E-02  0.1472382E+00
          2   -1    0    0  502    0  0.00000000000E+00  0.00000000000E+00  0.14345404926E+01  0.14345404926E+01  0.00000000000E+00 0. -1.
         -2   -1    0    0    0  501 -0.00000000000E+00 -0.00000000000E+00 -0.65541855829E+03  0.65541855829E+03  0.00000000000E+00 0.  1.
          1    1    1    2  502    0  0.41870537060E+01  0.24325157830E+02 -0.13213178858E+03  0.13441746269E+03  0.00000000000E+00 0. -1.
         -1    1    1    2    0  501 -0.41870537060E+01 -0.24325157830E+02 -0.52185222922E+03  0.52243563610E+03  0.00000000000E+00 0.  1.
</event>
<event>
 4    1  0.6718357E+001  0.5011037E+02  0.7546771E-02  0.1297695E+00
          2   -1    0    0  502    0  0.00000000000E+00  0.00000000000E+00  0.10920295502E+04  0.10920295502E+04  0.00000000000E+00 0. -1.
         -2   -1    0    0    0  501 -0.00000000000E+00 -0.00000000000E+00 -0.62995637274E+01  0.62995637274E+01  0.00000000000E+00 0.  1.
          1    1    1    2  502    0 -0.45563933790E+02 -0.20856107942E+02  0.10525792314E+03  0.11657735494E+03  0.00000000000E+00 0.  1.
         -1    1    1    2    0  501  0.45563933790E+02  0.20856107942E+02  0.98047206334E+03  0.98175175899E+03  0.00000000000E+00 0. -1.
</event>
<event>
 4    1  0.6718357E+001  0.5514797E+02  0.7546771E-02  0.1277273E+00
          2   -1    0    0  502    0  0.00000000000E+00  0.00000000000E+00  0.28167503252E+03  0.28167503252E+03  0.00000000000E+00 0.  1.
         -2   -1    0    0    0  501 -0.00000000000E+00 -0.00000000000E+00 -0.25013585967E+02  0.25013585967E+02  0.00000000000E+00 0. -1.
          1    1    1    2  502    0 -0.12318093763E+01 -0.55134210799E+02  0.24393514787E+03  0.25009129317E+03  0.00000000000E+00 0.  1.
         -1    1    1    2    0  501  0.12318093763E+01  0.55134210799E+02  0.12726298686E+02  0.56597325317E+02  0.00000000000E+00 0. -1.
</event>
<event>
 4    1  0.6718357E+001  0.2083532E+02  0.7546771E-02  0.1521629E+00
          2   -1    0    0  502    0  0.00000000000E+00  0.00000000000E+00  0.21947141389E+02  0.21947141389E+02  0.00000000000E+00 0. -1.
         -2   -1    0    0    0  501 -0.00000000000E+00 -0.00000000000E+00 -0.20149697225E+02  0.20149697225E+02  0.00000000000E+00 0.  1.
          1    1    1    2  502    0 -0.70046004837E+01  0.19622588130E+02  0.37505088597E+01  0.21170184448E+02  0.00000000000E+00 0. -1.
         -1    1    1    2    0  501  0.70046004837E+01 -0.19622588130E+02 -0.19530646955E+01  0.20926654166E+02  0.00000000000E+00 0.  1.
</event>
<event>
 4    1  0.6718357E+001  0.2844816E+02  0.7546771E-02  0.1433579E+00
          2   -1    0    0  502    0  0.00000000000E+00  0.00000000000E+00  0.19911590812E+04  0.19911590812E+04  0.00000000000E+00 0.  1.
         -2   -1    0    0    0  501 -0.00000000000E+00 -0.00000000000E+00 -0.71312290386E+00  0.71312290386E+00  0.00000000000E+00 0. -1.
          1    1    1    2  502    0  0.16252855311E+02 -0.23348285818E+02  0.34210726430E+03  0.34328803947E+03  0.00000000000E+00 0. -1.
         -1    1    1    2    0  501 -0.16252855311E+02  0.23348285818E+02  0.16483386940E+04  0.16485841647E+04  0.00000000000E+00 0.  1.
</event>
<event>
 4    1  0.6718357E+001  0.4399253E+02  0.7546771E-02  0.1326554E+00
          2   -1    0    0  502    0  0.00000000000E+00  0.00000000000E+00  0.38855296692E+03  0.38855296692E+03  0.00000000000E+00 0. -1.
         -2   -1    0    0    0  501 -0.00000000000E+00 -0.00000000000E+00 -0.52240025721E+01  0.52240025721E+01  0.00000000000E+00 0.  1.
          1    1    1    2  502    0 -0.43503817466E+02  0.65391523354E+01  0.23413771326E+03  0.23823478213E+03  0.00000000000E+00 0. -1.
         -1    1    1    2    0  501  0.43503817466E+02 -0.65391523354E+01  0.14919125110E+03  0.15554218737E+03  0.00000000000E+00 0.  1.
</event>
<event>
 4    1  0.6718357E+001  0.2337194E+02  0.7546771E-02  0.1487880E+00
          2   -1    0    0  502    0  0.00000000000E+00  0.00000000000E+00  0.14475524693E+03  0.14475524693E+03  0.00000000000E+00 0.  1.
         -2   -1    0    0    0  501 -0.00000000000E+00 -0.00000000000E+00 -0.44516684129E+01  0.44516684129E+01  0.00000000000E+00 0. -1.
          1    1    1    2  502    0  0.21676091176E+02  0.87404039759E+01  0.41035494987E+02  0.47224563938E+02  0.00000000000E+00 0. -1.
         -1    1    1    2    0  501 -0.21676091176E+02 -0.87404039759E+01  0.99268083534E+02  0.10198235141E+03  0.00000000000E+00 0.  1.
</event>
<event>
 4    1  0.6718357E+001  0.2366583E+02  0.7546771E-02  0.1484302E+00
          2   -1    0    0  502    0  0.00000000000E+00  0.00000000000E+00  0.79682797586E+03  0.79682797586E+03  0.00000000000E+00 0. -1.
         -2   -1    0    0    0  501 -0.00000000000E+00 -0.00000000000E+00 -0.72621317115E+00  0.72621317115E+00  0.00000000000E+00 0.  1.
          1    1    1    2  502    0  0.23249818505E+02  0.44178411826E+01  0.32656490746E+03  0.32742130378E+03  0.00000000000E+00 0. -1.
         -1    1    1    2    0  501 -0.23249818505E+02 -0.44178411826E+01  0.46953685522E+03  0.47013288525E+03  0.00000000000E+00 0.  1.
</event>
<event>
 4    1  0.6718357E+001  0.3056495E+02  0.7546771E-02  0.1414749E+00
          2   -1    0    0  502    0  0.00000000000E+00  0.00000000000E+00  0.50519303436E+01  0.50519303436E+01  0.00000000000E+00 0.  1.
         -2   -1    0    0    0  501 -0.00000000000E+00 -0.00000000000E+00 -0.20612775866E+03  0.20612775866E+03  0.00000000000E+00 0. -1.
          1    1    1    2  502    0 -0.29070648938E+02  0.94399813275E+01 -0.66671040092E+02  0.73343325968E+02  0.00000000000E+00 0. -1.
         -1    1    1    2    0  501  0.29070648938E+02 -0.94399813275E+01 -0.13440478822E+03  0.13783636303E+03  0.00000000000E+00 0.  1.
</event>
<event>
 4    1  0.6718357E+001  0.2676040E+02  0.7546771E-02  0.1450030E+00
          2   -1    0    0  502    0  0.00000000000E+00  0.00000000000E+00  0.79698702618E+03  0.79698702618E+03  0.00000000000E+00 0.  1.
         -2   -1    0    0    0  501 -0.00000000000E+00 -0.00000000000E+00 -0.11109218623E+01  0.11109218623E+01  0.00000000000E+00 0. -1.
          1    1    1    2  502    0  0.13078120526E+02  0.23346983767E+02  0.22345604858E+03  0.22505271501E+03  0.00000000000E+00 0. -1.
         -1    1    1    2    0  501 -0.13078120526E+02 -0.23346983767E+02  0.57242005574E+03  0.57304523303E+03  0.00000000000E+00 0.  1.
</event>
<event>
 4    1  0.6718357E+001  0.7769315E+02  0.7546771E-02  0.1209307E+00
          2   -1    0    0  502    0  0.00000000000E+00  0.00000000000E+00  0.62691019387E+03  0.62691019387E+03  0.00000000000E+00 0.  1.
         -2   -1    0    0    0  501 -0.00000000000E+00 -0.00000000000E+00 -0.11130497598E+02  0.11130497598E+02  0.00000000000E+00 0. -1.
          1    1    1    2  502    0 -0.17576839780E+02  0.75678798504E+02  0.19069976601E+03  0.20591898066E+03  0.00000000000E+00 0. -1.
         -1    1    1    2    0  501  0.17576839780E+02 -0.75678798504E+02  0.42507993026E+03  0.43212171081E+03  0.00000000000E+00 0.  1.
</event>
<event>
 4    1  0.6718357E+001  0.2205593E+02  0.7546771E-02  0.1504706E+00
          2   -1    0    0  502    0  0.00000000000E+00  0.00000000000E+00  0.10399646861E+04  0.10399646861E+04  0.00000000000E+00 0.  1.
         -2   -1    0    0    0  501 -0.00000000000E+00 -0.00000000000E+00 -0.48737327496E+00  0.48737327496E+00  0.00000000000E+00 0. -1.
          1    1    1    2  502    0  0.22028407647E+02 -0.11015661011E+01  0.41540450309E+03  0.41598962172E+03  0.00000000000E+00 0. -1.
         -1    1    1    2    0  501 -0.22028407647E+02  0.11015661011E+01  0.62407280970E+03  0.62446243762E+03  0.00000000000E+00 0.  1.
</event>
<event>
 4    1  0.6718357E+001  0.3010034E+02  0.7546771E-02  0.1418726E+00
          2   -1    0    0  502    0  0.00000000000E+00  0.00000000000E+00  0.69963688958E+02  0.69963688958E+02  0.00000000000E+00 0.  1.
         -2   -1    0    0    0  501 -0.00000000000E+00 -0.00000000000E+00 -0.16930085101E+02  0.16930085101E+02  0.00000000000E+00 0. -1.
          1    1    1    2  502    0  0.24398564242E+02 -0.17627827684E+02  0.54511500183E+01  0.30589953946E+02  0.00000000000E+00 0. -1.
         -1    1    1    2    0  501 -0.24398564242E+02  0.17627827684E+02  0.47582453839E+02  0.56303820113E+02  0.00000000000E+00 0.  1.
</event>
<event>
 4    1  0.6718357E+001  0.2197319E+02  0.7546771E-02  0.1505811E+00
          2   -1    0    0  502    0  0.00000000000E+00  0.00000000000E+00  0.12574768677E+01  0.12574768677E+01  0.00000000000E+00 0. -1.
         -2   -1    0    0    0  501 -0.00000000000E+00 -0.00000000000E+00 -0.40510733452E+03  0.40510733452E+03  0.00000000000E+00 0.  1.
          1    1    1    2  502    0 -0.21826581940E+02  0.25340329688E+01 -0.24834730418E+03  0.24931747731E+03  0.00000000000E+00 0.  1.
         -1    1    1    2    0  501  0.21826581940E+02 -0.25340329688E+01 -0.15550255347E+03  0.15704733407E+03  0.00000000000E+00 0. -1.
</event>
<event>
 4    1  0.6718357E+001  0.2012131E+02  0.7546771E-02  0.1532189E+00
          2   -1    0    0  502    0  0.00000000000E+00  0.00000000000E+00  0.43365635461E+01  0.43365635461E+01  0.00000000000E+00 0. -1.
         -2   -1    0    0    0  501 -0.00000000000E+00 -0.00000000000E+00 -0.95758466845E+02  0.95758466845E+02  0.00000000000E+00 0.  1.
          1    1    1    2  502    0  0.10072641282E+02  0.17418641098E+02 -0.37792430055E+02  0.42815125010E+02  0.00000000000E+00 0.  1.
         -1    1    1    2    0  501 -0.10072641282E+02 -0.17418641098E+02 -0.53629473244E+02  0.57279905382E+02  0.00000000000E+00 0. -1.
</event>
<event>
 4    1  0.6718357E+001  0.8881277E+02  0.7546771E-02  0.1184746E+00
          2   -1    0    0  502    0  0.00000000000E+00  0.00000000000E+00  0.80412250718E+01  0.80412250718E+01  0.00000000000E+00 0. -1.
         -2   -1    0    0    0  501 -0.00000000000E+00 -0.00000000000E+00 -0.10595388593E+04  0.10595388593E+04  0.00000000000E+00 0.  1.
          1    1    1    2  502    0 -0.80895642083E+02 -0.36655198246E+02 -0.67116284826E+03  0.67701349865E+03  0.00000000000E+00 0.  1.
         -1    1    1    2    0  501  0.80895642083E+02  0.36655198246E+02 -0.38033478595E+03  0.39056658571E+03  0.00000000000E+00 0. -1.
</event>
<event>
 4    1  0.6718357E+001  0.2448736E+02  0.7546771E-02  0.1474621E+00
          2   -1    0    0  502    0  0.00000000000E+00  0.00000000000E+00  0.16625063506E+04  0.16625063506E+04  0.00000000000E+00 0.  1.
         -2   -1    0    0    0  501 -0.00000000000E+00 -0.00000000000E+00 -0.47457165647E+00  0.47457165647E+00  0.00000000000E+00 0. -1.
          1    1    1    2  502    0  0.23728914322E+02 -0.60472485251E+01  0.12383538193E+04  0.12385959035E+04  0.00000000000E+00 0.  1.
         -1    1    1    2    0  501 -0.23728914322E+02  0.60472485251E+01  0.42367795970E+03  0.42438501873E+03  0.00000000000E+00 0. -1.
</event>
<event>
 4    1  0.6718357E+001  0.2053539E+02  0.7546771E-02  0.1526003E+00
          2   -1    0    0  502    0  0.00000000000E+00  0.00000000000E+00  0.55126795099E+02  0.55126795099E+02  0.00000000000E+00 0. -1.
         -2   -1    0    0    0  501 -0.00000000000E+00 -0.00000000000E+00 -0.11590420777E+02  0.11590420777E+02  0.00000000000E+00 0.  1.
          1    1    1    2  502    0 -0.78152540511E+01  0.18990099227E+02  0.23169365698E+01  0.20665678300E+02  0.00000000000E+00 0.  1.
         -1    1    1    2    0  501  0.78152540511E+01 -0.18990099227E+02  0.41219437752E+02  0.46051537576E+02  0.00000000000E+00 0. -1.
</event>
<event>
 4    1  0.6718357E+001  0.2755229E+02  0.7546771E-02  0.1442138E+00
          2   -1    0    0  502    0  0.00000000000E+00  0.00000000000E+00  0.21715331553E+04  0.21715331553E+04  0.00000000000E+00 0.  1.
         -2   -1    0    0    0  501 -0.00000000000E+00 -0.00000000000E+00 -0.46363566901E+00  0.46363566901E+00  0.00000000000E+00 0. -1.
          1    1    1    2  502    0 -0.26843427696E+02  0.62095747340E+01  0.16241712976E+04  0.16244049780E+04  0.00000000000E+00 0.  1.
         -1    1    1    2    0  501  0.26843427696E+02 -0.62095747340E+01  0.54689822197E+03  0.54759181296E+03  0.00000000000E+00 0. -1.
</event>
<event>
 4    1  0.6718357E+001  0.2627841E+02  0.7546771E-02  0.1454994E+00
          2   -1    0    0  502    0  0.00000000000E+00  0.00000000000E+00  0.23709627702E+04  0.23709627702E+04  0.00000000000E+00 0.  1.
         -2   -1    0    0    0  501 -0.00000000000E+00 -0.00000000000E+00 -0.29861405470E+00  0.29861405470E+00  0.00000000000E+00 0. -1.
          1    1    1    2  502    0 -0.19189994902E+02 -0.17952679014E+02  0.99920588868E+03  0.99955138065E+03  0.00000000000E+00 0. -1.
         -1    1    1    2    0  501  0.19189994902E+02  0.17952679014E+02  0.13714582675E+04  0.13717100036E+04  0.00000000000E+00 0.  1.
</event>
<event>
 4    1  0.6718357E+001  0.2356143E+02  0.7546771E-02  0.1485566E+00
          2   -1    0    0  502    0  0.00000000000E+00  0.00000000000E+00  0.11051906377E+04  0.11051906377E+04  0.00000000000E+00 0. -1.
         -2   -1    0    0    0  501 -0.00000000000E+00 -0.00000000000E+00 -0.53780425062E+00  0.53780425062E+00  0.00000000000E+00 0.  1.
          1    1    1    2  502    0 -0.17572916957E+02  0.15695014826E+02  0.69437155752E+03  0.69477118593E+03  0.00000000000E+00 0.  1.
         -1    1    1    2    0  501  0.17572916957E+02 -0.15695014826E+02  0.41028127592E+03  0.41095725602E+03  0.00000000000E+00 0. -1.
</event>
<event>
 4    1  0.6718357E+001  0.2385413E+02  0.7546771E-02  0.1482043E+00
          2   -1    0    0  502    0  0.00000000000E+00  0.00000000000E+00  0.63357957787E+00  0.63357957787E+00  0.00000000000E+00 0. -1.
         -2   -1    0    0    0  501 -0.00000000000E+00 -0.00000000000E+00 -0.10505703553E+04  0.10505703553E+04  0.00000000000E+00 0.  1.
          1    1    1    2  502    0 -0.13382142530E+02  0.19746840706E+02 -0.72520036518E+03  0.72559257791E+03  0.00000000000E+00 0.  1.
         -1    1    1    2    0  501  0.13382142530E+02 -0.19746840706E+02 -0.32473641051E+03  0.32561135694E+03  0.00000000000E+00 0. -1.
</event>
<event>
 4    1  0.6718357E+001  0.5108264E+02  0.7546771E-02  0.1293546E+00
          2   -1    0    0  502    0  0.00000000000E+00  0.00000000000E+00  0.27853631518E+04  0.27853631518E+04  0.00000000000E+00 0. -1.
         -2   -1    0    0    0  501 -0.00000000000E+00 -0.00000000000E+00 -0.95326021519E+00  0.95326021519E+00  0.00000000000E+00 0.  1.
          1    1    1    2  502    0 -0.16112616567E+02 -0.48474935011E+02  0.12093517573E+04  0.12104301337E+04  0.00000000000E+00 0.  1.
         -1    1    1    2    0  501  0.16112616567E+02  0.48474935011E+02  0.15750581343E+04  0.15758862783E+04  0.00000000000E+00 0. -1.
</event>
<event>
 4    1  0.6718357E+001  0.2545355E+02  0.7546771E-02  0.1463793E+00
          2   -1    0    0  502    0  0.00000000000E+00  0.00000000000E+00  0.86518924699E+03  0.86518924699E+03  0.00000000000E+00 0.  1.
         -2   -1    0    0    0  501 -0.00000000000E+00 -0.00000000000E+00 -0.74890700577E+00  0.74890700577E+00  0.00000000000E+00 0. -1.
          1    1    1    2  502    0 -0.17258483824E+02 -0.18709035111E+02  0.42794985467E+03  0.42870614804E+03  0.00000000000E+00 0. -1.
         -1    1    1    2    0  501  0.17258483824E+02  0.18709035111E+02  0.43649048532E+03  0.43723200595E+03  0.00000000000E+00 0.  1.
</event>
<event>
 4    1  0.6718357E+001  0.2994593E+02  0.7546771E-02  0.1420067E+00
          2   -1    0    0  502    0  0.00000000000E+00  0.00000000000E+00  0.69831965882E+03  0.69831965882E+03  0.00000000000E+00 0.  1.
         -2   -1    0    0    0  501 -0.00000000000E+00 -0.00000000000E+00 -0.13720786954E+01  0.13720786954E+01  0.00000000000E+00 0. -1.
          1    1    1    2  502    0 -0.15882139305E+02  0.25387328190E+02  0.25991910217E+03  0.26163848810E+03  0.00000000000E+00 0.  1.
         -1    1    1    2    0  501  0.15882139305E+02 -0.25387328190E+02  0.43702847795E+03  0.43805324941E+03  0.00000000000E+00 0. -1.
</event>
<event>
 4    1  0.6718357E+001  0.2105548E+02  0.7546771E-02  0.1518474E+00
          2   -1    0    0  502    0  0.00000000000E+00  0.00000000000E+00  0.46137546861E+03  0.46137546861E+03  0.00000000000E+00 0.  1.
         -2   -1    0    0    0  501 -0.00000000000E+00 -0.00000000000E+00 -0.11040016056E+01  0.11040016056E+01  0.00000000000E+00 0. -1.
          1    1    1    2  502    0  0.57331008486E+01 -0.20259930082E+02  0.31339028886E+03  0.31409681049E+03  0.00000000000E+00 0.  1.
         -1    1    1    2    0  501 -0.57331008486E+01  0.20259930082E+02  0.14688117815E+03  0.14838265973E+03  0.00000000000E+00 0. -1.
</event>
<event>
 4    1  0.6718357E+001  0.3724282E+02  0.7546771E-02  0.1365447E+00
          2   -1    0    0  502    0  0.00000000000E+00  0.00000000000E+00  0.41428190775E+03  0.41428190775E+03  0.00000000000E+00 0.  1.
         -2   -1    0    0    0  501 -0.00000000000E+00 -0.00000000000E+00 -0.34969707149E+01  0.34969707149E+01  0.00000000000E+00 0. -1.
          1    1    1    2  502    0 -0.57572657016E+01 -0.36795131299E+02  0.24850254786E+03  0.25127782251E+03  0.00000000000E+00 0.  1.
         -1    1    1    2    0  501  0.57572657016E+01  0.36795131299E+02  0.16228238918E+03  0.16650105595E+03  0.00000000000E+00 0. -1.
</event>
<event>
 4    1  0.6718357E+001  0.3076567E+03  0.7546771E-02  0.9974656E-01
          2   -1    0    0  502    0  0.00000000000E+00  0.00000000000E+00  0.88205299479E+03  0.88205299479E+03  0.00000000000E+00 0.  1.
         -2   -1    0    0    0  501 -0.00000000000E+00 -0.00000000000E+00 -0.13559333817E+03  0.13559333817E+03  0.00000000000E+00 0. -1.
          1    1    1    2  502    0  0.27477420959E+03  0.13839002324E+03  0.14084012527E+03  0.33836164924E+03  0.00000000000E+00 0. -1.
         -1    1    1    2    0  501 -0.27477420959E+03 -0.13839002324E+03  0.60561953134E+03  0.67928468372E+03  0.00000000000E+00 0.  1.
</event>
<event>
 4    1  0.6718357E+001  0.2060210E+02  0.7546771E-02  0.1525022E+00
          2   -1    0    0  502    0  0.00000000000E+00  0.00000000000E+00  0.56784778012E+02  0.56784778012E+02  0.00000000000E+00 0.  1.
         -2   -1    0    0    0  501 -0.00000000000E+00 -0.00000000000E+00 -0.91649955548E+01  0.91649955548E+01  0.00000000000E+00 0. -1.
          1    1    1    2  502    0 -0.14360731006E+02  0.14772128265E+02  0.96485342881E+01  0.22749518290E+02  0.00000000000E+00 0. -1.
         -1    1    1    2    0  501  0.14360731006E+02 -0.14772128265E+02  0.37971248169E+02  0.43200255277E+02  0.00000000000E+00 0.  1.
</event>
<event>
 4    1  0.6718357E+001  0.2956268E+02  0.7546771E-02  0.1423435E+00
          2   -1    0    0  502    0  0.00000000000E+00  0.00000000000E+00  0.23190577869E+03  0.23190577869E+03  0.00000000000E+00 0. -1.
         -2   -1    0    0    0  501 -0.00000000000E+00 -0.00000000000E+00 -0.60899105437E+01  0.60899105437E+01  0.00000000000E+00 0.  1.
          1    1    1    2  502    0  0.29191894386E+02 -0.46674713851E+01  0.39439033607E+02  0.49288836046E+02  0.00000000000E+00 0.  1.
         -1    1    1    2    0  501 -0.29191894386E+02  0.46674713851E+01  0.18637683454E+03  0.18870685319E+03  0.00000000000E+00 0. -1.
</event>
<event>
 4    1  0.6718357E+001  0.3615819E+02  0.7546771E-02  0.1372599E+00
          2   -1    0    0  502    0  0.00000000000E+00  0.00000000000E+00  0.15602617452E+04  0.15602617452E+04  0.00000000000E+00 0. -1.
         -2   -1    0    0    0  501 -0.00000000000E+00 -0.00000000000E+00 -0.93663066708E+00  0.93663066708E+00  0.00000000000E+00 0.  1.
          1    1    1    2  502    0 -0.20835654796E+01  0.36098108239E+02  0.52628429822E+03  0.52752495412E+03  0.00000000000E+00 0.  1.
         -1    1    1    2    0  501  0.20835654796E+01 -0.36098108239E+02  0.10330408163E+04  0.10336734217E+04  0.00000000000E+00 0. -1.
</event>
<event>
 4    1  0.6718357E+001  0.2456560E+02  0.7546771E-02  0.1473722E+00
          2   -1    0    0  502    0  0.00000000000E+00  0.00000000000E+00  0.20598070596E+02  0.20598070596E+02  0.00000000000E+00 0.  1.
         -2   -1    0    0    0  501 -0.00000000000E+00 -0.00000000000E+00 -0.84077306702E+02  0.84077306702E+02  0.00000000000E+00 0. -1.
          1    1    1    2  502    0 -0.15850248308E+02 -0.18768017345E+02  0.10506420705E+02  0.26718041143E+02  0.00000000000E+00 0.  1.
         -1    1    1    2    0  501  0.15850248308E+02  0.18768017345E+02 -0.73985656811E+02  0.77957336154E+02  0.00000000000E+00 0. -1.
</event>
<event>
 4    1  0.6718357E+001  0.2092405E+02  0.7546771E-02  0.1520352E+00
          2   -1    0    0  502    0  0.00000000000E+00  0.00000000000E+00  0.69130294754E+01  0.69130294754E+01  0.00000000000E+00 0. -1.
         -2   -1    0    0    0  501 -0.00000000000E+00 -0.00000000000E+00 -0.63332123505E+02  0.63332123505E+02  0.00000000000E+00 0.  1.
          1    1    1    2  502    0  0.55193390472E+00  0.20916772648E+02 -0.28257833165E+02  0.35161358680E+02  0.00000000000E+00 0.  1.
         -1    1    1    2    0  501 -0.55193390472E+00 -0.20916772648E+02 -0.28161260865E+02  0.35083794301E+02  0.00000000000E+00 0. -1.
</event>
<event>
 4    1  0.6718357E+001  0.2056215E+02  0.7546771E-02  0.1525609E+00
          2   -1    0    0  502    0  0.00000000000E+00  0.00000000000E+00  0.10247895966E+01  0.10247895966E+01  0.00000000000E+00 0. -1.
         -2   -1    0    0    0  501 -0.00000000000E+00 -0.00000000000E+00 -0.61291307286E+03  0.61291307286E+03  0.00000000000E+00 0.  1.
          1    1    1    2  502    0  0.65701777245E+01  0.19484222151E+02 -0.48144416137E+03  0.48188305912E+03  0.00000000000E+00 0.  1.
         -1    1    1    2    0  501 -0.65701777245E+01 -0.19484222151E+02 -0.13044412190E+03  0.13205480334E+03  0.00000000000E+00 0. -1.
</event>
<event>
 4    1  0.6718357E+001  0.2028909E+02  0.7546771E-02  0.1529661E+00
          2   -1    0    0  502    0  0.00000000000E+00  0.00000000000E+00  0.11394045865E+04  0.11394045865E+04  0.00000000000E+00 0.  1.
         -2   -1    0    0    0  501 -0.00000000000E+00 -0.00000000000E+00 -0.47329059925E+00  0.47329059925E+00  0.00000000000E+00 0. -1.
          1    1    1    2  502    0 -0.31458727408E+01 -0.20043717898E+02  0.29220466725E+03  0.29290820184E+03  0.00000000000E+00 0. -1.
         -1    1    1    2    0  501  0.31458727408E+01  0.20043717898E+02  0.84672662866E+03  0.84696967527E+03  0.00000000000E+00 0.  1.
</event>
<event>
 4    1  0.6718357E+001  0.2340412E+02  0.7546771E-02  0.1487485E+00
          2   -1    0    0  502    0  0.00000000000E+00  0.00000000000E+00  0.49274765013E+03  0.49274765013E+03  0.00000000000E+00 0. -1.
         -2   -1    0    0    0  501 -0.00000000000E+00 -0.00000000000E+00 -0.13186610441E+01  0.13186610441E+01  0.00000000000E+00 0.  1.
          1    1    1    2  502    0 -0.22244204984E+02  0.72765366642E+01  0.14783148646E+03  0.14967264623E+03  0.00000000000E+00 0.  1.
         -1    1    1    2    0  501  0.22244204984E+02 -0.72765366642E+01  0.34359750262E+03  0.34439366494E+03  0.00000000000E+00 0. -1.
</event>
<event>
 4    1  0.6718357E+001  0.3107250E+02  0.7546771E-02  0.1410500E+00
          2   -1    0    0  502    0  0.00000000000E+00  0.00000000000E+00  0.11714372536E+02  0.11714372536E+02  0.00000000000E+00 0.  1.
         -2   -1    0    0    0  501 -0.00000000000E+00 -0.00000000000E+00 -0.10445282636E+03  0.10445282636E+03  0.00000000000E+00 0. -1.
          1    1    1    2  502    0  0.31047009147E+02  0.12584590568E+01 -0.19692845310E+02  0.36787343647E+02  0.00000000000E+00 0.  1.
         -1    1    1    2    0  501 -0.31047009147E+02 -0.12584590568E+01 -0.73045608516E+02  0.79379855251E+02  0.00000000000E+00 0. -1.
</event>
<event>
 4    1  0.6718357E+001  0.2736987E+02  0.7546771E-02  0.1443928E+00
          2   -1    0    0  502    0  0.00000000000E+00  0.00000000000E+00  0.10313632630E+04  0.10313632630E+04  0.00000000000E+00 0.  1.
         -2   -1    0    0    0  501 -0.00000000000E+00 -0.00000000000E+00 -0.81012689084E+00  0.81012689084E+00  0.00000000000E+00 0. -1.
          1    1    1    2  502    0 -0.34442078141E+01 -0.27152295218E+02  0.34929455201E+03  0.35036522910E+03  0.00000000000E+00 0. -1.
         -1    1    1    2    0  501  0.34442078141E+01  0.27152295218E+02  0.68125858406E+03  0.68180816074E+03  0.00000000000E+00 0.  1.
</event>
<event>
 4    1  0.6718357E+001  0.2093934E+02  0.7546771E-02  0.1520133E+00
          2   -1    0    0  502    0  0.00000000000E+00  0.00000000000E+00  0.13377968066E+03  0.13377968066E+03  0.00000000000E+00 0. -1.
         -2   -1    0    0    0  501 -0.00000000000E+00 -0.00000000000E+00 -0.34937778765E+01  0.34937778765E+01  0.00000000000E+00 0.  1.
          1    1    1    2  502    0  0.20459244282E+02 -0.44581556054E+01  0.82222173148E+02  0.84846576744E+02  0.00000000000E+00 0. -1.
         -1    1    1    2    0  501 -0.20459244282E+02  0.44581556054E+01  0.48063729632E+02  0.52426881789E+02  0.00000000000E+00 0.  1.
</event>
<event>
 4    1  0.6718357E+001  0.3858439E+02  0.7546771E-02  0.1356987E+00
          2   -1    0    0  502    0  0.00000000000E+00  0.00000000000E+00  0.32313868822E+03  0.32313868822E+03  0.00000000000E+00 0.  1.
         -2   -1    0    0    0  501 -0.00000000000E+00 -0.00000000000E+00 -0.47825779562E+01  0.47825779562E+01  0.00000000000E+00 0. -1.
          1    1    1    2  502    0  0.35400782593E+02 -0.15347305320E+02  0.12777788642E+03  0.13347637786E+03  0.00000000000E+00 0. -1.
         -1    1    1    2    0  501 -0.35400782593E+02  0.15347305320E+02  0.19057822385E+03  0.19444488832E+03  0.00000000000E+00 0.  1.
</event>
<event>
 4    1  0.6718357E+001  0.3566784E+02  0.7546771E-02  0.1375928E+00
          2   -1    0    0  502    0  0.00000000000E+00  0.00000000000E+00  0.31440020364E+03  0.31440020364E+03  0.00000000000E+00 0.  1.
         -2   -1    0    0    0  501 -0.00000000000E+00 -0.00000000000E+00 -0.41185447342E+01  0.41185447342E+01  0.00000000000E+00 0. -1.
          1    1    1    2  502    0 -0.33646769175E+02  0.11835954077E+02  0.17621638017E+03  0.17978989829E+03  0.00000000000E+00 0. -1.
         -1    1    1    2    0  501  0.33646769175E+02 -0.11835954077E+02  0.13406527873E+03  0.13872885009E+03  0.00000000000E+00 0.  1.
</event>
<event>
 4    1  0.6718357E+001  0.3047419E+02  0.7546771E-02  0.1415520E+00
          2   -1    0    0  502    0  0.00000000000E+00  0.00000000000E+00  0.84118178623E+03  0.84118178623E+03  0.00000000000E+00 0.  1.
         -2   -1    0    0    0  501 -0.00000000000E+00 -0.00000000000E+00 -0.13177637565E+01  0.13177637565E+01  0.00000000000E+00 0. -1.
          1    1    1    2  502    0  0.26777196072E+02  0.14548469439E+02  0.25027412559E+03  0.25212261725E+03  0.00000000000E+00 0. -1.
         -1    1    1    2    0  501 -0.26777196072E+02 -0.14548469439E+02  0.58958989689E+03  0.59037693274E+03  0.00000000000E+00 0.  1.
</event>
<event>
 4    1  0.6718357E+001  0.2765961E+02  0.7546771E-02  0.1441092E+00
          2   -1    0    0  502    0  0.00000000000E+00  0.00000000000E+00  0.95867607071E+01  0.95867607071E+01  0.00000000000E+00 0.  1.
         -2   -1    0    0    0  501 -0.00000000000E+00 -0.00000000000E+00 -0.80598974205E+02  0.80598974205E+02  0.00000000000E+00 0. -1.
          1    1    1    2  502    0 -0.23991581561E+02  0.13764381235E+02 -0.39986727441E+02  0.48620906491E+02  0.00000000000E+00 0. -1.
         -1    1    1    2    0  501  0.23991581561E+02 -0.13764381235E+02 -0.31025486057E+02  0.41564828421E+02  0.00000000000E+00 0.  1.
</event>
<event>
 4    1  0.6718357E+001  0.2703963E+02  0.7546771E-02  0.1447210E+00
          2   -1    0    0  502    0  0.00000000000E+00  0.00000000000E+00  0.29406018616E+02  0.29406018616E+02  0.00000000000E+00 0. -1.
         -2   -1    0    0    0  501 -0.00000000000E+00 -0.00000000000E+00 -0.27404748759E+02  0.27404748759E+02  0.00000000000E+00 0.  1.
          1    1    1    2  502    0  0.26825361217E+02 -0.33973114769E+01  0.96502397800E+01  0.28710082854E+02  0.00000000000E+00 0. -1.
         -1    1    1    2    0  501 -0.26825361217E+02  0.33973114769E+01 -0.76489699228E+01  0.28100684521E+02  0.00000000000E+00 0.  1.
</event>
<event>
 4    1  0.6718357E+001  0.2130263E+02  0.7546771E-02  0.1514988E+00
          2   -1    0    0  502    0  0.00000000000E+00  0.00000000000E+00  0.86471617575E+03  0.86471617575E+03  0.00000000000E+00 0. -1.
         -2   -1    0    0    0  501 -0.00000000000E+00 -0.00000000000E+00 -0.10340124717E+01  0.10340124717E+01  0.00000000000E+00 0.  1.
          1    1    1    2  502    0 -0.36055845817E+01 -0.20995284513E+02  0.73561440970E+03  0.73592279620E+03  0.00000000000E+00 0. -1.
         -1    1    1    2    0  501  0.36055845817E+01  0.20995284513E+02  0.12806775358E+03  0.12982739202E+03  0.00000000000E+00 0.  1.
</event>
<event>
 4    1  0.6718357E+001  0.2084347E+02  0.7546771E-02  0.1521512E+00
          2   -1    0    0  502    0  0.00000000000E+00  0.00000000000E+00  0.51919628920E+02  0.51919628920E+02  0.00000000000E+00 0.  1.
         -2   -1    0    0    0  501 -0.00000000000E+00 -0.00000000000E+00 -0.25683331303E+02  0.25683331303E+02  0.00000000000E+00 0. -1.
          1    1    1    2  502    0 -0.20536214171E+02 -0.35656744894E+01 -0.18741518570E+02  0.28030245189E+02  0.00000000000E+00 0. -1.
         -1    1    1    2    0  501  0.20536214171E+02  0.35656744894E+01  0.44977816187E+02  0.49572715035E+02  0.00000000000E+00 0.  1.
</event>
<event>
 4    1  0.6718357E+001  0.3516656E+02  0.7546771E-02  0.1379396E+00
          2   -1    0    0  502    0  0.00000000000E+00  0.00000000000E+00  0.17727302786E+01  0.17727302786E+01  0.00000000000E+00 0.  1.
         -2   -1    0    0    0  501 -0.00000000000E+00 -0.00000000000E+00 -0.69761695432E+03  0.69761695432E+03  0.00000000000E+00 0. -1.
          1    1    1    2  502    0  0.35149026761E+02 -0.11101864579E+01 -0.34782189158E+03  0.34959512992E+03  0.00000000000E+00 0. -1.
         -1    1    1    2    0  501 -0.35149026761E+02  0.11101864579E+01 -0.34802233246E+03  0.34979455468E+03  0.00000000000E+00 0.  1.
</event>
<event>
 4    1  0.6718357E+001  0.7396877E+02  0.7546771E-02  0.1218587E+00
          2   -1    0    0  502    0  0.00000000000E+00  0.00000000000E+00  0.12983898104E+03  0.12983898104E+03  0.00000000000E+00 0. -1.
         -2   -1    0    0    0  501 -0.00000000000E+00 -0.00000000000E+00 -0.44501896399E+02  0.44501896399E+02  0.00000000000E+00 0.  1.
          1    1    1    2  502    0 -0.46862232260E+02  0.57230329724E+02  0.22585230848E+02  0.77339977406E+02  0.00000000000E+00 0.  1.
         -1    1    1    2    0  501  0.46862232260E+02 -0.57230329724E+02  0.62751853793E+02  0.97000900033E+02  0.00000000000E+00 0. -1.
</event>
<event>
 4    1  0.6718357E+001  0.3183357E+02  0.7546771E-02  0.1404305E+00
          2   -1    0    0  502    0  0.00000000000E+00  0.00000000000E+00  0.21347521253E+03  0.21347521253E+03  0.00000000000E+00 0.  1.
         -2   -1    0    0    0  501 -0.00000000000E+00 -0.00000000000E+00 -0.23137157074E+02  0.23137157074E+02  0.00000000000E+00 0. -1.
          1    1    1    2  502    0  0.27396749637E+01 -0.31715455043E+02  0.20064284624E+03  0.20315247390E+03  0.00000000000E+00 0.  1.
         -1    1    1    2    0  501 -0.27396749637E+01  0.31715455043E+02 -0.10304790777E+02  0.33459895703E+02  0.00000000000E+00 0. -1.
</event>
<event>
 4    1  0.6718357E+001  0.2552190E+02  0.7546771E-02  0.1463049E+00
          2   -1    0    0  502    0  0.00000000000E+00  0.00000000000E+00  0.34619346058E+03  0.34619346058E+03  0.00000000000E+00 0. -1.
         -2   -1    0    0    0  501 -0.00000000000E+00 -0.00000000000E+00 -0.29361080869E+01  0.29361080869E+01  0.00000000000E+00 0.  1.
          1    1    1    2  502    0 -0.22396972315E+02 -0.12236958344E+02  0.67008975005E+02  0.71704743564E+02  0.00000000000E+00 0.  1.
         -1    1    1    2    0  501  0.22396972315E+02  0.12236958344E+02  0.27624837748E+03  0.27742482510E+03  0.00000000000E+00 0. -1.
</event>
<event>
 4    1  0.6718357E+001  0.2081967E+02  0.7546771E-02  0.1521855E+00
          2   -1    0    0  502    0  0.00000000000E+00  0.00000000000E+00  0.80645451901E+03  0.80645451901E+03  0.00000000000E+00 0.  1.
         -2   -1    0    0    0  501 -0.00000000000E+00 -0.00000000000E+00 -0.91568595176E+00  0.91568595176E+00  0.00000000000E+00 0. -1.
          1    1    1    2  502    0  0.69912076105E+01  0.19610753871E+02  0.66220511052E+03  0.66253231396E+03  0.00000000000E+00 0.  1.
         -1    1    1    2    0  501 -0.69912076105E+01 -0.19610753871E+02  0.14333372254E+03  0.14483789100E+03  0.00000000000E+00 0. -1.
</event>
<event>
 4    1  0.6718357E+001  0.2384453E+02  0.7546771E-02  0.1482157E+00
          2   -1    0    0  502    0  0.00000000000E+00  0.00000000000E+00  0.14869726705E+02  0.14869726705E+02  0.00000000000E+00 0.  1.
         -2   -1    0    0    0  501 -0.00000000000E+00 -0.00000000000E+00 -0.41529903515E+02  0.41529903515E+02  0.00000000000E+00 0. -1.
          1    1    1    2  502    0 -0.12970225823E+02  0.20008375125E+02 -0.21271690093E+02  0.31953820310E+02  0.00000000000E+00 0. -1.
         -1    1    1    2    0  501  0.12970225823E+02 -0.20008375125E+02 -0.53884867181E+01  0.24445809910E+02  0.00000000000E+00 0.  1.
</event>
<event>
 4    1  0.6718357E+001  0.2851406E+02  0.7546771E-02  0.1432965E+00
          2   -1    0    0  502    0  0.00000000000E+00  0.00000000000E+00  0.15857291684E+04  0.15857291684E+04  0.00000000000E+00 0.  1.
         -2   -1    0    0    0  501 -0.00000000000E+00 -0.00000000000E+00 -0.60201755165E+00  0.60201755165E+00  0.00000000000E+00 0. -1.
          1    1    1    2  502    0  0.20529162645E+02  0.19789009992E+02  0.48710385399E+03  0.48793771734E+03  0.00000000000E+00 0. -1.
         -1    1    1    2    0  501 -0.20529162645E+02 -0.19789009992E+02  0.10980232969E+04  0.10983934686E+04  0.00000000000E+00 0.  1.
</event>
<event>
 4    1  0.6718357E+001  0.2519593E+02  0.7546771E-02  0.1466623E+00
          2   -1    0    0  502    0  0.00000000000E+00  0.00000000000E+00  0.16479646600E+04  0.16479646600E+04  0.00000000000E+00 0.  1.
         -2   -1    0    0    0  501 -0.00000000000E+00 -0.00000000000E+00 -0.38696916385E+00  0.38696916385E+00  0.00000000000E+00 0. -1.
          1    1    1    2  502    0 -0.23836908941E+02  0.81631345357E+01  0.76843587545E+03  0.76884883409E+03  0.00000000000E+00 0.  1.
         -1    1    1    2    0  501  0.23836908941E+02 -0.81631345357E+01  0.87914181537E+03  0.87950279506E+03  0.00000000000E+00 0. -1.
</event>
<event>
 4    1  0.6718357E+001  0.2564089E+02  0.7546771E-02  0.1461760E+00
          2   -1    0    0  502    0  0.00000000000E+00  0.00000000000E+00  0.36680184610E+03  0.36680184610E+03  0.00000000000E+00 0.  1.
         -2   -1    0    0    0  501 -0.00000000000E+00 -0.00000000000E+00 -0.18015011537E+01  0.18015011537E+01  0.00000000000E+00 0. -1.
          1    1    1    2  502    0 -0.66066155783E+01 -0.24775141774E+02  0.19560103484E+03  0.19727447845E+03  0.00000000000E+00 0. -1.
         -1    1    1    2    0  501  0.66066155783E+01  0.24775141774E+02  0.16939931011E+03  0.17132886880E+03  0.00000000000E+00 0.  1.
</event>
<event>
 4    1  0.6718357E+001  0.2157815E+02  0.7546771E-02  0.1511168E+00
          2   -1    0    0  502    0  0.00000000000E+00  0.00000000000E+00  0.11648590067E+03  0.11648590067E+03  0.00000000000E+00 0. -1.
         -2   -1    0    0    0  501 -0.00000000000E+00 -0.00000000000E+00 -0.70227339680E+01  0.70227339680E+01  0.00000000000E+00 0.  1.
          1    1    1    2  502    0 -0.16987350818E+01  0.21511183886E+02  0.14197937371E+02  0.25830179222E+02  0.00000000000E+00 0.  1.
         -1    1    1    2    0  501  0.16987350818E+01 -0.21511183886E+02  0.95265229332E+02  0.97678455418E+02  0.00000000000E+00 0. -1.
</event>
<event>
 4    1  0.6718357E+001  0.2465153E+02  0.7546771E-02  0.1472740E+00
          2   -1    0    0  502    0  0.00000000000E+00  0.00000000000E+00  0.96775898386E+03  0.96775898386E+03  0.00000000000E+00 0. -1.
         -2   -1    0    0    0  501 -0.00000000000E+00 -0.00000000000E+00 -0.72849274555E+00  0.72849274555E+00  0.00000000000E+00 0.  1.
          1    1    1    2  502    0 -0.18086979073E+02  0.16749895335E+02  0.30361110529E+03  0.30461024451E+03  0.00000000000E+00 0. -1.
         -1    1    1    2    0  501  0.18086979073E+02 -0.16749895335E+02  0.66341938583E+03  0.66387723210E+03  0.00000000000E+00 0.  1.
</event>
<event>
 4    1  0.6718357E+001  0.3292869E+02  0.7546771E-02  0.1395741E+00
          2   -1    0    0  502    0  0.00000000000E+00  0.00000000000E+00  0.14018484508E+04  0.14018484508E+04  0.00000000000E+00 0.  1.
         -2   -1    0    0    0  501 -0.00000000000E+00 -0.00000000000E+00 -0.10438263230E+01  0.10438263230E+01  0.00000000000E+00 0. -1.
          1    1    1    2  502    0  0.32579693444E+02 -0.47814764644E+01  0.10573807980E+04  0.10578934024E+04  0.00000000000E+00 0.  1.
         -1    1    1    2    0  501 -0.32579693444E+02  0.47814764644E+01  0.34342382652E+03  0.34499887473E+03  0.00000000000E+00 0. -1.
</event>
<event>
 4    1  0.6718357E+001  0.2495955E+02  0.7546771E-02  0.1469256E+00
          2   -1    0    0  502    0  0.00000000000E+00  0.00000000000E+00  0.16293125704E+04  0.16293125704E+04  0.00000000000E+00 0.  1.
         -2   -1    0    0    0  501 -0.00000000000E+00 -0.00000000000E+00 -0.71349523369E+00  0.71349523369E+00  0.00000000000E+00 0. -1.
          1    1    1    2  502    0 -0.14514186220E+02 -0.20305602748E+02  0.25906859112E+03  0.26026815789E+03  0.00000000000E+00 0. -1.
         -1    1    1    2    0  501  0.14514186220E+02  0.20305602748E+02  0.13695304840E+04  0.13697579077E+04  0.00000000000E+00 0.  1.
</event>
<event>
 4    1  0.6718357E+001  0.2312212E+02  0.7546771E-02  0.1490970E+00
          2   -1    0    0  502    0  0.00000000000E+00  0.00000000000E+00  0.79196375865E+03  0.79196375865E+03  0.00000000000E+00 0. -1.
         -2   -1    0    0    0  501 -0.00000000000E+00 -0.00000000000E+00 -0.77171367248E+00  0.77171367248E+00  0.00000000000E+00 0.  1.
          1    1    1    2  502    0  0.21423774599E+02 -0.86979370820E+01  0.53586232739E+03  0.53636094763E+03  0.00000000000E+00 0. -1.
         -1    1    1    2    0  501 -0.21423774599E+02  0.86979370820E+01  0.25532971759E+03  0.25637452469E+03  0.00000000000E+00 0.  1.
</event>
<event>
 4    1  0.6718357E+001  0.2843495E+02  0.7546771E-02  0.1433703E+00
          2   -1    0    0  502    0  0.00000000000E+00  0.00000000000E+00  0.38665300323E+02  0.38665300323E+02  0.00000000000E+00 0.  1.
         -2   -1    0    0    0  501 -0.00000000000E+00 -0.00000000000E+00 -0.20911867648E+02  0.20911867648E+02  0.00000000000E+00 0. -1.
          1    1    1    2  502    0 -0.21951063274E+01  0.28350091028E+02  0.87381731075E+01  0.29747299413E+02  0.00000000000E+00 0. -1.
         -1    1    1    2    0  501  0.21951063274E+01 -0.28350091028E+02  0.90152595669E+01  0.29829868558E+02  0.00000000000E+00 0.  1.
</event>
<event>
 4    1  0.6718357E+001  0.2337820E+02  0.7546771E-02  0.1487803E+00
          2   -1    0    0  502    0  0.00000000000E+00  0.00000000000E+00  0.12065410322E+04  0.12065410322E+04  0.00000000000E+00 0. -1.
         -2   -1    0    0    0  501 -0.00000000000E+00 -0.00000000000E+00 -0.52883700652E+00  0.52883700652E+00  0.00000000000E+00 0.  1.
          1    1    1    2  502    0 -0.25148868903E+00 -0.23376844550E+02  0.37442694720E+03  0.37515607272E+03  0.00000000000E+00 0.  1.
         -1    1    1    2    0  501  0.25148868903E+00  0.23376844550E+02  0.83158524802E+03  0.83191379652E+03  0.00000000000E+00 0. -1.
</event>
<event>
 4    1  0.6718357E+001  0.3076092E+02  0.7546771E-02  0.1413097E+00
          2   -1    0    0  502    0  0.00000000000E+00  0.00000000000E+00  0.80101225257E+02  0.80101225257E+02  0.00000000000E+00 0. -1.
         -2   -1    0    0    0  501 -0.00000000000E+00 -0.00000000000E+00 -0.16142099004E+02  0.16142099004E+02  0.00000000000E+00 0.  1.
          1    1    1    2  502    0  0.21697857041E+02 -0.21804517549E+02  0.56900277926E+02  0.64682885014E+02  0.00000000000E+00 0. -1.
         -1    1    1    2    0  501 -0.21697857041E+02  0.21804517549E+02  0.70588483273E+01  0.31560439246E+02  0.00000000000E+00 0.  1.
</event>
<event>
 4    1  0.6718357E+001  0.3982224E+02  0.7546771E-02  0.1349531E+00
          2   -1    0    0  502    0  0.00000000000E+00  0.00000000000E+00  0.90054837967E+01  0.90054837967E+01  0.00000000000E+00 0. -1.
         -2   -1    0    0    0  501 -0.00000000000E+00 -0.00000000000E+00 -0.17940109630E+03  0.17940109630E+03  0.00000000000E+00 0.  1.
          1    1    1    2  502    0  0.12967148705E+01  0.39801126557E+02 -0.72407506290E+02  0.82635695143E+02  0.00000000000E+00 0. -1.
         -1    1    1    2    0  501 -0.12967148705E+01 -0.39801126557E+02 -0.97988106213E+02  0.10577088495E+03  0.00000000000E+00 0.  1.
</event>
<event>
 4    1  0.6718357E+001  0.2126595E+02  0.7546771E-02  0.1515501E+00
          2   -1    0    0  502    0  0.00000000000E+00  0.00000000000E+00  0.87707291594E+03  0.87707291594E+03  0.00000000000E+00 0. -1.
         -2   -1    0    0    0  501 -0.00000000000E+00 -0.00000000000E+00 -0.51821690123E+00  0.51821690123E+00  0.00000000000E+00 0.  1.
          1    1    1    2  502    0 -0.19786525139E+02 -0.77932128881E+01  0.40724507738E+03  0.40779994335E+03  0.00000000000E+00 0. -1.
         -1    1    1    2    0  501  0.19786525139E+02  0.77932128881E+01  0.46930962165E+03  0.46979118948E+03  0.00000000000E+00 0.  1.
</event>
<event>
 4    1  0.6718357E+001  0.2253400E+02  0.7546771E-02  0.1498434E+00
          2   -1    0    0  502    0  0.00000000000E+00  0.00000000000E+00  0.82376505058E+00  0.82376505058E+00  0.00000000000E+00 0. -1.
         -2   -1    0    0    0  501 -0.00000000000E+00 -0.00000000000E+00 -0.91067660528E+03  0.91067660528E+03  0.00000000000E+00 0.  1.
          1    1    1    2  502    0  0.35419721843E+01 -0.22253885028E+02 -0.19585964794E+03  0.19715167424E+03  0.00000000000E+00 0.  1.
         -1    1    1    2    0  501 -0.35419721843E+01  0.22253885028E+02 -0.71399319228E+03  0.71434869608E+03  0.00000000000E+00 0. -1.
</event>
<event>
 4    1  0.6718357E+001  0.2057691E+02  0.7546771E-02  0.1525392E+00
          2   -1    0    0  502    0  0.00000000000E+00  0.00000000000E+00  0.45692153965E+03  0.45692153965E+03  0.00000000000E+00 0.  1.
         -2   -1    0    0    0  501 -0.00000000000E+00 -0.00000000000E+00 -0.59193591448E+01  0.59193591448E+01  0.00000000000E+00 0. -1.
          1    1    1    2  502    0  0.56148547781E+01 -0.19796027711E+02  0.12965219553E+02  0.24320900998E+02  0.00000000000E+00 0. -1.
         -1    1    1    2    0  501 -0.56148547781E+01  0.19796027711E+02  0.43803696095E+03  0.43851999779E+03  0.00000000000E+00 0.  1.
</event>
<event>
 4    1  0.6718357E+001  0.2022147E+02  0.7546771E-02  0.1530677E+00
          2   -1    0    0  502    0  0.00000000000E+00  0.00000000000E+00  0.68319444524E+03  0.68319444524E+03  0.00000000000E+00 0. -1.
         -2   -1    0    0    0  501 -0.00000000000E+00 -0.00000000000E+00 -0.62430320307E+00  0.62430320307E+00  0.00000000000E+00 0.  1.
          1    1    1    2  502    0 -0.12713554223E+02  0.15724923805E+02  0.41076432585E+03  0.41126176467E+03  0.00000000000E+00 0. -1.
         -1    1    1    2    0  501  0.12713554223E+02 -0.15724923805E+02  0.27180581618E+03  0.27255698377E+03  0.00000000000E+00 0.  1.
</event>
<event>
 4    1  0.6718357E+001  0.2242898E+02  0.7546771E-02  0.1499796E+00
          2   -1    0    0  502    0  0.00000000000E+00  0.00000000000E+00  0.19405371424E+04  0.19405371424E+04  0.00000000000E+00 0.  1.
         -2   -1    0    0    0  501 -0.00000000000E+00 -0.00000000000E+00 -0.33740265353E+00  0.33740265353E+00  0.00000000000E+00 0. -1.
          1    1    1    2  502    0  0.22383536852E+02 -0.14270523075E+01  0.14371902849E+04  0.14373652891E+04  0.00000000000E+00 0.  1.
         -1    1    1    2    0  501 -0.22383536852E+02  0.14270523075E+01  0.50300945478E+03  0.50350925592E+03  0.00000000000E+00 0. -1.
</event>
<event>
 4    1  0.6718357E+001  0.2284206E+02  0.7546771E-02  0.1494491E+00
          2   -1    0    0  502    0  0.00000000000E+00  0.00000000000E+00  0.14257946424E+02  0.14257946424E+02  0.00000000000E+00 0.  1.
         -2   -1    0    0    0  501 -0.00000000000E+00 -0.00000000000E+00 -0.47900047643E+02  0.47900047643E+02  0.00000000000E+00 0. -1.
          1    1    1    2  502    0 -0.11905429356E+02  0.19494117862E+02 -0.17220484363E+01  0.22906883904E+02  0.00000000000E+00 0.  1.
         -1    1    1    2    0  501  0.11905429356E+02 -0.19494117862E+02 -0.31920052783E+02  0.39251110163E+02  0.00000000000E+00 0. -1.
</event>
<event>
 4    1  0.6718357E+001  0.4240836E+02  0.7546771E-02  0.1334923E+00
          2   -1    0    0  502    0  0.00000000000E+00  0.00000000000E+00  0.66185272197E+03  0.66185272197E+03  0.00000000000E+00 0. -1.
         -2   -1    0    0    0  501 -0.00000000000E+00 -0.00000000000E+00 -0.40139148209E+01  0.40139148209E+01  0.00000000000E+00 0.  1.
          1    1    1    2  502    0  0.24261618293E+02 -0.34782795061E+02  0.13969615872E+03  0.14599138918E+03  0.00000000000E+00 0.  1.
         -1    1    1    2    0  501 -0.24261618293E+02  0.34782795061E+02  0.51814264844E+03  0.51987524761E+03  0.00000000000E+00 0. -1.
</event>
<event>
 4    1  0.6718357E+001  0.2333012E+02  0.7546771E-02  0.1488394E+00
          2   -1    0    0  502    0  0.00000000000E+00  0.00000000000E+00  0.21618594841E+01  0.21618594841E+01  0.00000000000E+00 0. -1.
         -2   -1    0    0    0  501 -0.00000000000E+00 -0.00000000000E+00 -0.42812820184E+03  0.42812820184E+03  0.00000000000E+00 0.  1.
          1    1    1    2  502    0 -0.46593163730E+01 -0.22860121977E+02 -0.74900080704E+02  0.78449451849E+02  0.00000000000E+00 0. -1.
         -1    1    1    2    0  501  0.46593163730E+01  0.22860121977E+02 -0.35106626165E+03  0.35184060948E+03  0.00000000000E+00 0.  1.
</event>
<event>
 4    1  0.6718357E+001  0.3366761E+02  0.7546771E-02  0.1390180E+00
          2   -1    0    0  502    0  0.00000000000E+00  0.00000000000E+00  0.14219032454E+03  0.14219032454E+03  0.00000000000E+00 0. -1.
         -2   -1    0    0    0  501 -0.00000000000E+00 -0.00000000000E+00 -0.13843019601E+02  0.13843019601E+02  0.00000000000E+00 0.  1.
          1    1    1    2  502    0 -0.19176952632E+02 -0.27672230585E+02  0.11498227948E+03  0.11980998478E+03  0.00000000000E+00 0.  1.
         -1    1    1    2    0  501  0.19176952632E+02  0.27672230585E+02  0.13365025451E+02  0.36223359357E+02  0.00000000000E+00 0. -1.
</event>
<event>
 4    1  0.6718357E+001  0.2220325E+02  0.7546771E-02  0.1502753E+00
          2   -1    0    0  502    0  0.00000000000E+00  0.00000000000E+00  0.80055047025E+01  0.80055047025E+01  0.00000000000E+00 0. -1.
         -2   -1    0    0    0  501 -0.00000000000E+00 -0.00000000000E+00 -0.62894451548E+02  0.62894451548E+02  0.00000000000E+00 0.  1.
          1    1    1    2  502    0 -0.15612055132E+02 -0.15787590074E+02 -0.22320899785E+02  0.31483437439E+02  0.00000000000E+00 0. -1.
         -1    1    1    2    0  501  0.15612055132E+02  0.15787590074E+02 -0.32568047061E+02  0.39416518811E+02  0.00000000000E+00 0.  1.
</event>
<event>
 4    1  0.6718357E+001  0.2736219E+02  0.7546771E-02  0.1444003E+00
          2   -1    0    0  502    0  0.00000000000E+00  0.00000000000E+00  0.46532792029E+03  0.46532792029E+03  0.00000000000E+00 0.  1.
         -2   -1    0    0    0  501 -0.00000000000E+00 -0.00000000000E+00 -0.42604305047E+01  0.42604305047E+01  0.00000000000E+00 0. -1.
          1    1    1    2  502    0 -0.39058518352E+00 -0.27359406102E+02  0.41576093661E+03  0.41666034857E+03  0.00000000000E+00 0.  1.
         -1    1    1    2    0  501  0.39058518352E+00  0.27359406102E+02  0.45306553182E+02  0.52928002232E+02  0.00000000000E+00 0. -1.
</event>
<event>
 4    1  0.6718357E+001  0.3727392E+02  0.7546771E-02  0.1365246E+00
          2   -1    0    0  502    0  0.00000000000E+00  0.00000000000E+00  0.15050370779E+04  0.15050370779E+04  0.00000000000E+00 0.  1.
         -2   -1    0    0    0  501 -0.00000000000E+00 -0.00000000000E+00 -0.93105152847E+00  0.93105152847E+00  0.00000000000E+00 0. -1.
          1    1    1    2  502    0  0.52960505048E+01 -0.36895757929E+02  0.82150733849E+03  0.82235251097E+03  0.00000000000E+00 0.  1.
         -1    1    1    2    0  501 -0.52960505048E+01  0.36895757929E+02  0.68259868789E+03  0.68361561847E+03  0.00000000000E+00 0. -1.
</event>
<event>
 4    1  0.6718357E+001  0.2973074E+02  0.7546771E-02  0.1421951E+00
          2   -1    0    0  502    0  0.00000000000E+00  0.00000000000E+00  0.11891913738E+02  0.11891913738E+02  0.00000000000E+00 0.  1.
         -2   -1    0    0    0  501 -0.00000000000E+00 -0.00000000000E+00 -0.74806315365E+02  0.74806315365E+02  0.00000000000E+00 0. -1.
          1    1    1    2  502    0 -0.25636255565E+02 -0.15056527643E+02 -0.27995292581E+02  0.40836907703E+02  0.00000000000E+00 0.  1.
         -1    1    1    2    0  501  0.25636255565E+02  0.15056527643E+02 -0.34919109045E+02  0.45861321400E+02  0.00000000000E+00 0. -1.
</event>
<event>
 4    1  0.6718357E+001  0.2325254E+02  0.7546771E-02  0.1489351E+00
          2   -1    0    0  502    0  0.00000000000E+00  0.00000000000E+00  0.11039067448E+04  0.11039067448E+04  0.00000000000E+00 0.  1.
         -2   -1    0    0    0  501 -0.00000000000E+00 -0.00000000000E+00 -0.44060532833E+01  0.44060532833E+01  0.00000000000E+00 0. -1.
          1    1    1    2  502    0  0.19583594156E+02  0.12536493646E+02  0.10721988661E+04  0.10724509729E+04  0.00000000000E+00 0.  1.
         -1    1    1    2    0  501 -0.19583594156E+02 -0.12536493646E+02  0.27301825386E+02  0.35861825140E+02  0.00000000000E+00 0. -1.
</event>
<event>
 4    1  0.6718357E+001  0.2341264E+02  0.7546771E-02  0.1487381E+00
          2   -1    0    0  502    0  0.00000000000E+00  0.00000000000E+00  0.14740391428E+04  0.14740391428E+04  0.00000000000E+00 0.  1.
         -2   -1    0    0    0  501 -0.00000000000E+00 -0.00000000000E+00 -0.42743642212E+00  0.42743642212E+00  0.00000000000E+00 0. -1.
          1    1    1    2  502    0 -0.17602839621E+02 -0.15436704530E+02  0.10026169306E+04  0.10028902539E+04  0.00000000000E+00 0.  1.
         -1    1    1    2    0  501  0.17602839621E+02  0.15436704530E+02  0.47099477574E+03  0.47157632531E+03  0.00000000000E+00 0. -1.
</event>
<event>
 4    1  0.6718357E+001  0.2479316E+02  0.7546771E-02  0.1471131E+00
          2   -1    0    0  502    0  0.00000000000E+00  0.00000000000E+00  0.65785651138E+03  0.65785651138E+03  0.00000000000E+00 0. -1.
         -2   -1    0    0    0  501 -0.00000000000E+00 -0.00000000000E+00 -0.13433512730E+01  0.13433512730E+01  0.00000000000E+00 0.  1.
          1    1    1    2  502    0 -0.18192543747E+02 -0.16844351671E+02  0.14640028638E+03  0.14848482981E+03  0.00000000000E+00 0.  1.
         -1    1    1    2    0  501  0.18192543747E+02  0.16844351671E+02  0.51011287372E+03  0.51071503284E+03  0.00000000000E+00 0. -1.
</event>
<event>
 4    1  0.6718357E+001  0.2650996E+02  0.7546771E-02  0.1452594E+00
          2   -1    0    0  502    0  0.00000000000E+00  0.00000000000E+00  0.50973837502E+03  0.50973837502E+03  0.00000000000E+00 0.  1.
         -2   -1    0    0    0  501 -0.00000000000E+00 -0.00000000000E+00 -0.16099379670E+01  0.16099379670E+01  0.00000000000E+00 0. -1.
          1    1    1    2  502    0  0.15365674160E+02 -0.21602639815E+02  0.35096085800E+03  0.35196065382E+03  0.00000000000E+00 0.  1.
         -1    1    1    2    0  501 -0.15365674160E+02  0.21602639815E+02  0.15716757905E+03  0.15938765917E+03  0.00000000000E+00 0. -1.
</event>
<event>
 4    1  0.6718357E+001  0.2068580E+02  0.7546771E-02  0.1523798E+00
          2   -1    0    0  502    0  0.00000000000E+00  0.00000000000E+00  0.12081004605E+02  0.12081004605E+02  0.00000000000E+00 0.  1.
         -2   -1    0    0    0  501 -0.00000000000E+00 -0.00000000000E+00 -0.36860818212E+02  0.36860818212E+02  0.00000000000E+00 0. -1.
          1    1    1    2  502    0 -0.20619464221E+02  0.16553548676E+01 -0.75509075631E+01  0.22020869863E+02  0.00000000000E+00 0.  1.
         -1    1    1    2    0  501  0.20619464221E+02 -0.16553548676E+01 -0.17228906044E+02  0.26920952954E+02  0.00000000000E+00 0. -1.
</event>
<event>
 4    1  0.6718357E+001  0.3543112E+02  0.7546771E-02  0.1377557E+00
          2   -1    0    0  502    0  0.00000000000E+00  0.00000000000E+00  0.62383428358E+02  0.62383428358E+02  0.00000000000E+00 0.  1.
         -2   -1    0    0    0  501 -0.00000000000E+00 -0.00000000000E+00 -0.21886282554E+02  0.21886282554E+02  0.00000000000E+00 0. -1.
          1    1    1    2  502    0 -0.74113335958E+01 -0.34647318636E+02  0.82902190797E+01  0.36388078909E+02  0.00000000000E+00 0. -1.
         -1    1    1    2    0  501  0.74113335958E+01  0.34647318636E+02  0.32206926723E+02  0.47881632003E+02  0.00000000000E+00 0.  1.
</event>
<event>
 4    1  0.6718357E+001  0.2998585E+02  0.7546771E-02  0.1419720E+00
          2   -1    0    0  502    0  0.00000000000E+00  0.00000000000E+00  0.36936004170E+01  0.36936004170E+01  0.00000000000E+00 0.  1.
         -2   -1    0    0    0  501 -0.00000000000E+00 -0.00000000000E+00 -0.26847366014E+03  0.26847366014E+03  0.00000000000E+00 0. -1.
          1    1    1    2  502    0  0.12596450796E+02  0.27211774808E+02 -0.17394867922E+03  0.17651428912E+03  0.00000000000E+00 0. -1.
         -1    1    1    2    0  501 -0.12596450796E+02 -0.27211774808E+02 -0.90831380504E+02  0.95652971439E+02  0.00000000000E+00 0.  1.
</event>
<event>
 4    1  0.6718357E+001  0.2353060E+02  0.7546771E-02  0.1485941E+00
          2   -1    0    0  502    0  0.00000000000E+00  0.00000000000E+00  0.42209209758E+03  0.42209209758E+03  0.00000000000E+00 0.  1.
         -2   -1    0    0    0  501 -0.00000000000E+00 -0.00000000000E+00 -0.13328357528E+01  0.13328357528E+01  0.00000000000E+00 0. -1.
          1    1    1    2  502    0  0.64670757585E+01 -0.22624458297E+02  0.18376553911E+03  0.18526592387E+03  0.00000000000E+00 0. -1.
         -1    1    1    2    0  501 -0.64670757585E+01  0.22624458297E+02  0.23699372271E+03  0.23815900946E+03  0.00000000000E+00 0.  1.
</event>
<event>
 4    1  0.6718357E+001  0.3806948E+02  0.7546771E-02  0.1360186E+00
          2   -1    0    0  502    0  0.00000000000E+00  0.00000000000E+00  0.72096264300E+03  0.72096264300E+03  0.00000000000E+00 0. -1.
         -2   -1    0    0    0  501 -0.00000000000E+00 -0.00000000000E+00 -0.72573893784E+01  0.72573893784E+01  0.00000000000E+00 0.  1.
          1    1    1    2  502    0 -0.31063870692E+02  0.22007304996E+02  0.47249446034E+02  0.60677802251E+02  0.00000000000E+00 0.  1.
         -1    1    1    2    0  501  0.31063870692E+02 -0.22007304996E+02  0.66645580758E+03  0.66754223012E+03  0.00000000000E+00 0. -1.
</event>
<event>
 4    1  0.6718357E+001  0.2281965E+02  0.7546771E-02  0.1494775E+00
          2   -1    0    0  502    0  0.00000000000E+00  0.00000000000E+00  0.10189082461E+02  0.10189082461E+02  0.00000000000E+00 0. -1.
         -2   -1    0    0    0  501 -0.00000000000E+00 -0.00000000000E+00 -0.76812442393E+02  0.76812442393E+02  0.00000000000E+00 0.  1.
          1    1    1    2  502    0  0.15091089514E+02 -0.17117105090E+02 -0.58476352005E+02  0.62771171832E+02  0.00000000000E+00 0.  1.
         -1    1    1    2    0  501 -0.15091089514E+02  0.17117105090E+02 -0.81470079269E+01  0.24230353021E+02  0.00000000000E+00 0. -1.
</event>
<event>
 4    1  0.6718357E+001  0.2354801E+02  0.7546771E-02  0.1485729E+00
          2   -1    0    0  502    0  0.00000000000E+00  0.00000000000E+00  0.36510854868E+02  0.36510854868E+02  0.00000000000E+00 0.  1.
         -2   -1    0    0    0  501 -0.00000000000E+00 -0.00000000000E+00 -0.24663510427E+02  0.24663510427E+02  0.00000000000E+00 0. -1.
          1    1    1    2  502    0 -0.20392568661E+02 -0.11775054362E+02  0.24883077033E+02  0.34258959185E+02  0.00000000000E+00 0. -1.
         -1    1    1    2    0  501  0.20392568661E+02  0.11775054362E+02 -0.13035732592E+02  0.26915406110E+02  0.00000000000E+00 0.  1.
</event>
<event>
 4    1  0.6718357E+001  0.2182096E+02  0.7546771E-02  0.1507859E+00
          2   -1    0    0  502    0  0.00000000000E+00  0.00000000000E+00  0.39110022227E+03  0.39110022227E+03  0.00000000000E+00 0.  1.
         -2   -1    0    0    0  501 -0.00000000000E+00 -0.00000000000E+00 -0.12265268072E+01  0.12265268072E+01  0.00000000000E+00 0. -1.
          1    1    1    2  502    0 -0.10867199905E+02  0.18922431833E+02  0.21178935017E+03  0.21291050539E+03  0.00000000000E+00 0.  1.
         -1    1    1    2    0  501  0.10867199905E+02 -0.18922431833E+02  0.17808434529E+03  0.17941624369E+03  0.00000000000E+00 0. -1.
</event>
<event>
 4    1  0.6718357E+001  0.3433294E+02  0.7546771E-02  0.1385314E+00
          2   -1    0    0  502    0  0.00000000000E+00  0.00000000000E+00  0.99346837317E+01  0.99346837317E+01  0.00000000000E+00 0.  1.
         -2   -1    0    0    0  501 -0.00000000000E+00 -0.00000000000E+00 -0.12768404412E+03  0.12768404412E+03  0.00000000000E+00 0. -1.
          1    1    1    2  502    0  0.11206097379E+02  0.32452642259E+02 -0.77177559036E+02  0.84469676374E+02  0.00000000000E+00 0. -1.
         -1    1    1    2    0  501 -0.11206097379E+02 -0.32452642259E+02 -0.40571801356E+02  0.53149051481E+02  0.00000000000E+00 0.  1.
</event>
<event>
 4    1  0.6718357E+001  0.2270921E+02  0.7546771E-02  0.1496182E+00
          2   -1    0    0  502    0  0.00000000000E+00  0.00000000000E+00  0.23423389797E+03  0.23423389797E+03  0.00000000000E+00 0.  1.
         -2   -1    0    0    0  501 -0.00000000000E+00 -0.00000000000E+00 -0.23558562985E+01  0.23558562985E+01  0.00000000000E+00 0. -1.
          1    1    1    2  502    0 -0.12140705627E+02 -0.19191438413E+02  0.14620123007E+03  0.14795441093E+03  0.00000000000E+00 0. -1.
         -1    1    1    2    0  501  0.12140705627E+02  0.19191438413E+02  0.85676811607E+02  0.88635343337E+02  0.00000000000E+00 0.  1.
</event>
<event>
 4    1  0.6718357E+001  0.2377676E+02  0.7546771E-02  0.1482968E+00
          2   -1    0    0  502    0  0.00000000000E+00  0.00000000000E+00  0.32005951942E+03  0.32005951942E+03  0.00000000000E+00 0. -1.
         -2   -1    0    0    0  501 -0.00000000000E+00 -0.00000000000E+00 -0.23420735101E+01  0.23420735101E+01  0.00000000000E+00 0.  1.
          1    1    1    2  502    0 -0.98113015313E+01 -0.21658090132E+02  0.78934761932E+02  0.82438044295E+02  0.00000000000E+00 0.  1.
         -1    1    1    2    0  501  0.98113015313E+01  0.21658090132E+02  0.23878268398E+03  0.23996354864E+03  0.00000000000E+00 0. -1.
</event>
<event>
 4    1  0.6718357E+001  0.2932023E+02  0.7546771E-02  0.1425597E+00
          2   -1    0    0  502    0  0.00000000000E+00  0.00000000000E+00  0.81363014190E+03  0.81363014190E+03  0.00000000000E+00 0.  1.
         -2   -1    0    0    0  501 -0.00000000000E+00 -0.00000000000E+00 -0.10590941445E+01  0.10590941445E+01  0.00000000000E+00 0. -1.
          1    1    1    2  502    0  0.20374438317E+02  0.21084549749E+02  0.42608061196E+03  0.42708823897E+03  0.00000000000E+00 0.  1.
         -1    1    1    2    0  501 -0.20374438317E+02 -0.21084549749E+02  0.38649043579E+03  0.38760099707E+03  0.00000000000E+00 0. -1.
</event>
<event>
 4    1  0.6718357E+001  0.2047609E+02  0.7546771E-02  0.1526878E+00
          2   -1    0    0  502    0  0.00000000000E+00  0.00000000000E+00  0.11775108524E+03  0.11775108524E+03  0.00000000000E+00 0. -1.
         -2   -1    0    0    0  501 -0.00000000000E+00 -0.00000000000E+00 -0.35613147228E+01  0.35613147228E+01  0.00000000000E+00 0.  1.
          1    1    1    2  502    0 -0.40252441768E+01 -0.20076548054E+02  0.57923726488E+02  0.61436377357E+02  0.00000000000E+00 0.  1.
         -1    1    1    2    0  501  0.40252441768E+01  0.20076548054E+02  0.56266044027E+02  0.59876022604E+02  0.00000000000E+00 0. -1.
</event>
<event>
 4    1  0.6718357E+001  0.2247580E+02  0.7546771E-02  0.1499188E+00
          2   -1    0    0  502    0  0.00000000000E+00  0.00000000000E+00  0.76782823113E+03  0.76782823113E+03  0.00000000000E+00 0. -1.
         -2   -1    0    0    0  501 -0.00000000000E+00 -0.00000000000E+00 -0.78476643480E+00  0.78476643480E+00  0.00000000000E+00 0.  1.
          1    1    1    2  502    0 -0.21661459777E+02 -0.59952413537E+01  0.22900908927E+03  0.23010937557E+03  0.00000000000E+00 0.  1.
         -1    1    1    2    0  501  0.21661459777E+02  0.59952413537E+01  0.53803437543E+03  0.53850362200E+03  0.00000000000E+00 0. -1.
</event>
<event>
 4    1  0.6718357E+001  0.2104395E+02  0.7546771E-02  0.1518638E+00
          2   -1    0    0  502    0  0.00000000000E+00  0.00000000000E+00  0.17849730098E+01  0.17849730098E+01  0.00000000000E+00 0.  1.
         -2   -1    0    0    0  501 -0.00000000000E+00 -0.00000000000E+00 -0.27043536737E+03  0.27043536737E+03  0.00000000000E+00 0. -1.
          1    1    1    2  502    0  0.74719970827E+01 -0.19672747415E+02 -0.17344328014E+03  0.17471525164E+03  0.00000000000E+00 0.  1.
         -1    1    1    2    0  501 -0.74719970827E+01  0.19672747415E+02 -0.95207114221E+02  0.97505088737E+02  0.00000000000E+00 0. -1.
</event>
<event>
 4    1  0.6718357E+001  0.2419534E+02  0.7546771E-02  0.1478010E+00
          2   -1    0    0  502    0  0.00000000000E+00  0.00000000000E+00  0.29065969652E+03  0.29065969652E+03  0.00000000000E+00 0. -1.
         -2   -1    0    0    0  501 -0.00000000000E+00 -0.00000000000E+00 -0.28893968267E+01  0.28893968267E+01  0.00000000000E+00 0.  1.
          1    1    1    2  502    0 -0.21477745455E+02 -0.11140965061E+02  0.22466953533E+03  0.22596861454E+03  0.00000000000E+00 0. -1.
         -1    1    1    2    0  501  0.21477745455E+02  0.11140965061E+02  0.63100764365E+02  0.67580478807E+02  0.00000000000E+00 0.  1.
</event>
<event>
 4    1  0.6718357E+001  0.2057337E+02  0.7546771E-02  0.1525444E+00
          2   -1    0    0  502    0  0.00000000000E+00  0.00000000000E+00  0.84610288030E+03  0.84610288030E+03  0.00000000000E+00 0. -1.
         -2   -1    0    0    0  501 -0.00000000000E+00 -0.00000000000E+00 -0.19454078283E+01  0.19454078283E+01  0.00000000000E+00 0.  1.
          1    1    1    2  502    0 -0.14128416115E+02  0.14954976410E+02  0.56616246563E+02  0.60238383413E+02  0.00000000000E+00 0.  1.
         -1    1    1    2    0  501  0.14128416115E+02 -0.14954976410E+02  0.78754122591E+03  0.78780990472E+03  0.00000000000E+00 0. -1.
</event>
<event>
 4    1  0.6718357E+001  0.6176373E+02  0.7546771E-02  0.1253955E+00
          2   -1    0    0  502    0  0.00000000000E+00  0.00000000000E+00  0.62553057874E+01  0.62553057874E+01  0.00000000000E+00 0. -1.
         -2   -1    0    0    0  501 -0.00000000000E+00 -0.00000000000E+00 -0.61761753860E+03  0.61761753860E+03  0.00000000000E+00 0.  1.
          1    1    1    2  502    0  0.47576428506E+02  0.39385800095E+02 -0.34067793971E+03  0.34623144918E+03  0.00000000000E+00 0.  1.
         -1    1    1    2    0  501 -0.47576428506E+02 -0.39385800095E+02 -0.27068429311E+03  0.27764139521E+03  0.00000000000E+00 0. -1.
</event>
<event>
 4    1  0.6718357E+001  0.3568788E+02  0.7546771E-02  0.1375791E+00
          2   -1    0    0  502    0  0.00000000000E+00  0.00000000000E+00  0.18068749233E+04  0.18068749233E+04  0.00000000000E+00 0. -1.
         -2   -1    0    0    0  501 -0.00000000000E+00 -0.00000000000E+00 -0.70509637432E+00  0.70509637432E+00  0.00000000000E+00 0.  1.
          1    1    1    2  502    0 -0.30628490681E+02  0.18317221459E+02  0.91901725443E+03  0.91970992111E+03  0.00000000000E+00 0. -1.
         -1    1    1    2    0  501  0.30628490681E+02 -0.18317221459E+02  0.88715257247E+03  0.88787009854E+03  0.00000000000E+00 0.  1.
</event>
<event>
 4    1  0.6718357E+001  0.2256824E+02  0.7546771E-02  0.1497992E+00
          2   -1    0    0  502    0  0.00000000000E+00  0.00000000000E+00  0.60590081592E+01  0.60590081592E+01  0.00000000000E+00 0. -1.
         -2   -1    0    0    0  501 -0.00000000000E+00 -0.00000000000E+00 -0.11251953932E+03  0.11251953932E+03  0.00000000000E+00 0.  1.
          1    1    1    2  502    0  0.19261967979E+02  0.11760192424E+02 -0.23412890854E+02  0.32519055866E+02  0.00000000000E+00 0. -1.
         -1    1    1    2    0  501 -0.19261967979E+02 -0.11760192424E+02 -0.83047640303E+02  0.86059491610E+02  0.00000000000E+00 0.  1.
</event>
<event>
 4    1  0.6718357E+001  0.3862389E+02  0.7546771E-02  0.1356744E+00
          2   -1    0    0  502    0  0.00000000000E+00  0.00000000000E+00  0.26531259345E+02  0.26531259345E+02  0.00000000000E+00 0.  1.
         -2   -1    0    0    0  501 -0.00000000000E+00 -0.00000000000E+00 -0.67235335083E+02  0.67235335083E+02  0.00000000000E+00 0. -1.
          1    1    1    2  502    0  0.37259105195E+02  0.10176619717E+02 -0.39321579700E+02  0.55117974735E+02  0.00000000000E+00 0. -1.
         -1    1    1    2    0  501 -0.37259105195E+02 -0.10176619717E+02 -0.13824960383E+01  0.38648619692E+02  0.00000000000E+00 0.  1.
</event>
<event>
 4    1  0.6718357E+001  0.2081126E+02  0.7546771E-02  0.1521977E+00
          2   -1    0    0  502    0  0.00000000000E+00  0.00000000000E+00  0.37381507720E+03  0.37381507720E+03  0.00000000000E+00 0. -1.
         -2   -1    0    0    0  501 -0.00000000000E+00 -0.00000000000E+00 -0.27139147815E+01  0.27139147815E+01  0.00000000000E+00 0.  1.
          1    1    1    2  502    0 -0.92540951344E+01 -0.18640556387E+02  0.43030173613E+02  0.47798582200E+02  0.00000000000E+00 0.  1.
         -1    1    1    2    0  501  0.92540951344E+01  0.18640556387E+02  0.32807098880E+03  0.32873040978E+03  0.00000000000E+00 0. -1.
</event>
<event>
 4    1  0.6718357E+001  0.2066113E+02  0.7546771E-02  0.1524159E+00
          2   -1    0    0  502    0  0.00000000000E+00  0.00000000000E+00  0.13721732150E+03  0.13721732150E+03  0.00000000000E+00 0. -1.
         -2   -1    0    0    0  501 -0.00000000000E+00 -0.00000000000E+00 -0.32124982794E+01  0.32124982794E+01  0.00000000000E+00 0.  1.
          1    1    1    2  502    0 -0.20597679676E+02 -0.16179484732E+01  0.79483475428E+02  0.82124935503E+02  0.00000000000E+00 0. -1.
         -1    1    1    2    0  501  0.20597679676E+02  0.16179484732E+01  0.54521347791E+02  0.58304884275E+02  0.00000000000E+00 0.  1.
</event>
<event>
 4    1  0.6718357E+001  0.2581207E+02  0.7546771E-02  0.1459920E+00
          2   -1    0    0  502    0  0.00000000000E+00  0.00000000000E+00  0.20341623403E+02  0.20341623403E+02  0.00000000000E+00 0.  1.
         -2   -1    0    0    0  501 -0.00000000000E+00 -0.00000000000E+00 -0.35279911615E+02  0.35279911615E+02  0.00000000000E+00 0. -1.
          1    1    1    2  502    0  0.25354024801E+02 -0.48410873237E+01 -0.27186693477E-01  0.25812079327E+02  0.00000000000E+00 0.  1.
         -1    1    1    2    0  501 -0.25354024801E+02  0.48410873237E+01 -0.14911101519E+02  0.29809455691E+02  0.00000000000E+00 0. -1.
</event>
<event>
 4    1  0.6718357E+001  0.2011735E+02  0.7546771E-02  0.1532249E+00
          2   -1    0    0  502    0  0.00000000000E+00  0.00000000000E+00  0.38137661753E+03  0.38137661753E+03  0.00000000000E+00 0.  1.
         -2   -1    0    0    0  501 -0.00000000000E+00 -0.00000000000E+00 -0.10742228189E+01  0.10742228189E+01  0.00000000000E+00 0. -1.
          1    1    1    2  502    0 -0.30622530887E+00 -0.20115014325E+02  0.16907672121E+03  0.17026933144E+03  0.00000000000E+00 0. -1.
         -1    1    1    2    0  501  0.30622530887E+00  0.20115014325E+02  0.21122567351E+03  0.21218150891E+03  0.00000000000E+00 0.  1.
</event>
<event>
 4    1  0.6718357E+001  0.2375029E+02  0.7546771E-02  0.1483286E+00
          2   -1    0    0  502    0  0.00000000000E+00  0.00000000000E+00  0.30634824953E+02  0.30634824953E+02  0.00000000000E+00 0. -1.
         -2   -1    0    0    0  501 -0.00000000000E+00 -0.00000000000E+00 -0.24758181123E+02  0.24758181123E+02  0.00000000000E+00 0.  1.
          1    1    1    2  502    0 -0.12670695602E+02 -0.20088046106E+02 -0.11083060408E+02  0.26208974634E+02  0.00000000000E+00 0.  1.
         -1    1    1    2    0  501  0.12670695602E+02  0.20088046106E+02  0.16959704238E+02  0.29184031442E+02  0.00000000000E+00 0. -1.
</event>
<event>
 4    1  0.6718357E+001  0.8460377E+02  0.7546771E-02  0.1193545E+00
          2   -1    0    0  502    0  0.00000000000E+00  0.00000000000E+00  0.84700920350E+03  0.84700920350E+03  0.00000000000E+00 0.  1.
         -2   -1    0    0    0  501 -0.00000000000E+00 -0.00000000000E+00 -0.86017897061E+01  0.86017897061E+01  0.00000000000E+00 0. -1.
          1    1    1    2  502    0  0.74715752689E+02 -0.39690724086E+02  0.36250030885E+03  0.37224222113E+03  0.00000000000E+00 0. -1.
         -1    1    1    2    0  501 -0.74715752689E+02  0.39690724086E+02  0.47590710495E+03  0.48336877208E+03  0.00000000000E+00 0.  1.
</event>
<event>
 4    1  0.6718357E+001  0.2507469E+02  0.7546771E-02  0.1467970E+00
          2   -1    0    0  502    0  0.00000000000E+00  0.00000000000E+00  0.44074110992E+03  0.44074110992E+03  0.00000000000E+00 0. -1.
         -2   -1    0    0    0  501 -0.00000000000E+00 -0.00000000000E+00 -0.15903307467E+01  0.15903307467E+01  0.00000000000E+00 0.  1.
          1    1    1    2  502    0 -0.24292064938E+02  0.62157497217E+01  0.29055004689E+03  0.29163002196E+03  0.00000000000E+00 0. -1.
         -1    1    1    2    0  501  0.24292064938E+02 -0.62157497217E+01  0.14860073228E+03  0.15070141870E+03  0.00000000000E+00 0.  1.
</event>
<event>
 4    1  0.6718357E+001  0.3341663E+02  0.7546771E-02  0.1392050E+00
          2   -1    0    0  502    0  0.00000000000E+00  0.00000000000E+00  0.72623929274E+03  0.72623929274E+03  0.00000000000E+00 0. -1.
         -2   -1    0    0    0  501 -0.00000000000E+00 -0.00000000000E+00 -0.16272435250E+01  0.16272435250E+01  0.00000000000E+00 0.  1.
          1    1    1    2  502    0  0.31922666785E+01  0.33263801447E+02  0.27689055310E+03  0.27889971218E+03  0.00000000000E+00 0.  1.
         -1    1    1    2    0  501 -0.31922666785E+01 -0.33263801447E+02  0.44772149611E+03  0.44896682409E+03  0.00000000000E+00 0. -1.
</event>
<event>
 4    1  0.6718357E+001  0.4581493E+02  0.7546771E-02  0.1317414E+00
          2   -1    0    0  502    0  0.00000000000E+00  0.00000000000E+00  0.98512775960E+03  0.98512775960E+03  0.00000000000E+00 0. -1.
         -2   -1    0    0    0  501 -0.00000000000E+00 -0.00000000000E+00 -0.37930187654E+01  0.37930187654E+01  0.00000000000E+00 0.  1.
          1    1    1    2  502    0 -0.27989593125E+02 -0.36271065254E+02  0.81800559605E+03  0.81928759461E+03  0.00000000000E+00 0. -1.
         -1    1    1    2    0  501  0.27989593125E+02  0.36271065254E+02  0.16332914478E+03  0.16963318376E+03  0.00000000000E+00 0.  1.
</event>
<event>
 4    1  0.6718357E+001  0.2992786E+02  0.7546771E-02  0.1420225E+00
          2   -1    0    0  502    0  0.00000000000E+00  0.00000000000E+00  0.73252159802E+03  0.73252159802E+03  0.00000000000E+00 0.  1.
         -2   -1    0    0    0  501 -0.00000000000E+00 -0.00000000000E+00 -0.40253889843E+01  0.40253889843E+01  0.00000000000E+00 0. -1.
          1    1    1    2  502    0  0.27459684446E+02  0.11901366216E+02  0.67154034540E+03  0.67220689693E+03  0.00000000000E+00 0.  1.
         -1    1    1    2    0  501 -0.27459684446E+02 -0.11901366216E+02  0.56955863642E+02  0.64340090075E+02  0.00000000000E+00 0. -1.
</event>
<event>
 4    1  0.6718357E+001  0.2403954E+02  0.7546771E-02  0.1479841E+00
          2   -1    0    0  502    0  0.00000000000E+00  0.00000000000E+00  0.80787280481E+00  0.80787280481E+00  0.00000000000E+00 0. -1.
         -2   -1    0    0    0  501 -0.00000000000E+00 -0.00000000000E+00 -0.94063020294E+03  0.94063020294E+03  0.00000000000E+00 0.  1.
          1    1    1    2  502    0  0.31175817180E+01  0.23836532304E+02 -0.23953985028E+03  0.24074309847E+03  0.00000000000E+00 0.  1.
         -1    1    1    2    0  501 -0.31175817180E+01 -0.23836532304E+02 -0.70028247986E+03  0.70069497728E+03  0.00000000000E+00 0. -1.
</event>
<event>
 4    1  0.6718357E+001  0.2598885E+02  0.7546771E-02  0.1458038E+00
          2   -1    0    0  502    0  0.00000000000E+00  0.00000000000E+00  0.25217990313E+04  0.25217990313E+04  0.00000000000E+00 0.  1.
         -2   -1    0    0    0  501 -0.00000000000E+00 -0.00000000000E+00 -0.29815025991E+00  0.29815025991E+00  0.00000000000E+00 0. -1.
          1    1    1    2  502    0 -0.50719568609E+01 -0.25489124661E+02  0.16628757488E+04  0.16630788244E+04  0.00000000000E+00 0.  1.
         -1    1    1    2    0  501  0.50719568609E+01  0.25489124661E+02  0.85862513218E+03  0.85901835710E+03  0.00000000000E+00 0. -1.
</event>
<event>
 4    1  0.6718357E+001  0.2892434E+02  0.7546771E-02  0.1429180E+00
          2   -1    0    0  502    0  0.00000000000E+00  0.00000000000E+00  0.37934323644E+03  0.37934323644E+03  0.00000000000E+00 0.  1.
         -2   -1    0    0    0  501 -0.00000000000E+00 -0.00000000000E+00 -0.22991033769E+01  0.22991033769E+01  0.00000000000E+00 0. -1.
          1    1    1    2  502    0 -0.27842737142E+02 -0.78357805517E+01  0.22703796441E+03  0.22887301010E+03  0.00000000000E+00 0.  1.
         -1    1    1    2    0  501  0.27842737142E+02  0.78357805517E+01  0.15000616865E+03  0.15276932972E+03  0.00000000000E+00 0. -1.
</event>
<event>
 4    1  0.6718357E+001  0.2248997E+02  0.7546771E-02  0.1499004E+00
          2   -1    0    0  502    0  0.00000000000E+00  0.00000000000E+00  0.67299375791E+03  0.67299375791E+03  0.00000000000E+00 0. -1.
         -2   -1    0    0    0  501 -0.00000000000E+00 -0.00000000000E+00 -0.30432597702E+01  0.30432597702E+01  0.00000000000E+00 0.  1.
          1    1    1    2  502    0 -0.20310851160E+02 -0.96575441892E+01  0.41650089006E+02  0.47334223864E+02  0.00000000000E+00 0.  1.
         -1    1    1    2    0  501  0.20310851160E+02  0.96575441892E+01  0.62830040913E+03  0.62870279381E+03  0.00000000000E+00 0. -1.
</event>
<event>
 4    1  0.6718357E+001  0.2958112E+02  0.7546771E-02  0.1423272E+00
          2   -1    0    0  502    0  0.00000000000E+00  0.00000000000E+00  0.13238820184E+04  0.13238820184E+04  0.00000000000E+00 0.  1.
         -2   -1    0    0    0  501 -0.00000000000E+00 -0.00000000000E+00 -0.11600591213E+01  0.11600591213E+01  0.00000000000E+00 0. -1.
          1    1    1    2  502    0  0.29356919459E+02 -0.36351035888E+01  0.10959210787E+04  0.10963202331E+04  0.00000000000E+00 0.  1.
         -1    1    1    2    0  501 -0.29356919459E+02  0.36351035888E+01  0.22680088059E+03  0.22872184446E+03  0.00000000000E+00 0. -1.
</event>
<event>
 4    1  0.6718357E+001  0.4048725E+02  0.7546771E-02  0.1345654E+00
          2   -1    0    0  502    0  0.00000000000E+00  0.00000000000E+00  0.12545308891E+04  0.12545308891E+04  0.00000000000E+00 0.  1.
         -2   -1    0    0    0  501 -0.00000000000E+00 -0.00000000000E+00 -0.13125867895E+01  0.13125867895E+01  0.00000000000E+00 0. -1.
          1    1    1    2  502    0 -0.44967019575E+01 -0.40236759206E+02  0.58433512507E+03  0.58573608008E+03  0.00000000000E+00 0.  1.
         -1    1    1    2    0  501  0.44967019575E+01  0.40236759206E+02  0.66888317720E+03  0.67010739577E+03  0.00000000000E+00 0. -1.
</event>
<event>
 4    1  0.6718357E+001  0.7973891E+02  0.7546771E-02  0.1204455E+00
          2   -1    0    0  502    0  0.00000000000E+00  0.00000000000E+00  0.14279176320E+04  0.14279176320E+04  0.00000000000E+00 0.  1.
         -2   -1    0    0    0  501 -0.00000000000E+00 -0.00000000000E+00 -0.88974191497E+01  0.88974191497E+01  0.00000000000E+00 0. -1.
          1    1    1    2  502    0  0.76978417268E+02  0.20799465682E+02  0.12172648314E+04  0.12198737493E+04  0.00000000000E+00 0.  1.
         -1    1    1    2    0  501 -0.76978417268E+02 -0.20799465682E+02  0.20175538142E+03  0.21694130181E+03  0.00000000000E+00 0. -1.
</event>
<event>
 4    1  0.6718357E+001  0.2371236E+02  0.7546771E-02  0.1483742E+00
          2   -1    0    0  502    0  0.00000000000E+00  0.00000000000E+00  0.50267895466E+01  0.50267895466E+01  0.00000000000E+00 0.  1.
         -2   -1    0    0    0  501 -0.00000000000E+00 -0.00000000000E+00 -0.16632895160E+03  0.16632895160E+03  0.00000000000E+00 0. -1.
          1    1    1    2  502    0 -0.10007382472E+02  0.21497170736E+02 -0.31619533144E+02  0.39523043024E+02  0.00000000000E+00 0.  1.
         -1    1    1    2    0  501  0.10007382472E+02 -0.21497170736E+02 -0.12968262891E+03  0.13183269812E+03  0.00000000000E+00 0. -1.
</event>
<event>
 4    1  0.6718357E+001  0.2902633E+02  0.7546771E-02  0.1428250E+00
          2   -1    0    0  502    0  0.00000000000E+00  0.00000000000E+00  0.36376542697E+03  0.36376542697E+03  0.00000000000E+00 0.  1.
         -2   -1    0    0    0  501 -0.00000000000E+00 -0.00000000000E+00 -0.25067712566E+01  0.25067712566E+01  0.00000000000E+00 0. -1.
          1    1    1    2  502    0  0.28489997162E+02  0.55540631234E+01  0.23113341219E+03  0.23294888234E+03  0.00000000000E+00 0.  1.
         -1    1    1    2    0  501 -0.28489997162E+02 -0.55540631234E+01  0.13012524352E+03  0.13332331588E+03  0.00000000000E+00 0. -1.
</event>
<event>
 4    1  0.6718357E+001  0.2122095E+02  0.7546771E-02  0.1516133E+00
          2   -1    0    0  502    0  0.00000000000E+00  0.00000000000E+00  0.43794553397E+01  0.43794553397E+01  0.00000000000E+00 0.  1.
         -2   -1    0    0    0  501 -0.00000000000E+00 -0.00000000000E+00 -0.16928962593E+03  0.16928962593E+03  0.00000000000E+00 0. -1.
          1    1    1    2  502    0  0.19864357008E+02 -0.74656712694E+01 -0.13686325203E+03  0.13849865950E+03  0.00000000000E+00 0. -1.
         -1    1    1    2    0  501 -0.19864357008E+02  0.74656712694E+01 -0.28046918563E+02  0.35170421773E+02  0.00000000000E+00 0.  1.
</event>
<event>
 4    1  0.6718357E+001  0.3122738E+02  0.7546771E-02  0.1409222E+00
          2   -1    0    0  502    0  0.00000000000E+00  0.00000000000E+00  0.75178484679E+03  0.75178484679E+03  0.00000000000E+00 0. -1.
         -2   -1    0    0    0  501 -0.00000000000E+00 -0.00000000000E+00 -0.13214067394E+01  0.13214067394E+01  0.00000000000E+00 0.  1.
          1    1    1    2  502    0 -0.20601253163E+02 -0.23467797192E+02  0.32417366912E+03  0.32567424965E+03  0.00000000000E+00 0.  1.
         -1    1    1    2    0  501  0.20601253163E+02  0.23467797192E+02  0.42628977094E+03  0.42743200388E+03  0.00000000000E+00 0. -1.
</event>
<event>
 4    1  0.6718357E+001  0.2138366E+02  0.7546771E-02  0.1513857E+00
          2   -1    0    0  502    0  0.00000000000E+00  0.00000000000E+00  0.76488762020E+02  0.76488762020E+02  0.00000000000E+00 0.  1.
         -2   -1    0    0    0  501 -0.00000000000E+00 -0.00000000000E+00 -0.18302368038E+02  0.18302368038E+02  0.00000000000E+00 0. -1.
          1    1    1    2  502    0  0.42784252991E+01 -0.20951273710E+02 -0.97991242846E+01  0.23521981844E+02  0.00000000000E+00 0. -1.
         -1    1    1    2    0  501 -0.42784252991E+01  0.20951273710E+02  0.67985518267E+02  0.71269148214E+02  0.00000000000E+00 0.  1.
</event>
<event>
 4    1  0.6718357E+001  0.2837878E+02  0.7546771E-02  0.1434229E+00
          2   -1    0    0  502    0  0.00000000000E+00  0.00000000000E+00  0.80507308903E+03  0.80507308903E+03  0.00000000000E+00 0.  1.
         -2   -1    0    0    0  501 -0.00000000000E+00 -0.00000000000E+00 -0.21754237175E+01  0.21754237175E+01  0.00000000000E+00 0. -1.
          1    1    1    2  502    0 -0.19896926432E+02  0.20235308096E+02  0.69809433459E+03  0.69867092065E+03  0.00000000000E+00 0.  1.
         -1    1    1    2    0  501  0.19896926432E+02 -0.20235308096E+02  0.10480333072E+03  0.10857759210E+03  0.00000000000E+00 0. -1.
</event>
<event>
 4    1  0.6718357E+001  0.2986349E+02  0.7546771E-02  0.1420787E+00
          2   -1    0    0  502    0  0.00000000000E+00  0.00000000000E+00  0.20926776225E+04  0.20926776225E+04  0.00000000000E+00 0. -1.
         -2   -1    0    0    0  501 -0.00000000000E+00 -0.00000000000E+00 -0.42616603863E+00  0.42616603863E+00  0.00000000000E+00 0.  1.
          1    1    1    2  502    0 -0.17223609109E+02 -0.24396215493E+02  0.10457906678E+04  0.10462169703E+04  0.00000000000E+00 0. -1.
         -1    1    1    2    0  501  0.17223609109E+02  0.24396215493E+02  0.10464607887E+04  0.10468868183E+04  0.00000000000E+00 0.  1.
</event>
<event>
 4    1  0.6718357E+001  0.2983735E+02  0.7546771E-02  0.1421015E+00
          2   -1    0    0  502    0  0.00000000000E+00  0.00000000000E+00  0.11213003407E+02  0.11213003407E+02  0.00000000000E+00 0. -1.
         -2   -1    0    0    0  501 -0.00000000000E+00 -0.00000000000E+00 -0.80794551448E+02  0.80794551448E+02  0.00000000000E+00 0.  1.
          1    1    1    2  502    0  0.29817773586E+02  0.10807988301E+01 -0.28738203056E+02  0.41426465727E+02  0.00000000000E+00 0.  1.
         -1    1    1    2    0  501 -0.29817773586E+02 -0.10807988301E+01 -0.40843344985E+02  0.50581089128E+02  0.00000000000E+00 0. -1.
</event>
<event>
 4    1  0.6718357E+001  0.2130583E+02  0.7546771E-02  0.1514943E+00
          2   -1    0    0  502    0  0.00000000000E+00  0.00000000000E+00  0.74603908412E+03  0.74603908412E+03  0.00000000000E+00 0.  1.
         -2   -1    0    0    0  501 -0.00000000000E+00 -0.00000000000E+00 -0.89070875241E+00  0.89070875241E+00  0.00000000000E+00 0. -1.
          1    1    1    2  502    0 -0.19725788000E+02 -0.80518201612E+01  0.58280397530E+03  0.58319328883E+03  0.00000000000E+00 0.  1.
         -1    1    1    2    0  501  0.19725788000E+02  0.80518201612E+01  0.16234440007E+03  0.16373650404E+03  0.00000000000E+00 0. -1.
</event>
<event>
 4    1  0.6718357E+001  0.4530237E+02  0.7546771E-02  0.1319934E+00
          2   -1    0    0  502    0  0.00000000000E+00  0.00000000000E+00  0.21570935396E+03  0.21570935396E+03  0.00000000000E+00 0. -1.
         -2   -1    0    0    0  501 -0.00000000000E+00 -0.00000000000E+00 -0.97677012079E+01  0.97677012079E+01  0.00000000000E+00 0.  1.
          1    1    1    2  502    0 -0.32486811734E+02  0.31573907277E+02  0.12113249635E+03  0.12932666481E+03  0.00000000000E+00 0. -1.
         -1    1    1    2    0  501  0.32486811734E+02 -0.31573907277E+02  0.84809156398E+02  0.96150390360E+02  0.00000000000E+00 0.  1.
</event>
<event>
 4    1  0.6718357E+001  0.3098061E+02  0.7546771E-02  0.1411262E+00
          2   -1    0    0  502    0  0.00000000000E+00  0.00000000000E+00  0.11532906818E+04  0.11532906818E+04  0.00000000000E+00 0.  1.
         -2   -1    0    0    0  501 -0.00000000000E+00 -0.00000000000E+00 -0.83884293299E+00  0.83884293299E+00  0.00000000000E+00 0. -1.
          1    1    1    2  502    0 -0.16633211273E+00 -0.30980167486E+02  0.62747828773E+03  0.62824262831E+03  0.00000000000E+00 0.  1.
         -1    1    1    2    0  501  0.16633211273E+00  0.30980167486E+02  0.52497355112E+03  0.52588689641E+03  0.00000000000E+00 0. -1.
</event>
<event>
 4    1  0.6718357E+001  0.2769559E+02  0.7546771E-02  0.1440743E+00
          2   -1    0    0  502    0  0.00000000000E+00  0.00000000000E+00  0.22277747907E+04  0.22277747907E+04  0.00000000000E+00 0.  1.
         -2   -1    0    0    0  501 -0.00000000000E+00 -0.00000000000E+00 -0.37751232357E+00  0.37751232357E+00  0.00000000000E+00 0. -1.
          1    1    1    2  502    0  0.25555223250E+02  0.10675979291E+02  0.14440918467E+04  0.14443574030E+04  0.00000000000E+00 0.  1.
         -1    1    1    2    0  501 -0.25555223250E+02 -0.10675979291E+02  0.78330543170E+03  0.78379490002E+03  0.00000000000E+00 0. -1.
</event>
<event>
 4    1  0.6718357E+001  0.4376289E+02  0.7546771E-02  0.1327742E+00
          2   -1    0    0  502    0  0.00000000000E+00  0.00000000000E+00  0.24522817355E+03  0.24522817355E+03  0.00000000000E+00 0. -1.
         -2   -1    0    0    0  501 -0.00000000000E+00 -0.00000000000E+00 -0.10471589911E+02  0.10471589911E+02  0.00000000000E+00 0.  1.
          1    1    1    2  502    0  0.43407529884E+02  0.55656931639E+01  0.18183652188E+03  0.18702863760E+03  0.00000000000E+00 0. -1.
         -1    1    1    2    0  501 -0.43407529884E+02 -0.55656931639E+01  0.52920061754E+02  0.68671125862E+02  0.00000000000E+00 0.  1.
</event>
<event>
 4    1  0.6718357E+001  0.2310714E+02  0.7546771E-02  0.1491157E+00
          2   -1    0    0  502    0  0.00000000000E+00  0.00000000000E+00  0.26113420691E+01  0.26113420691E+01  0.00000000000E+00 0.  1.
         -2   -1    0    0    0  501 -0.00000000000E+00 -0.00000000000E+00 -0.22756137630E+03  0.22756137630E+03  0.00000000000E+00 0. -1.
          1    1    1    2  502    0  0.11617908389E+02  0.19974082322E+02 -0.75814012931E+02  0.79257203563E+02  0.00000000000E+00 0.  1.
         -1    1    1    2    0  501 -0.11617908389E+02 -0.19974082322E+02 -0.14913602130E+03  0.15091551481E+03  0.00000000000E+00 0. -1.
</event>
<event>
 4    1  0.6718357E+001  0.2386314E+02  0.7546771E-02  0.1481935E+00
          2   -1    0    0  502    0  0.00000000000E+00  0.00000000000E+00  0.15434869116E+04  0.15434869116E+04  0.00000000000E+00 0.  1.
         -2   -1    0    0    0  501 -0.00000000000E+00 -0.00000000000E+00 -0.48178432541E+00  0.48178432541E+00  0.00000000000E+00 0. -1.
          1    1    1    2  502    0  0.23143615412E+02 -0.58157291422E+01  0.11451203444E+04  0.11453689592E+04  0.00000000000E+00 0.  1.
         -1    1    1    2    0  501 -0.23143615412E+02  0.58157291422E+01  0.39788478292E+03  0.39859973673E+03  0.00000000000E+00 0. -1.
</event>
<event>
 4    1  0.6718357E+001  0.5940258E+02  0.7546771E-02  0.1261876E+00
          2   -1    0    0  502    0  0.00000000000E+00  0.00000000000E+00  0.24853724375E+03  0.24853724375E+03  0.00000000000E+00 0. -1.
         -2   -1    0    0    0  501 -0.00000000000E+00 -0.00000000000E+00 -0.43695727642E+02  0.43695727642E+02  0.00000000000E+00 0.  1.
          1    1    1    2  502    0 -0.49438520622E+02  0.32931740588E+02 -0.17633048317E+02  0.61964435383E+02  0.00000000000E+00 0.  1.
         -1    1    1    2    0  501  0.49438520622E+02 -0.32931740588E+02  0.22247456443E+03  0.23026853601E+03  0.00000000000E+00 0. -1.
</event>
<event>
 4    1  0.6718357E+001  0.2524557E+02  0.7546771E-02  0.1466075E+00
          2   -1    0    0  502    0  0.00000000000E+00  0.00000000000E+00  0.22796128032E+02  0.22796128032E+02  0.00000000000E+00 0.  1.
         -2   -1    0    0    0  501 -0.00000000000E+00 -0.00000000000E+00 -0.28108811348E+02  0.28108811348E+02  0.00000000000E+00 0. -1.
          1    1    1    2  502    0  0.24686043502E+02  0.52856676770E+01 -0.79332256131E+00  0.25258036093E+02  0.00000000000E+00 0.  1.
         -1    1    1    2    0  501 -0.24686043502E+02 -0.52856676770E+01 -0.45193607540E+01  0.25646903287E+02  0.00000000000E+00 0. -1.
</event>
<event>
 4    1  0.6718357E+001  0.3672806E+02  0.7546771E-02  0.1368805E+00
          2   -1    0    0  502    0  0.00000000000E+00  0.00000000000E+00  0.42615157004E+03  0.42615157004E+03  0.00000000000E+00 0.  1.
         -2   -1    0    0    0  501 -0.00000000000E+00 -0.00000000000E+00 -0.33842193555E+01  0.33842193555E+01  0.00000000000E+00 0. -1.
          1    1    1    2  502    0 -0.31669747744E+02  0.18600467211E+02  0.15677528179E+03  0.16101999654E+03  0.00000000000E+00 0. -1.
         -1    1    1    2    0  501  0.31669747744E+02 -0.18600467211E+02  0.26599206889E+03  0.26851579286E+03  0.00000000000E+00 0.  1.
</event>
<event>
 4    1  0.6718357E+001  0.3823347E+02  0.7546771E-02  0.1359160E+00
          2   -1    0    0  502    0  0.00000000000E+00  0.00000000000E+00  0.10819376613E+04  0.10819376613E+04  0.00000000000E+00 0.  1.
         -2   -1    0    0    0  501 -0.00000000000E+00 -0.00000000000E+00 -0.15197465939E+01  0.15197465939E+01  0.00000000000E+00 0. -1.
          1    1    1    2  502    0 -0.37049082056E+02 -0.94426738172E+01  0.35974359547E+03  0.36176961322E+03  0.00000000000E+00 0.  1.
         -1    1    1    2    0  501  0.37049082056E+02  0.94426738172E+01  0.72067431919E+03  0.72168779463E+03  0.00000000000E+00 0. -1.
</event>
<event>
 4    1  0.6718357E+001  0.2290285E+02  0.7546771E-02  0.1493722E+00
          2   -1    0    0  502    0  0.00000000000E+00  0.00000000000E+00  0.13386139542E+04  0.13386139542E+04  0.00000000000E+00 0. -1.
         -2   -1    0    0    0  501 -0.00000000000E+00 -0.00000000000E+00 -0.41524453372E+00  0.41524453372E+00  0.00000000000E+00 0.  1.
          1    1    1    2  502    0  0.16146812391E+02  0.16242569463E+02  0.51019622550E+03  0.51071002450E+03  0.00000000000E+00 0.  1.
         -1    1    1    2    0  501 -0.16146812391E+02 -0.16242569463E+02  0.82800248420E+03  0.82831917426E+03  0.00000000000E+00 0. -1.
</event>
