<event>
 4    1  0.8988950E+003  0.6559122E+02  0.7546771E-02  0.1241934E+00
          2   -1    0    0  501    0  0.00000000000E+00  0.00000000000E+00  0.99658984235E+03  0.99658984235E+03  0.00000000000E+00 0. -1.
          2   -1    0    0  502    0 -0.00000000000E+00 -0.00000000000E+00 -0.74552394826E+03  0.74552394826E+03  0.00000000000E+00 0.  1.
          2    1    1    2  501    0 -0.13026619587E+02  0.64284640078E+02 -0.74299837533E+03  0.74588792289E+03  0.00000000000E+00 0.  1.
          2    1    1    2  502    0  0.13026619587E+02 -0.64284640078E+02  0.99406426942E+03  0.99622586772E+03  0.00000000000E+00 0. -1.
</event>
<event>
 4    1  0.8988950E+003  0.2596180E+02  0.7546771E-02  0.1458325E+00
          2   -1    0    0  501    0  0.00000000000E+00  0.00000000000E+00  0.32054990436E+03  0.32054990436E+03  0.00000000000E+00 0. -1.
          2   -1    0    0  502    0 -0.00000000000E+00 -0.00000000000E+00 -0.64437112711E+01  0.64437112711E+01  0.00000000000E+00 0.  1.
          2    1    1    2  501    0  0.11644266373E+02 -0.23204010759E+02  0.22857732047E+02  0.34590330571E+02  0.00000000000E+00 0.  1.
          2    1    1    2  502    0 -0.11644266373E+02  0.23204010759E+02  0.29124846104E+03  0.29240328506E+03  0.00000000000E+00 0. -1.
</event>
<event>
 4    1  0.8988950E+003  0.2131459E+02  0.7546771E-02  0.1514820E+00
          2   -1    0    0  501    0  0.00000000000E+00  0.00000000000E+00  0.32433434117E+02  0.32433434117E+02  0.00000000000E+00 0. -1.
          2   -1    0    0  502    0 -0.00000000000E+00 -0.00000000000E+00 -0.22273598442E+02  0.22273598442E+02  0.00000000000E+00 0. -1.
          2    1    1    2  501    0  0.63520581956E+01 -0.20346084450E+02 -0.11583645543E+02  0.24258867241E+02  0.00000000000E+00 0. -1.
          2    1    1    2  502    0 -0.63520581956E+01  0.20346084450E+02  0.21743481218E+02  0.30448165318E+02  0.00000000000E+00 0. -1.
</event>
<event>
 4    1  0.8988950E+003  0.2656567E+02  0.7546771E-02  0.1452021E+00
          2   -1    0    0  501    0  0.00000000000E+00  0.00000000000E+00  0.82808243035E+03  0.82808243035E+03  0.00000000000E+00 0. -1.
          2   -1    0    0  502    0 -0.00000000000E+00 -0.00000000000E+00 -0.93822386884E+00  0.93822386884E+00  0.00000000000E+00 0. -1.
          2    1    1    2  501    0 -0.18631998386E+02  0.18936296730E+02  0.28809602399E+03  0.28931825683E+03  0.00000000000E+00 0. -1.
          2    1    1    2  502    0  0.18631998386E+02 -0.18936296730E+02  0.53904818249E+03  0.53970239739E+03  0.00000000000E+00 0. -1.
</event>
<event>
 4    1  0.8988950E+003  0.2604128E+02  0.7546771E-02  0.1457484E+00
          2   -1    0    0  502    0  0.00000000000E+00  0.00000000000E+00  0.32736225539E+03  0.32736225539E+03  0.00000000000E+00 0.  1.
          2   -1    0    0  501    0 -0.00000000000E+00 -0.00000000000E+00 -0.29347228360E+02  0.29347228360E+02  0.00000000000E+00 0.  1.
          2    1    1    2  501    0 -0.20831397253E+02 -0.15626943358E+02  0.32095224209E+03  0.32200697224E+03  0.00000000000E+00 0.  1.
          2    1    1    2  502    0  0.20831397253E+02  0.15626943358E+02 -0.22937215060E+02  0.34702511508E+02  0.00000000000E+00 0.  1.
</event>
<event>
 4    1  0.8988950E+003  0.2894119E+02  0.7546771E-02  0.1429026E+00
          2   -1    0    0  502    0  0.00000000000E+00  0.00000000000E+00  0.29291496678E+03  0.29291496678E+03  0.00000000000E+00 0. -1.
          2   -1    0    0  501    0 -0.00000000000E+00 -0.00000000000E+00 -0.16035538707E+03  0.16035538707E+03  0.00000000000E+00 0.  1.
          2    1    1    2  501    0 -0.82454440062E+01 -0.27741754599E+02  0.29088516292E+03  0.29232134767E+03  0.00000000000E+00 0. -1.
          2    1    1    2  502    0  0.82454440062E+01  0.27741754599E+02 -0.15832558321E+03  0.16094900619E+03  0.00000000000E+00 0.  1.
</event>
<event>
 4    1  0.8988950E+003  0.2451347E+02  0.7546771E-02  0.1474320E+00
          2   -1    0    0  501    0  0.00000000000E+00  0.00000000000E+00  0.33583705379E+03  0.33583705379E+03  0.00000000000E+00 0.  1.
          2   -1    0    0  502    0 -0.00000000000E+00 -0.00000000000E+00 -0.21706270108E+03  0.21706270108E+03  0.00000000000E+00 0. -1.
          2    1    1    2  501    0 -0.22252508890E+02  0.10282807771E+02 -0.21592092746E+03  0.21730797777E+03  0.00000000000E+00 0. -1.
          2    1    1    2  502    0  0.22252508890E+02 -0.10282807771E+02  0.33469528017E+03  0.33559177710E+03  0.00000000000E+00 0.  1.
</event>
<event>
 4    1  0.8988950E+003  0.2132534E+02  0.7546771E-02  0.1514670E+00
          2   -1    0    0  502    0  0.00000000000E+00  0.00000000000E+00  0.36632773896E+02  0.36632773896E+02  0.00000000000E+00 0. -1.
          2   -1    0    0  501    0 -0.00000000000E+00 -0.00000000000E+00 -0.40299016942E+03  0.40299016942E+03  0.00000000000E+00 0. -1.
          2    1    1    2  501    0  0.21317504682E+02  0.57800695242E+00  0.33220593571E+02  0.39476295864E+02  0.00000000000E+00 0. -1.
          2    1    1    2  502    0 -0.21317504682E+02 -0.57800695242E+00 -0.39957798909E+03  0.40014664745E+03  0.00000000000E+00 0. -1.
</event>
<event>
 4    1  0.1541571E+004  0.3434890E+02  0.7546771E-02  0.1385199E+00
          2   -1    0    0  501    0  0.00000000000E+00  0.00000000000E+00  0.72868246324E+03  0.72868246324E+03  0.00000000000E+00 0. -1.
          2   -1    0    0  502    0 -0.00000000000E+00 -0.00000000000E+00 -0.18486178443E+04  0.18486178443E+04  0.00000000000E+00 0.  1.
          2    1    1    2  501    0  0.26609484180E+02 -0.21720546882E+02 -0.18480533750E+04  0.18483725609E+04  0.00000000000E+00 0.  1.
          2    1    1    2  502    0 -0.26609484180E+02  0.21720546882E+02  0.72811799394E+03  0.72892774670E+03  0.00000000000E+00 0. -1.
</event>
<event>
 4    1  0.8988950E+003  0.2964071E+02  0.7546771E-02  0.1422745E+00
          2   -1    0    0  501    0  0.00000000000E+00  0.00000000000E+00  0.11411824891E+03  0.11411824891E+03  0.00000000000E+00 0. -1.
          2   -1    0    0  502    0 -0.00000000000E+00 -0.00000000000E+00 -0.52967571104E+02  0.52967571104E+02  0.00000000000E+00 0. -1.
          2    1    1    2  501    0  0.28814025161E+02 -0.69515063233E+01 -0.46657857646E+02  0.55276823048E+02  0.00000000000E+00 0. -1.
          2    1    1    2  502    0 -0.28814025161E+02  0.69515063233E+01  0.10780853546E+03  0.11180899697E+03  0.00000000000E+00 0. -1.
</event>
<event>
 4    1  0.8988950E+003  0.2022489E+02  0.7546771E-02  0.1530625E+00
          2   -1    0    0  501    0  0.00000000000E+00  0.00000000000E+00  0.11969507864E+03  0.11969507864E+03  0.00000000000E+00 0. -1.
          2   -1    0    0  502    0 -0.00000000000E+00 -0.00000000000E+00 -0.18817614240E+03  0.18817614240E+03  0.00000000000E+00 0.  1.
          2    1    1    2  501    0  0.18732600182E+02 -0.76246919948E+01 -0.18677195205E+03  0.18786380256E+03  0.00000000000E+00 0.  1.
          2    1    1    2  502    0 -0.18732600182E+02  0.76246919948E+01  0.11829088830E+03  0.12000741848E+03  0.00000000000E+00 0. -1.
</event>
<event>
 4    1  0.8988950E+003  0.3476937E+02  0.7546771E-02  0.1382192E+00
          2   -1    0    0  502    0  0.00000000000E+00  0.00000000000E+00  0.46695476234E+01  0.46695476234E+01  0.00000000000E+00 0. -1.
          2   -1    0    0  501    0 -0.00000000000E+00 -0.00000000000E+00 -0.14135962346E+04  0.14135962346E+04  0.00000000000E+00 0. -1.
          2    1    1    2  501    0 -0.13822277432E+02  0.31903824416E+02 -0.63548566491E+02  0.72438454352E+02  0.00000000000E+00 0. -1.
          2    1    1    2  502    0  0.13822277432E+02 -0.31903824416E+02 -0.13453781205E+04  0.13458273279E+04  0.00000000000E+00 0. -1.
</event>
<event>
 4    1  0.8988950E+003  0.2477703E+02  0.7546771E-02  0.1471313E+00
          2   -1    0    0  502    0  0.00000000000E+00  0.00000000000E+00  0.71340023033E+02  0.71340023033E+02  0.00000000000E+00 0.  1.
          2   -1    0    0  501    0 -0.00000000000E+00 -0.00000000000E+00 -0.12723075935E+04  0.12723075935E+04  0.00000000000E+00 0.  1.
          2    1    1    2  501    0  0.14764088440E+02  0.19897816929E+02  0.69064218894E+02  0.73374162738E+02  0.00000000000E+00 0.  1.
          2    1    1    2  502    0 -0.14764088440E+02 -0.19897816929E+02 -0.12700317894E+04  0.12702734538E+04  0.00000000000E+00 0.  1.
</event>
<event>
 4    1  0.8988950E+003  0.5328009E+02  0.7546771E-02  0.1284545E+00
          2   -1    0    0  502    0  0.00000000000E+00  0.00000000000E+00  0.51452591606E+02  0.51452591606E+02  0.00000000000E+00 0. -1.
          2   -1    0    0  501    0 -0.00000000000E+00 -0.00000000000E+00 -0.55256313163E+02  0.55256313163E+02  0.00000000000E+00 0.  1.
          2    1    1    2  501    0 -0.16850742359E+02 -0.50545231662E+02  0.17612854626E+00  0.53280380846E+02  0.00000000000E+00 0.  1.
          2    1    1    2  502    0  0.16850742359E+02  0.50545231662E+02 -0.39798501038E+01  0.53428523924E+02  0.00000000000E+00 0. -1.
</event>
<event>
 4    1  0.8988950E+003  0.8320344E+02  0.7546771E-02  0.1196600E+00
          2   -1    0    0  502    0  0.00000000000E+00  0.00000000000E+00  0.14625363321E+02  0.14625363321E+02  0.00000000000E+00 0.  1.
          2   -1    0    0  501    0 -0.00000000000E+00 -0.00000000000E+00 -0.19187650551E+04  0.19187650551E+04  0.00000000000E+00 0.  1.
          2    1    1    2  501    0 -0.64157021422E+02  0.52978198624E+02 -0.11304270619E+03  0.14036191204E+03  0.00000000000E+00 0.  1.
          2    1    1    2  502    0  0.64157021422E+02 -0.52978198624E+02 -0.17910969856E+04  0.17930285064E+04  0.00000000000E+00 0.  1.
</event>
<event>
 4    1  0.8988950E+003  0.2975048E+02  0.7546771E-02  0.1421777E+00
          2   -1    0    0  501    0  0.00000000000E+00  0.00000000000E+00  0.53062485152E+01  0.53062485152E+01  0.00000000000E+00 0. -1.
          2   -1    0    0  502    0 -0.00000000000E+00 -0.00000000000E+00 -0.48208243064E+03  0.48208243064E+03  0.00000000000E+00 0.  1.
          2    1    1    2  501    0 -0.22975089730E+01 -0.29661631363E+02 -0.43546400502E+03  0.43647908380E+03  0.00000000000E+00 0.  1.
          2    1    1    2  502    0  0.22975089730E+01  0.29661631363E+02 -0.41312177105E+02  0.50909595360E+02  0.00000000000E+00 0. -1.
</event>
<event>
 4    1  0.8988950E+003  0.2768267E+02  0.7546771E-02  0.1440869E+00
          2   -1    0    0  502    0  0.00000000000E+00  0.00000000000E+00  0.46308792852E+02  0.46308792852E+02  0.00000000000E+00 0. -1.
          2   -1    0    0  501    0 -0.00000000000E+00 -0.00000000000E+00 -0.16493959208E+04  0.16493959208E+04  0.00000000000E+00 0.  1.
          2    1    1    2  501    0  0.26589611727E+02  0.77021121212E+01  0.42044852610E+02  0.50339841219E+02  0.00000000000E+00 0. -1.
          2    1    1    2  502    0 -0.26589611727E+02 -0.77021121212E+01 -0.16451319806E+04  0.16453648724E+04  0.00000000000E+00 0.  1.
</event>
<event>
 4    1  0.8988950E+003  0.2937140E+02  0.7546771E-02  0.1425139E+00
          2   -1    0    0  501    0  0.00000000000E+00  0.00000000000E+00  0.67362285632E+01  0.67362285632E+01  0.00000000000E+00 0. -1.
          2   -1    0    0  502    0 -0.00000000000E+00 -0.00000000000E+00 -0.13328729828E+04  0.13328729828E+04  0.00000000000E+00 0. -1.
          2    1    1    2  501    0 -0.87971441446E+01  0.28023017587E+02 -0.12998823062E+04  0.13002140937E+04  0.00000000000E+00 0. -1.
          2    1    1    2  502    0  0.87971441446E+01 -0.28023017587E+02 -0.26254447999E+02  0.39395117712E+02  0.00000000000E+00 0. -1.
</event>
<event>
 4    1  0.8988950E+003  0.2019636E+02  0.7546771E-02  0.1531055E+00
          2   -1    0    0  502    0  0.00000000000E+00  0.00000000000E+00  0.64400767979E+03  0.64400767979E+03  0.00000000000E+00 0.  1.
          2   -1    0    0  501    0 -0.00000000000E+00 -0.00000000000E+00 -0.17740006935E+02  0.17740006935E+02  0.00000000000E+00 0. -1.
          2    1    1    2  501    0 -0.52316117603E+01 -0.19507000768E+02  0.63804744981E+03  0.63836701125E+03  0.00000000000E+00 0.  1.
          2    1    1    2  502    0  0.52316117603E+01  0.19507000768E+02 -0.11779776956E+02  0.23380675476E+02  0.00000000000E+00 0. -1.
</event>
<event>
 4    1  0.8988950E+003  0.2041284E+02  0.7546771E-02  0.1527815E+00
          2   -1    0    0  502    0  0.00000000000E+00  0.00000000000E+00  0.55915016532E+02  0.55915016532E+02  0.00000000000E+00 0.  1.
          2   -1    0    0  501    0 -0.00000000000E+00 -0.00000000000E+00 -0.42557165501E+02  0.42557165501E+02  0.00000000000E+00 0. -1.
          2    1    1    2  501    0 -0.24721498312E+01 -0.20262587413E+02  0.51396902500E+02  0.55302129797E+02  0.00000000000E+00 0.  1.
          2    1    1    2  502    0  0.24721498312E+01  0.20262587413E+02 -0.38039051469E+02  0.43170052237E+02  0.00000000000E+00 0. -1.
</event>
<event>
 4    1  0.8988950E+003  0.4884409E+02  0.7546771E-02  0.1303263E+00
          2   -1    0    0  502    0  0.00000000000E+00  0.00000000000E+00  0.11498079358E+02  0.11498079358E+02  0.00000000000E+00 0. -1.
          2   -1    0    0  501    0 -0.00000000000E+00 -0.00000000000E+00 -0.13884689765E+04  0.13884689765E+04  0.00000000000E+00 0.  1.
          2    1    1    2  501    0  0.22272959948E+02 -0.43470222139E+02 -0.42919406251E+02  0.65021691693E+02  0.00000000000E+00 0. -1.
          2    1    1    2  502    0 -0.22272959948E+02  0.43470222139E+02 -0.13340514909E+04  0.13349453642E+04  0.00000000000E+00 0.  1.
</event>
<event>
 4    1  0.8988950E+003  0.2440804E+02  0.7546771E-02  0.1475536E+00
          2   -1    0    0  502    0  0.00000000000E+00  0.00000000000E+00  0.88068952325E+02  0.88068952325E+02  0.00000000000E+00 0.  1.
          2   -1    0    0  501    0 -0.00000000000E+00 -0.00000000000E+00 -0.15111217183E+02  0.15111217183E+02  0.00000000000E+00 0.  1.
          2    1    1    2  501    0 -0.16930071401E+02 -0.17581951254E+02  0.74820574422E+02  0.78701147923E+02  0.00000000000E+00 0.  1.
          2    1    1    2  502    0  0.16930071401E+02  0.17581951254E+02 -0.18628392794E+01  0.24479021585E+02  0.00000000000E+00 0.  1.
</event>
<event>
 4    1  0.8988950E+003  0.3628867E+02  0.7546771E-02  0.1371723E+00
          2   -1    0    0  501    0  0.00000000000E+00  0.00000000000E+00  0.23568647425E+04  0.23568647425E+04  0.00000000000E+00 0.  1.
          2   -1    0    0  502    0 -0.00000000000E+00 -0.00000000000E+00 -0.40367685929E+01  0.40367685929E+01  0.00000000000E+00 0.  1.
          2    1    1    2  501    0  0.34542304215E+02 -0.11121911508E+02  0.80698741310E+02  0.88482509826E+02  0.00000000000E+00 0.  1.
          2    1    1    2  502    0 -0.34542304215E+02  0.11121911508E+02  0.22721292326E+04  0.22724190013E+04  0.00000000000E+00 0.  1.
</event>
<event>
 4    1  0.8988950E+003  0.2534197E+02  0.7546771E-02  0.1465014E+00
          2   -1    0    0  501    0  0.00000000000E+00  0.00000000000E+00  0.26407990375E+02  0.26407990375E+02  0.00000000000E+00 0. -1.
          2   -1    0    0  502    0 -0.00000000000E+00 -0.00000000000E+00 -0.93822154013E+03  0.93822154013E+03  0.00000000000E+00 0.  1.
          2    1    1    2  501    0 -0.90768887851E+01  0.23660634569E+02 -0.93192962820E+03  0.93227412678E+03  0.00000000000E+00 0.  1.
          2    1    1    2  502    0  0.90768887851E+01 -0.23660634569E+02  0.20116078448E+02  0.32355403727E+02  0.00000000000E+00 0. -1.
</event>
<event>
 4    1  0.8988950E+003  0.2125785E+02  0.7546771E-02  0.1515615E+00
          2   -1    0    0  501    0  0.00000000000E+00  0.00000000000E+00  0.37837685346E+03  0.37837685346E+03  0.00000000000E+00 0. -1.
          2   -1    0    0  502    0 -0.00000000000E+00 -0.00000000000E+00 -0.60183842975E+01  0.60183842975E+01  0.00000000000E+00 0. -1.
          2    1    1    2  501    0 -0.19409807440E+02  0.86692198378E+01  0.14105166116E+02  0.25511795480E+02  0.00000000000E+00 0. -1.
          2    1    1    2  502    0  0.19409807440E+02 -0.86692198378E+01  0.35825330304E+03  0.35888344227E+03  0.00000000000E+00 0. -1.
</event>
<event>
 4    1  0.8988950E+003  0.2244453E+02  0.7546771E-02  0.1499594E+00
          2   -1    0    0  501    0  0.00000000000E+00  0.00000000000E+00  0.80238387157E+02  0.80238387157E+02  0.00000000000E+00 0. -1.
          2   -1    0    0  502    0 -0.00000000000E+00 -0.00000000000E+00 -0.10876147021E+03  0.10876147021E+03  0.00000000000E+00 0. -1.
          2    1    1    2  501    0  0.14320955796E+02 -0.17281990666E+02 -0.10599342676E+03  0.10834372845E+03  0.00000000000E+00 0. -1.
          2    1    1    2  502    0 -0.14320955796E+02  0.17281990666E+02  0.77470343716E+02  0.80656128916E+02  0.00000000000E+00 0. -1.
</event>
<event>
 4    1  0.8988950E+003  0.2583159E+02  0.7546771E-02  0.1459712E+00
          2   -1    0    0  501    0  0.00000000000E+00  0.00000000000E+00  0.13453975290E+02  0.13453975290E+02  0.00000000000E+00 0.  1.
          2   -1    0    0  502    0 -0.00000000000E+00 -0.00000000000E+00 -0.97557782428E+03  0.97557782428E+03  0.00000000000E+00 0. -1.
          2    1    1    2  501    0 -0.91575786898E+01 -0.24153879446E+02 -0.96284373042E+03  0.96319017870E+03  0.00000000000E+00 0. -1.
          2    1    1    2  502    0  0.91575786898E+01  0.24153879446E+02  0.71988143004E+00  0.25841620867E+02  0.00000000000E+00 0.  1.
</event>
<event>
 4    1  0.8988950E+003  0.2316835E+02  0.7546771E-02  0.1490395E+00
          2   -1    0    0  501    0  0.00000000000E+00  0.00000000000E+00  0.15328530952E+04  0.15328530952E+04  0.00000000000E+00 0.  1.
          2   -1    0    0  502    0 -0.00000000000E+00 -0.00000000000E+00 -0.78689088886E+00  0.78689088886E+00  0.00000000000E+00 0.  1.
          2    1    1    2  501    0  0.11103331233E+02  0.20334411206E+02  0.19477297731E+03  0.19614608060E+03  0.00000000000E+00 0.  1.
          2    1    1    2  502    0 -0.11103331233E+02 -0.20334411206E+02  0.13372932270E+04  0.13374939055E+04  0.00000000000E+00 0.  1.
</event>
<event>
 4    1  0.8988950E+003  0.4170237E+02  0.7546771E-02  0.1338789E+00
          2   -1    0    0  502    0  0.00000000000E+00  0.00000000000E+00  0.18999316762E+03  0.18999316762E+03  0.00000000000E+00 0.  1.
          2   -1    0    0  501    0 -0.00000000000E+00 -0.00000000000E+00 -0.50784816059E+02  0.50784816059E+02  0.00000000000E+00 0.  1.
          2    1    1    2  501    0  0.39650321561E+02  0.12920528571E+02  0.17860513032E+03  0.18340905276E+03  0.00000000000E+00 0.  1.
          2    1    1    2  502    0 -0.39650321561E+02 -0.12920528571E+02 -0.39396778756E+02  0.57368930919E+02  0.00000000000E+00 0.  1.
</event>
<event>
 4    1  0.8988950E+003  0.2383832E+02  0.7546771E-02  0.1482231E+00
          2   -1    0    0  502    0  0.00000000000E+00  0.00000000000E+00  0.23268520349E+03  0.23268520349E+03  0.00000000000E+00 0.  1.
          2   -1    0    0  501    0 -0.00000000000E+00 -0.00000000000E+00 -0.16630484896E+02  0.16630484896E+02  0.00000000000E+00 0.  1.
          2    1    1    2  501    0  0.56477825608E+00 -0.23831627002E+02  0.22316889030E+03  0.22443845263E+03  0.00000000000E+00 0.  1.
          2    1    1    2  502    0 -0.56477825608E+00  0.23831627002E+02 -0.71141717047E+01  0.24877235761E+02  0.00000000000E+00 0.  1.
</event>
<event>
 4    1  0.8988950E+003  0.2405792E+02  0.7546771E-02  0.1479625E+00
          2   -1    0    0  502    0  0.00000000000E+00  0.00000000000E+00  0.99836591442E+01  0.99836591442E+01  0.00000000000E+00 0.  1.
          2   -1    0    0  501    0 -0.00000000000E+00 -0.00000000000E+00 -0.15628313348E+04  0.15628313348E+04  0.00000000000E+00 0. -1.
          2    1    1    2  501    0 -0.82180683465E+01  0.22610764007E+02 -0.47400258895E+01  0.24520422953E+02  0.00000000000E+00 0.  1.
          2    1    1    2  502    0  0.82180683465E+01 -0.22610764007E+02 -0.15481076498E+04  0.15482945710E+04  0.00000000000E+00 0. -1.
</event>
<event>
 4    1  0.8988950E+003  0.2502690E+02  0.7546771E-02  0.1468503E+00
          2   -1    0    0  501    0  0.00000000000E+00  0.00000000000E+00  0.20102203876E+03  0.20102203876E+03  0.00000000000E+00 0.  1.
          2   -1    0    0  502    0 -0.00000000000E+00 -0.00000000000E+00 -0.41523691503E+03  0.41523691503E+03  0.00000000000E+00 0.  1.
          2    1    1    2  501    0  0.21705762608E+02 -0.12458162428E+02 -0.41407868480E+03  0.41483430807E+03  0.00000000000E+00 0.  1.
          2    1    1    2  502    0 -0.21705762608E+02  0.12458162428E+02  0.19986380854E+03  0.20142464573E+03  0.00000000000E+00 0.  1.
</event>
<event>
 4    1  0.8988950E+003  0.2567058E+02  0.7546771E-02  0.1461440E+00
          2   -1    0    0  502    0  0.00000000000E+00  0.00000000000E+00  0.36777906147E+03  0.36777906147E+03  0.00000000000E+00 0.  1.
          2   -1    0    0  501    0 -0.00000000000E+00 -0.00000000000E+00 -0.18333898452E+01  0.18333898452E+01  0.00000000000E+00 0.  1.
          2    1    1    2  501    0 -0.20878811059E+02 -0.14934986090E+02  0.15513113029E+03  0.15724072674E+03  0.00000000000E+00 0.  1.
          2    1    1    2  502    0  0.20878811059E+02  0.14934986090E+02  0.21081454133E+03  0.21237172457E+03  0.00000000000E+00 0.  1.
</event>
<event>
 4    1  0.8988950E+003  0.2045694E+02  0.7546771E-02  0.1527161E+00
          2   -1    0    0  501    0  0.00000000000E+00  0.00000000000E+00  0.21690074372E+03  0.21690074372E+03  0.00000000000E+00 0. -1.
          2   -1    0    0  502    0 -0.00000000000E+00 -0.00000000000E+00 -0.31881181303E+02  0.31881181303E+02  0.00000000000E+00 0. -1.
          2    1    1    2  501    0 -0.13984604947E+02 -0.14930407463E+02 -0.28058486848E+02  0.34724126004E+02  0.00000000000E+00 0. -1.
          2    1    1    2  502    0  0.13984604947E+02  0.14930407463E+02  0.21307804926E+03  0.21405779902E+03  0.00000000000E+00 0. -1.
</event>
<event>
 4    1  0.8988950E+003  0.2620001E+02  0.7546771E-02  0.1455814E+00
          2   -1    0    0  501    0  0.00000000000E+00  0.00000000000E+00  0.39152079049E+00  0.39152079049E+00  0.00000000000E+00 0. -1.
          2   -1    0    0  502    0 -0.00000000000E+00 -0.00000000000E+00 -0.17818061934E+04  0.17818061934E+04  0.00000000000E+00 0. -1.
          2    1    1    2  501    0  0.23946273102E+02 -0.10630931630E+02 -0.77793249959E+03  0.77837357009E+03  0.00000000000E+00 0. -1.
          2    1    1    2  502    0 -0.23946273102E+02  0.10630931630E+02 -0.10034821731E+04  0.10038241441E+04  0.00000000000E+00 0. -1.
</event>
<event>
 4    1  0.8988950E+003  0.7494965E+02  0.7546771E-02  0.1216084E+00
          2   -1    0    0  502    0  0.00000000000E+00  0.00000000000E+00  0.32572314317E+02  0.32572314317E+02  0.00000000000E+00 0.  1.
          2   -1    0    0  501    0 -0.00000000000E+00 -0.00000000000E+00 -0.13579991269E+04  0.13579991269E+04  0.00000000000E+00 0.  1.
          2    1    1    2  501    0  0.39340433210E+02 -0.63794827046E+02 -0.13075509760E+02  0.76081657437E+02  0.00000000000E+00 0.  1.
          2    1    1    2  502    0 -0.39340433210E+02  0.63794827046E+02 -0.13123513028E+04  0.13144897838E+04  0.00000000000E+00 0.  1.
</event>
<event>
 4    1  0.8988950E+003  0.2237623E+02  0.7546771E-02  0.1500483E+00
          2   -1    0    0  501    0  0.00000000000E+00  0.00000000000E+00  0.87260960830E+00  0.87260960830E+00  0.00000000000E+00 0.  1.
          2   -1    0    0  502    0 -0.00000000000E+00 -0.00000000000E+00 -0.16235719050E+04  0.16235719050E+04  0.00000000000E+00 0.  1.
          2    1    1    2  501    0 -0.77496078696E+01 -0.20991407254E+02 -0.14644628194E+04  0.14646337580E+04  0.00000000000E+00 0.  1.
          2    1    1    2  502    0  0.77496078696E+01  0.20991407254E+02 -0.15823647593E+03  0.15981075657E+03  0.00000000000E+00 0.  1.
</event>
<event>
 4    1  0.8988950E+003  0.2030450E+02  0.7546771E-02  0.1529431E+00
          2   -1    0    0  501    0  0.00000000000E+00  0.00000000000E+00  0.88222583794E+03  0.88222583794E+03  0.00000000000E+00 0. -1.
          2   -1    0    0  502    0 -0.00000000000E+00 -0.00000000000E+00 -0.57085403571E+01  0.57085403571E+01  0.00000000000E+00 0. -1.
          2    1    1    2  501    0 -0.17911081308E+02 -0.95637780149E+01  0.12851313510E+02  0.24029751195E+02  0.00000000000E+00 0. -1.
          2    1    1    2  502    0  0.17911081308E+02  0.95637780149E+01  0.86366598408E+03  0.86390462711E+03  0.00000000000E+00 0. -1.
</event>
<event>
 4    1  0.8988950E+003  0.2396370E+02  0.7546771E-02  0.1480739E+00
          2   -1    0    0  501    0  0.00000000000E+00  0.00000000000E+00  0.14266958227E+04  0.14266958227E+04  0.00000000000E+00 0. -1.
          2   -1    0    0  502    0 -0.00000000000E+00 -0.00000000000E+00 -0.57085798868E+01  0.57085798868E+01  0.00000000000E+00 0. -1.
          2    1    1    2  501    0  0.16408414582E+02 -0.17464903957E+02  0.20002491022E+02  0.31214717465E+02  0.00000000000E+00 0. -1.
          2    1    1    2  502    0 -0.16408414582E+02  0.17464903957E+02  0.14009847518E+04  0.14011896851E+04  0.00000000000E+00 0. -1.
</event>
<event>
 4    1  0.8988950E+003  0.2612951E+02  0.7546771E-02  0.1456554E+00
          2   -1    0    0  501    0  0.00000000000E+00  0.00000000000E+00  0.28354140180E+03  0.28354140180E+03  0.00000000000E+00 0.  1.
          2   -1    0    0  502    0 -0.00000000000E+00 -0.00000000000E+00 -0.17297070980E+04  0.17297070980E+04  0.00000000000E+00 0.  1.
          2    1    1    2  501    0 -0.25826961355E+02  0.39647718242E+01 -0.17290061882E+04  0.17292036173E+04  0.00000000000E+00 0.  1.
          2    1    1    2  502    0  0.25826961355E+02 -0.39647718242E+01  0.28284049199E+03  0.28404488248E+03  0.00000000000E+00 0.  1.
</event>
<event>
 4    1  0.8988950E+003  0.3285809E+02  0.7546771E-02  0.1396281E+00
          2   -1    0    0  502    0  0.00000000000E+00  0.00000000000E+00  0.38913856673E+03  0.38913856673E+03  0.00000000000E+00 0.  1.
          2   -1    0    0  501    0 -0.00000000000E+00 -0.00000000000E+00 -0.59819509188E+02  0.59819509188E+02  0.00000000000E+00 0.  1.
          2    1    1    2  501    0 -0.20660502590E+02  0.25549905121E+02  0.38387101368E+03  0.38527471908E+03  0.00000000000E+00 0.  1.
          2    1    1    2  502    0  0.20660502590E+02 -0.25549905121E+02 -0.54551956140E+02  0.63683356834E+02  0.00000000000E+00 0.  1.
</event>
<event>
 4    1  0.8988950E+003  0.2005308E+02  0.7546771E-02  0.1533226E+00
          2   -1    0    0  502    0  0.00000000000E+00  0.00000000000E+00  0.66370526878E+02  0.66370526878E+02  0.00000000000E+00 0. -1.
          2   -1    0    0  501    0 -0.00000000000E+00 -0.00000000000E+00 -0.96164940057E+03  0.96164940057E+03  0.00000000000E+00 0.  1.
          2    1    1    2  501    0  0.12926962424E+02 -0.15330354883E+02  0.64748726127E+02  0.67782915793E+02  0.00000000000E+00 0. -1.
          2    1    1    2  502    0 -0.12926962424E+02  0.15330354883E+02 -0.96002759982E+03  0.96023701166E+03  0.00000000000E+00 0.  1.
</event>
<event>
 4    1  0.8988950E+003  0.3360413E+02  0.7546771E-02  0.1390651E+00
          2   -1    0    0  502    0  0.00000000000E+00  0.00000000000E+00  0.39102912374E+01  0.39102912374E+01  0.00000000000E+00 0. -1.
          2   -1    0    0  501    0 -0.00000000000E+00 -0.00000000000E+00 -0.16768363060E+04  0.16768363060E+04  0.00000000000E+00 0.  1.
          2    1    1    2  501    0  0.63350434535E+01  0.33001585672E+02 -0.71871427242E+02  0.79339394290E+02  0.00000000000E+00 0. -1.
          2    1    1    2  502    0 -0.63350434535E+01 -0.33001585672E+02 -0.16010545875E+04  0.16014072029E+04  0.00000000000E+00 0.  1.
</event>
<event>
 4    1  0.8988950E+003  0.2049375E+02  0.7546771E-02  0.1526617E+00
          2   -1    0    0  501    0  0.00000000000E+00  0.00000000000E+00  0.13633926226E+04  0.13633926226E+04  0.00000000000E+00 0.  1.
          2   -1    0    0  502    0 -0.00000000000E+00 -0.00000000000E+00 -0.11598656966E+01  0.11598656966E+01  0.00000000000E+00 0. -1.
          2    1    1    2  501    0 -0.10206601428E+02 -0.17771298199E+02  0.96421762419E+02  0.98575605605E+02  0.00000000000E+00 0. -1.
          2    1    1    2  502    0  0.10206601428E+02  0.17771298199E+02  0.12658109945E+04  0.12659768827E+04  0.00000000000E+00 0.  1.
</event>
<event>
 4    1  0.8988950E+003  0.4633340E+02  0.7546771E-02  0.1314903E+00
          2   -1    0    0  501    0  0.00000000000E+00  0.00000000000E+00  0.34704202386E+02  0.34704202386E+02  0.00000000000E+00 0. -1.
          2   -1    0    0  502    0 -0.00000000000E+00 -0.00000000000E+00 -0.30616099055E+03  0.30616099055E+03  0.00000000000E+00 0. -1.
          2    1    1    2  501    0 -0.45093092423E+02  0.10648797169E+02 -0.28797261305E+03  0.29167620701E+03  0.00000000000E+00 0. -1.
          2    1    1    2  502    0  0.45093092423E+02 -0.10648797169E+02  0.16515824886E+02  0.49188985933E+02  0.00000000000E+00 0. -1.
</event>
<event>
 4    1  0.8988950E+003  0.2426363E+02  0.7546771E-02  0.1477212E+00
          2   -1    0    0  502    0  0.00000000000E+00  0.00000000000E+00  0.13773588581E+04  0.13773588581E+04  0.00000000000E+00 0.  1.
          2   -1    0    0  501    0 -0.00000000000E+00 -0.00000000000E+00 -0.23997372470E+01  0.23997372470E+01  0.00000000000E+00 0.  1.
          2    1    1    2  501    0 -0.19919515141E+02 -0.13854116815E+02  0.13129094325E+04  0.13131336191E+04  0.00000000000E+00 0.  1.
          2    1    1    2  502    0  0.19919515141E+02  0.13854116815E+02  0.62049688307E+02  0.66624976212E+02  0.00000000000E+00 0.  1.
</event>
<event>
 4    1  0.8988950E+003  0.6590765E+02  0.7546771E-02  0.1240982E+00
          2   -1    0    0  502    0  0.00000000000E+00  0.00000000000E+00  0.10816170399E+03  0.10816170399E+03  0.00000000000E+00 0. -1.
          2   -1    0    0  501    0 -0.00000000000E+00 -0.00000000000E+00 -0.80901106244E+02  0.80901106244E+02  0.00000000000E+00 0.  1.
          2    1    1    2  501    0 -0.63655194033E+02 -0.17083149193E+02  0.80713401277E+02  0.10420398677E+03  0.00000000000E+00 0. -1.
          2    1    1    2  502    0  0.63655194033E+02  0.17083149193E+02 -0.53452803531E+02  0.84858823461E+02  0.00000000000E+00 0.  1.
</event>
<event>
 4    1  0.8988950E+003  0.1058322E+03  0.7546771E-02  0.1154068E+00
          2   -1    0    0  502    0  0.00000000000E+00  0.00000000000E+00  0.32474379218E+03  0.32474379218E+03  0.00000000000E+00 0.  1.
          2   -1    0    0  501    0 -0.00000000000E+00 -0.00000000000E+00 -0.23642154452E+03  0.23642154452E+03  0.00000000000E+00 0.  1.
          2    1    1    2  501    0 -0.99593127751E+02  0.35800379391E+02  0.30347111532E+03  0.32139566907E+03  0.00000000000E+00 0.  1.
          2    1    1    2  502    0  0.99593127751E+02 -0.35800379391E+02 -0.21514886766E+03  0.23976966763E+03  0.00000000000E+00 0.  1.
</event>
<event>
 4    1  0.8988950E+003  0.2552799E+02  0.7546771E-02  0.1462983E+00
          2   -1    0    0  501    0  0.00000000000E+00  0.00000000000E+00  0.83911701312E+02  0.83911701312E+02  0.00000000000E+00 0. -1.
          2   -1    0    0  502    0 -0.00000000000E+00 -0.00000000000E+00 -0.28310049206E+02  0.28310049206E+02  0.00000000000E+00 0. -1.
          2    1    1    2  501    0 -0.18567856142E+02  0.17518928459E+02 -0.19998002406E+02  0.32428355437E+02  0.00000000000E+00 0. -1.
          2    1    1    2  502    0  0.18567856142E+02 -0.17518928459E+02  0.75599654513E+02  0.79793395081E+02  0.00000000000E+00 0. -1.
</event>
<event>
 4    1  0.8988950E+003  0.2626877E+02  0.7546771E-02  0.1455095E+00
          2   -1    0    0  502    0  0.00000000000E+00  0.00000000000E+00  0.16469172504E+04  0.16469172504E+04  0.00000000000E+00 0. -1.
          2   -1    0    0  501    0 -0.00000000000E+00 -0.00000000000E+00 -0.16609575652E+02  0.16609575652E+02  0.00000000000E+00 0. -1.
          2    1    1    2  501    0  0.25442552230E+02 -0.65364366357E+01  0.16363591871E+04  0.16365700222E+04  0.00000000000E+00 0. -1.
          2    1    1    2  502    0 -0.25442552230E+02  0.65364366357E+01 -0.60515123892E+01  0.26956803780E+02  0.00000000000E+00 0. -1.
</event>
<event>
 4    1  0.8988950E+003  0.4135261E+02  0.7546771E-02  0.1340737E+00
          2   -1    0    0  502    0  0.00000000000E+00  0.00000000000E+00  0.11788543330E+04  0.11788543330E+04  0.00000000000E+00 0. -1.
          2   -1    0    0  501    0 -0.00000000000E+00 -0.00000000000E+00 -0.19574791267E+03  0.19574791267E+03  0.00000000000E+00 0.  1.
          2    1    1    2  501    0 -0.34722792786E+02 -0.22458086088E+02  0.11763029694E+04  0.11770296146E+04  0.00000000000E+00 0. -1.
          2    1    1    2  502    0  0.34722792786E+02  0.22458086088E+02 -0.19319654904E+03  0.19757263103E+03  0.00000000000E+00 0.  1.
</event>
<event>
 4    1  0.8988950E+003  0.2249668E+02  0.7546771E-02  0.1498917E+00
          2   -1    0    0  502    0  0.00000000000E+00  0.00000000000E+00  0.26909720423E+01  0.26909720423E+01  0.00000000000E+00 0.  1.
          2   -1    0    0  501    0 -0.00000000000E+00 -0.00000000000E+00 -0.19969338759E+03  0.19969338759E+03  0.00000000000E+00 0.  1.
          2    1    1    2  501    0  0.22185878990E+02 -0.37265830200E+01 -0.74091349448E+02  0.77431445231E+02  0.00000000000E+00 0.  1.
          2    1    1    2  502    0 -0.22185878990E+02  0.37265830200E+01 -0.12291106610E+03  0.12495291440E+03  0.00000000000E+00 0.  1.
</event>
<event>
 4    1  0.8988950E+003  0.2276605E+02  0.7546771E-02  0.1495457E+00
          2   -1    0    0  501    0  0.00000000000E+00  0.00000000000E+00  0.14155071264E+01  0.14155071264E+01  0.00000000000E+00 0.  1.
          2   -1    0    0  502    0 -0.00000000000E+00 -0.00000000000E+00 -0.12293726700E+04  0.12293726700E+04  0.00000000000E+00 0.  1.
          2    1    1    2  501    0  0.20851668269E+02  0.91378981386E+01 -0.11296487600E+04  0.11298781413E+04  0.00000000000E+00 0.  1.
          2    1    1    2  502    0 -0.20851668269E+02 -0.91378981386E+01 -0.98308402898E+02  0.10091003584E+03  0.00000000000E+00 0.  1.
</event>
<event>
 4    1  0.8988950E+003  0.4257565E+02  0.7546771E-02  0.1334019E+00
          2   -1    0    0  501    0  0.00000000000E+00  0.00000000000E+00  0.23118876149E+02  0.23118876149E+02  0.00000000000E+00 0. -1.
          2   -1    0    0  502    0 -0.00000000000E+00 -0.00000000000E+00 -0.11174731134E+04  0.11174731134E+04  0.00000000000E+00 0.  1.
          2    1    1    2  501    0 -0.40769735094E+01  0.42379995676E+02 -0.10971019554E+04  0.10979277692E+04  0.00000000000E+00 0.  1.
          2    1    1    2  502    0  0.40769735094E+01 -0.42379995676E+02  0.27477181479E+01  0.42664220391E+02  0.00000000000E+00 0. -1.
</event>
<event>
 4    1  0.8988950E+003  0.2048063E+02  0.7546771E-02  0.1526811E+00
          2   -1    0    0  501    0  0.00000000000E+00  0.00000000000E+00  0.15396106217E+04  0.15396106217E+04  0.00000000000E+00 0. -1.
          2   -1    0    0  502    0 -0.00000000000E+00 -0.00000000000E+00 -0.59369543805E+00  0.59369543805E+00  0.00000000000E+00 0. -1.
          2    1    1    2  501    0 -0.20474559508E+02  0.49851895702E+00  0.20302176902E+03  0.20405218647E+03  0.00000000000E+00 0. -1.
          2    1    1    2  502    0  0.20474559508E+02 -0.49851895702E+00  0.13359951572E+04  0.13361521306E+04  0.00000000000E+00 0. -1.
</event>
<event>
 4    1  0.8988950E+003  0.4317090E+02  0.7546771E-02  0.1330843E+00
          2   -1    0    0  502    0  0.00000000000E+00  0.00000000000E+00  0.15646221769E+03  0.15646221769E+03  0.00000000000E+00 0.  1.
          2   -1    0    0  501    0 -0.00000000000E+00 -0.00000000000E+00 -0.26639007164E+02  0.26639007164E+02  0.00000000000E+00 0. -1.
          2    1    1    2  501    0 -0.12701891566E+02 -0.41260008678E+02  0.13298295242E+03  0.13981484900E+03  0.00000000000E+00 0.  1.
          2    1    1    2  502    0  0.12701891566E+02  0.41260008678E+02 -0.31597419003E+01  0.43286375852E+02  0.00000000000E+00 0. -1.
</event>
<event>
 4    1  0.8988950E+003  0.2059740E+02  0.7546771E-02  0.1525091E+00
          2   -1    0    0  501    0  0.00000000000E+00  0.00000000000E+00  0.16116592945E+03  0.16116592945E+03  0.00000000000E+00 0. -1.
          2   -1    0    0  502    0 -0.00000000000E+00 -0.00000000000E+00 -0.85875067587E+01  0.85875067587E+01  0.00000000000E+00 0. -1.
          2    1    1    2  501    0 -0.12238165153E+02 -0.16567445675E+02  0.56086703500E+01  0.21347368119E+02  0.00000000000E+00 0. -1.
          2    1    1    2  502    0  0.12238165153E+02  0.16567445675E+02  0.14696975234E+03  0.14840606809E+03  0.00000000000E+00 0. -1.
</event>
<event>
 4    1  0.8988950E+003  0.2045241E+02  0.7546771E-02  0.1527228E+00
          2   -1    0    0  501    0  0.00000000000E+00  0.00000000000E+00  0.16751045513E+02  0.16751045513E+02  0.00000000000E+00 0.  1.
          2   -1    0    0  502    0 -0.00000000000E+00 -0.00000000000E+00 -0.68809546568E+02  0.68809546568E+02  0.00000000000E+00 0.  1.
          2    1    1    2  501    0 -0.17538735687E+02 -0.10521122845E+02 -0.60175600140E+02  0.63556306749E+02  0.00000000000E+00 0.  1.
          2    1    1    2  502    0  0.17538735687E+02  0.10521122845E+02  0.81170990843E+01  0.22004285332E+02  0.00000000000E+00 0.  1.
</event>
<event>
 4    1  0.8988950E+003  0.7675674E+02  0.7546771E-02  0.1211584E+00
          2   -1    0    0  501    0  0.00000000000E+00  0.00000000000E+00  0.10735309231E+04  0.10735309231E+04  0.00000000000E+00 0. -1.
          2   -1    0    0  502    0 -0.00000000000E+00 -0.00000000000E+00 -0.28589323562E+02  0.28589323562E+02  0.00000000000E+00 0.  1.
          2    1    1    2  501    0  0.22985322284E+02  0.73234365009E+02  0.27117619964E+02  0.81406158068E+02  0.00000000000E+00 0.  1.
          2    1    1    2  502    0 -0.22985322284E+02 -0.73234365009E+02  0.10178239796E+04  0.10207140886E+04  0.00000000000E+00 0. -1.
</event>
<event>
 4    1  0.8988950E+003  0.2965786E+02  0.7546771E-02  0.1422593E+00
          2   -1    0    0  502    0  0.00000000000E+00  0.00000000000E+00  0.55032881812E+01  0.55032881812E+01  0.00000000000E+00 0. -1.
          2   -1    0    0  501    0 -0.00000000000E+00 -0.00000000000E+00 -0.22464174148E+03  0.22464174148E+03  0.00000000000E+00 0. -1.
          2    1    1    2  501    0  0.10583578959E+02 -0.27705170612E+02 -0.47759845558E+02  0.56219137933E+02  0.00000000000E+00 0. -1.
          2    1    1    2  502    0 -0.10583578959E+02  0.27705170612E+02 -0.17137860774E+03  0.17392589173E+03  0.00000000000E+00 0. -1.
</event>
<event>
 4    1  0.8988950E+003  0.2310024E+02  0.7546771E-02  0.1491243E+00
          2   -1    0    0  502    0  0.00000000000E+00  0.00000000000E+00  0.15103343386E+02  0.15103343386E+02  0.00000000000E+00 0. -1.
          2   -1    0    0  501    0 -0.00000000000E+00 -0.00000000000E+00 -0.12350622159E+03  0.12350622159E+03  0.00000000000E+00 0. -1.
          2    1    1    2  501    0 -0.21062362941E+02 -0.94867338650E+01  0.43572366811E+01  0.23507589489E+02  0.00000000000E+00 0. -1.
          2    1    1    2  502    0  0.21062362941E+02  0.94867338650E+01 -0.11276011488E+03  0.11510197548E+03  0.00000000000E+00 0. -1.
</event>
<event>
 4    1  0.8988950E+003  0.2011294E+02  0.7546771E-02  0.1532316E+00
          2   -1    0    0  501    0  0.00000000000E+00  0.00000000000E+00  0.72953358953E+02  0.72953358953E+02  0.00000000000E+00 0.  1.
          2   -1    0    0  502    0 -0.00000000000E+00 -0.00000000000E+00 -0.78077510032E+01  0.78077510032E+01  0.00000000000E+00 0. -1.
          2    1    1    2  501    0 -0.29529798050E+01 -0.19894976241E+02  0.54310959837E+02  0.57915546512E+02  0.00000000000E+00 0.  1.
          2    1    1    2  502    0  0.29529798050E+01  0.19894976241E+02  0.10834648113E+02  0.22845563445E+02  0.00000000000E+00 0. -1.
</event>
<event>
 4    1  0.8988950E+003  0.2570556E+02  0.7546771E-02  0.1461063E+00
          2   -1    0    0  501    0  0.00000000000E+00  0.00000000000E+00  0.38081948990E+03  0.38081948990E+03  0.00000000000E+00 0. -1.
          2   -1    0    0  502    0 -0.00000000000E+00 -0.00000000000E+00 -0.53150672509E+01  0.53150672509E+01  0.00000000000E+00 0.  1.
          2    1    1    2  501    0 -0.10769680895E+02  0.23340730441E+02  0.29302555964E+02  0.38979680734E+02  0.00000000000E+00 0.  1.
          2    1    1    2  502    0  0.10769680895E+02 -0.23340730441E+02  0.34620186668E+03  0.34715487641E+03  0.00000000000E+00 0. -1.
</event>
<event>
 4    1  0.8988950E+003  0.3083269E+02  0.7546771E-02  0.1412495E+00
          2   -1    0    0  502    0  0.00000000000E+00  0.00000000000E+00  0.90400366740E+03  0.90400366740E+03  0.00000000000E+00 0. -1.
          2   -1    0    0  501    0 -0.00000000000E+00 -0.00000000000E+00 -0.19052609337E+01  0.19052609337E+01  0.00000000000E+00 0. -1.
          2    1    1    2  501    0 -0.18492079619E+02  0.24671801899E+02  0.75424189810E+03  0.75487184056E+03  0.00000000000E+00 0. -1.
          2    1    1    2  502    0  0.18492079619E+02 -0.24671801899E+02  0.14785650836E+03  0.15103708777E+03  0.00000000000E+00 0. -1.
</event>
<event>
 4    1  0.8988950E+003  0.3199406E+02  0.7546771E-02  0.1403024E+00
          2   -1    0    0  502    0  0.00000000000E+00  0.00000000000E+00  0.14127631085E+04  0.14127631085E+04  0.00000000000E+00 0. -1.
          2   -1    0    0  501    0 -0.00000000000E+00 -0.00000000000E+00 -0.26300047186E+01  0.26300047186E+01  0.00000000000E+00 0. -1.
          2    1    1    2  501    0  0.81590395650E+01 -0.30936222764E+02  0.13074429535E+04  0.13078343536E+04  0.00000000000E+00 0. -1.
          2    1    1    2  502    0 -0.81590395650E+01  0.30936222764E+02  0.10269015030E+03  0.10755875963E+03  0.00000000000E+00 0. -1.
</event>
<event>
 4    1  0.8988950E+003  0.3893145E+02  0.7546771E-02  0.1354864E+00
          2   -1    0    0  501    0  0.00000000000E+00  0.00000000000E+00  0.45047189143E+03  0.45047189143E+03  0.00000000000E+00 0. -1.
          2   -1    0    0  502    0 -0.00000000000E+00 -0.00000000000E+00 -0.15216405386E+04  0.15216405386E+04  0.00000000000E+00 0.  1.
          2    1    1    2  501    0 -0.28332279862E+02 -0.26700923946E+02 -0.15205497685E+04  0.15210480781E+04  0.00000000000E+00 0.  1.
          2    1    1    2  502    0  0.28332279862E+02  0.26700923946E+02  0.44938112131E+03  0.45106435196E+03  0.00000000000E+00 0. -1.
</event>
<event>
 4    1  0.8988950E+003  0.2931211E+02  0.7546771E-02  0.1425670E+00
          2   -1    0    0  502    0  0.00000000000E+00  0.00000000000E+00  0.17411818197E+03  0.17411818197E+03  0.00000000000E+00 0.  1.
          2   -1    0    0  501    0 -0.00000000000E+00 -0.00000000000E+00 -0.25817379369E+03  0.25817379369E+03  0.00000000000E+00 0. -1.
          2    1    1    2  501    0  0.15776251722E+02 -0.24704441428E+02  0.17204257470E+03  0.17452176670E+03  0.00000000000E+00 0.  1.
          2    1    1    2  502    0 -0.15776251722E+02  0.24704441428E+02 -0.25609818641E+03  0.25777020896E+03  0.00000000000E+00 0. -1.
</event>
<event>
 4    1  0.8988950E+003  0.2036771E+02  0.7546771E-02  0.1528487E+00
          2   -1    0    0  501    0  0.00000000000E+00  0.00000000000E+00  0.12044145815E+02  0.12044145815E+02  0.00000000000E+00 0.  1.
          2   -1    0    0  502    0 -0.00000000000E+00 -0.00000000000E+00 -0.53200567975E+02  0.53200567975E+02  0.00000000000E+00 0. -1.
          2    1    1    2  501    0  0.50142892649E+01  0.19740830402E+02 -0.39948619048E+02  0.44841227075E+02  0.00000000000E+00 0. -1.
          2    1    1    2  502    0 -0.50142892649E+01 -0.19740830402E+02 -0.12078031124E+01  0.20403486715E+02  0.00000000000E+00 0.  1.
</event>
<event>
 4    1  0.8988950E+003  0.5021227E+02  0.7546771E-02  0.1297255E+00
          2   -1    0    0  501    0  0.00000000000E+00  0.00000000000E+00  0.36596432053E+02  0.36596432053E+02  0.00000000000E+00 0. -1.
          2   -1    0    0  502    0 -0.00000000000E+00 -0.00000000000E+00 -0.10635764331E+04  0.10635764331E+04  0.00000000000E+00 0.  1.
          2    1    1    2  501    0  0.20115024051E+02  0.46007154011E+02 -0.10454620540E+04  0.10466671767E+04  0.00000000000E+00 0.  1.
          2    1    1    2  502    0 -0.20115024051E+02 -0.46007154011E+02  0.18482052977E+02  0.53505688436E+02  0.00000000000E+00 0. -1.
</event>
<event>
 4    1  0.8988950E+003  0.4074824E+02  0.7546771E-02  0.1344156E+00
          2   -1    0    0  501    0  0.00000000000E+00  0.00000000000E+00  0.50005222421E+02  0.50005222421E+02  0.00000000000E+00 0.  1.
          2   -1    0    0  502    0 -0.00000000000E+00 -0.00000000000E+00 -0.50332053785E+02  0.50332053785E+02  0.00000000000E+00 0. -1.
          2    1    1    2  501    0 -0.59262031831E+01 -0.40314995269E+02 -0.29428683559E+02  0.50263964664E+02  0.00000000000E+00 0. -1.
          2    1    1    2  502    0  0.59262031831E+01  0.40314995269E+02  0.29101852195E+02  0.50073311543E+02  0.00000000000E+00 0.  1.
</event>
<event>
 4    1  0.8988950E+003  0.2550318E+02  0.7546771E-02  0.1463252E+00
          2   -1    0    0  501    0  0.00000000000E+00  0.00000000000E+00  0.11559685205E+04  0.11559685205E+04  0.00000000000E+00 0.  1.
          2   -1    0    0  502    0 -0.00000000000E+00 -0.00000000000E+00 -0.88307989203E+00  0.88307989203E+00  0.00000000000E+00 0.  1.
          2    1    1    2  501    0  0.15479935728E+02 -0.20267795371E+02  0.22911676051E+03  0.23053178064E+03  0.00000000000E+00 0.  1.
          2    1    1    2  502    0 -0.15479935728E+02  0.20267795371E+02  0.92596868007E+03  0.92631981972E+03  0.00000000000E+00 0.  1.
</event>
<event>
 4    1  0.8988950E+003  0.2575902E+02  0.7546771E-02  0.1460489E+00
          2   -1    0    0  502    0  0.00000000000E+00  0.00000000000E+00  0.11097782278E+02  0.11097782278E+02  0.00000000000E+00 0.  1.
          2   -1    0    0  501    0 -0.00000000000E+00 -0.00000000000E+00 -0.62840266093E+02  0.62840266093E+02  0.00000000000E+00 0. -1.
          2    1    1    2  501    0 -0.23727169013E+02 -0.10027403314E+02 -0.34017268021E+02  0.42669683503E+02  0.00000000000E+00 0. -1.
          2    1    1    2  502    0  0.23727169013E+02  0.10027403314E+02 -0.17725215793E+02  0.31268364868E+02  0.00000000000E+00 0.  1.
</event>
<event>
 4    1  0.8988950E+003  0.2045772E+02  0.7546771E-02  0.1527150E+00
          2   -1    0    0  502    0  0.00000000000E+00  0.00000000000E+00  0.37919515596E+03  0.37919515596E+03  0.00000000000E+00 0. -1.
          2   -1    0    0  501    0 -0.00000000000E+00 -0.00000000000E+00 -0.43136562252E+03  0.43136562252E+03  0.00000000000E+00 0.  1.
          2    1    1    2  501    0 -0.53752231512E+00 -0.20450660512E+02  0.37867634404E+03  0.37922854847E+03  0.00000000000E+00 0. -1.
          2    1    1    2  502    0  0.53752231512E+00  0.20450660512E+02 -0.43084681060E+03  0.43133223001E+03  0.00000000000E+00 0.  1.
</event>
<event>
 4    1  0.8988950E+003  0.2715108E+02  0.7546771E-02  0.1446096E+00
          2   -1    0    0  502    0  0.00000000000E+00  0.00000000000E+00  0.29137281478E+01  0.29137281478E+01  0.00000000000E+00 0.  1.
          2   -1    0    0  501    0 -0.00000000000E+00 -0.00000000000E+00 -0.25338587097E+03  0.25338587097E+03  0.00000000000E+00 0.  1.
          2    1    1    2  501    0 -0.23909970062E+02 -0.12864471242E+02 -0.12025314948E+03  0.12328017379E+03  0.00000000000E+00 0.  1.
          2    1    1    2  502    0  0.23909970062E+02  0.12864471242E+02 -0.13021899334E+03  0.13301942533E+03  0.00000000000E+00 0.  1.
</event>
<event>
 4    1  0.8988950E+003  0.4345867E+02  0.7546771E-02  0.1329329E+00
          2   -1    0    0  502    0  0.00000000000E+00  0.00000000000E+00  0.33147741276E+02  0.33147741276E+02  0.00000000000E+00 0.  1.
          2   -1    0    0  501    0 -0.00000000000E+00 -0.00000000000E+00 -0.12985333911E+03  0.12985333911E+03  0.00000000000E+00 0. -1.
          2    1    1    2  501    0 -0.21228079843E+01  0.43406794674E+02  0.12703073990E+02  0.45277193226E+02  0.00000000000E+00 0.  1.
          2    1    1    2  502    0  0.21228079843E+01 -0.43406794674E+02 -0.10940867182E+03  0.11772388716E+03  0.00000000000E+00 0. -1.
</event>
<event>
 4    1  0.8988950E+003  0.3260522E+02  0.7546771E-02  0.1398229E+00
          2   -1    0    0  501    0  0.00000000000E+00  0.00000000000E+00  0.31602475144E+03  0.31602475144E+03  0.00000000000E+00 0.  1.
          2   -1    0    0  502    0 -0.00000000000E+00 -0.00000000000E+00 -0.10054542129E+04  0.10054542129E+04  0.00000000000E+00 0. -1.
          2    1    1    2  501    0 -0.22802039317E+02  0.23305957307E+02 -0.10043479586E+04  0.10048770684E+04  0.00000000000E+00 0. -1.
          2    1    1    2  502    0  0.22802039317E+02 -0.23305957307E+02  0.31491849717E+03  0.31660189592E+03  0.00000000000E+00 0.  1.
</event>
<event>
 4    1  0.8988950E+003  0.2856924E+02  0.7546771E-02  0.1432451E+00
          2   -1    0    0  502    0  0.00000000000E+00  0.00000000000E+00  0.10795285596E+04  0.10795285596E+04  0.00000000000E+00 0. -1.
          2   -1    0    0  501    0 -0.00000000000E+00 -0.00000000000E+00 -0.57854899269E+01  0.57854899269E+01  0.00000000000E+00 0. -1.
          2    1    1    2  501    0  0.20791601354E+02 -0.19593644994E+02  0.10428292346E+04  0.10432205012E+04  0.00000000000E+00 0. -1.
          2    1    1    2  502    0 -0.20791601354E+02  0.19593644994E+02  0.30913835080E+02  0.42093548323E+02  0.00000000000E+00 0. -1.
</event>
<event>
 4    1  0.8988950E+003  0.3832740E+02  0.7546771E-02  0.1358576E+00
          2   -1    0    0  501    0  0.00000000000E+00  0.00000000000E+00  0.21549360553E+04  0.21549360553E+04  0.00000000000E+00 0. -1.
          2   -1    0    0  502    0 -0.00000000000E+00 -0.00000000000E+00 -0.11667912521E+02  0.11667912521E+02  0.00000000000E+00 0. -1.
          2    1    1    2  501    0 -0.76208402624E+01  0.37562117886E+02  0.20453732192E+02  0.43443584877E+02  0.00000000000E+00 0. -1.
          2    1    1    2  502    0  0.76208402624E+01 -0.37562117886E+02  0.21228144106E+04  0.21231603830E+04  0.00000000000E+00 0. -1.
</event>
<event>
 4    1  0.8988950E+003  0.2227086E+02  0.7546771E-02  0.1501863E+00
          2   -1    0    0  501    0  0.00000000000E+00  0.00000000000E+00  0.53726638806E+03  0.53726638806E+03  0.00000000000E+00 0. -1.
          2   -1    0    0  502    0 -0.00000000000E+00 -0.00000000000E+00 -0.25747311710E+01  0.25747311710E+01  0.00000000000E+00 0. -1.
          2    1    1    2  501    0  0.21827705589E+02 -0.44207022723E+01  0.51165293798E+02  0.55802138215E+02  0.00000000000E+00 0. -1.
          2    1    1    2  502    0 -0.21827705589E+02  0.44207022723E+01  0.48352636309E+03  0.48403898101E+03  0.00000000000E+00 0. -1.
</event>
<event>
 4    1  0.8988950E+003  0.2483007E+02  0.7546771E-02  0.1470713E+00
          2   -1    0    0  501    0  0.00000000000E+00  0.00000000000E+00  0.33191699085E+01  0.33191699085E+01  0.00000000000E+00 0.  1.
          2   -1    0    0  502    0 -0.00000000000E+00 -0.00000000000E+00 -0.92565328594E+03  0.92565328594E+03  0.00000000000E+00 0.  1.
          2    1    1    2  501    0 -0.11070988997E+02  0.22225338483E+02 -0.87644268405E+03  0.87679433786E+03  0.00000000000E+00 0.  1.
          2    1    1    2  502    0  0.11070988997E+02 -0.22225338483E+02 -0.45891431976E+02  0.52178117989E+02  0.00000000000E+00 0.  1.
</event>
<event>
 4    1  0.8988950E+003  0.2773636E+02  0.7546771E-02  0.1440348E+00
          2   -1    0    0  502    0  0.00000000000E+00  0.00000000000E+00  0.10883745765E+04  0.10883745765E+04  0.00000000000E+00 0.  1.
          2   -1    0    0  501    0 -0.00000000000E+00 -0.00000000000E+00 -0.20259300487E+03  0.20259300487E+03  0.00000000000E+00 0.  1.
          2    1    1    2  501    0 -0.12037698150E+02  0.24987986178E+02  0.10872475588E+04  0.10876012872E+04  0.00000000000E+00 0.  1.
          2    1    1    2  502    0  0.12037698150E+02 -0.24987986178E+02 -0.20146598719E+03  0.20336629422E+03  0.00000000000E+00 0.  1.
</event>
<event>
 4    1  0.8988950E+003  0.2118453E+02  0.7546771E-02  0.1516646E+00
          2   -1    0    0  502    0  0.00000000000E+00  0.00000000000E+00  0.13119496885E+04  0.13119496885E+04  0.00000000000E+00 0. -1.
          2   -1    0    0  501    0 -0.00000000000E+00 -0.00000000000E+00 -0.41427437399E+01  0.41427437399E+01  0.00000000000E+00 0. -1.
          2    1    1    2  501    0 -0.77178790720E+01 -0.19728622006E+02  0.12841963717E+04  0.12843710933E+04  0.00000000000E+00 0. -1.
          2    1    1    2  502    0  0.77178790720E+01  0.19728622006E+02  0.23610572992E+02  0.31721338885E+02  0.00000000000E+00 0. -1.
</event>
<event>
 4    1  0.8988950E+003  0.2464559E+02  0.7546771E-02  0.1472807E+00
          2   -1    0    0  502    0  0.00000000000E+00  0.00000000000E+00  0.53922963734E+01  0.53922963734E+01  0.00000000000E+00 0.  1.
          2   -1    0    0  501    0 -0.00000000000E+00 -0.00000000000E+00 -0.54852648699E+03  0.54852648699E+03  0.00000000000E+00 0.  1.
          2    1    1    2  501    0 -0.39379584336E+01 -0.24328949084E+02 -0.24677705906E+02  0.34876846889E+02  0.00000000000E+00 0.  1.
          2    1    1    2  502    0  0.39379584336E+01  0.24328949084E+02 -0.51845648471E+03  0.51904193648E+03  0.00000000000E+00 0.  1.
</event>
<event>
 4    1  0.8988950E+003  0.2195161E+02  0.7546771E-02  0.1506100E+00
          2   -1    0    0  501    0  0.00000000000E+00  0.00000000000E+00  0.23711284630E+01  0.23711284630E+01  0.00000000000E+00 0. -1.
          2   -1    0    0  502    0 -0.00000000000E+00 -0.00000000000E+00 -0.15514331170E+04  0.15514331170E+04  0.00000000000E+00 0.  1.
          2    1    1    2  501    0  0.21743117811E+02  0.30182982146E+01 -0.14987638104E+04  0.14989245587E+04  0.00000000000E+00 0.  1.
          2    1    1    2  502    0 -0.21743117811E+02 -0.30182982146E+01 -0.50298178187E+02  0.54879686817E+02  0.00000000000E+00 0. -1.
</event>
<event>
 4    1  0.8988950E+003  0.2004278E+02  0.7546771E-02  0.1533383E+00
          2   -1    0    0  501    0  0.00000000000E+00  0.00000000000E+00  0.25724968303E+03  0.25724968303E+03  0.00000000000E+00 0. -1.
          2   -1    0    0  502    0 -0.00000000000E+00 -0.00000000000E+00 -0.21650122531E+01  0.21650122531E+01  0.00000000000E+00 0. -1.
          2    1    1    2  501    0 -0.19922538604E+02  0.21921210352E+01  0.59064048875E+02  0.62372067535E+02  0.00000000000E+00 0. -1.
          2    1    1    2  502    0  0.19922538604E+02 -0.21921210352E+01  0.19602062191E+03  0.19704262775E+03  0.00000000000E+00 0. -1.
</event>
<event>
 4    1  0.8988950E+003  0.2111467E+02  0.7546771E-02  0.1517634E+00
          2   -1    0    0  501    0  0.00000000000E+00  0.00000000000E+00  0.54653544211E+01  0.54653544211E+01  0.00000000000E+00 0. -1.
          2   -1    0    0  502    0 -0.00000000000E+00 -0.00000000000E+00 -0.26250645170E+03  0.26250645170E+03  0.00000000000E+00 0.  1.
          2    1    1    2  501    0  0.17053370225E+02 -0.12450370142E+02 -0.23975715157E+03  0.24068510731E+03  0.00000000000E+00 0.  1.
          2    1    1    2  502    0 -0.17053370225E+02  0.12450370142E+02 -0.17283945713E+02  0.27286698813E+02  0.00000000000E+00 0. -1.
</event>
<event>
 4    1  0.8988950E+003  0.2393376E+02  0.7546771E-02  0.1481094E+00
          2   -1    0    0  501    0  0.00000000000E+00  0.00000000000E+00  0.20196048304E+02  0.20196048304E+02  0.00000000000E+00 0.  1.
          2   -1    0    0  502    0 -0.00000000000E+00 -0.00000000000E+00 -0.12204824601E+03  0.12204824601E+03  0.00000000000E+00 0. -1.
          2    1    1    2  501    0  0.14677679581E+02 -0.18904775645E+02 -0.11323845818E+03  0.11574011073E+03  0.00000000000E+00 0. -1.
          2    1    1    2  502    0 -0.14677679581E+02  0.18904775645E+02  0.11386260474E+02  0.26504183587E+02  0.00000000000E+00 0.  1.
</event>
<event>
 4    1  0.8988950E+003  0.3817558E+02  0.7546771E-02  0.1359522E+00
          2   -1    0    0  502    0  0.00000000000E+00  0.00000000000E+00  0.11179661503E+02  0.11179661503E+02  0.00000000000E+00 0. -1.
          2   -1    0    0  501    0 -0.00000000000E+00 -0.00000000000E+00 -0.18684081593E+04  0.18684081593E+04  0.00000000000E+00 0.  1.
          2    1    1    2  501    0  0.29834858206E+02  0.23817139042E+02 -0.22197927977E+02  0.44160195684E+02  0.00000000000E+00 0. -1.
          2    1    1    2  502    0 -0.29834858206E+02 -0.23817139042E+02 -0.18350305698E+04  0.18354276251E+04  0.00000000000E+00 0.  1.
</event>
<event>
 4    1  0.8988950E+003  0.2075065E+02  0.7546771E-02  0.1522855E+00
          2   -1    0    0  502    0  0.00000000000E+00  0.00000000000E+00  0.21879440151E+03  0.21879440151E+03  0.00000000000E+00 0.  1.
          2   -1    0    0  501    0 -0.00000000000E+00 -0.00000000000E+00 -0.43544191345E+01  0.43544191345E+01  0.00000000000E+00 0.  1.
          2    1    1    2  501    0  0.10029030399E+02  0.18166126091E+02  0.18981844722E+03  0.19094929298E+03  0.00000000000E+00 0.  1.
          2    1    1    2  502    0 -0.10029030399E+02 -0.18166126091E+02  0.24621535160E+02  0.32199527660E+02  0.00000000000E+00 0.  1.
</event>
<event>
 4    1  0.8988950E+003  0.2919872E+02  0.7546771E-02  0.1426690E+00
          2   -1    0    0  502    0  0.00000000000E+00  0.00000000000E+00  0.30829515443E+03  0.30829515443E+03  0.00000000000E+00 0. -1.
          2   -1    0    0  501    0 -0.00000000000E+00 -0.00000000000E+00 -0.57585656745E+01  0.57585656745E+01  0.00000000000E+00 0.  1.
          2    1    1    2  501    0 -0.10737555071E+02  0.27152723575E+02  0.26447723722E+03  0.26608414927E+03  0.00000000000E+00 0. -1.
          2    1    1    2  502    0  0.10737555071E+02 -0.27152723575E+02  0.38059351533E+02  0.47969570829E+02  0.00000000000E+00 0.  1.
</event>
<event>
 4    1  0.8988950E+003  0.2439368E+02  0.7546771E-02  0.1475702E+00
          2   -1    0    0  502    0  0.00000000000E+00  0.00000000000E+00  0.12479737031E+02  0.12479737031E+02  0.00000000000E+00 0. -1.
          2   -1    0    0  501    0 -0.00000000000E+00 -0.00000000000E+00 -0.71405491786E+02  0.71405491786E+02  0.00000000000E+00 0.  1.
          2    1    1    2  501    0 -0.19820637570E+02  0.14219497839E+02 -0.52868938226E+01  0.24960028821E+02  0.00000000000E+00 0. -1.
          2    1    1    2  502    0  0.19820637570E+02 -0.14219497839E+02 -0.53638860932E+02  0.58925199996E+02  0.00000000000E+00 0.  1.
</event>
<event>
 4    1  0.8988950E+003  0.2299828E+02  0.7546771E-02  0.1492520E+00
          2   -1    0    0  502    0  0.00000000000E+00  0.00000000000E+00  0.11824553812E+02  0.11824553812E+02  0.00000000000E+00 0.  1.
          2   -1    0    0  501    0 -0.00000000000E+00 -0.00000000000E+00 -0.95244704284E+03  0.95244704284E+03  0.00000000000E+00 0.  1.
          2    1    1    2  501    0 -0.22123168437E+02 -0.62838176200E+01  0.36689669497E+00  0.23001207768E+02  0.00000000000E+00 0.  1.
          2    1    1    2  502    0  0.22123168437E+02  0.62838176200E+01 -0.94098938573E+03  0.94127038889E+03  0.00000000000E+00 0.  1.
</event>
<event>
 4    1  0.8988950E+003  0.2560711E+02  0.7546771E-02  0.1462125E+00
          2   -1    0    0  502    0  0.00000000000E+00  0.00000000000E+00  0.94764215593E+03  0.94764215593E+03  0.00000000000E+00 0.  1.
          2   -1    0    0  501    0 -0.00000000000E+00 -0.00000000000E+00 -0.71686046411E+00  0.71686046411E+00  0.00000000000E+00 0.  1.
          2    1    1    2  501    0  0.19711898393E+02 -0.16345180582E+02  0.38507533850E+03  0.38592582214E+03  0.00000000000E+00 0.  1.
          2    1    1    2  502    0 -0.19711898393E+02  0.16345180582E+02  0.56184995696E+03  0.56243319426E+03  0.00000000000E+00 0.  1.
</event>
<event>
 4    1  0.8988950E+003  0.2598665E+02  0.7546771E-02  0.1458062E+00
          2   -1    0    0  501    0  0.00000000000E+00  0.00000000000E+00  0.63027127489E+02  0.63027127489E+02  0.00000000000E+00 0. -1.
          2   -1    0    0  502    0 -0.00000000000E+00 -0.00000000000E+00 -0.94316180556E+03  0.94316180556E+03  0.00000000000E+00 0. -1.
          2    1    1    2  501    0 -0.78323150334E+01  0.24778231150E+02 -0.94029601085E+03  0.94065503450E+03  0.00000000000E+00 0. -1.
          2    1    1    2  502    0  0.78323150334E+01 -0.24778231150E+02  0.60161332781E+02  0.65533898554E+02  0.00000000000E+00 0. -1.
</event>
<event>
 4    1  0.8988950E+003  0.2755968E+02  0.7546771E-02  0.1442066E+00
          2   -1    0    0  502    0  0.00000000000E+00  0.00000000000E+00  0.94820582097E+02  0.94820582097E+02  0.00000000000E+00 0. -1.
          2   -1    0    0  501    0 -0.00000000000E+00 -0.00000000000E+00 -0.39638975524E+03  0.39638975524E+03  0.00000000000E+00 0. -1.
          2    1    1    2  501    0 -0.12512526047E+02 -0.24555498969E+02  0.92326322746E+02  0.96351884826E+02  0.00000000000E+00 0. -1.
          2    1    1    2  502    0  0.12512526047E+02  0.24555498969E+02 -0.39389549589E+03  0.39485845251E+03  0.00000000000E+00 0. -1.
</event>
<event>
 4    1  0.8988950E+003  0.2067616E+02  0.7546771E-02  0.1523939E+00
          2   -1    0    0  501    0  0.00000000000E+00  0.00000000000E+00  0.13703144255E+03  0.13703144255E+03  0.00000000000E+00 0.  1.
          2   -1    0    0  502    0 -0.00000000000E+00 -0.00000000000E+00 -0.14962117168E+02  0.14962117168E+02  0.00000000000E+00 0.  1.
          2    1    1    2  501    0  0.15977270086E+02 -0.13123652920E+02 -0.65764342239E+01  0.21696841071E+02  0.00000000000E+00 0.  1.
          2    1    1    2  502    0 -0.15977270086E+02  0.13123652920E+02  0.12864575961E+03  0.13029671865E+03  0.00000000000E+00 0.  1.
</event>
<event>
 4    1  0.8988950E+003  0.2248771E+02  0.7546771E-02  0.1499033E+00
          2   -1    0    0  502    0  0.00000000000E+00  0.00000000000E+00  0.10172007841E+02  0.10172007841E+02  0.00000000000E+00 0.  1.
          2   -1    0    0  501    0 -0.00000000000E+00 -0.00000000000E+00 -0.11888570090E+03  0.11888570090E+03  0.00000000000E+00 0.  1.
          2    1    1    2  501    0  0.11303817035E+02 -0.19440190365E+02 -0.51357263027E+01  0.23066706866E+02  0.00000000000E+00 0.  1.
          2    1    1    2  502    0 -0.11303817035E+02  0.19440190365E+02 -0.10357796676E+03  0.10599100188E+03  0.00000000000E+00 0.  1.
</event>
<event>
 4    1  0.8988950E+003  0.2548016E+02  0.7546771E-02  0.1463503E+00
          2   -1    0    0  502    0  0.00000000000E+00  0.00000000000E+00  0.74808977034E+03  0.74808977034E+03  0.00000000000E+00 0. -1.
          2   -1    0    0  501    0 -0.00000000000E+00 -0.00000000000E+00 -0.49871937179E+02  0.49871937179E+02  0.00000000000E+00 0.  1.
          2    1    1    2  501    0  0.77164033326E+01  0.24283648031E+02  0.74460304162E+03  0.74503887686E+03  0.00000000000E+00 0. -1.
          2    1    1    2  502    0 -0.77164033326E+01 -0.24283648031E+02 -0.46385208454E+02  0.52922830663E+02  0.00000000000E+00 0.  1.
</event>
<event>
 4    1  0.8988950E+003  0.2058134E+02  0.7546771E-02  0.1525327E+00
          2   -1    0    0  501    0  0.00000000000E+00  0.00000000000E+00  0.10710864228E+04  0.10710864228E+04  0.00000000000E+00 0.  1.
          2   -1    0    0  502    0 -0.00000000000E+00 -0.00000000000E+00 -0.21871909128E+02  0.21871909128E+02  0.00000000000E+00 0. -1.
          2    1    1    2  501    0 -0.19961052359E+02 -0.50147808975E+01 -0.16908770403E+02  0.26636406576E+02  0.00000000000E+00 0. -1.
          2    1    1    2  502    0  0.19961052359E+02  0.50147808975E+01  0.10661232840E+04  0.10663219253E+04  0.00000000000E+00 0.  1.
</event>
<event>
 4    1  0.8988950E+003  0.7705502E+02  0.7546771E-02  0.1210855E+00
          2   -1    0    0  501    0  0.00000000000E+00  0.00000000000E+00  0.67265298740E+03  0.67265298740E+03  0.00000000000E+00 0.  1.
          2   -1    0    0  502    0 -0.00000000000E+00 -0.00000000000E+00 -0.55948700755E+02  0.55948700755E+02  0.00000000000E+00 0.  1.
          2    1    1    2  501    0 -0.69596289007E+02 -0.33073151738E+02 -0.25978255375E+02  0.81316336377E+02  0.00000000000E+00 0.  1.
          2    1    1    2  502    0  0.69596289007E+02  0.33073151738E+02  0.64268254202E+03  0.64728535178E+03  0.00000000000E+00 0.  1.
</event>
<event>
 4    1  0.8988950E+003  0.2052734E+02  0.7546771E-02  0.1526121E+00
          2   -1    0    0  502    0  0.00000000000E+00  0.00000000000E+00  0.28898302868E+03  0.28898302868E+03  0.00000000000E+00 0. -1.
          2   -1    0    0  501    0 -0.00000000000E+00 -0.00000000000E+00 -0.58348796390E+02  0.58348796390E+02  0.00000000000E+00 0.  1.
          2    1    1    2  501    0  0.19884478526E+02  0.50969902307E+01  0.28679936969E+03  0.28753304201E+03  0.00000000000E+00 0. -1.
          2    1    1    2  502    0 -0.19884478526E+02 -0.50969902307E+01 -0.56165137400E+02  0.59798783055E+02  0.00000000000E+00 0.  1.
</event>
<event>
 4    1  0.8988950E+003  0.5973782E+02  0.7546771E-02  0.1260726E+00
          2   -1    0    0  502    0  0.00000000000E+00  0.00000000000E+00  0.59802466096E+03  0.59802466096E+03  0.00000000000E+00 0. -1.
          2   -1    0    0  501    0 -0.00000000000E+00 -0.00000000000E+00 -0.11371042371E+03  0.11371042371E+03  0.00000000000E+00 0. -1.
          2    1    1    2  501    0 -0.46422392832E+01 -0.59557168986E+02  0.58856117867E+03  0.59158504697E+03  0.00000000000E+00 0. -1.
          2    1    1    2  502    0  0.46422392832E+01  0.59557168986E+02 -0.10424694142E+03  0.12015003770E+03  0.00000000000E+00 0. -1.
</event>
<event>
 4    1  0.8988950E+003  0.2363567E+02  0.7546771E-02  0.1484667E+00
          2   -1    0    0  501    0  0.00000000000E+00  0.00000000000E+00  0.51078154328E+00  0.51078154328E+00  0.00000000000E+00 0.  1.
          2   -1    0    0  502    0 -0.00000000000E+00 -0.00000000000E+00 -0.11434092159E+04  0.11434092159E+04  0.00000000000E+00 0.  1.
          2    1    1    2  501    0  0.37125054040E+01 -0.23342286618E+02 -0.45220005783E+03  0.45281733331E+03  0.00000000000E+00 0.  1.
          2    1    1    2  502    0 -0.37125054040E+01  0.23342286618E+02 -0.69069837654E+03  0.69110266415E+03  0.00000000000E+00 0.  1.
</event>
<event>
 4    1  0.8988950E+003  0.2011500E+02  0.7546771E-02  0.1532285E+00
          2   -1    0    0  502    0  0.00000000000E+00  0.00000000000E+00  0.60555234104E+01  0.60555234104E+01  0.00000000000E+00 0. -1.
          2   -1    0    0  501    0 -0.00000000000E+00 -0.00000000000E+00 -0.68706592993E+02  0.68706592993E+02  0.00000000000E+00 0. -1.
          2    1    1    2  501    0  0.96517595789E+01 -0.17648140441E+02 -0.25126706008E+02  0.32186405186E+02  0.00000000000E+00 0. -1.
          2    1    1    2  502    0 -0.96517595789E+01  0.17648140441E+02 -0.37524363575E+02  0.42575711217E+02  0.00000000000E+00 0. -1.
</event>
<event>
 4    1  0.8988950E+003  0.2726392E+02  0.7546771E-02  0.1444975E+00
          2   -1    0    0  502    0  0.00000000000E+00  0.00000000000E+00  0.82094674163E+01  0.82094674163E+01  0.00000000000E+00 0.  1.
          2   -1    0    0  501    0 -0.00000000000E+00 -0.00000000000E+00 -0.44172180440E+03  0.44172180440E+03  0.00000000000E+00 0. -1.
          2    1    1    2  501    0 -0.26143014638E+02 -0.77371984255E+01 -0.16168128117E+02  0.31697473411E+02  0.00000000000E+00 0.  1.
          2    1    1    2  502    0  0.26143014638E+02  0.77371984255E+01 -0.41734420886E+03  0.41823379840E+03  0.00000000000E+00 0. -1.
</event>
<event>
 4    1  0.8988950E+003  0.2431097E+02  0.7546771E-02  0.1476661E+00
          2   -1    0    0  501    0  0.00000000000E+00  0.00000000000E+00  0.37607546856E+02  0.37607546856E+02  0.00000000000E+00 0.  1.
          2   -1    0    0  502    0 -0.00000000000E+00 -0.00000000000E+00 -0.97508814314E+02  0.97508814314E+02  0.00000000000E+00 0. -1.
          2    1    1    2  501    0  0.82964817422E+00  0.24296812749E+02  0.31924302972E+02  0.40127104880E+02  0.00000000000E+00 0.  1.
          2    1    1    2  502    0 -0.82964817422E+00 -0.24296812749E+02 -0.91825570429E+02  0.94989256290E+02  0.00000000000E+00 0. -1.
</event>
<event>
 4    1  0.8988950E+003  0.2650579E+02  0.7546771E-02  0.1452637E+00
          2   -1    0    0  502    0  0.00000000000E+00  0.00000000000E+00  0.10346410898E+02  0.10346410898E+02  0.00000000000E+00 0. -1.
          2   -1    0    0  501    0 -0.00000000000E+00 -0.00000000000E+00 -0.70105841100E+03  0.70105841100E+03  0.00000000000E+00 0.  1.
          2    1    1    2  501    0  0.24172995543E+02  0.10873058597E+02 -0.73186334566E+01  0.27497627397E+02  0.00000000000E+00 0. -1.
          2    1    1    2  502    0 -0.24172995543E+02 -0.10873058597E+02 -0.68339336664E+03  0.68390719450E+03  0.00000000000E+00 0.  1.
</event>
<event>
 4    1  0.8988950E+003  0.5469722E+02  0.7546771E-02  0.1278998E+00
          2   -1    0    0  501    0  0.00000000000E+00  0.00000000000E+00  0.15933568230E+04  0.15933568230E+04  0.00000000000E+00 0. -1.
          2   -1    0    0  502    0 -0.00000000000E+00 -0.00000000000E+00 -0.19212903704E+02  0.19212903704E+02  0.00000000000E+00 0. -1.
          2    1    1    2  501    0 -0.50897095779E+02 -0.20031751692E+02  0.21198613766E+02  0.58661458047E+02  0.00000000000E+00 0. -1.
          2    1    1    2  502    0  0.50897095779E+02  0.20031751692E+02  0.15529453056E+04  0.15539082687E+04  0.00000000000E+00 0. -1.
</event>
<event>
 4    1  0.8988950E+003  0.2586398E+02  0.7546771E-02  0.1459366E+00
          2   -1    0    0  502    0  0.00000000000E+00  0.00000000000E+00  0.12669878045E+04  0.12669878045E+04  0.00000000000E+00 0.  1.
          2   -1    0    0  501    0 -0.00000000000E+00 -0.00000000000E+00 -0.38290848388E+02  0.38290848388E+02  0.00000000000E+00 0.  1.
          2    1    1    2  501    0 -0.25528489934E+02 -0.41523243748E+01  0.12624726615E+04  0.12627375684E+04  0.00000000000E+00 0.  1.
          2    1    1    2  502    0  0.25528489934E+02  0.41523243748E+01 -0.33775705385E+02  0.42541084498E+02  0.00000000000E+00 0.  1.
</event>
<event>
 4    1  0.8988950E+003  0.2104914E+02  0.7546771E-02  0.1518564E+00
          2   -1    0    0  501    0  0.00000000000E+00  0.00000000000E+00  0.32194584114E+01  0.32194584114E+01  0.00000000000E+00 0.  1.
          2   -1    0    0  502    0 -0.00000000000E+00 -0.00000000000E+00 -0.72806197104E+03  0.72806197104E+03  0.00000000000E+00 0.  1.
          2    1    1    2  501    0 -0.19286322794E+02 -0.84323313328E+01 -0.69169603139E+03  0.69201623269E+03  0.00000000000E+00 0.  1.
          2    1    1    2  502    0  0.19286322794E+02  0.84323313328E+01 -0.33146481239E+02  0.39265196767E+02  0.00000000000E+00 0.  1.
</event>
<event>
 4    1  0.8988950E+003  0.2106563E+02  0.7546771E-02  0.1518330E+00
          2   -1    0    0  501    0  0.00000000000E+00  0.00000000000E+00  0.70588140861E+03  0.70588140861E+03  0.00000000000E+00 0.  1.
          2   -1    0    0  502    0 -0.00000000000E+00 -0.00000000000E+00 -0.71955809510E+00  0.71955809510E+00  0.00000000000E+00 0.  1.
          2    1    1    2  501    0  0.19557007201E+02  0.78284278517E+01  0.22701149338E+03  0.22798679553E+03  0.00000000000E+00 0.  1.
          2    1    1    2  502    0 -0.19557007201E+02 -0.78284278517E+01  0.47815035714E+03  0.47861417117E+03  0.00000000000E+00 0.  1.
</event>
<event>
 4    1  0.8988950E+003  0.2149024E+02  0.7546771E-02  0.1512379E+00
          2   -1    0    0  501    0  0.00000000000E+00  0.00000000000E+00  0.11164422988E+02  0.11164422988E+02  0.00000000000E+00 0. -1.
          2   -1    0    0  502    0 -0.00000000000E+00 -0.00000000000E+00 -0.88404725261E+03  0.88404725261E+03  0.00000000000E+00 0.  1.
          2    1    1    2  501    0  0.21489142687E+02 -0.21696454769E+00 -0.87344963279E+03  0.87371396426E+03  0.00000000000E+00 0.  1.
          2    1    1    2  502    0 -0.21489142687E+02  0.21696454769E+00  0.56680316300E+00  0.21497711340E+02  0.00000000000E+00 0. -1.
</event>
<event>
 4    1  0.8988950E+003  0.3054404E+02  0.7546771E-02  0.1414927E+00
          2   -1    0    0  502    0  0.00000000000E+00  0.00000000000E+00  0.28047524303E+01  0.28047524303E+01  0.00000000000E+00 0.  1.
          2   -1    0    0  501    0 -0.00000000000E+00 -0.00000000000E+00 -0.35316061223E+03  0.35316061223E+03  0.00000000000E+00 0.  1.
          2    1    1    2  501    0 -0.27329397411E+02 -0.13639728134E+02 -0.13226208571E+03  0.13574313044E+03  0.00000000000E+00 0.  1.
          2    1    1    2  502    0  0.27329397411E+02  0.13639728134E+02 -0.21809377409E+03  0.22022223422E+03  0.00000000000E+00 0.  1.
</event>
<event>
 4    1  0.8988950E+003  0.2475332E+02  0.7546771E-02  0.1471582E+00
          2   -1    0    0  502    0  0.00000000000E+00  0.00000000000E+00  0.24793351030E+03  0.24793351030E+03  0.00000000000E+00 0. -1.
          2   -1    0    0  501    0 -0.00000000000E+00 -0.00000000000E+00 -0.65279214130E+03  0.65279214130E+03  0.00000000000E+00 0.  1.
          2    1    1    2  501    0 -0.12167227240E+02 -0.21556569152E+02  0.24708021157E+03  0.24831705145E+03  0.00000000000E+00 0. -1.
          2    1    1    2  502    0  0.12167227240E+02  0.21556569152E+02 -0.65193884257E+03  0.65240860015E+03  0.00000000000E+00 0.  1.
</event>
<event>
 4    1  0.8988950E+003  0.2337118E+02  0.7546771E-02  0.1487889E+00
          2   -1    0    0  502    0  0.00000000000E+00  0.00000000000E+00  0.56098707417E+00  0.56098707417E+00  0.00000000000E+00 0. -1.
          2   -1    0    0  501    0 -0.00000000000E+00 -0.00000000000E+00 -0.15097674451E+04  0.15097674451E+04  0.00000000000E+00 0. -1.
          2    1    1    2  501    0  0.10427533672E+02  0.20915989414E+02 -0.30460450248E+03  0.30549977905E+03  0.00000000000E+00 0. -1.
          2    1    1    2  502    0 -0.10427533672E+02 -0.20915989414E+02 -0.12046019556E+04  0.12048286531E+04  0.00000000000E+00 0. -1.
</event>
<event>
 4    1  0.8988950E+003  0.2035850E+02  0.7546771E-02  0.1528624E+00
          2   -1    0    0  501    0  0.00000000000E+00  0.00000000000E+00  0.42754158709E+02  0.42754158709E+02  0.00000000000E+00 0. -1.
          2   -1    0    0  502    0 -0.00000000000E+00 -0.00000000000E+00 -0.61395454442E+03  0.61395454442E+03  0.00000000000E+00 0.  1.
          2    1    1    2  501    0 -0.11919923870E+02 -0.16504062246E+02 -0.61135190209E+03  0.61169078532E+03  0.00000000000E+00 0.  1.
          2    1    1    2  502    0  0.11919923870E+02  0.16504062246E+02  0.40151516383E+02  0.45017917806E+02  0.00000000000E+00 0. -1.
</event>
<event>
 4    1  0.8988950E+003  0.2479426E+02  0.7546771E-02  0.1471118E+00
          2   -1    0    0  501    0  0.00000000000E+00  0.00000000000E+00  0.47506188537E+02  0.47506188537E+02  0.00000000000E+00 0. -1.
          2   -1    0    0  502    0 -0.00000000000E+00 -0.00000000000E+00 -0.20396315724E+02  0.20396315724E+02  0.00000000000E+00 0. -1.
          2    1    1    2  501    0  0.17872869791E+02  0.17184752860E+02 -0.69721199220E+01  0.25755885961E+02  0.00000000000E+00 0. -1.
          2    1    1    2  502    0 -0.17872869791E+02 -0.17184752860E+02  0.34081992735E+02  0.42146618301E+02  0.00000000000E+00 0. -1.
</event>
<event>
 4    1  0.8988950E+003  0.2291199E+02  0.7546771E-02  0.1493606E+00
          2   -1    0    0  502    0  0.00000000000E+00  0.00000000000E+00  0.14594745395E+04  0.14594745395E+04  0.00000000000E+00 0. -1.
          2   -1    0    0  501    0 -0.00000000000E+00 -0.00000000000E+00 -0.15864092534E+02  0.15864092534E+02  0.00000000000E+00 0.  1.
          2    1    1    2  501    0  0.85003585106E+00 -0.22896218258E+02  0.14510639086E+04  0.14512447851E+04  0.00000000000E+00 0. -1.
          2    1    1    2  502    0 -0.85003585106E+00  0.22896218258E+02 -0.74534616238E+01  0.24093846966E+02  0.00000000000E+00 0.  1.
</event>
<event>
 4    1  0.8988950E+003  0.2369740E+02  0.7546771E-02  0.1483922E+00
          2   -1    0    0  501    0  0.00000000000E+00  0.00000000000E+00  0.19183116534E+04  0.19183116534E+04  0.00000000000E+00 0. -1.
          2   -1    0    0  502    0 -0.00000000000E+00 -0.00000000000E+00 -0.92411867498E+00  0.92411867498E+00  0.00000000000E+00 0. -1.
          2    1    1    2  501    0  0.22686335876E+02 -0.68481304171E+01  0.16549983293E+03  0.16718780286E+03  0.00000000000E+00 0. -1.
          2    1    1    2  502    0 -0.22686335876E+02  0.68481304171E+01  0.17518877018E+04  0.17520479692E+04  0.00000000000E+00 0. -1.
</event>
<event>
 4    1  0.8988950E+003  0.2827412E+02  0.7546771E-02  0.1435213E+00
          2   -1    0    0  502    0  0.00000000000E+00  0.00000000000E+00  0.13050142424E+04  0.13050142424E+04  0.00000000000E+00 0. -1.
          2   -1    0    0  501    0 -0.00000000000E+00 -0.00000000000E+00 -0.72757956561E+00  0.72757956561E+00  0.00000000000E+00 0. -1.
          2    1    1    2  501    0  0.11068289284E+02  0.26017660149E+02  0.91170174460E+03  0.91214006423E+03  0.00000000000E+00 0. -1.
          2    1    1    2  502    0 -0.11068289284E+02 -0.26017660149E+02  0.39258491827E+03  0.39360175777E+03  0.00000000000E+00 0. -1.
</event>
<event>
 4    1  0.8988950E+003  0.2659189E+02  0.7546771E-02  0.1451751E+00
          2   -1    0    0  502    0  0.00000000000E+00  0.00000000000E+00  0.49213326023E+03  0.49213326023E+03  0.00000000000E+00 0. -1.
          2   -1    0    0  501    0 -0.00000000000E+00 -0.00000000000E+00 -0.73110419739E+01  0.73110419739E+01  0.00000000000E+00 0.  1.
          2    1    1    2  501    0 -0.83741593966E-01  0.26591754190E+02  0.46625280683E+03  0.46701050125E+03  0.00000000000E+00 0. -1.
          2    1    1    2  502    0  0.83741593966E-01 -0.26591754190E+02  0.18569411431E+02  0.32433800956E+02  0.00000000000E+00 0.  1.
</event>
<event>
 4    1  0.8988950E+003  0.2971099E+02  0.7546771E-02  0.1422125E+00
          2   -1    0    0  501    0  0.00000000000E+00  0.00000000000E+00  0.56047222280E+03  0.56047222280E+03  0.00000000000E+00 0. -1.
          2   -1    0    0  502    0 -0.00000000000E+00 -0.00000000000E+00 -0.17647677806E+01  0.17647677806E+01  0.00000000000E+00 0.  1.
          2    1    1    2  501    0 -0.29253720419E+02  0.51925407995E+01  0.18716896373E+03  0.18951243659E+03  0.00000000000E+00 0.  1.
          2    1    1    2  502    0  0.29253720419E+02 -0.51925407995E+01  0.37153849129E+03  0.37272455399E+03  0.00000000000E+00 0. -1.
</event>
<event>
 4    1  0.8988950E+003  0.2106521E+02  0.7546771E-02  0.1518336E+00
          2   -1    0    0  501    0  0.00000000000E+00  0.00000000000E+00  0.26907698940E+02  0.26907698940E+02  0.00000000000E+00 0.  1.
          2   -1    0    0  502    0 -0.00000000000E+00 -0.00000000000E+00 -0.25281191601E+02  0.25281191601E+02  0.00000000000E+00 0. -1.
          2    1    1    2  501    0  0.33968583355E+01 -0.20789528197E+02 -0.14573283156E+02  0.25614911890E+02  0.00000000000E+00 0. -1.
          2    1    1    2  502    0 -0.33968583355E+01  0.20789528197E+02  0.16199790495E+02  0.26573978650E+02  0.00000000000E+00 0.  1.
</event>
<event>
 4    1  0.8988950E+003  0.2724068E+02  0.7546771E-02  0.1445205E+00
          2   -1    0    0  501    0  0.00000000000E+00  0.00000000000E+00  0.59911044118E+03  0.59911044118E+03  0.00000000000E+00 0. -1.
          2   -1    0    0  502    0 -0.00000000000E+00 -0.00000000000E+00 -0.16126742848E+01  0.16126742848E+01  0.00000000000E+00 0. -1.
          2    1    1    2  501    0 -0.11628384579E+02  0.24634029784E+02  0.15408727857E+03  0.15647665694E+03  0.00000000000E+00 0. -1.
          2    1    1    2  502    0  0.11628384579E+02 -0.24634029784E+02  0.44341048832E+03  0.44424645852E+03  0.00000000000E+00 0. -1.
</event>
<event>
 4    1  0.8988950E+003  0.3361885E+02  0.7546771E-02  0.1390542E+00
          2   -1    0    0  502    0  0.00000000000E+00  0.00000000000E+00  0.48841784336E+01  0.48841784336E+01  0.00000000000E+00 0.  1.
          2   -1    0    0  501    0 -0.00000000000E+00 -0.00000000000E+00 -0.44824858403E+03  0.44824858403E+03  0.00000000000E+00 0.  1.
          2    1    1    2  501    0 -0.85948892083E+01  0.32501612866E+02 -0.64099499977E+02  0.72380749214E+02  0.00000000000E+00 0.  1.
          2    1    1    2  502    0  0.85948892083E+01 -0.32501612866E+02 -0.37926490562E+03  0.38075201325E+03  0.00000000000E+00 0.  1.
</event>
<event>
 4    1  0.8988950E+003  0.2365226E+02  0.7546771E-02  0.1484466E+00
          2   -1    0    0  501    0  0.00000000000E+00  0.00000000000E+00  0.16404391819E+03  0.16404391819E+03  0.00000000000E+00 0. -1.
          2   -1    0    0  502    0 -0.00000000000E+00 -0.00000000000E+00 -0.22117061753E+03  0.22117061753E+03  0.00000000000E+00 0.  1.
          2    1    1    2  501    0  0.17092666480E+02 -0.16348398874E+02 -0.21967993810E+03  0.22094955216E+03  0.00000000000E+00 0.  1.
          2    1    1    2  502    0 -0.17092666480E+02  0.16348398874E+02  0.16255323876E+03  0.16426498356E+03  0.00000000000E+00 0. -1.
</event>
<event>
 4    1  0.8988950E+003  0.2969160E+02  0.7546771E-02  0.1422296E+00
          2   -1    0    0  501    0  0.00000000000E+00  0.00000000000E+00  0.83389232803E+02  0.83389232803E+02  0.00000000000E+00 0. -1.
          2   -1    0    0  502    0 -0.00000000000E+00 -0.00000000000E+00 -0.29556847874E+02  0.29556847874E+02  0.00000000000E+00 0. -1.
          2    1    1    2  501    0 -0.29292327101E+02  0.48528926862E+01 -0.18343924149E+02  0.34901153958E+02  0.00000000000E+00 0. -1.
          2    1    1    2  502    0  0.29292327101E+02 -0.48528926862E+01  0.72176309078E+02  0.78044926719E+02  0.00000000000E+00 0. -1.
</event>
<event>
 4    1  0.8988950E+003  0.2159890E+02  0.7546771E-02  0.1510883E+00
          2   -1    0    0  501    0  0.00000000000E+00  0.00000000000E+00  0.19103806657E+03  0.19103806657E+03  0.00000000000E+00 0. -1.
          2   -1    0    0  502    0 -0.00000000000E+00 -0.00000000000E+00 -0.15609432293E+02  0.15609432293E+02  0.00000000000E+00 0.  1.
          2    1    1    2  501    0 -0.20473966418E+02 -0.68796098332E+01 -0.71837522175E+01  0.22762219318E+02  0.00000000000E+00 0.  1.
          2    1    1    2  502    0  0.20473966418E+02  0.68796098332E+01  0.18261238650E+03  0.18388527955E+03  0.00000000000E+00 0. -1.
</event>
<event>
 4    1  0.8988950E+003  0.2245349E+02  0.7546771E-02  0.1499477E+00
          2   -1    0    0  502    0  0.00000000000E+00  0.00000000000E+00  0.49417352293E+02  0.49417352293E+02  0.00000000000E+00 0. -1.
          2   -1    0    0  501    0 -0.00000000000E+00 -0.00000000000E+00 -0.29722575042E+02  0.29722575042E+02  0.00000000000E+00 0.  1.
          2    1    1    2  501    0  0.19020579938E+02  0.11932177025E+02  0.41915099197E+02  0.47550340172E+02  0.00000000000E+00 0. -1.
          2    1    1    2  502    0 -0.19020579938E+02 -0.11932177025E+02 -0.22220321946E+02  0.31589587163E+02  0.00000000000E+00 0.  1.
</event>
<event>
 4    1  0.8988950E+003  0.3790454E+02  0.7546771E-02  0.1361223E+00
          2   -1    0    0  502    0  0.00000000000E+00  0.00000000000E+00  0.19042353173E+02  0.19042353173E+02  0.00000000000E+00 0. -1.
          2   -1    0    0  501    0 -0.00000000000E+00 -0.00000000000E+00 -0.13469088797E+04  0.13469088797E+04  0.00000000000E+00 0. -1.
          2    1    1    2  501    0 -0.18443807235E+02 -0.33114646958E+02 -0.36260261213E+00  0.37906270578E+02  0.00000000000E+00 0. -1.
          2    1    1    2  502    0  0.18443807235E+02  0.33114646958E+02 -0.13275039239E+04  0.13280449623E+04  0.00000000000E+00 0. -1.
</event>
<event>
 4    1  0.8988950E+003  0.2564537E+02  0.7546771E-02  0.1461711E+00
          2   -1    0    0  501    0  0.00000000000E+00  0.00000000000E+00  0.45997519787E+02  0.45997519787E+02  0.00000000000E+00 0. -1.
          2   -1    0    0  502    0 -0.00000000000E+00 -0.00000000000E+00 -0.12742096557E+04  0.12742096557E+04  0.00000000000E+00 0. -1.
          2    1    1    2  501    0  0.18282694898E+02  0.17984110636E+02 -0.12704956006E+04  0.12707544044E+04  0.00000000000E+00 0. -1.
          2    1    1    2  502    0 -0.18282694898E+02 -0.17984110636E+02  0.42283464762E+02  0.49452771008E+02  0.00000000000E+00 0. -1.
</event>
<event>
 4    1  0.8988950E+003  0.2006398E+02  0.7546771E-02  0.1533060E+00
          2   -1    0    0  501    0  0.00000000000E+00  0.00000000000E+00  0.57687535421E+00  0.57687535421E+00  0.00000000000E+00 0.  1.
          2   -1    0    0  502    0 -0.00000000000E+00 -0.00000000000E+00 -0.76189382078E+03  0.76189382078E+03  0.00000000000E+00 0. -1.
          2    1    1    2  501    0 -0.12397974086E+02 -0.15775095695E+02 -0.49120314037E+03  0.49161274243E+03  0.00000000000E+00 0. -1.
          2    1    1    2  502    0  0.12397974086E+02  0.15775095695E+02 -0.27011380505E+03  0.27085795370E+03  0.00000000000E+00 0.  1.
</event>
<event>
 4    1  0.8988950E+003  0.2368998E+02  0.7546771E-02  0.1484011E+00
          2   -1    0    0  501    0  0.00000000000E+00  0.00000000000E+00  0.22664751211E+03  0.22664751211E+03  0.00000000000E+00 0.  1.
          2   -1    0    0  502    0 -0.00000000000E+00 -0.00000000000E+00 -0.24593185920E+03  0.24593185920E+03  0.00000000000E+00 0. -1.
          2    1    1    2  501    0  0.19086618065E+02 -0.14032678903E+02 -0.24473931176E+03  0.24588319542E+03  0.00000000000E+00 0. -1.
          2    1    1    2  502    0 -0.19086618065E+02  0.14032678903E+02  0.22545496468E+03  0.22669617589E+03  0.00000000000E+00 0.  1.
</event>
<event>
 4    1  0.8988950E+003  0.2106354E+02  0.7546771E-02  0.1518360E+00
          2   -1    0    0  502    0  0.00000000000E+00  0.00000000000E+00  0.95206620102E+03  0.95206620102E+03  0.00000000000E+00 0.  1.
          2   -1    0    0  501    0 -0.00000000000E+00 -0.00000000000E+00 -0.12651006430E+02  0.12651006430E+02  0.00000000000E+00 0.  1.
          2    1    1    2  501    0  0.19677881028E+02  0.75135609548E+01  0.94309880766E+03  0.94333399897E+03  0.00000000000E+00 0.  1.
          2    1    1    2  502    0 -0.19677881028E+02 -0.75135609548E+01 -0.36836130655E+01  0.21383208487E+02  0.00000000000E+00 0.  1.
</event>
<event>
 4    1  0.8988950E+003  0.2962205E+02  0.7546771E-02  0.1422910E+00
          2   -1    0    0  501    0  0.00000000000E+00  0.00000000000E+00  0.13346159018E+03  0.13346159018E+03  0.00000000000E+00 0. -1.
          2   -1    0    0  502    0 -0.00000000000E+00 -0.00000000000E+00 -0.48163478607E+03  0.48163478607E+03  0.00000000000E+00 0.  1.
          2    1    1    2  501    0 -0.23987726914E+02 -0.17379724619E+02 -0.47952844341E+03  0.48044249802E+03  0.00000000000E+00 0.  1.
          2    1    1    2  502    0  0.23987726914E+02  0.17379724619E+02  0.13135524752E+03  0.13465387823E+03  0.00000000000E+00 0. -1.
</event>
<event>
 4    1  0.8988950E+003  0.2714470E+02  0.7546771E-02  0.1446160E+00
          2   -1    0    0  501    0  0.00000000000E+00  0.00000000000E+00  0.10208938422E+01  0.10208938422E+01  0.00000000000E+00 0. -1.
          2   -1    0    0  502    0 -0.00000000000E+00 -0.00000000000E+00 -0.99368356811E+03  0.99368356811E+03  0.00000000000E+00 0. -1.
          2    1    1    2  501    0  0.44067608563E+01  0.26784603401E+02 -0.75650779278E+03  0.75699463344E+03  0.00000000000E+00 0. -1.
          2    1    1    2  502    0 -0.44067608563E+01 -0.26784603401E+02 -0.23615488148E+03  0.23770982851E+03  0.00000000000E+00 0. -1.
</event>
<event>
 4    1  0.8988950E+003  0.2767399E+02  0.7546771E-02  0.1440953E+00
          2   -1    0    0  502    0  0.00000000000E+00  0.00000000000E+00  0.10860635359E+02  0.10860635359E+02  0.00000000000E+00 0. -1.
          2   -1    0    0  501    0 -0.00000000000E+00 -0.00000000000E+00 -0.86006018159E+03  0.86006018159E+03  0.00000000000E+00 0. -1.
          2    1    1    2  501    0  0.27047719642E+02 -0.58540970233E+01 -0.73727323528E+01  0.28639252297E+02  0.00000000000E+00 0. -1.
          2    1    1    2  502    0 -0.27047719642E+02  0.58540970233E+01 -0.84182681388E+03  0.84228156465E+03  0.00000000000E+00 0. -1.
</event>
<event>
 4    1  0.8988950E+003  0.2177290E+02  0.7546771E-02  0.1508510E+00
          2   -1    0    0  501    0  0.00000000000E+00  0.00000000000E+00  0.14284745418E+04  0.14284745418E+04  0.00000000000E+00 0.  1.
          2   -1    0    0  502    0 -0.00000000000E+00 -0.00000000000E+00 -0.23273838116E+01  0.23273838116E+01  0.00000000000E+00 0.  1.
          2    1    1    2  501    0  0.12776316927E+01 -0.21735381177E+02  0.50638155556E+02  0.55120612622E+02  0.00000000000E+00 0.  1.
          2    1    1    2  502    0 -0.12776316927E+01  0.21735381177E+02  0.13755090024E+04  0.13756813129E+04  0.00000000000E+00 0.  1.
</event>
<event>
 4    1  0.8988950E+003  0.2305770E+02  0.7546771E-02  0.1491775E+00
          2   -1    0    0  501    0  0.00000000000E+00  0.00000000000E+00  0.11150871699E+03  0.11150871699E+03  0.00000000000E+00 0.  1.
          2   -1    0    0  502    0 -0.00000000000E+00 -0.00000000000E+00 -0.47757245325E+01  0.47757245325E+01  0.00000000000E+00 0.  1.
          2    1    1    2  501    0 -0.29524918291E+01 -0.22867884949E+02  0.55726715406E+02  0.60308574681E+02  0.00000000000E+00 0.  1.
          2    1    1    2  502    0  0.29524918291E+01  0.22867884949E+02  0.51006277050E+02  0.55975866840E+02  0.00000000000E+00 0.  1.
</event>
<event>
 4    1  0.8988950E+003  0.3004287E+02  0.7546771E-02  0.1419224E+00
          2   -1    0    0  501    0  0.00000000000E+00  0.00000000000E+00  0.57589045711E+02  0.57589045711E+02  0.00000000000E+00 0. -1.
          2   -1    0    0  502    0 -0.00000000000E+00 -0.00000000000E+00 -0.25115139939E+03  0.25115139939E+03  0.00000000000E+00 0. -1.
          2    1    1    2  501    0  0.14356836620E+02 -0.26390441887E+02 -0.24625721204E+03  0.24808302776E+03  0.00000000000E+00 0. -1.
          2    1    1    2  502    0 -0.14356836620E+02  0.26390441887E+02  0.52694858362E+02  0.60657417341E+02  0.00000000000E+00 0. -1.
</event>
<event>
 4    1  0.8988950E+003  0.4187547E+02  0.7546771E-02  0.1337833E+00
          2   -1    0    0  501    0  0.00000000000E+00  0.00000000000E+00  0.20662950613E+03  0.20662950613E+03  0.00000000000E+00 0. -1.
          2   -1    0    0  502    0 -0.00000000000E+00 -0.00000000000E+00 -0.19419344655E+03  0.19419344655E+03  0.00000000000E+00 0. -1.
          2    1    1    2  501    0 -0.38348466120E+02 -0.16821123399E+02 -0.18976542652E+03  0.19433083170E+03  0.00000000000E+00 0. -1.
          2    1    1    2  502    0  0.38348466120E+02  0.16821123399E+02  0.20220148610E+03  0.20649212098E+03  0.00000000000E+00 0. -1.
</event>
<event>
 4    1  0.8988950E+003  0.3714655E+02  0.7546771E-02  0.1366070E+00
          2   -1    0    0  502    0  0.00000000000E+00  0.00000000000E+00  0.12418876121E+02  0.12418876121E+02  0.00000000000E+00 0. -1.
          2   -1    0    0  501    0 -0.00000000000E+00 -0.00000000000E+00 -0.21137623867E+03  0.21137623867E+03  0.00000000000E+00 0. -1.
          2    1    1    2  501    0  0.15695841484E+02 -0.33667593105E+02 -0.22411580045E+02  0.43383697232E+02  0.00000000000E+00 0. -1.
          2    1    1    2  502    0 -0.15695841484E+02  0.33667593105E+02 -0.17654578250E+03  0.18041141756E+03  0.00000000000E+00 0. -1.
</event>
<event>
 4    1  0.8988950E+003  0.2532315E+02  0.7546771E-02  0.1465221E+00
          2   -1    0    0  502    0  0.00000000000E+00  0.00000000000E+00  0.83322626713E+01  0.83322626713E+01  0.00000000000E+00 0.  1.
          2   -1    0    0  501    0 -0.00000000000E+00 -0.00000000000E+00 -0.13369057291E+04  0.13369057291E+04  0.00000000000E+00 0. -1.
          2    1    1    2  501    0  0.25263462138E+02  0.17375972752E+01 -0.11314924480E+02  0.27736064600E+02  0.00000000000E+00 0.  1.
          2    1    1    2  502    0 -0.25263462138E+02 -0.17375972752E+01 -0.13172585419E+04  0.13175019272E+04  0.00000000000E+00 0. -1.
</event>
<event>
 4    1  0.8988950E+003  0.2031745E+02  0.7546771E-02  0.1529237E+00
          2   -1    0    0  501    0  0.00000000000E+00  0.00000000000E+00  0.15115062337E+01  0.15115062337E+01  0.00000000000E+00 0. -1.
          2   -1    0    0  502    0 -0.00000000000E+00 -0.00000000000E+00 -0.10008213815E+04  0.10008213815E+04  0.00000000000E+00 0. -1.
          2    1    1    2  501    0  0.69189771247E+01 -0.19103046968E+02 -0.92700623029E+03  0.92722885505E+03  0.00000000000E+00 0. -1.
          2    1    1    2  502    0 -0.69189771247E+01  0.19103046968E+02 -0.72303644969E+02  0.75104032673E+02  0.00000000000E+00 0. -1.
</event>
<event>
 4    1  0.8988950E+003  0.2662365E+02  0.7546771E-02  0.1451426E+00
          2   -1    0    0  501    0  0.00000000000E+00  0.00000000000E+00  0.32503645278E+01  0.32503645278E+01  0.00000000000E+00 0. -1.
          2   -1    0    0  502    0 -0.00000000000E+00 -0.00000000000E+00 -0.11594987722E+04  0.11594987722E+04  0.00000000000E+00 0. -1.
          2    1    1    2  501    0 -0.15011666552E+02  0.21987918716E+02 -0.11019824518E+04  0.11023040156E+04  0.00000000000E+00 0. -1.
          2    1    1    2  502    0  0.15011666552E+02 -0.21987918716E+02 -0.54265955791E+02  0.60445121060E+02  0.00000000000E+00 0. -1.
</event>
<event>
 4    1  0.8988950E+003  0.2025852E+02  0.7546771E-02  0.1530120E+00
          2   -1    0    0  502    0  0.00000000000E+00  0.00000000000E+00  0.23859599782E+03  0.23859599782E+03  0.00000000000E+00 0. -1.
          2   -1    0    0  501    0 -0.00000000000E+00 -0.00000000000E+00 -0.14982468059E+02  0.14982468059E+02  0.00000000000E+00 0.  1.
          2    1    1    2  501    0 -0.20033841605E+02 -0.30087650369E+01  0.23109602234E+03  0.23198228169E+03  0.00000000000E+00 0. -1.
          2    1    1    2  502    0  0.20033841605E+02  0.30087650369E+01 -0.74824925763E+01  0.21596184192E+02  0.00000000000E+00 0.  1.
</event>
<event>
 4    1  0.8988950E+003  0.2023700E+02  0.7546771E-02  0.1530443E+00
          2   -1    0    0  501    0  0.00000000000E+00  0.00000000000E+00  0.38303582929E+03  0.38303582929E+03  0.00000000000E+00 0.  1.
          2   -1    0    0  502    0 -0.00000000000E+00 -0.00000000000E+00 -0.74038285289E+01  0.74038285289E+01  0.00000000000E+00 0. -1.
          2    1    1    2  501    0 -0.20209724048E+02  0.10504130097E+01  0.72413308589E+01  0.21493561506E+02  0.00000000000E+00 0. -1.
          2    1    1    2  502    0  0.20209724048E+02 -0.10504130097E+01  0.36839066991E+03  0.36894609632E+03  0.00000000000E+00 0.  1.
</event>
<event>
 4    1  0.8988950E+003  0.2554472E+02  0.7546771E-02  0.1462801E+00
          2   -1    0    0  501    0  0.00000000000E+00  0.00000000000E+00  0.27408408001E+00  0.27408408001E+00  0.00000000000E+00 0.  1.
          2   -1    0    0  502    0 -0.00000000000E+00 -0.00000000000E+00 -0.25332804623E+04  0.25332804623E+04  0.00000000000E+00 0.  1.
          2    1    1    2  501    0 -0.18125924823E+02  0.17999536900E+02 -0.15773179004E+04  0.15775247356E+04  0.00000000000E+00 0.  1.
          2    1    1    2  502    0  0.18125924823E+02 -0.17999536900E+02 -0.95568847782E+03  0.95602981079E+03  0.00000000000E+00 0.  1.
</event>
<event>
 4    1  0.8988950E+003  0.5160521E+02  0.7546771E-02  0.1291359E+00
          2   -1    0    0  502    0  0.00000000000E+00  0.00000000000E+00  0.30382482633E+03  0.30382482633E+03  0.00000000000E+00 0.  1.
          2   -1    0    0  501    0 -0.00000000000E+00 -0.00000000000E+00 -0.90549152022E+01  0.90549152022E+01  0.00000000000E+00 0.  1.
          2    1    1    2  501    0 -0.10813898895E+02 -0.50459458276E+02  0.11940407595E+03  0.13007855585E+03  0.00000000000E+00 0.  1.
          2    1    1    2  502    0  0.10813898895E+02  0.50459458276E+02  0.17536583517E+03  0.18280118568E+03  0.00000000000E+00 0.  1.
</event>
<event>
 4    1  0.8988950E+003  0.2076080E+02  0.7546771E-02  0.1522708E+00
          2   -1    0    0  501    0  0.00000000000E+00  0.00000000000E+00  0.87142157593E+03  0.87142157593E+03  0.00000000000E+00 0.  1.
          2   -1    0    0  502    0 -0.00000000000E+00 -0.00000000000E+00 -0.21732546885E+01  0.21732546885E+01  0.00000000000E+00 0.  1.
          2    1    1    2  501    0  0.16139860513E+02 -0.13058164462E+02  0.50736110716E+02  0.54819373283E+02  0.00000000000E+00 0.  1.
          2    1    1    2  502    0 -0.16139860513E+02  0.13058164462E+02  0.81851221053E+03  0.81877545734E+03  0.00000000000E+00 0.  1.
</event>
<event>
 4    1  0.8988950E+003  0.3452217E+02  0.7546771E-02  0.1383954E+00
          2   -1    0    0  502    0  0.00000000000E+00  0.00000000000E+00  0.81655319642E+02  0.81655319642E+02  0.00000000000E+00 0. -1.
          2   -1    0    0  501    0 -0.00000000000E+00 -0.00000000000E+00 -0.22782359013E+04  0.22782359013E+04  0.00000000000E+00 0.  1.
          2    1    1    2  501    0 -0.30924450821E+02 -0.15344666555E+02  0.77869653444E+02  0.85179007847E+02  0.00000000000E+00 0. -1.
          2    1    1    2  502    0  0.30924450821E+02  0.15344666555E+02 -0.22744502351E+04  0.22747122131E+04  0.00000000000E+00 0.  1.
</event>
<event>
 4    1  0.8988950E+003  0.4720984E+02  0.7546771E-02  0.1310745E+00
          2   -1    0    0  501    0  0.00000000000E+00  0.00000000000E+00  0.16113085597E+03  0.16113085597E+03  0.00000000000E+00 0.  1.
          2   -1    0    0  502    0 -0.00000000000E+00 -0.00000000000E+00 -0.19061386246E+04  0.19061386246E+04  0.00000000000E+00 0.  1.
          2    1    1    2  501    0  0.42163243464E+02 -0.21237466943E+02 -0.19023814705E+04  0.19029671643E+04  0.00000000000E+00 0.  1.
          2    1    1    2  502    0 -0.42163243464E+02  0.21237466943E+02  0.15737370186E+03  0.16430231629E+03  0.00000000000E+00 0.  1.
</event>
<event>
 4    1  0.8988950E+003  0.2149454E+02  0.7546771E-02  0.1512320E+00
          2   -1    0    0  501    0  0.00000000000E+00  0.00000000000E+00  0.96137193333E+00  0.96137193333E+00  0.00000000000E+00 0.  1.
          2   -1    0    0  502    0 -0.00000000000E+00 -0.00000000000E+00 -0.67397947270E+03  0.67397947270E+03  0.00000000000E+00 0. -1.
          2    1    1    2  501    0 -0.21148170472E+02  0.38432020799E+01 -0.15573296998E+03  0.15720932942E+03  0.00000000000E+00 0.  1.
          2    1    1    2  502    0  0.21148170472E+02 -0.38432020799E+01 -0.51728513078E+03  0.51773151521E+03  0.00000000000E+00 0. -1.
</event>
<event>
 4    1  0.8988950E+003  0.2380728E+02  0.7546771E-02  0.1482602E+00
          2   -1    0    0  502    0  0.00000000000E+00  0.00000000000E+00  0.14569645927E+01  0.14569645927E+01  0.00000000000E+00 0. -1.
          2   -1    0    0  501    0 -0.00000000000E+00 -0.00000000000E+00 -0.54376964602E+03  0.54376964602E+03  0.00000000000E+00 0.  1.
          2    1    1    2  501    0 -0.74339419653E+01  0.22616877883E+02 -0.12572565743E+03  0.12795986713E+03  0.00000000000E+00 0. -1.
          2    1    1    2  502    0  0.74339419653E+01 -0.22616877883E+02 -0.41658702400E+03  0.41726674349E+03  0.00000000000E+00 0.  1.
</event>
<event>
 4    1  0.8988950E+003  0.3382117E+02  0.7546771E-02  0.1389046E+00
          2   -1    0    0  501    0  0.00000000000E+00  0.00000000000E+00  0.57616379775E+01  0.57616379775E+01  0.00000000000E+00 0. -1.
          2   -1    0    0  502    0 -0.00000000000E+00 -0.00000000000E+00 -0.44491064585E+03  0.44491064585E+03  0.00000000000E+00 0. -1.
          2    1    1    2  501    0 -0.29188284132E+02  0.17085537179E+02 -0.38726007005E+03  0.38873414227E+03  0.00000000000E+00 0. -1.
          2    1    1    2  502    0  0.29188284132E+02 -0.17085537179E+02 -0.51888937823E+02  0.61938141558E+02  0.00000000000E+00 0. -1.
</event>
<event>
 4    1  0.8988950E+003  0.2160308E+02  0.7546771E-02  0.1510826E+00
          2   -1    0    0  501    0  0.00000000000E+00  0.00000000000E+00  0.82174558749E+02  0.82174558749E+02  0.00000000000E+00 0. -1.
          2   -1    0    0  502    0 -0.00000000000E+00 -0.00000000000E+00 -0.13041949550E+02  0.13041949550E+02  0.00000000000E+00 0. -1.
          2    1    1    2  501    0  0.11749060322E+02 -0.18128774021E+02 -0.12044794280E+01  0.21636627201E+02  0.00000000000E+00 0. -1.
          2    1    1    2  502    0 -0.11749060322E+02  0.18128774021E+02  0.70337088627E+02  0.73579881098E+02  0.00000000000E+00 0. -1.
</event>
<event>
 4    1  0.8988950E+003  0.1345783E+03  0.7546771E-02  0.1114565E+00
          2   -1    0    0  501    0  0.00000000000E+00  0.00000000000E+00  0.88342352709E+02  0.88342352709E+02  0.00000000000E+00 0.  1.
          2   -1    0    0  502    0 -0.00000000000E+00 -0.00000000000E+00 -0.53851491544E+03  0.53851491544E+03  0.00000000000E+00 0.  1.
          2    1    1    2  501    0 -0.31488931006E+02 -0.13084250946E+03 -0.47174080437E+03  0.49056161852E+03  0.00000000000E+00 0.  1.
          2    1    1    2  502    0  0.31488931006E+02  0.13084250946E+03  0.21568241642E+02  0.13629564962E+03  0.00000000000E+00 0.  1.
</event>
<event>
 4    1  0.8988950E+003  0.2345063E+02  0.7546771E-02  0.1486916E+00
          2   -1    0    0  501    0  0.00000000000E+00  0.00000000000E+00  0.83944275512E+00  0.83944275512E+00  0.00000000000E+00 0.  1.
          2   -1    0    0  502    0 -0.00000000000E+00 -0.00000000000E+00 -0.11839235711E+04  0.11839235711E+04  0.00000000000E+00 0. -1.
          2    1    1    2  501    0  0.18844346866E+02 -0.13957883420E+02 -0.98744499482E+03  0.98772341762E+03  0.00000000000E+00 0. -1.
          2    1    1    2  502    0 -0.18844346866E+02  0.13957883420E+02 -0.19563913351E+03  0.19703959622E+03  0.00000000000E+00 0.  1.
</event>
<event>
 4    1  0.8988950E+003  0.2072493E+02  0.7546771E-02  0.1523229E+00
          2   -1    0    0  502    0  0.00000000000E+00  0.00000000000E+00  0.10107844006E+04  0.10107844006E+04  0.00000000000E+00 0. -1.
          2   -1    0    0  501    0 -0.00000000000E+00 -0.00000000000E+00 -0.14660971420E+03  0.14660971420E+03  0.00000000000E+00 0. -1.
          2    1    1    2  501    0  0.20686442864E+02  0.12625154827E+01  0.10099451313E+04  0.10101577555E+04  0.00000000000E+00 0. -1.
          2    1    1    2  502    0 -0.20686442864E+02 -0.12625154827E+01 -0.14577044492E+03  0.14723635922E+03  0.00000000000E+00 0. -1.
</event>
<event>
 4    1  0.8988950E+003  0.6237672E+02  0.7546771E-02  0.1251964E+00
          2   -1    0    0  502    0  0.00000000000E+00  0.00000000000E+00  0.40238997961E+03  0.40238997961E+03  0.00000000000E+00 0. -1.
          2   -1    0    0  501    0 -0.00000000000E+00 -0.00000000000E+00 -0.20270032393E+03  0.20270032393E+03  0.00000000000E+00 0.  1.
          2    1    1    2  501    0 -0.17014936153E+02 -0.60011220219E+02  0.39508568891E+03  0.39997944471E+03  0.00000000000E+00 0. -1.
          2    1    1    2  502    0  0.17014936153E+02  0.60011220219E+02 -0.19539603324E+03  0.20511085883E+03  0.00000000000E+00 0.  1.
</event>
<event>
 4    1  0.8988950E+003  0.3236562E+02  0.7546771E-02  0.1400094E+00
          2   -1    0    0  501    0  0.00000000000E+00  0.00000000000E+00  0.69772593178E+02  0.69772593178E+02  0.00000000000E+00 0. -1.
          2   -1    0    0  502    0 -0.00000000000E+00 -0.00000000000E+00 -0.23833966966E+03  0.23833966966E+03  0.00000000000E+00 0.  1.
          2    1    1    2  501    0  0.16516078422E+01  0.32323454875E+02 -0.23340858474E+03  0.23564189139E+03  0.00000000000E+00 0.  1.
          2    1    1    2  502    0 -0.16516078422E+01 -0.32323454875E+02  0.64841508267E+02  0.72470371448E+02  0.00000000000E+00 0. -1.
</event>
<event>
 4    1  0.8988950E+003  0.2078916E+02  0.7546771E-02  0.1522296E+00
          2   -1    0    0  501    0  0.00000000000E+00  0.00000000000E+00  0.86170139016E+01  0.86170139016E+01  0.00000000000E+00 0.  1.
          2   -1    0    0  502    0 -0.00000000000E+00 -0.00000000000E+00 -0.57881154433E+03  0.57881154433E+03  0.00000000000E+00 0.  1.
          2    1    1    2  501    0  0.16087977465E+02  0.13166863211E+02 -0.56579773078E+03  0.56617953112E+03  0.00000000000E+00 0.  1.
          2    1    1    2  502    0 -0.16087977465E+02 -0.13166863211E+02 -0.43967996423E+01  0.21249027104E+02  0.00000000000E+00 0.  1.
</event>
<event>
 4    1  0.8988950E+003  0.3161360E+02  0.7546771E-02  0.1406074E+00
          2   -1    0    0  501    0  0.00000000000E+00  0.00000000000E+00  0.16176250843E+03  0.16176250843E+03  0.00000000000E+00 0. -1.
          2   -1    0    0  502    0 -0.00000000000E+00 -0.00000000000E+00 -0.32064286017E+02  0.32064286017E+02  0.00000000000E+00 0. -1.
          2    1    1    2  501    0 -0.31224879216E+02 -0.49423055858E+01 -0.22228253037E+02  0.38646017902E+02  0.00000000000E+00 0. -1.
          2    1    1    2  502    0  0.31224879216E+02  0.49423055858E+01  0.15192647546E+03  0.15518077655E+03  0.00000000000E+00 0. -1.
</event>
<event>
 4    1  0.8988950E+003  0.2155198E+02  0.7546771E-02  0.1511528E+00
          2   -1    0    0  502    0  0.00000000000E+00  0.00000000000E+00  0.35874428537E+00  0.35874428537E+00  0.00000000000E+00 0.  1.
          2   -1    0    0  501    0 -0.00000000000E+00 -0.00000000000E+00 -0.17856602011E+04  0.17856602011E+04  0.00000000000E+00 0.  1.
          2    1    1    2  501    0  0.15868796005E+02  0.14583179569E+02 -0.42442725251E+03  0.42497409390E+03  0.00000000000E+00 0.  1.
          2    1    1    2  502    0 -0.15868796005E+02 -0.14583179569E+02 -0.13608742043E+04  0.13610448515E+04  0.00000000000E+00 0.  1.
</event>
<event>
 4    1  0.8988950E+003  0.3322521E+02  0.7546771E-02  0.1393489E+00
          2   -1    0    0  502    0  0.00000000000E+00  0.00000000000E+00  0.20244354586E+02  0.20244354586E+02  0.00000000000E+00 0.  1.
          2   -1    0    0  501    0 -0.00000000000E+00 -0.00000000000E+00 -0.14541239940E+04  0.14541239940E+04  0.00000000000E+00 0.  1.
          2    1    1    2  501    0  0.30040096458E+02  0.14195324481E+02  0.62901174300E+01  0.33815384215E+02  0.00000000000E+00 0.  1.
          2    1    1    2  502    0 -0.30040096458E+02 -0.14195324481E+02 -0.14401697568E+04  0.14405529644E+04  0.00000000000E+00 0.  1.
</event>
<event>
 4    1  0.8988950E+003  0.4497901E+02  0.7546771E-02  0.1321544E+00
          2   -1    0    0  501    0  0.00000000000E+00  0.00000000000E+00  0.20566137964E+02  0.20566137964E+02  0.00000000000E+00 0.  1.
          2   -1    0    0  502    0 -0.00000000000E+00 -0.00000000000E+00 -0.11102884255E+03  0.11102884255E+03  0.00000000000E+00 0.  1.
          2    1    1    2  501    0  0.31552916172E+02 -0.32055025060E+02 -0.67447645898E+02  0.81069698949E+02  0.00000000000E+00 0.  1.
          2    1    1    2  502    0 -0.31552916172E+02  0.32055025060E+02 -0.23015058683E+02  0.50525281560E+02  0.00000000000E+00 0.  1.
</event>
<event>
 4    1  0.8988950E+003  0.2821922E+02  0.7546771E-02  0.1435731E+00
          2   -1    0    0  502    0  0.00000000000E+00  0.00000000000E+00  0.17003477739E+04  0.17003477739E+04  0.00000000000E+00 0. -1.
          2   -1    0    0  501    0 -0.00000000000E+00 -0.00000000000E+00 -0.64955326666E+00  0.64955326666E+00  0.00000000000E+00 0. -1.
          2    1    1    2  501    0 -0.55034759111E+01 -0.27677353351E+02  0.12990835489E+04  0.12993900073E+04  0.00000000000E+00 0. -1.
          2    1    1    2  502    0  0.55034759111E+01  0.27677353351E+02  0.40061467177E+03  0.40160731987E+03  0.00000000000E+00 0. -1.
</event>
<event>
 4    1  0.1590831E+004  0.2188170E+02  0.7546771E-02  0.1507039E+00
          2   -1    0    0  502    0  0.00000000000E+00  0.00000000000E+00  0.15712188603E+04  0.15712188603E+04  0.00000000000E+00 0. -1.
          2   -1    0    0  501    0 -0.00000000000E+00 -0.00000000000E+00 -0.66777786407E+03  0.66777786407E+03  0.00000000000E+00 0.  1.
          2    1    1    2  501    0 -0.21570741977E+02  0.36758776388E+01  0.15709633922E+04  0.15711157783E+04  0.00000000000E+00 0. -1.
          2    1    1    2  502    0  0.21570741977E+02 -0.36758776388E+01 -0.66752239601E+03  0.66788094610E+03  0.00000000000E+00 0.  1.
</event>
<event>
 4    1  0.8988950E+003  0.3582375E+02  0.7546771E-02  0.1374863E+00
          2   -1    0    0  501    0  0.00000000000E+00  0.00000000000E+00  0.92426858777E+03  0.92426858777E+03  0.00000000000E+00 0. -1.
          2   -1    0    0  502    0 -0.00000000000E+00 -0.00000000000E+00 -0.41877965998E+01  0.41877965998E+01  0.00000000000E+00 0. -1.
          2    1    1    2  501    0  0.32873235147E+02  0.14236980193E+02  0.80495057546E+02  0.88106727798E+02  0.00000000000E+00 0. -1.
          2    1    1    2  502    0 -0.32873235147E+02 -0.14236980193E+02  0.83958573362E+03  0.84034965657E+03  0.00000000000E+00 0. -1.
</event>
<event>
 4    1  0.8988950E+003  0.2101448E+02  0.7546771E-02  0.1519058E+00
          2   -1    0    0  501    0  0.00000000000E+00  0.00000000000E+00  0.44830379652E+01  0.44830379652E+01  0.00000000000E+00 0.  1.
          2   -1    0    0  502    0 -0.00000000000E+00 -0.00000000000E+00 -0.30275520006E+03  0.30275520006E+03  0.00000000000E+00 0.  1.
          2    1    1    2  501    0  0.16185518385E+02  0.13402888645E+02 -0.27531276317E+03  0.27611361066E+03  0.00000000000E+00 0.  1.
          2    1    1    2  502    0 -0.16185518385E+02 -0.13402888645E+02 -0.22959398927E+02  0.31124627364E+02  0.00000000000E+00 0.  1.
</event>
<event>
 4    1  0.8988950E+003  0.3681371E+02  0.7546771E-02  0.1368242E+00
          2   -1    0    0  501    0  0.00000000000E+00  0.00000000000E+00  0.43276067326E+01  0.43276067326E+01  0.00000000000E+00 0.  1.
          2   -1    0    0  502    0 -0.00000000000E+00 -0.00000000000E+00 -0.31330731610E+03  0.31330731610E+03  0.00000000000E+00 0. -1.
          2    1    1    2  501    0  0.36459328968E+02  0.50957707824E+01 -0.15788955335E+03  0.16212452192E+03  0.00000000000E+00 0. -1.
          2    1    1    2  502    0 -0.36459328968E+02 -0.50957707824E+01 -0.15109015601E+03  0.15551040092E+03  0.00000000000E+00 0.  1.
</event>
<event>
 4    1  0.8988950E+003  0.2012844E+02  0.7546771E-02  0.1532081E+00
          2   -1    0    0  501    0  0.00000000000E+00  0.00000000000E+00  0.62779591939E+01  0.62779591939E+01  0.00000000000E+00 0.  1.
          2   -1    0    0  502    0 -0.00000000000E+00 -0.00000000000E+00 -0.70218542280E+03  0.70218542280E+03  0.00000000000E+00 0. -1.
          2    1    1    2  501    0  0.57602286311E+01 -0.19286621317E+02 -0.68551492524E+03  0.68581037227E+03  0.00000000000E+00 0. -1.
          2    1    1    2  502    0 -0.57602286311E+01  0.19286621317E+02 -0.10392538372E+02  0.22653009723E+02  0.00000000000E+00 0.  1.
</event>
<event>
 4    1  0.8988950E+003  0.2229401E+02  0.7546771E-02  0.1501559E+00
          2   -1    0    0  502    0  0.00000000000E+00  0.00000000000E+00  0.42567731907E+03  0.42567731907E+03  0.00000000000E+00 0. -1.
          2   -1    0    0  501    0 -0.00000000000E+00 -0.00000000000E+00 -0.15427518027E+01  0.15427518027E+01  0.00000000000E+00 0. -1.
          2    1    1    2  501    0  0.17784654066E+02 -0.13443548772E+02  0.31740267253E+03  0.31818466250E+03  0.00000000000E+00 0. -1.
          2    1    1    2  502    0 -0.17784654066E+02  0.13443548772E+02  0.10673189474E+03  0.10903540837E+03  0.00000000000E+00 0. -1.
</event>
<event>
 4    1  0.8988950E+003  0.2325010E+02  0.7546771E-02  0.1489381E+00
          2   -1    0    0  501    0  0.00000000000E+00  0.00000000000E+00  0.19581830636E+04  0.19581830636E+04  0.00000000000E+00 0. -1.
          2   -1    0    0  502    0 -0.00000000000E+00 -0.00000000000E+00 -0.27910803416E+00  0.27910803416E+00  0.00000000000E+00 0.  1.
          2    1    1    2  501    0 -0.18541074236E+02  0.14028389461E+02  0.87654454728E+03  0.87685284427E+03  0.00000000000E+00 0.  1.
          2    1    1    2  502    0  0.18541074236E+02 -0.14028389461E+02  0.10813594083E+04  0.10816093273E+04  0.00000000000E+00 0. -1.
</event>
<event>
 4    1  0.8988950E+003  0.2492080E+02  0.7546771E-02  0.1469691E+00
          2   -1    0    0  502    0  0.00000000000E+00  0.00000000000E+00  0.12642911208E+02  0.12642911208E+02  0.00000000000E+00 0.  1.
          2   -1    0    0  501    0 -0.00000000000E+00 -0.00000000000E+00 -0.36493968975E+03  0.36493968975E+03  0.00000000000E+00 0.  1.
          2    1    1    2  501    0 -0.24626506120E+02 -0.38185498464E+01 -0.52207052179E+00  0.24926264947E+02  0.00000000000E+00 0.  1.
          2    1    1    2  502    0  0.24626506120E+02  0.38185498464E+01 -0.35177470802E+03  0.35265633601E+03  0.00000000000E+00 0.  1.
</event>
<event>
 4    1  0.8988950E+003  0.2885775E+02  0.7546771E-02  0.1429789E+00
          2   -1    0    0  501    0  0.00000000000E+00  0.00000000000E+00  0.18094655788E+04  0.18094655788E+04  0.00000000000E+00 0. -1.
          2   -1    0    0  502    0 -0.00000000000E+00 -0.00000000000E+00 -0.19965909357E+03  0.19965909357E+03  0.00000000000E+00 0. -1.
          2    1    1    2  501    0 -0.27842577038E+02 -0.75868641389E+01 -0.19850062881E+03  0.20058731077E+03  0.00000000000E+00 0. -1.
          2    1    1    2  502    0  0.27842577038E+02  0.75868641389E+01  0.18083071140E+04  0.18085373616E+04  0.00000000000E+00 0. -1.
</event>
<event>
 4    1  0.8988950E+003  0.5541005E+02  0.7546771E-02  0.1276279E+00
          2   -1    0    0  502    0  0.00000000000E+00  0.00000000000E+00  0.79387800212E+03  0.79387800212E+03  0.00000000000E+00 0.  1.
          2   -1    0    0  501    0 -0.00000000000E+00 -0.00000000000E+00 -0.49170967071E+01  0.49170967071E+01  0.00000000000E+00 0. -1.
          2    1    1    2  501    0  0.23505234682E+02 -0.50177459872E+02  0.20994696686E+03  0.21713590774E+03  0.00000000000E+00 0. -1.
          2    1    1    2  502    0 -0.23505234682E+02  0.50177459872E+02  0.57901393856E+03  0.58165919109E+03  0.00000000000E+00 0.  1.
</event>
<event>
 4    1  0.8988950E+003  0.2418383E+02  0.7546771E-02  0.1478145E+00
          2   -1    0    0  502    0  0.00000000000E+00  0.00000000000E+00  0.25822894660E+03  0.25822894660E+03  0.00000000000E+00 0.  1.
          2   -1    0    0  501    0 -0.00000000000E+00 -0.00000000000E+00 -0.44364880425E+01  0.44364880425E+01  0.00000000000E+00 0. -1.
          2    1    1    2  501    0 -0.18029923056E+02 -0.16117670619E+02  0.21878110859E+03  0.22011367724E+03  0.00000000000E+00 0.  1.
          2    1    1    2  502    0  0.18029923056E+02  0.16117670619E+02  0.35011349965E+02  0.42551757401E+02  0.00000000000E+00 0. -1.
</event>
<event>
 4    1  0.8988950E+003  0.2349013E+02  0.7546771E-02  0.1486434E+00
          2   -1    0    0  501    0  0.00000000000E+00  0.00000000000E+00  0.93250575482E+03  0.93250575482E+03  0.00000000000E+00 0.  1.
          2   -1    0    0  502    0 -0.00000000000E+00 -0.00000000000E+00 -0.88105430993E+01  0.88105430993E+01  0.00000000000E+00 0.  1.
          2    1    1    2  501    0  0.21163003276E+02  0.10193785975E+02  0.72690393787E+01  0.24589121856E+02  0.00000000000E+00 0.  1.
          2    1    1    2  502    0 -0.21163003276E+02 -0.10193785975E+02  0.91642617234E+03  0.91672717606E+03  0.00000000000E+00 0.  1.
</event>
<event>
 4    1  0.8988950E+003  0.3628365E+02  0.7546771E-02  0.1371757E+00
          2   -1    0    0  501    0  0.00000000000E+00  0.00000000000E+00  0.16647415087E+02  0.16647415087E+02  0.00000000000E+00 0.  1.
          2   -1    0    0  502    0 -0.00000000000E+00 -0.00000000000E+00 -0.20778611772E+03  0.20778611772E+03  0.00000000000E+00 0. -1.
          2    1    1    2  501    0  0.11543450177E+01  0.36265286300E+02 -0.18388678771E+03  0.18743226563E+03  0.00000000000E+00 0. -1.
          2    1    1    2  502    0 -0.11543450177E+01 -0.36265286300E+02 -0.72519149186E+01  0.37001267179E+02  0.00000000000E+00 0.  1.
</event>
<event>
 4    1  0.8988950E+003  0.2453697E+02  0.7546771E-02  0.1474050E+00
          2   -1    0    0  502    0  0.00000000000E+00  0.00000000000E+00  0.28786796239E+02  0.28786796239E+02  0.00000000000E+00 0.  1.
          2   -1    0    0  501    0 -0.00000000000E+00 -0.00000000000E+00 -0.88137511596E+02  0.88137511596E+02  0.00000000000E+00 0. -1.
          2    1    1    2  501    0  0.16957083759E+02 -0.17734722407E+02  0.21381398668E+02  0.32545772037E+02  0.00000000000E+00 0.  1.
          2    1    1    2  502    0 -0.16957083759E+02  0.17734722407E+02 -0.80732114025E+02  0.84378535798E+02  0.00000000000E+00 0. -1.
</event>
<event>
 4    1  0.8988950E+003  0.2336535E+02  0.7546771E-02  0.1487961E+00
          2   -1    0    0  501    0  0.00000000000E+00  0.00000000000E+00  0.22307332157E+03  0.22307332157E+03  0.00000000000E+00 0. -1.
          2   -1    0    0  502    0 -0.00000000000E+00 -0.00000000000E+00 -0.94340410217E+03  0.94340410217E+03  0.00000000000E+00 0. -1.
          2    1    1    2  501    0  0.23040358057E+02  0.38834985345E+01 -0.94264709929E+03  0.94293663279E+03  0.00000000000E+00 0. -1.
          2    1    1    2  502    0 -0.23040358057E+02 -0.38834985345E+01  0.22231631869E+03  0.22354079094E+03  0.00000000000E+00 0. -1.
</event>
<event>
 4    1  0.8988950E+003  0.2090861E+02  0.7546771E-02  0.1520574E+00
          2   -1    0    0  502    0  0.00000000000E+00  0.00000000000E+00  0.66036808696E+00  0.66036808696E+00  0.00000000000E+00 0. -1.
          2   -1    0    0  501    0 -0.00000000000E+00 -0.00000000000E+00 -0.69468130725E+03  0.69468130725E+03  0.00000000000E+00 0.  1.
          2    1    1    2  501    0  0.16940701508E+02  0.12254904694E+02 -0.27161227724E+03  0.27241585711E+03  0.00000000000E+00 0. -1.
          2    1    1    2  502    0 -0.16940701508E+02 -0.12254904694E+02 -0.42240866192E+03  0.42292581823E+03  0.00000000000E+00 0.  1.
</event>
<event>
 4    1  0.8988950E+003  0.3267843E+02  0.7546771E-02  0.1397663E+00
          2   -1    0    0  502    0  0.00000000000E+00  0.00000000000E+00  0.36390278970E+02  0.36390278970E+02  0.00000000000E+00 0.  1.
          2   -1    0    0  501    0 -0.00000000000E+00 -0.00000000000E+00 -0.54691390561E+03  0.54691390561E+03  0.00000000000E+00 0. -1.
          2    1    1    2  501    0  0.68586407277E+01 -0.31950565598E+02  0.28457972251E+02  0.43332848733E+02  0.00000000000E+00 0.  1.
          2    1    1    2  502    0 -0.68586407277E+01  0.31950565598E+02 -0.53898159889E+03  0.53997133585E+03  0.00000000000E+00 0. -1.
</event>
<event>
 4    1  0.8988950E+003  0.2727212E+02  0.7546771E-02  0.1444894E+00
          2   -1    0    0  502    0  0.00000000000E+00  0.00000000000E+00  0.64213117658E+01  0.64213117658E+01  0.00000000000E+00 0.  1.
          2   -1    0    0  501    0 -0.00000000000E+00 -0.00000000000E+00 -0.42462345480E+03  0.42462345480E+03  0.00000000000E+00 0. -1.
          2    1    1    2  501    0  0.85835837198E+01 -0.25886111552E+02 -0.25309439872E+02  0.37206671813E+02  0.00000000000E+00 0.  1.
          2    1    1    2  502    0 -0.85835837198E+01  0.25886111552E+02 -0.39289270316E+03  0.39383809475E+03  0.00000000000E+00 0. -1.
</event>
<event>
 4    1  0.8988950E+003  0.2399202E+02  0.7546771E-02  0.1480403E+00
          2   -1    0    0  502    0  0.00000000000E+00  0.00000000000E+00  0.21898528398E+03  0.21898528398E+03  0.00000000000E+00 0. -1.
          2   -1    0    0  501    0 -0.00000000000E+00 -0.00000000000E+00 -0.11812909420E+02  0.11812909420E+02  0.00000000000E+00 0. -1.
          2    1    1    2  501    0  0.20059617385E+02 -0.13161631371E+02  0.20533938859E+03  0.20673626024E+03  0.00000000000E+00 0. -1.
          2    1    1    2  502    0 -0.20059617385E+02  0.13161631371E+02  0.18329859699E+01  0.24061933163E+02  0.00000000000E+00 0. -1.
</event>
<event>
 4    1  0.8988950E+003  0.2709756E+02  0.7546771E-02  0.1446631E+00
          2   -1    0    0  502    0  0.00000000000E+00  0.00000000000E+00  0.19727220959E+04  0.19727220959E+04  0.00000000000E+00 0. -1.
          2   -1    0    0  501    0 -0.00000000000E+00 -0.00000000000E+00 -0.70387702184E+00  0.70387702184E+00  0.00000000000E+00 0. -1.
          2    1    1    2  501    0 -0.64717310462E+01  0.26313385274E+02  0.16633231198E+04  0.16635438312E+04  0.00000000000E+00 0. -1.
          2    1    1    2  502    0  0.64717310462E+01 -0.26313385274E+02  0.30869509903E+03  0.30988214165E+03  0.00000000000E+00 0. -1.
</event>
<event>
 4    1  0.8988950E+003  0.2789706E+02  0.7546771E-02  0.1438799E+00
          2   -1    0    0  501    0  0.00000000000E+00  0.00000000000E+00  0.15440444529E+02  0.15440444529E+02  0.00000000000E+00 0. -1.
          2   -1    0    0  502    0 -0.00000000000E+00 -0.00000000000E+00 -0.18503485381E+03  0.18503485381E+03  0.00000000000E+00 0. -1.
          2    1    1    2  501    0 -0.23146923125E+02 -0.15571317923E+02 -0.17029952145E+03  0.17256932809E+03  0.00000000000E+00 0. -1.
          2    1    1    2  502    0  0.23146923125E+02  0.15571317923E+02  0.70511217223E+00  0.27905970243E+02  0.00000000000E+00 0. -1.
</event>
<event>
 4    1  0.8988950E+003  0.2091284E+02  0.7546771E-02  0.1520513E+00
          2   -1    0    0  501    0  0.00000000000E+00  0.00000000000E+00  0.49892621568E+00  0.49892621568E+00  0.00000000000E+00 0.  1.
          2   -1    0    0  502    0 -0.00000000000E+00 -0.00000000000E+00 -0.87998561409E+03  0.87998561409E+03  0.00000000000E+00 0.  1.
          2    1    1    2  501    0  0.74075198366E+01 -0.19556979918E+02 -0.46714633626E+03  0.46761420669E+03  0.00000000000E+00 0.  1.
          2    1    1    2  502    0 -0.74075198366E+01  0.19556979918E+02 -0.41234035161E+03  0.41287033362E+03  0.00000000000E+00 0.  1.
</event>
<event>
 4    1  0.8988950E+003  0.2823121E+02  0.7546771E-02  0.1435617E+00
          2   -1    0    0  502    0  0.00000000000E+00  0.00000000000E+00  0.12469972286E+02  0.12469972286E+02  0.00000000000E+00 0.  1.
          2   -1    0    0  501    0 -0.00000000000E+00 -0.00000000000E+00 -0.69611154778E+02  0.69611154778E+02  0.00000000000E+00 0. -1.
          2    1    1    2  501    0 -0.80611811481E+01 -0.27055846472E+02 -0.16829291726E+02  0.32866799811E+02  0.00000000000E+00 0. -1.
          2    1    1    2  502    0  0.80611811481E+01  0.27055846472E+02 -0.40311890766E+02  0.49214327253E+02  0.00000000000E+00 0.  1.
</event>
<event>
 4    1  0.8988950E+003  0.2123914E+02  0.7546771E-02  0.1515878E+00
          2   -1    0    0  502    0  0.00000000000E+00  0.00000000000E+00  0.20729595406E+02  0.20729595406E+02  0.00000000000E+00 0.  1.
          2   -1    0    0  501    0 -0.00000000000E+00 -0.00000000000E+00 -0.53178528172E+02  0.53178528172E+02  0.00000000000E+00 0. -1.
          2    1    1    2  501    0 -0.15772818190E+02 -0.14223902949E+02  0.12179470301E+02  0.24483478216E+02  0.00000000000E+00 0.  1.
          2    1    1    2  502    0  0.15772818190E+02  0.14223902949E+02 -0.44628403067E+02  0.49424645361E+02  0.00000000000E+00 0. -1.
</event>
<event>
 4    1  0.8988950E+003  0.2018295E+02  0.7546771E-02  0.1531257E+00
          2   -1    0    0  502    0  0.00000000000E+00  0.00000000000E+00  0.62021578733E+02  0.62021578733E+02  0.00000000000E+00 0.  1.
          2   -1    0    0  501    0 -0.00000000000E+00 -0.00000000000E+00 -0.48716821473E+03  0.48716821473E+03  0.00000000000E+00 0.  1.
          2    1    1    2  501    0 -0.16208063900E+02  0.12027066800E+02  0.60164281421E+02  0.63459376219E+02  0.00000000000E+00 0.  1.
          2    1    1    2  502    0  0.16208063900E+02 -0.12027066800E+02 -0.48531091742E+03  0.48573041724E+03  0.00000000000E+00 0.  1.
</event>
<event>
 4    1  0.8988950E+003  0.2366831E+02  0.7546771E-02  0.1484272E+00
          2   -1    0    0  501    0  0.00000000000E+00  0.00000000000E+00  0.29903269135E+02  0.29903269135E+02  0.00000000000E+00 0. -1.
          2   -1    0    0  502    0 -0.00000000000E+00 -0.00000000000E+00 -0.93830164310E+02  0.93830164310E+02  0.00000000000E+00 0. -1.
          2    1    1    2  501    0 -0.15448104851E+02 -0.17931671926E+02 -0.87310761534E+02  0.90461913982E+02  0.00000000000E+00 0. -1.
          2    1    1    2  502    0  0.15448104851E+02  0.17931671926E+02  0.23383866358E+02  0.33271519463E+02  0.00000000000E+00 0. -1.
</event>
<event>
 4    1  0.8988950E+003  0.2045991E+02  0.7546771E-02  0.1527117E+00
          2   -1    0    0  501    0  0.00000000000E+00  0.00000000000E+00  0.42614491351E+01  0.42614491351E+01  0.00000000000E+00 0. -1.
          2   -1    0    0  502    0 -0.00000000000E+00 -0.00000000000E+00 -0.21345527707E+03  0.21345527707E+03  0.00000000000E+00 0.  1.
          2    1    1    2  501    0  0.10553975035E+02 -0.17527737365E+02 -0.18457659345E+03  0.18570709953E+03  0.00000000000E+00 0.  1.
          2    1    1    2  502    0 -0.10553975035E+02  0.17527737365E+02 -0.24617234484E+02  0.32009626674E+02  0.00000000000E+00 0. -1.
</event>
<event>
 4    1  0.8988950E+003  0.2244796E+02  0.7546771E-02  0.1499549E+00
          2   -1    0    0  502    0  0.00000000000E+00  0.00000000000E+00  0.82009022847E+01  0.82009022847E+01  0.00000000000E+00 0.  1.
          2   -1    0    0  501    0 -0.00000000000E+00 -0.00000000000E+00 -0.97306987027E+02  0.97306987027E+02  0.00000000000E+00 0.  1.
          2    1    1    2  501    0  0.63523254077E+01  0.21530419599E+02 -0.12527591425E+02  0.25707033145E+02  0.00000000000E+00 0.  1.
          2    1    1    2  502    0 -0.63523254077E+01 -0.21530419599E+02 -0.76578493317E+02  0.79800856166E+02  0.00000000000E+00 0.  1.
</event>
<event>
 4    1  0.8988950E+003  0.2208217E+02  0.7546771E-02  0.1504357E+00
          2   -1    0    0  501    0  0.00000000000E+00  0.00000000000E+00  0.34913024788E+02  0.34913024788E+02  0.00000000000E+00 0.  1.
          2   -1    0    0  502    0 -0.00000000000E+00 -0.00000000000E+00 -0.61010234294E+02  0.61010234294E+02  0.00000000000E+00 0. -1.
          2    1    1    2  501    0 -0.11079061960E+02  0.19101745661E+02 -0.55164129542E+02  0.59419723067E+02  0.00000000000E+00 0. -1.
          2    1    1    2  502    0  0.11079061960E+02 -0.19101745661E+02  0.29066920036E+02  0.36503536015E+02  0.00000000000E+00 0.  1.
</event>
<event>
 4    1  0.8988950E+003  0.2604331E+02  0.7546771E-02  0.1457462E+00
          2   -1    0    0  502    0  0.00000000000E+00  0.00000000000E+00  0.64553864110E+03  0.64553864110E+03  0.00000000000E+00 0.  1.
          2   -1    0    0  501    0 -0.00000000000E+00 -0.00000000000E+00 -0.11190019075E+01  0.11190019075E+01  0.00000000000E+00 0.  1.
          2    1    1    2  501    0 -0.29026196888E+01 -0.25881050350E+02  0.40210338621E+03  0.40294588616E+03  0.00000000000E+00 0.  1.
          2    1    1    2  502    0  0.29026196888E+01  0.25881050350E+02  0.24231625298E+03  0.24371175685E+03  0.00000000000E+00 0.  1.
</event>
<event>
 4    1  0.8988950E+003  0.2831916E+02  0.7546771E-02  0.1434789E+00
          2   -1    0    0  502    0  0.00000000000E+00  0.00000000000E+00  0.41661360948E+02  0.41661360948E+02  0.00000000000E+00 0. -1.
          2   -1    0    0  501    0 -0.00000000000E+00 -0.00000000000E+00 -0.11454466262E+04  0.11454466262E+04  0.00000000000E+00 0.  1.
          2    1    1    2  501    0 -0.27236613573E-01 -0.28319149927E+02  0.36652730392E+02  0.46318437362E+02  0.00000000000E+00 0. -1.
          2    1    1    2  502    0  0.27236613573E-01  0.28319149927E+02 -0.11404379956E+04  0.11407895498E+04  0.00000000000E+00 0.  1.
</event>
<event>
 4    1  0.8988950E+003  0.2211413E+02  0.7546771E-02  0.1503932E+00
          2   -1    0    0  501    0  0.00000000000E+00  0.00000000000E+00  0.10561337194E+03  0.10561337194E+03  0.00000000000E+00 0. -1.
          2   -1    0    0  502    0 -0.00000000000E+00 -0.00000000000E+00 -0.57664188529E+01  0.57664188529E+01  0.00000000000E+00 0.  1.
          2    1    1    2  501    0 -0.16337913368E+02 -0.14903262006E+02  0.74641378264E+02  0.77848378151E+02  0.00000000000E+00 0. -1.
          2    1    1    2  502    0  0.16337913368E+02  0.14903262006E+02  0.25205574828E+02  0.33531412646E+02  0.00000000000E+00 0.  1.
</event>
<event>
 4    1  0.8988950E+003  0.2547771E+02  0.7546771E-02  0.1463530E+00
          2   -1    0    0  502    0  0.00000000000E+00  0.00000000000E+00  0.38994881250E+03  0.38994881250E+03  0.00000000000E+00 0. -1.
          2   -1    0    0  501    0 -0.00000000000E+00 -0.00000000000E+00 -0.44642806654E+02  0.44642806654E+02  0.00000000000E+00 0.  1.
          2    1    1    2  501    0 -0.23923701149E+02 -0.87618757556E+01  0.38585913147E+03  0.38669934481E+03  0.00000000000E+00 0. -1.
          2    1    1    2  502    0  0.23923701149E+02  0.87618757556E+01 -0.40553125623E+02  0.47892274338E+02  0.00000000000E+00 0.  1.
</event>
<event>
 4    1  0.8988950E+003  0.2438113E+02  0.7546771E-02  0.1475847E+00
          2   -1    0    0  501    0  0.00000000000E+00  0.00000000000E+00  0.44677061396E+03  0.44677061396E+03  0.00000000000E+00 0. -1.
          2   -1    0    0  502    0 -0.00000000000E+00 -0.00000000000E+00 -0.31219047003E+03  0.31219047003E+03  0.00000000000E+00 0.  1.
          2    1    1    2  501    0  0.88443907421E+01 -0.22720390588E+02 -0.31138095236E+03  0.31233401494E+03  0.00000000000E+00 0.  1.
          2    1    1    2  502    0 -0.88443907421E+01  0.22720390588E+02  0.44596109629E+03  0.44662706904E+03  0.00000000000E+00 0. -1.
</event>
<event>
 4    1  0.8988950E+003  0.2084658E+02  0.7546771E-02  0.1521467E+00
          2   -1    0    0  502    0  0.00000000000E+00  0.00000000000E+00  0.36650453737E+00  0.36650453737E+00  0.00000000000E+00 0.  1.
          2   -1    0    0  501    0 -0.00000000000E+00 -0.00000000000E+00 -0.17528857056E+04  0.17528857056E+04  0.00000000000E+00 0. -1.
          2    1    1    2  501    0 -0.33231180903E+01  0.20580008485E+02 -0.37762304241E+03  0.37819801959E+03  0.00000000000E+00 0.  1.
          2    1    1    2  502    0  0.33231180903E+01 -0.20580008485E+02 -0.13748961587E+04  0.13750541906E+04  0.00000000000E+00 0. -1.
</event>
<event>
 4    1  0.8988950E+003  0.2403991E+02  0.7546771E-02  0.1479837E+00
          2   -1    0    0  502    0  0.00000000000E+00  0.00000000000E+00  0.11383877641E+04  0.11383877641E+04  0.00000000000E+00 0. -1.
          2   -1    0    0  501    0 -0.00000000000E+00 -0.00000000000E+00 -0.10149928098E+02  0.10149928098E+02  0.00000000000E+00 0. -1.
          2    1    1    2  501    0  0.16275121836E+01  0.23984754152E+02  0.11238421199E+04  0.11240992072E+04  0.00000000000E+00 0. -1.
          2    1    1    2  502    0 -0.16275121836E+01 -0.23984754152E+02  0.43957161037E+01  0.24438484972E+02  0.00000000000E+00 0. -1.
</event>
<event>
 4    1  0.8988950E+003  0.2558162E+02  0.7546771E-02  0.1462401E+00
          2   -1    0    0  501    0  0.00000000000E+00  0.00000000000E+00  0.77555761892E+03  0.77555761892E+03  0.00000000000E+00 0. -1.
          2   -1    0    0  502    0 -0.00000000000E+00 -0.00000000000E+00 -0.93578481437E+02  0.93578481437E+02  0.00000000000E+00 0. -1.
          2    1    1    2  501    0 -0.30923419454E+01 -0.25394029790E+02 -0.91614776656E+02  0.95119328369E+02  0.00000000000E+00 0. -1.
          2    1    1    2  502    0  0.30923419454E+01  0.25394029790E+02  0.77359391413E+03  0.77401677198E+03  0.00000000000E+00 0. -1.
</event>
<event>
 4    1  0.8988950E+003  0.4474540E+02  0.7546771E-02  0.1322717E+00
          2   -1    0    0  502    0  0.00000000000E+00  0.00000000000E+00  0.21350752098E+04  0.21350752098E+04  0.00000000000E+00 0.  1.
          2   -1    0    0  501    0 -0.00000000000E+00 -0.00000000000E+00 -0.57656643639E+03  0.57656643639E+03  0.00000000000E+00 0.  1.
          2    1    1    2  501    0 -0.32285789042E+02 -0.30980300934E+02  0.21339721899E+04  0.21344412521E+04  0.00000000000E+00 0.  1.
          2    1    1    2  502    0  0.32285789042E+02  0.30980300934E+02 -0.57546341651E+03  0.57720039411E+03  0.00000000000E+00 0.  1.
</event>
<event>
 4    1  0.8988950E+003  0.2304510E+02  0.7546771E-02  0.1491933E+00
          2   -1    0    0  501    0  0.00000000000E+00  0.00000000000E+00  0.28871098945E+03  0.28871098945E+03  0.00000000000E+00 0.  1.
          2   -1    0    0  502    0 -0.00000000000E+00 -0.00000000000E+00 -0.18641569542E+01  0.18641569542E+01  0.00000000000E+00 0.  1.
          2    1    1    2  501    0  0.16641704726E+02  0.15941457939E+02  0.12670542829E+03  0.12878409054E+03  0.00000000000E+00 0.  1.
          2    1    1    2  502    0 -0.16641704726E+02 -0.15941457939E+02  0.16014140420E+03  0.16179105587E+03  0.00000000000E+00 0.  1.
</event>
<event>
 4    1  0.8988950E+003  0.2155401E+02  0.7546771E-02  0.1511500E+00
          2   -1    0    0  502    0  0.00000000000E+00  0.00000000000E+00  0.15883273144E+03  0.15883273144E+03  0.00000000000E+00 0. -1.
          2   -1    0    0  501    0 -0.00000000000E+00 -0.00000000000E+00 -0.33241011650E+01  0.33241011650E+01  0.00000000000E+00 0. -1.
          2    1    1    2  501    0 -0.14232420593E+02 -0.16186827118E+02  0.10585040274E+03  0.10802260379E+03  0.00000000000E+00 0. -1.
          2    1    1    2  502    0  0.14232420593E+02  0.16186827118E+02  0.49658227531E+02  0.54134228817E+02  0.00000000000E+00 0. -1.
</event>
<event>
 4    1  0.8988950E+003  0.2458855E+02  0.7546771E-02  0.1473459E+00
          2   -1    0    0  502    0  0.00000000000E+00  0.00000000000E+00  0.69546795433E+03  0.69546795433E+03  0.00000000000E+00 0. -1.
          2   -1    0    0  501    0 -0.00000000000E+00 -0.00000000000E+00 -0.21846872712E+02  0.21846872712E+02  0.00000000000E+00 0. -1.
          2    1    1    2  501    0  0.23803206669E+02  0.61647443492E+01  0.68825960986E+03  0.68869869122E+03  0.00000000000E+00 0. -1.
          2    1    1    2  502    0 -0.23803206669E+02 -0.61647443492E+01 -0.14638528240E+02  0.28616135827E+02  0.00000000000E+00 0. -1.
</event>
<event>
 4    1  0.8988950E+003  0.3341044E+02  0.7546771E-02  0.1392096E+00
          2   -1    0    0  502    0  0.00000000000E+00  0.00000000000E+00  0.96056257593E+02  0.96056257593E+02  0.00000000000E+00 0.  1.
          2   -1    0    0  501    0 -0.00000000000E+00 -0.00000000000E+00 -0.11646825471E+02  0.11646825471E+02  0.00000000000E+00 0.  1.
          2    1    1    2  501    0 -0.13122902325E+01  0.33384656757E+02  0.39662587723E+02  0.51859215934E+02  0.00000000000E+00 0.  1.
          2    1    1    2  502    0  0.13122902325E+01 -0.33384656757E+02  0.44746844399E+02  0.55843867131E+02  0.00000000000E+00 0.  1.
</event>
<event>
 4    1  0.8988950E+003  0.6546704E+02  0.7546771E-02  0.1242309E+00
          2   -1    0    0  502    0  0.00000000000E+00  0.00000000000E+00  0.11637484391E+02  0.11637484391E+02  0.00000000000E+00 0. -1.
          2   -1    0    0  501    0 -0.00000000000E+00 -0.00000000000E+00 -0.40729131559E+03  0.40729131559E+03  0.00000000000E+00 0.  1.
          2    1    1    2  501    0  0.29489400115E+02  0.58449200844E+02 -0.13300614694E+03  0.14824496255E+03  0.00000000000E+00 0. -1.
          2    1    1    2  502    0 -0.29489400115E+02 -0.58449200844E+02 -0.26264768426E+03  0.27068383743E+03  0.00000000000E+00 0.  1.
</event>
<event>
 4    1  0.8988950E+003  0.2344046E+02  0.7546771E-02  0.1487040E+00
          2   -1    0    0  501    0  0.00000000000E+00  0.00000000000E+00  0.78891741884E+03  0.78891741884E+03  0.00000000000E+00 0. -1.
          2   -1    0    0  502    0 -0.00000000000E+00 -0.00000000000E+00 -0.96679103291E+00  0.96679103291E+00  0.00000000000E+00 0. -1.
          2    1    1    2  501    0  0.17889667684E+02  0.15146446629E+02  0.18513739857E+03  0.18661541041E+03  0.00000000000E+00 0. -1.
          2    1    1    2  502    0 -0.17889667684E+02 -0.15146446629E+02  0.60281322924E+03  0.60326879946E+03  0.00000000000E+00 0. -1.
</event>
<event>
 4    1  0.8988950E+003  0.2850929E+02  0.7546771E-02  0.1433009E+00
          2   -1    0    0  502    0  0.00000000000E+00  0.00000000000E+00  0.51839722898E+03  0.51839722898E+03  0.00000000000E+00 0. -1.
          2   -1    0    0  501    0 -0.00000000000E+00 -0.00000000000E+00 -0.24790312554E+01  0.24790312554E+01  0.00000000000E+00 0.  1.
          2    1    1    2  501    0  0.24121037262E+02  0.15197201171E+02  0.41585150248E+03  0.41682760403E+03  0.00000000000E+00 0. -1.
          2    1    1    2  502    0 -0.24121037262E+02 -0.15197201171E+02  0.10006669524E+03  0.10404865620E+03  0.00000000000E+00 0.  1.
</event>
<event>
 4    1  0.1558179E+004  0.3019513E+02  0.7546771E-02  0.1417908E+00
          2   -1    0    0  502    0  0.00000000000E+00  0.00000000000E+00  0.16822288335E+04  0.16822288335E+04  0.00000000000E+00 0.  1.
          2   -1    0    0  501    0 -0.00000000000E+00 -0.00000000000E+00 -0.70309797414E+03  0.70309797414E+03  0.00000000000E+00 0.  1.
          2    1    1    2  501    0  0.25533874219E+02 -0.16117296389E+02  0.16817690594E+04  0.16820401051E+04  0.00000000000E+00 0.  1.
          2    1    1    2  502    0 -0.25533874219E+02  0.16117296389E+02 -0.70263819999E+03  0.70328670260E+03  0.00000000000E+00 0.  1.
</event>
<event>
 4    1  0.8988950E+003  0.5198305E+02  0.7546771E-02  0.1289796E+00
          2   -1    0    0  502    0  0.00000000000E+00  0.00000000000E+00  0.27459418416E+02  0.27459418416E+02  0.00000000000E+00 0. -1.
          2   -1    0    0  501    0 -0.00000000000E+00 -0.00000000000E+00 -0.20267046998E+04  0.20267046998E+04  0.00000000000E+00 0.  1.
          2    1    1    2  501    0  0.51846825565E+02 -0.37608162751E+01  0.22137230634E+01  0.52030160773E+02  0.00000000000E+00 0. -1.
          2    1    1    2  502    0 -0.51846825565E+02  0.37608162751E+01 -0.20014590044E+04  0.20021339574E+04  0.00000000000E+00 0.  1.
</event>
<event>
 4    1  0.8988950E+003  0.2213719E+02  0.7546771E-02  0.1503626E+00
          2   -1    0    0  501    0  0.00000000000E+00  0.00000000000E+00  0.22118391658E+02  0.22118391658E+02  0.00000000000E+00 0. -1.
          2   -1    0    0  502    0 -0.00000000000E+00 -0.00000000000E+00 -0.25110491400E+03  0.25110491400E+03  0.00000000000E+00 0. -1.
          2    1    1    2  501    0 -0.12383920791E+02 -0.18349211511E+02 -0.24493886128E+03  0.24593718877E+03  0.00000000000E+00 0. -1.
          2    1    1    2  502    0  0.12383920791E+02  0.18349211511E+02  0.15952338935E+02  0.27286116887E+02  0.00000000000E+00 0. -1.
</event>
<event>
 4    1  0.8988950E+003  0.2121747E+02  0.7546771E-02  0.1516182E+00
          2   -1    0    0  501    0  0.00000000000E+00  0.00000000000E+00  0.47535174534E+02  0.47535174534E+02  0.00000000000E+00 0.  1.
          2   -1    0    0  502    0 -0.00000000000E+00 -0.00000000000E+00 -0.31861128209E+03  0.31861128209E+03  0.00000000000E+00 0.  1.
          2    1    1    2  501    0 -0.95005961503E+01 -0.18971550301E+02 -0.31586989945E+03  0.31658170261E+03  0.00000000000E+00 0.  1.
          2    1    1    2  502    0  0.95005961503E+01  0.18971550301E+02  0.44793791896E+02  0.49564754013E+02  0.00000000000E+00 0.  1.
</event>
<event>
 4    1  0.8988950E+003  0.2227892E+02  0.7546771E-02  0.1501757E+00
          2   -1    0    0  501    0  0.00000000000E+00  0.00000000000E+00  0.87924093715E+00  0.87924093715E+00  0.00000000000E+00 0.  1.
          2   -1    0    0  502    0 -0.00000000000E+00 -0.00000000000E+00 -0.87681162589E+03  0.87681162589E+03  0.00000000000E+00 0.  1.
          2    1    1    2  501    0  0.26452478750E+01 -0.22121319736E+02 -0.69986757382E+03  0.70022208691E+03  0.00000000000E+00 0.  1.
          2    1    1    2  502    0 -0.26452478750E+01  0.22121319736E+02 -0.17606481114E+03  0.17746877992E+03  0.00000000000E+00 0.  1.
</event>
<event>
 4    1  0.8988950E+003  0.4766337E+02  0.7546771E-02  0.1308634E+00
          2   -1    0    0  501    0  0.00000000000E+00  0.00000000000E+00  0.65606787797E+00  0.65606787797E+00  0.00000000000E+00 0.  1.
          2   -1    0    0  502    0 -0.00000000000E+00 -0.00000000000E+00 -0.35231799186E+04  0.35231799186E+04  0.00000000000E+00 0.  1.
          2    1    1    2  501    0 -0.35535367351E+01 -0.47530716468E+02 -0.19920203157E+04  0.19925904584E+04  0.00000000000E+00 0.  1.
          2    1    1    2  502    0  0.35535367351E+01  0.47530716468E+02 -0.15305035349E+04  0.15312455280E+04  0.00000000000E+00 0.  1.
</event>
<event>
 4    1  0.8988950E+003  0.2089761E+02  0.7546771E-02  0.1520732E+00
          2   -1    0    0  501    0  0.00000000000E+00  0.00000000000E+00  0.15021161816E+04  0.15021161816E+04  0.00000000000E+00 0. -1.
          2   -1    0    0  502    0 -0.00000000000E+00 -0.00000000000E+00 -0.13319646457E+01  0.13319646457E+01  0.00000000000E+00 0.  1.
          2    1    1    2  501    0  0.20089084571E+02 -0.57566285166E+01  0.85752169478E+02  0.88261796158E+02  0.00000000000E+00 0.  1.
          2    1    1    2  502    0 -0.20089084571E+02  0.57566285166E+01  0.14150320474E+04  0.14151863501E+04  0.00000000000E+00 0. -1.
</event>
<event>
 4    1  0.8988950E+003  0.3579127E+02  0.7546771E-02  0.1375084E+00
          2   -1    0    0  501    0  0.00000000000E+00  0.00000000000E+00  0.85664559939E+01  0.85664559939E+01  0.00000000000E+00 0. -1.
          2   -1    0    0  502    0 -0.00000000000E+00 -0.00000000000E+00 -0.11764434441E+04  0.11764434441E+04  0.00000000000E+00 0. -1.
          2    1    1    2  501    0 -0.31742949438E+02  0.16534813212E+02 -0.11375072636E+04  0.11380702042E+04  0.00000000000E+00 0. -1.
          2    1    1    2  502    0  0.31742949438E+02 -0.16534813212E+02 -0.30369724522E+02  0.46939695935E+02  0.00000000000E+00 0. -1.
</event>
<event>
 4    1  0.8988950E+003  0.2155484E+02  0.7546771E-02  0.1511489E+00
          2   -1    0    0  502    0  0.00000000000E+00  0.00000000000E+00  0.72311681343E+01  0.72311681343E+01  0.00000000000E+00 0.  1.
          2   -1    0    0  501    0 -0.00000000000E+00 -0.00000000000E+00 -0.13380857359E+03  0.13380857359E+03  0.00000000000E+00 0. -1.
          2    1    1    2  501    0 -0.83368607752E+01 -0.19877315498E+02 -0.12444521313E+02  0.24889295484E+02  0.00000000000E+00 0.  1.
          2    1    1    2  502    0  0.83368607752E+01  0.19877315498E+02 -0.11413288414E+03  0.11615044624E+03  0.00000000000E+00 0. -1.
</event>
<event>
 4    1  0.8988950E+003  0.2570577E+02  0.7546771E-02  0.1461061E+00
          2   -1    0    0  501    0  0.00000000000E+00  0.00000000000E+00  0.20548110065E+04  0.20548110065E+04  0.00000000000E+00 0. -1.
          2   -1    0    0  502    0 -0.00000000000E+00 -0.00000000000E+00 -0.50255253146E+00  0.50255253146E+00  0.00000000000E+00 0. -1.
          2    1    1    2  501    0 -0.24715148406E+02  0.70674091799E+01  0.41046938253E+03  0.41127351098E+03  0.00000000000E+00 0. -1.
          2    1    1    2  502    0  0.24715148406E+02 -0.70674091799E+01  0.16438390715E+04  0.16440400481E+04  0.00000000000E+00 0. -1.
</event>
<event>
 4    1  0.8988950E+003  0.4145689E+02  0.7546771E-02  0.1340154E+00
          2   -1    0    0  501    0  0.00000000000E+00  0.00000000000E+00  0.42721103975E+03  0.42721103975E+03  0.00000000000E+00 0.  1.
          2   -1    0    0  502    0 -0.00000000000E+00 -0.00000000000E+00 -0.68116371811E+02  0.68116371811E+02  0.00000000000E+00 0. -1.
          2    1    1    2  501    0  0.39523116899E+02 -0.12513854776E+02 -0.60691464260E+02  0.73499164382E+02  0.00000000000E+00 0. -1.
          2    1    1    2  502    0 -0.39523116899E+02  0.12513854776E+02  0.41978613220E+03  0.42182824718E+03  0.00000000000E+00 0.  1.
</event>
<event>
 4    1  0.8988950E+003  0.5101579E+02  0.7546771E-02  0.1293827E+00
          2   -1    0    0  502    0  0.00000000000E+00  0.00000000000E+00  0.31561046748E+02  0.31561046748E+02  0.00000000000E+00 0. -1.
          2   -1    0    0  501    0 -0.00000000000E+00 -0.00000000000E+00 -0.34451657412E+03  0.34451657412E+03  0.00000000000E+00 0.  1.
          2    1    1    2  501    0  0.21304724928E+02  0.46354280290E+02  0.75199104025E+01  0.51567040422E+02  0.00000000000E+00 0. -1.
          2    1    1    2  502    0 -0.21304724928E+02 -0.46354280290E+02 -0.32047543778E+03  0.32451058045E+03  0.00000000000E+00 0.  1.
</event>
<event>
 4    1  0.8988950E+003  0.2537087E+02  0.7546771E-02  0.1464697E+00
          2   -1    0    0  501    0  0.00000000000E+00  0.00000000000E+00  0.94057173183E+00  0.94057173183E+00  0.00000000000E+00 0. -1.
          2   -1    0    0  502    0 -0.00000000000E+00 -0.00000000000E+00 -0.11365212227E+04  0.11365212227E+04  0.00000000000E+00 0. -1.
          2    1    1    2  501    0  0.13857836164E+02 -0.21251853413E+02 -0.92652155390E+03  0.92686885304E+03  0.00000000000E+00 0. -1.
          2    1    1    2  502    0 -0.13857836164E+02  0.21251853413E+02 -0.20905909707E+03  0.21059294140E+03  0.00000000000E+00 0. -1.
</event>
<event>
 4    1  0.8988950E+003  0.3206746E+02  0.7546771E-02  0.1402442E+00
          2   -1    0    0  501    0  0.00000000000E+00  0.00000000000E+00  0.13721353033E+04  0.13721353033E+04  0.00000000000E+00 0. -1.
          2   -1    0    0  502    0 -0.00000000000E+00 -0.00000000000E+00 -0.54682272497E+02  0.54682272497E+02  0.00000000000E+00 0.  1.
          2    1    1    2  501    0 -0.30977325491E+02 -0.82902035096E+01 -0.49776697776E+02  0.59211838430E+02  0.00000000000E+00 0.  1.
          2    1    1    2  502    0  0.30977325491E+02  0.82902035096E+01  0.13672297285E+04  0.13676057373E+04  0.00000000000E+00 0. -1.
</event>
<event>
 4    1  0.8988950E+003  0.3039011E+02  0.7546771E-02  0.1416236E+00
          2   -1    0    0  501    0  0.00000000000E+00  0.00000000000E+00  0.79189448418E+01  0.79189448418E+01  0.00000000000E+00 0. -1.
          2   -1    0    0  502    0 -0.00000000000E+00 -0.00000000000E+00 -0.63274818193E+03  0.63274818193E+03  0.00000000000E+00 0. -1.
          2    1    1    2  501    0  0.32650807362E+01 -0.30214202316E+02 -0.60172435274E+03  0.60249129077E+03  0.00000000000E+00 0. -1.
          2    1    1    2  502    0 -0.32650807362E+01  0.30214202316E+02 -0.23104884352E+02  0.38175836005E+02  0.00000000000E+00 0. -1.
</event>
<event>
 4    1  0.8988950E+003  0.2532748E+02  0.7546771E-02  0.1465173E+00
          2   -1    0    0  501    0  0.00000000000E+00  0.00000000000E+00  0.12177622150E+04  0.12177622150E+04  0.00000000000E+00 0. -1.
          2   -1    0    0  502    0 -0.00000000000E+00 -0.00000000000E+00 -0.23182293084E+03  0.23182293084E+03  0.00000000000E+00 0. -1.
          2    1    1    2  501    0 -0.18867415257E+02 -0.16896803405E+02 -0.23099899045E+03  0.23238333614E+03  0.00000000000E+00 0. -1.
          2    1    1    2  502    0  0.18867415257E+02  0.16896803405E+02  0.12169382746E+04  0.12172018097E+04  0.00000000000E+00 0. -1.
</event>
<event>
 4    1  0.8988950E+003  0.2050942E+02  0.7546771E-02  0.1526386E+00
          2   -1    0    0  501    0  0.00000000000E+00  0.00000000000E+00  0.33213279041E+02  0.33213279041E+02  0.00000000000E+00 0. -1.
          2   -1    0    0  502    0 -0.00000000000E+00 -0.00000000000E+00 -0.12645770112E+03  0.12645770112E+03  0.00000000000E+00 0.  1.
          2    1    1    2  501    0  0.10416611039E+02  0.17667214647E+02 -0.12235450772E+03  0.12406152433E+03  0.00000000000E+00 0.  1.
          2    1    1    2  502    0 -0.10416611039E+02 -0.17667214647E+02  0.29110085639E+02  0.35609455835E+02  0.00000000000E+00 0. -1.
</event>
<event>
 4    1  0.8988950E+003  0.2665266E+02  0.7546771E-02  0.1451129E+00
          2   -1    0    0  501    0  0.00000000000E+00  0.00000000000E+00  0.16083244319E+04  0.16083244319E+04  0.00000000000E+00 0.  1.
          2   -1    0    0  502    0 -0.00000000000E+00 -0.00000000000E+00 -0.28771997006E+01  0.28771997006E+01  0.00000000000E+00 0.  1.
          2    1    1    2  501    0  0.24065729239E+02 -0.11454468519E+02  0.61531572449E+02  0.67055936210E+02  0.00000000000E+00 0.  1.
          2    1    1    2  502    0 -0.24065729239E+02  0.11454468519E+02  0.15439156598E+04  0.15441456954E+04  0.00000000000E+00 0.  1.
</event>
<event>
 4    1  0.8988950E+003  0.3007076E+02  0.7546771E-02  0.1418983E+00
          2   -1    0    0  501    0  0.00000000000E+00  0.00000000000E+00  0.12503154489E+03  0.12503154489E+03  0.00000000000E+00 0. -1.
          2   -1    0    0  502    0 -0.00000000000E+00 -0.00000000000E+00 -0.14972230435E+02  0.14972230435E+02  0.00000000000E+00 0.  1.
          2    1    1    2  501    0 -0.30070724137E+02  0.48004020241E-01  0.46983315768E+01  0.30435588940E+02  0.00000000000E+00 0.  1.
          2    1    1    2  502    0  0.30070724137E+02 -0.48004020241E-01  0.10536098288E+03  0.10956818639E+03  0.00000000000E+00 0. -1.
</event>
<event>
 4    1  0.8988950E+003  0.2795321E+02  0.7546771E-02  0.1438261E+00
          2   -1    0    0  501    0  0.00000000000E+00  0.00000000000E+00  0.52012871959E+03  0.52012871959E+03  0.00000000000E+00 0.  1.
          2   -1    0    0  502    0 -0.00000000000E+00 -0.00000000000E+00 -0.17738821212E+01  0.17738821212E+01  0.00000000000E+00 0. -1.
          2    1    1    2  501    0  0.13175380157E+02  0.24653422333E+02  0.15706955135E+03  0.15953753739E+03  0.00000000000E+00 0. -1.
          2    1    1    2  502    0 -0.13175380157E+02 -0.24653422333E+02  0.36128528612E+03  0.36236506432E+03  0.00000000000E+00 0.  1.
</event>
<event>
 4    1  0.8988950E+003  0.2006253E+02  0.7546771E-02  0.1533082E+00
          2   -1    0    0  501    0  0.00000000000E+00  0.00000000000E+00  0.32604528157E+01  0.32604528157E+01  0.00000000000E+00 0. -1.
          2   -1    0    0  502    0 -0.00000000000E+00 -0.00000000000E+00 -0.43366078668E+03  0.43366078668E+03  0.00000000000E+00 0.  1.
          2    1    1    2  501    0 -0.22207118411E+01 -0.19939247632E+02 -0.39996786478E+03  0.40047072054E+03  0.00000000000E+00 0.  1.
          2    1    1    2  502    0  0.22207118411E+01  0.19939247632E+02 -0.30432469086E+02  0.36450518952E+02  0.00000000000E+00 0. -1.
</event>
<event>
 4    1  0.8988950E+003  0.2040926E+02  0.7546771E-02  0.1527869E+00
          2   -1    0    0  501    0  0.00000000000E+00  0.00000000000E+00  0.11625856431E+03  0.11625856431E+03  0.00000000000E+00 0. -1.
          2   -1    0    0  502    0 -0.00000000000E+00 -0.00000000000E+00 -0.78264302310E+03  0.78264302310E+03  0.00000000000E+00 0.  1.
          2    1    1    2  501    0  0.20381576047E+02  0.10627140726E+01 -0.78161307342E+03  0.78187948850E+03  0.00000000000E+00 0.  1.
          2    1    1    2  502    0 -0.20381576047E+02 -0.10627140726E+01  0.11522861463E+03  0.11702209891E+03  0.00000000000E+00 0. -1.
</event>
<event>
 4    1  0.8988950E+003  0.4108945E+02  0.7546771E-02  0.1342217E+00
          2   -1    0    0  501    0  0.00000000000E+00  0.00000000000E+00  0.44299673093E+01  0.44299673093E+01  0.00000000000E+00 0.  1.
          2   -1    0    0  502    0 -0.00000000000E+00 -0.00000000000E+00 -0.69114954847E+03  0.69114954847E+03  0.00000000000E+00 0.  1.
          2    1    1    2  501    0  0.40976533118E+02  0.30441491081E+01 -0.57629399802E+03  0.57775696903E+03  0.00000000000E+00 0.  1.
          2    1    1    2  502    0 -0.40976533118E+02 -0.30441491081E+01 -0.11042558314E+03  0.11782254675E+03  0.00000000000E+00 0.  1.
</event>
<event>
 4    1  0.8988950E+003  0.2569854E+02  0.7546771E-02  0.1461138E+00
          2   -1    0    0  501    0  0.00000000000E+00  0.00000000000E+00  0.65189191534E+03  0.65189191534E+03  0.00000000000E+00 0. -1.
          2   -1    0    0  502    0 -0.00000000000E+00 -0.00000000000E+00 -0.73479851251E+02  0.73479851251E+02  0.00000000000E+00 0. -1.
          2    1    1    2  501    0  0.19697259190E+02 -0.16505543662E+02 -0.70970979677E+02  0.75480427579E+02  0.00000000000E+00 0. -1.
          2    1    1    2  502    0 -0.19697259190E+02  0.16505543662E+02  0.64938304377E+03  0.64989133901E+03  0.00000000000E+00 0. -1.
</event>
<event>
 4    1  0.8988950E+003  0.3498643E+02  0.7546771E-02  0.1380659E+00
          2   -1    0    0  502    0  0.00000000000E+00  0.00000000000E+00  0.22118542249E+01  0.22118542249E+01  0.00000000000E+00 0. -1.
          2   -1    0    0  501    0 -0.00000000000E+00 -0.00000000000E+00 -0.60539172606E+03  0.60539172606E+03  0.00000000000E+00 0. -1.
          2    1    1    2  501    0 -0.11417926147E+02 -0.33070851543E+02 -0.21256327708E+03  0.21542329730E+03  0.00000000000E+00 0. -1.
          2    1    1    2  502    0  0.11417926147E+02  0.33070851543E+02 -0.39061659476E+03  0.39218028299E+03  0.00000000000E+00 0. -1.
</event>
<event>
 4    1  0.8988950E+003  0.3744294E+02  0.7546771E-02  0.1364159E+00
          2   -1    0    0  501    0  0.00000000000E+00  0.00000000000E+00  0.50997135626E+02  0.50997135626E+02  0.00000000000E+00 0. -1.
          2   -1    0    0  502    0 -0.00000000000E+00 -0.00000000000E+00 -0.14302923227E+03  0.14302923227E+03  0.00000000000E+00 0.  1.
          2    1    1    2  501    0 -0.15998557225E+02 -0.33852912261E+02 -0.13320888346E+03  0.13837116801E+03  0.00000000000E+00 0.  1.
          2    1    1    2  502    0  0.15998557225E+02  0.33852912261E+02  0.41176786820E+02  0.55655199889E+02  0.00000000000E+00 0. -1.
</event>
<event>
 4    1  0.8988950E+003  0.2660083E+02  0.7546771E-02  0.1451660E+00
          2   -1    0    0  502    0  0.00000000000E+00  0.00000000000E+00  0.69746661597E+02  0.69746661597E+02  0.00000000000E+00 0.  1.
          2   -1    0    0  501    0 -0.00000000000E+00 -0.00000000000E+00 -0.11971920273E+02  0.11971920273E+02  0.00000000000E+00 0.  1.
          2    1    1    2  501    0  0.84003179434E+01  0.25239625935E+02  0.12927568269E+02  0.29575768464E+02  0.00000000000E+00 0.  1.
          2    1    1    2  502    0 -0.84003179434E+01 -0.25239625935E+02  0.44847173055E+02  0.52142813406E+02  0.00000000000E+00 0.  1.
</event>
<event>
 4    1  0.8988950E+003  0.2122954E+02  0.7546771E-02  0.1516013E+00
          2   -1    0    0  501    0  0.00000000000E+00  0.00000000000E+00  0.20143797161E+03  0.20143797161E+03  0.00000000000E+00 0. -1.
          2   -1    0    0  502    0 -0.00000000000E+00 -0.00000000000E+00 -0.26690906375E+01  0.26690906375E+01  0.00000000000E+00 0.  1.
          2    1    1    2  501    0 -0.15076530655E+02 -0.14946296509E+02  0.58341158305E+02  0.62083687940E+02  0.00000000000E+00 0.  1.
          2    1    1    2  502    0  0.15076530655E+02  0.14946296509E+02  0.14042772267E+03  0.14202337430E+03  0.00000000000E+00 0. -1.
</event>
<event>
 4    1  0.8988950E+003  0.2795886E+02  0.7546771E-02  0.1438207E+00
          2   -1    0    0  502    0  0.00000000000E+00  0.00000000000E+00  0.12327467088E+04  0.12327467088E+04  0.00000000000E+00 0. -1.
          2   -1    0    0  501    0 -0.00000000000E+00 -0.00000000000E+00 -0.12317896748E+03  0.12317896748E+03  0.00000000000E+00 0. -1.
          2    1    1    2  501    0 -0.34808443678E+01 -0.27741332253E+02  0.12309994212E+04  0.12313168857E+04  0.00000000000E+00 0. -1.
          2    1    1    2  502    0  0.34808443678E+01  0.27741332253E+02 -0.12143167997E+03  0.12460879059E+03  0.00000000000E+00 0. -1.
</event>
<event>
 4    1  0.8988950E+003  0.3289755E+02  0.7546771E-02  0.1395979E+00
          2   -1    0    0  501    0  0.00000000000E+00  0.00000000000E+00  0.83182228374E+01  0.83182228374E+01  0.00000000000E+00 0.  1.
          2   -1    0    0  502    0 -0.00000000000E+00 -0.00000000000E+00 -0.16374019516E+03  0.16374019516E+03  0.00000000000E+00 0.  1.
          2    1    1    2  501    0  0.30306861763E+02  0.12796197796E+02 -0.11670163555E+03  0.12124982593E+03  0.00000000000E+00 0.  1.
          2    1    1    2  502    0 -0.30306861763E+02 -0.12796197796E+02 -0.38720336767E+02  0.50808592062E+02  0.00000000000E+00 0.  1.
</event>
<event>
 4    1  0.8988950E+003  0.2256378E+02  0.7546771E-02  0.1498050E+00
          2   -1    0    0  502    0  0.00000000000E+00  0.00000000000E+00  0.12408789396E+04  0.12408789396E+04  0.00000000000E+00 0.  1.
          2   -1    0    0  501    0 -0.00000000000E+00 -0.00000000000E+00 -0.41806047615E+02  0.41806047615E+02  0.00000000000E+00 0. -1.
          2    1    1    2  501    0 -0.17233199659E+02  0.14565061942E+02  0.12377240458E+04  0.12379296983E+04  0.00000000000E+00 0.  1.
          2    1    1    2  502    0  0.17233199659E+02 -0.14565061942E+02 -0.38651153823E+02  0.44755288980E+02  0.00000000000E+00 0. -1.
</event>
<event>
 4    1  0.8988950E+003  0.2548830E+02  0.7546771E-02  0.1463414E+00
          2   -1    0    0  502    0  0.00000000000E+00  0.00000000000E+00  0.23337296444E+03  0.23337296444E+03  0.00000000000E+00 0.  1.
          2   -1    0    0  501    0 -0.00000000000E+00 -0.00000000000E+00 -0.48776834121E+02  0.48776834121E+02  0.00000000000E+00 0. -1.
          2    1    1    2  501    0  0.25425604641E+02  0.17866022556E+01  0.22928816554E+03  0.23070049019E+03  0.00000000000E+00 0.  1.
          2    1    1    2  502    0 -0.25425604641E+02 -0.17866022556E+01 -0.44692035222E+02  0.51449308366E+02  0.00000000000E+00 0. -1.
</event>
<event>
 4    1  0.8988950E+003  0.2553532E+02  0.7546771E-02  0.1462903E+00
          2   -1    0    0  502    0  0.00000000000E+00  0.00000000000E+00  0.50583555600E+02  0.50583555600E+02  0.00000000000E+00 0. -1.
          2   -1    0    0  501    0 -0.00000000000E+00 -0.00000000000E+00 -0.13019147548E+02  0.13019147548E+02  0.00000000000E+00 0. -1.
          2    1    1    2  501    0 -0.16032787321E+02 -0.19874664090E+02  0.21942158692E+02  0.33667653171E+02  0.00000000000E+00 0. -1.
          2    1    1    2  502    0  0.16032787321E+02  0.19874664090E+02  0.15622249360E+02  0.29935049976E+02  0.00000000000E+00 0. -1.
</event>
<event>
 4    1  0.8988950E+003  0.2178202E+02  0.7546771E-02  0.1508386E+00
          2   -1    0    0  501    0  0.00000000000E+00  0.00000000000E+00  0.10840893249E+04  0.10840893249E+04  0.00000000000E+00 0. -1.
          2   -1    0    0  502    0 -0.00000000000E+00 -0.00000000000E+00 -0.74208706803E+01  0.74208706803E+01  0.00000000000E+00 0. -1.
          2    1    1    2  501    0  0.23685838709E+01 -0.21652851836E+02  0.89169331294E+01  0.23536522228E+02  0.00000000000E+00 0. -1.
          2    1    1    2  502    0 -0.23685838709E+01  0.21652851836E+02  0.10677515211E+04  0.10679736734E+04  0.00000000000E+00 0. -1.
</event>
<event>
 4    1  0.8988950E+003  0.2220461E+02  0.7546771E-02  0.1502735E+00
          2   -1    0    0  501    0  0.00000000000E+00  0.00000000000E+00  0.50503315763E+01  0.50503315763E+01  0.00000000000E+00 0. -1.
          2   -1    0    0  502    0 -0.00000000000E+00 -0.00000000000E+00 -0.64795238049E+03  0.64795238049E+03  0.00000000000E+00 0.  1.
          2    1    1    2  501    0 -0.19779339096E+01 -0.22116339246E+02 -0.62235195521E+03  0.62274794326E+03  0.00000000000E+00 0.  1.
          2    1    1    2  502    0  0.19779339096E+01  0.22116339246E+02 -0.20550093707E+02  0.30254768807E+02  0.00000000000E+00 0. -1.
</event>
<event>
 4    1  0.8988950E+003  0.2440977E+02  0.7546771E-02  0.1475516E+00
          2   -1    0    0  501    0  0.00000000000E+00  0.00000000000E+00  0.21504925689E+04  0.21504925689E+04  0.00000000000E+00 0. -1.
          2   -1    0    0  502    0 -0.00000000000E+00 -0.00000000000E+00 -0.30041037372E+00  0.30041037372E+00  0.00000000000E+00 0. -1.
          2    1    1    2  501    0  0.22737336222E+02  0.88797774359E+01  0.13748503356E+04  0.13750670101E+04  0.00000000000E+00 0. -1.
          2    1    1    2  502    0 -0.22737336222E+02 -0.88797774359E+01  0.77534182296E+03  0.77572596923E+03  0.00000000000E+00 0. -1.
</event>
<event>
 4    1  0.8988950E+003  0.2471392E+02  0.7546771E-02  0.1472029E+00
          2   -1    0    0  501    0  0.00000000000E+00  0.00000000000E+00  0.83020809316E+03  0.83020809316E+03  0.00000000000E+00 0. -1.
          2   -1    0    0  502    0 -0.00000000000E+00 -0.00000000000E+00 -0.53246022861E+01  0.53246022861E+01  0.00000000000E+00 0.  1.
          2    1    1    2  501    0 -0.24639050275E+02 -0.19222401314E+01  0.24608861434E+02  0.34876551818E+02  0.00000000000E+00 0.  1.
          2    1    1    2  502    0  0.24639050275E+02  0.19222401314E+01  0.80027462944E+03  0.80065614363E+03  0.00000000000E+00 0. -1.
</event>
<event>
 4    1  0.8988950E+003  0.2576803E+02  0.7546771E-02  0.1460392E+00
          2   -1    0    0  501    0  0.00000000000E+00  0.00000000000E+00  0.37210423321E+01  0.37210423321E+01  0.00000000000E+00 0. -1.
          2   -1    0    0  502    0 -0.00000000000E+00 -0.00000000000E+00 -0.10817672494E+04  0.10817672494E+04  0.00000000000E+00 0. -1.
          2    1    1    2  501    0 -0.19509915714E+02 -0.16833139907E+02 -0.10349871929E+04  0.10353079159E+04  0.00000000000E+00 0. -1.
          2    1    1    2  502    0  0.19509915714E+02  0.16833139907E+02 -0.43059014178E+02  0.50180375769E+02  0.00000000000E+00 0. -1.
</event>
<event>
 4    1  0.8988950E+003  0.4221776E+02  0.7546771E-02  0.1335958E+00
          2   -1    0    0  501    0  0.00000000000E+00  0.00000000000E+00  0.87948337537E+03  0.87948337537E+03  0.00000000000E+00 0. -1.
          2   -1    0    0  502    0 -0.00000000000E+00 -0.00000000000E+00 -0.37592275059E+02  0.37592275059E+02  0.00000000000E+00 0.  1.
          2    1    1    2  501    0  0.41522823824E+02  0.76285036915E+01 -0.25061314499E+02  0.49095910739E+02  0.00000000000E+00 0.  1.
          2    1    1    2  502    0 -0.41522823824E+02 -0.76285036915E+01  0.86695241481E+03  0.86797973969E+03  0.00000000000E+00 0. -1.
</event>
<event>
 4    1  0.8988950E+003  0.2848854E+02  0.7546771E-02  0.1433202E+00
          2   -1    0    0  501    0  0.00000000000E+00  0.00000000000E+00  0.87808955641E+00  0.87808955641E+00  0.00000000000E+00 0.  1.
          2   -1    0    0  502    0 -0.00000000000E+00 -0.00000000000E+00 -0.18856865494E+04  0.18856865494E+04  0.00000000000E+00 0. -1.
          2    1    1    2  501    0 -0.26890202881E+02  0.94081872698E+01 -0.16159411569E+04  0.16161922594E+04  0.00000000000E+00 0. -1.
          2    1    1    2  502    0  0.26890202881E+02 -0.94081872698E+01 -0.26886730302E+03  0.27037237956E+03  0.00000000000E+00 0.  1.
</event>
<event>
 4    1  0.8988950E+003  0.2493131E+02  0.7546771E-02  0.1469573E+00
          2   -1    0    0  502    0  0.00000000000E+00  0.00000000000E+00  0.20890913698E+02  0.20890913698E+02  0.00000000000E+00 0. -1.
          2   -1    0    0  501    0 -0.00000000000E+00 -0.00000000000E+00 -0.28161411627E+03  0.28161411627E+03  0.00000000000E+00 0. -1.
          2    1    1    2  501    0  0.93104918957E+01 -0.23127581815E+02  0.12677849790E+02  0.27969593763E+02  0.00000000000E+00 0. -1.
          2    1    1    2  502    0 -0.93104918957E+01  0.23127581815E+02 -0.27340105236E+03  0.27453543620E+03  0.00000000000E+00 0. -1.
</event>
<event>
 4    1  0.8988950E+003  0.2236071E+02  0.7546771E-02  0.1500686E+00
          2   -1    0    0  502    0  0.00000000000E+00  0.00000000000E+00  0.16978009971E+02  0.16978009971E+02  0.00000000000E+00 0.  1.
          2   -1    0    0  501    0 -0.00000000000E+00 -0.00000000000E+00 -0.29577708837E+02  0.29577708837E+02  0.00000000000E+00 0.  1.
          2    1    1    2  501    0  0.18433355897E+02  0.12657516155E+02 -0.78298030538E+01  0.23691921423E+02  0.00000000000E+00 0.  1.
          2    1    1    2  502    0 -0.18433355897E+02 -0.12657516155E+02 -0.47698958127E+01  0.22863797386E+02  0.00000000000E+00 0.  1.
</event>
<event>
 4    1  0.8988950E+003  0.2536948E+02  0.7546771E-02  0.1464712E+00
          2   -1    0    0  502    0  0.00000000000E+00  0.00000000000E+00  0.33271237392E+02  0.33271237392E+02  0.00000000000E+00 0.  1.
          2   -1    0    0  501    0 -0.00000000000E+00 -0.00000000000E+00 -0.81193104635E+02  0.81193104635E+02  0.00000000000E+00 0. -1.
          2    1    1    2  501    0  0.89832856100E+01 -0.23725743068E+02  0.25990291297E+02  0.36319492648E+02  0.00000000000E+00 0.  1.
          2    1    1    2  502    0 -0.89832856100E+01  0.23725743068E+02 -0.73912158539E+02  0.78144849379E+02  0.00000000000E+00 0. -1.
</event>
<event>
 4    1  0.8988950E+003  0.2245827E+02  0.7546771E-02  0.1499415E+00
          2   -1    0    0  501    0  0.00000000000E+00  0.00000000000E+00  0.29277989353E+03  0.29277989353E+03  0.00000000000E+00 0.  1.
          2   -1    0    0  502    0 -0.00000000000E+00 -0.00000000000E+00 -0.27586542052E+02  0.27586542052E+02  0.00000000000E+00 0. -1.
          2    1    1    2  501    0  0.22522041210E+01  0.22345052849E+02 -0.22504413027E+02  0.31793433534E+02  0.00000000000E+00 0. -1.
          2    1    1    2  502    0 -0.22522041210E+01 -0.22345052849E+02  0.28769776450E+03  0.28857300204E+03  0.00000000000E+00 0.  1.
</event>
<event>
 4    1  0.8988950E+003  0.2066908E+02  0.7546771E-02  0.1524042E+00
          2   -1    0    0  501    0  0.00000000000E+00  0.00000000000E+00  0.24906250436E+01  0.24906250436E+01  0.00000000000E+00 0. -1.
          2   -1    0    0  502    0 -0.00000000000E+00 -0.00000000000E+00 -0.47789527580E+03  0.47789527580E+03  0.00000000000E+00 0. -1.
          2    1    1    2  501    0  0.21537967495E+01 -0.20556554832E+02 -0.43001831834E+03  0.43051476734E+03  0.00000000000E+00 0. -1.
          2    1    1    2  502    0 -0.21537967495E+01  0.20556554832E+02 -0.45386332410E+02  0.49871133501E+02  0.00000000000E+00 0. -1.
</event>
<event>
 4    1  0.8988950E+003  0.2292592E+02  0.7546771E-02  0.1493430E+00
          2   -1    0    0  502    0  0.00000000000E+00  0.00000000000E+00  0.18954373399E+02  0.18954373399E+02  0.00000000000E+00 0. -1.
          2   -1    0    0  501    0 -0.00000000000E+00 -0.00000000000E+00 -0.26563212315E+03  0.26563212315E+03  0.00000000000E+00 0.  1.
          2    1    1    2  501    0  0.23695403357E+01 -0.22803141893E+02  0.11322635705E+02  0.25569514679E+02  0.00000000000E+00 0. -1.
          2    1    1    2  502    0 -0.23695403357E+01  0.22803141893E+02 -0.25800038545E+03  0.25901698187E+03  0.00000000000E+00 0.  1.
</event>
<event>
 4    1  0.8988950E+003  0.2248915E+02  0.7546771E-02  0.1499014E+00
          2   -1    0    0  501    0  0.00000000000E+00  0.00000000000E+00  0.27969685006E+02  0.27969685006E+02  0.00000000000E+00 0.  1.
          2   -1    0    0  502    0 -0.00000000000E+00 -0.00000000000E+00 -0.30357008448E+03  0.30357008448E+03  0.00000000000E+00 0. -1.
          2    1    1    2  501    0 -0.20830811414E+02 -0.84758010489E+01 -0.29855715078E+03  0.29940296289E+03  0.00000000000E+00 0. -1.
          2    1    1    2  502    0  0.20830811414E+02  0.84758010489E+01  0.22956751305E+02  0.32136806594E+02  0.00000000000E+00 0.  1.
</event>
<event>
 4    1  0.8988950E+003  0.3444241E+02  0.7546771E-02  0.1384526E+00
          2   -1    0    0  502    0  0.00000000000E+00  0.00000000000E+00  0.23072356511E+03  0.23072356511E+03  0.00000000000E+00 0.  1.
          2   -1    0    0  501    0 -0.00000000000E+00 -0.00000000000E+00 -0.41223204621E+02  0.41223204621E+02  0.00000000000E+00 0.  1.
          2    1    1    2  501    0 -0.19679558510E+02 -0.28266487286E+02  0.22196162618E+03  0.22461799310E+03  0.00000000000E+00 0.  1.
          2    1    1    2  502    0  0.19679558510E+02  0.28266487286E+02 -0.32461265695E+02  0.47328776629E+02  0.00000000000E+00 0.  1.
</event>
<event>
 4    1  0.8988950E+003  0.3013601E+02  0.7546771E-02  0.1418418E+00
          2   -1    0    0  502    0  0.00000000000E+00  0.00000000000E+00  0.13931062620E+04  0.13931062620E+04  0.00000000000E+00 0.  1.
          2   -1    0    0  501    0 -0.00000000000E+00 -0.00000000000E+00 -0.35227240825E+01  0.35227240825E+01  0.00000000000E+00 0.  1.
          2    1    1    2  501    0  0.87793302120E+01  0.28828845146E+02  0.13251890439E+04  0.13255316597E+04  0.00000000000E+00 0.  1.
          2    1    1    2  502    0 -0.87793302120E+01 -0.28828845146E+02  0.64394494081E+02  0.71097326387E+02  0.00000000000E+00 0.  1.
</event>
<event>
 4    1  0.8988950E+003  0.3883548E+02  0.7546771E-02  0.1355448E+00
          2   -1    0    0  502    0  0.00000000000E+00  0.00000000000E+00  0.11163651138E+03  0.11163651138E+03  0.00000000000E+00 0. -1.
          2   -1    0    0  501    0 -0.00000000000E+00 -0.00000000000E+00 -0.19928964626E+03  0.19928964626E+03  0.00000000000E+00 0.  1.
          2    1    1    2  501    0 -0.21980262310E+02  0.32016598745E+02  0.10627461599E+03  0.11314808231E+03  0.00000000000E+00 0. -1.
          2    1    1    2  502    0  0.21980262310E+02 -0.32016598745E+02 -0.19392775087E+03  0.19777807534E+03  0.00000000000E+00 0.  1.
</event>
<event>
 4    1  0.8988950E+003  0.2492394E+02  0.7546771E-02  0.1469656E+00
          2   -1    0    0  501    0  0.00000000000E+00  0.00000000000E+00  0.33016478882E+01  0.33016478882E+01  0.00000000000E+00 0. -1.
          2   -1    0    0  502    0 -0.00000000000E+00 -0.00000000000E+00 -0.45427826424E+03  0.45427826424E+03  0.00000000000E+00 0. -1.
          2    1    1    2  501    0  0.23671848575E+02  0.78003988758E+01 -0.40060279387E+03  0.40137737990E+03  0.00000000000E+00 0. -1.
          2    1    1    2  502    0 -0.23671848575E+02 -0.78003988758E+01 -0.50373822479E+02  0.56202532228E+02  0.00000000000E+00 0. -1.
</event>
<event>
 4    1  0.8988950E+003  0.2530971E+02  0.7546771E-02  0.1465368E+00
          2   -1    0    0  502    0  0.00000000000E+00  0.00000000000E+00  0.11251908409E+03  0.11251908409E+03  0.00000000000E+00 0. -1.
          2   -1    0    0  501    0 -0.00000000000E+00 -0.00000000000E+00 -0.71570276528E+02  0.71570276528E+02  0.00000000000E+00 0. -1.
          2    1    1    2  501    0 -0.65143030572E+01  0.24457007232E+02  0.10878236646E+03  0.11168788922E+03  0.00000000000E+00 0. -1.
          2    1    1    2  502    0  0.65143030572E+01 -0.24457007232E+02 -0.67833558898E+02  0.72401471393E+02  0.00000000000E+00 0. -1.
</event>
<event>
 4    1  0.8988950E+003  0.2566633E+02  0.7546771E-02  0.1461485E+00
          2   -1    0    0  502    0  0.00000000000E+00  0.00000000000E+00  0.23242274483E+03  0.23242274483E+03  0.00000000000E+00 0. -1.
          2   -1    0    0  501    0 -0.00000000000E+00 -0.00000000000E+00 -0.25581423549E+03  0.25581423549E+03  0.00000000000E+00 0.  1.
          2    1    1    2  501    0 -0.94419093779E+01  0.23866516808E+02  0.23106661043E+03  0.23248771738E+03  0.00000000000E+00 0. -1.
          2    1    1    2  502    0  0.94419093779E+01 -0.23866516808E+02 -0.25445810110E+03  0.25574926293E+03  0.00000000000E+00 0.  1.
</event>
<event>
 4    1  0.8988950E+003  0.2271467E+02  0.7546771E-02  0.1496112E+00
          2   -1    0    0  501    0  0.00000000000E+00  0.00000000000E+00  0.13336605567E+01  0.13336605567E+01  0.00000000000E+00 0. -1.
          2   -1    0    0  502    0 -0.00000000000E+00 -0.00000000000E+00 -0.66063662196E+03  0.66063662196E+03  0.00000000000E+00 0. -1.
          2    1    1    2  501    0 -0.31791226646E+01 -0.22491100133E+02 -0.54271816740E+03  0.54319330411E+03  0.00000000000E+00 0. -1.
          2    1    1    2  502    0  0.31791226646E+01  0.22491100133E+02 -0.11658479400E+03  0.11877697840E+03  0.00000000000E+00 0. -1.
</event>
<event>
 4    1  0.8988950E+003  0.2240132E+02  0.7546771E-02  0.1500156E+00
          2   -1    0    0  502    0  0.00000000000E+00  0.00000000000E+00  0.30654859031E+03  0.30654859031E+03  0.00000000000E+00 0. -1.
          2   -1    0    0  501    0 -0.00000000000E+00 -0.00000000000E+00 -0.50742190535E+01  0.50742190535E+01  0.00000000000E+00 0. -1.
          2    1    1    2  501    0 -0.71840292193E+01 -0.21218121171E+02  0.27897569732E+03  0.27987364763E+03  0.00000000000E+00 0. -1.
          2    1    1    2  502    0  0.71840292193E+01  0.21218121171E+02  0.22498673931E+02  0.31749161729E+02  0.00000000000E+00 0. -1.
</event>
<event>
 4    1  0.8988950E+003  0.2506124E+02  0.7546771E-02  0.1468119E+00
          2   -1    0    0  502    0  0.00000000000E+00  0.00000000000E+00  0.50401403151E+01  0.50401403151E+01  0.00000000000E+00 0. -1.
          2   -1    0    0  501    0 -0.00000000000E+00 -0.00000000000E+00 -0.78481239888E+03  0.78481239888E+03  0.00000000000E+00 0.  1.
          2    1    1    2  501    0 -0.24859296771E+02 -0.31750706225E+01 -0.27667534009E+02  0.37330391741E+02  0.00000000000E+00 0. -1.
          2    1    1    2  502    0  0.24859296771E+02  0.31750706225E+01 -0.75210472456E+03  0.75252214746E+03  0.00000000000E+00 0.  1.
</event>
<event>
 4    1  0.8988950E+003  0.2145288E+02  0.7546771E-02  0.1512896E+00
          2   -1    0    0  502    0  0.00000000000E+00  0.00000000000E+00  0.12218436401E+02  0.12218436401E+02  0.00000000000E+00 0. -1.
          2   -1    0    0  501    0 -0.00000000000E+00 -0.00000000000E+00 -0.10132778436E+04  0.10132778436E+04  0.00000000000E+00 0.  1.
          2    1    1    2  501    0 -0.12122932113E+02 -0.17699170897E+02  0.25980027299E+01  0.21609621738E+02  0.00000000000E+00 0. -1.
          2    1    1    2  502    0  0.12122932113E+02  0.17699170897E+02 -0.10036574099E+04  0.10038866582E+04  0.00000000000E+00 0.  1.
</event>
<event>
 4    1  0.8988950E+003  0.5304125E+02  0.7546771E-02  0.1285499E+00
          2   -1    0    0  501    0  0.00000000000E+00  0.00000000000E+00  0.20820911395E+04  0.20820911395E+04  0.00000000000E+00 0. -1.
          2   -1    0    0  502    0 -0.00000000000E+00 -0.00000000000E+00 -0.13894639930E+02  0.13894639930E+02  0.00000000000E+00 0. -1.
          2    1    1    2  501    0 -0.31799485294E+02 -0.42451933785E+02  0.38365986458E+02  0.65462377469E+02  0.00000000000E+00 0. -1.
          2    1    1    2  502    0  0.31799485294E+02  0.42451933785E+02  0.20298305131E+04  0.20305234019E+04  0.00000000000E+00 0. -1.
</event>
<event>
 4    1  0.8988950E+003  0.2214659E+02  0.7546771E-02  0.1503502E+00
          2   -1    0    0  501    0  0.00000000000E+00  0.00000000000E+00  0.26343255789E+03  0.26343255789E+03  0.00000000000E+00 0. -1.
          2   -1    0    0  502    0 -0.00000000000E+00 -0.00000000000E+00 -0.32207497572E+01  0.32207497572E+01  0.00000000000E+00 0. -1.
          2    1    1    2  501    0  0.17788503355E+02  0.13192447589E+02  0.43503004904E+02  0.48815806463E+02  0.00000000000E+00 0. -1.
          2    1    1    2  502    0 -0.17788503355E+02 -0.13192447589E+02  0.21670880323E+03  0.21783750118E+03  0.00000000000E+00 0. -1.
</event>
<event>
 4    1  0.8988950E+003  0.2043325E+02  0.7546771E-02  0.1527512E+00
          2   -1    0    0  501    0  0.00000000000E+00  0.00000000000E+00  0.13143336026E+02  0.13143336026E+02  0.00000000000E+00 0.  1.
          2   -1    0    0  502    0 -0.00000000000E+00 -0.00000000000E+00 -0.10725621320E+03  0.10725621320E+03  0.00000000000E+00 0.  1.
          2    1    1    2  501    0 -0.20337439178E+02  0.19764686850E+01 -0.97560639769E+02  0.99677461309E+02  0.00000000000E+00 0.  1.
          2    1    1    2  502    0  0.20337439178E+02 -0.19764686850E+01  0.34477625952E+01  0.20722087918E+02  0.00000000000E+00 0.  1.
</event>
<event>
 4    1  0.8988950E+003  0.6520474E+02  0.7546771E-02  0.1243105E+00
          2   -1    0    0  502    0  0.00000000000E+00  0.00000000000E+00  0.32894575298E+02  0.32894575298E+02  0.00000000000E+00 0. -1.
          2   -1    0    0  501    0 -0.00000000000E+00 -0.00000000000E+00 -0.33350361617E+03  0.33350361617E+03  0.00000000000E+00 0.  1.
          2    1    1    2  501    0 -0.29984078622E+01 -0.65135760854E+02 -0.69350000651E+01  0.65572494368E+02  0.00000000000E+00 0. -1.
          2    1    1    2  502    0  0.29984078622E+01  0.65135760854E+02 -0.29367404080E+03  0.30082569710E+03  0.00000000000E+00 0.  1.
</event>
<event>
 4    1  0.8988950E+003  0.5308772E+02  0.7546771E-02  0.1285313E+00
          2   -1    0    0  502    0  0.00000000000E+00  0.00000000000E+00  0.17192093312E+01  0.17192093312E+01  0.00000000000E+00 0.  1.
          2   -1    0    0  501    0 -0.00000000000E+00 -0.00000000000E+00 -0.18325410182E+04  0.18325410182E+04  0.00000000000E+00 0.  1.
          2    1    1    2  501    0 -0.26316782360E+02  0.46105667722E+02 -0.61759356023E+03  0.61987104406E+03  0.00000000000E+00 0.  1.
          2    1    1    2  502    0  0.26316782360E+02 -0.46105667722E+02 -0.12132282486E+04  0.12143891834E+04  0.00000000000E+00 0.  1.
</event>
<event>
 4    1  0.8988950E+003  0.4655213E+02  0.7546771E-02  0.1313856E+00
          2   -1    0    0  501    0  0.00000000000E+00  0.00000000000E+00  0.11032780164E+03  0.11032780164E+03  0.00000000000E+00 0. -1.
          2   -1    0    0  502    0 -0.00000000000E+00 -0.00000000000E+00 -0.39845107699E+03  0.39845107699E+03  0.00000000000E+00 0. -1.
          2    1    1    2  501    0  0.83437936170E+01  0.45798278352E+02 -0.39210153518E+03  0.39485530904E+03  0.00000000000E+00 0. -1.
          2    1    1    2  502    0 -0.83437936170E+01 -0.45798278352E+02  0.10397825982E+03  0.11392356959E+03  0.00000000000E+00 0. -1.
</event>
<event>
 4    1  0.8988950E+003  0.3792825E+02  0.7546771E-02  0.1361073E+00
          2   -1    0    0  501    0  0.00000000000E+00  0.00000000000E+00  0.51169828639E+03  0.51169828639E+03  0.00000000000E+00 0.  1.
          2   -1    0    0  502    0 -0.00000000000E+00 -0.00000000000E+00 -0.18360893940E+02  0.18360893940E+02  0.00000000000E+00 0.  1.
          2    1    1    2  501    0  0.47956095303E+01  0.37623856420E+02  0.27716338485E+01  0.38029388594E+02  0.00000000000E+00 0.  1.
          2    1    1    2  502    0 -0.47956095303E+01 -0.37623856420E+02  0.49056575860E+03  0.49202979173E+03  0.00000000000E+00 0.  1.
</event>
<event>
 4    1  0.8988950E+003  0.2148179E+02  0.7546771E-02  0.1512496E+00
          2   -1    0    0  501    0  0.00000000000E+00  0.00000000000E+00  0.38991835984E+01  0.38991835984E+01  0.00000000000E+00 0. -1.
          2   -1    0    0  502    0 -0.00000000000E+00 -0.00000000000E+00 -0.12175216843E+04  0.12175216843E+04  0.00000000000E+00 0.  1.
          2    1    1    2  501    0 -0.20525338685E+02 -0.63386010199E+01 -0.11870808301E+04  0.11872751849E+04  0.00000000000E+00 0.  1.
          2    1    1    2  502    0  0.20525338685E+02  0.63386010199E+01 -0.26541670545E+02  0.34145682983E+02  0.00000000000E+00 0. -1.
</event>
<event>
 4    1  0.8988950E+003  0.2554787E+02  0.7546771E-02  0.1462767E+00
          2   -1    0    0  501    0  0.00000000000E+00  0.00000000000E+00  0.14582695746E+03  0.14582695746E+03  0.00000000000E+00 0. -1.
          2   -1    0    0  502    0 -0.00000000000E+00 -0.00000000000E+00 -0.46621571407E+03  0.46621571407E+03  0.00000000000E+00 0. -1.
          2    1    1    2  501    0  0.92114686696E+01 -0.23829443368E+02 -0.46474322390E+03  0.46544490295E+03  0.00000000000E+00 0. -1.
          2    1    1    2  502    0 -0.92114686696E+01  0.23829443368E+02  0.14435446729E+03  0.14659776858E+03  0.00000000000E+00 0. -1.
</event>
<event>
 4    1  0.8988950E+003  0.3218925E+02  0.7546771E-02  0.1401479E+00
          2   -1    0    0  501    0  0.00000000000E+00  0.00000000000E+00  0.10474658454E+04  0.10474658454E+04  0.00000000000E+00 0.  1.
          2   -1    0    0  502    0 -0.00000000000E+00 -0.00000000000E+00 -0.10581575945E+01  0.10581575945E+01  0.00000000000E+00 0. -1.
          2    1    1    2  501    0 -0.30204205454E+02 -0.11128950393E+02  0.38936528792E+03  0.39069358198E+03  0.00000000000E+00 0. -1.
          2    1    1    2  502    0  0.30204205454E+02  0.11128950393E+02  0.65704239993E+03  0.65783042106E+03  0.00000000000E+00 0.  1.
</event>
<event>
 4    1  0.8988950E+003  0.2081365E+02  0.7546771E-02  0.1521942E+00
          2   -1    0    0  502    0  0.00000000000E+00  0.00000000000E+00  0.70285129659E+02  0.70285129659E+02  0.00000000000E+00 0.  1.
          2   -1    0    0  501    0 -0.00000000000E+00 -0.00000000000E+00 -0.92368828796E+03  0.92368828796E+03  0.00000000000E+00 0. -1.
          2    1    1    2  501    0  0.12453726525E+02  0.16676708010E+02  0.68624210243E+02  0.71711157610E+02  0.00000000000E+00 0.  1.
          2    1    1    2  502    0 -0.12453726525E+02 -0.16676708010E+02 -0.92202736855E+03  0.92226226001E+03  0.00000000000E+00 0. -1.
</event>
<event>
 4    1  0.8988950E+003  0.2074173E+02  0.7546771E-02  0.1522984E+00
          2   -1    0    0  501    0  0.00000000000E+00  0.00000000000E+00  0.26243444191E+03  0.26243444191E+03  0.00000000000E+00 0.  1.
          2   -1    0    0  502    0 -0.00000000000E+00 -0.00000000000E+00 -0.16581168050E+01  0.16581168050E+01  0.00000000000E+00 0.  1.
          2    1    1    2  501    0 -0.75431110061E+01 -0.19321508262E+02  0.14443998539E+03  0.14592165222E+03  0.00000000000E+00 0.  1.
          2    1    1    2  502    0  0.75431110061E+01  0.19321508262E+02  0.11633633971E+03  0.11817090649E+03  0.00000000000E+00 0.  1.
</event>
<event>
 4    1  0.8988950E+003  0.3077719E+02  0.7546771E-02  0.1412960E+00
          2   -1    0    0  502    0  0.00000000000E+00  0.00000000000E+00  0.10680218479E+04  0.10680218479E+04  0.00000000000E+00 0.  1.
          2   -1    0    0  501    0 -0.00000000000E+00 -0.00000000000E+00 -0.73443713943E+01  0.73443713943E+01  0.00000000000E+00 0.  1.
          2    1    1    2  501    0  0.94318066508E+01  0.29296352080E+02  0.10345123547E+04  0.10349700707E+04  0.00000000000E+00 0.  1.
          2    1    1    2  502    0 -0.94318066508E+01 -0.29296352080E+02  0.26165121801E+02  0.40396148588E+02  0.00000000000E+00 0.  1.
</event>
<event>
 4    1  0.8988950E+003  0.2057030E+02  0.7546771E-02  0.1525489E+00
          2   -1    0    0  502    0  0.00000000000E+00  0.00000000000E+00  0.15699780858E+03  0.15699780858E+03  0.00000000000E+00 0.  1.
          2   -1    0    0  501    0 -0.00000000000E+00 -0.00000000000E+00 -0.48007138631E+03  0.48007138631E+03  0.00000000000E+00 0. -1.
          2    1    1    2  501    0  0.18227127264E+02  0.95346193903E+01  0.15610240428E+03  0.15745189029E+03  0.00000000000E+00 0.  1.
          2    1    1    2  502    0 -0.18227127264E+02 -0.95346193903E+01 -0.47917598201E+03  0.47961730460E+03  0.00000000000E+00 0. -1.
</event>
<event>
 4    1  0.8988950E+003  0.4174988E+02  0.7546771E-02  0.1338526E+00
          2   -1    0    0  501    0  0.00000000000E+00  0.00000000000E+00  0.11930800970E+04  0.11930800970E+04  0.00000000000E+00 0. -1.
          2   -1    0    0  502    0 -0.00000000000E+00 -0.00000000000E+00 -0.74291505746E+01  0.74291505746E+01  0.00000000000E+00 0. -1.
          2    1    1    2  501    0 -0.41599936209E+02  0.35352322217E+01  0.54819667714E+02  0.68907536074E+02  0.00000000000E+00 0. -1.
          2    1    1    2  502    0  0.41599936209E+02 -0.35352322217E+01  0.11308312787E+04  0.11316017115E+04  0.00000000000E+00 0. -1.
</event>
<event>
 4    1  0.8988950E+003  0.2106433E+02  0.7546771E-02  0.1518348E+00
          2   -1    0    0  502    0  0.00000000000E+00  0.00000000000E+00  0.54495997645E+03  0.54495997645E+03  0.00000000000E+00 0. -1.
          2   -1    0    0  501    0 -0.00000000000E+00 -0.00000000000E+00 -0.15532086026E+01  0.15532086026E+01  0.00000000000E+00 0.  1.
          2    1    1    2  501    0 -0.65933491745E+01 -0.20005842669E+02  0.46019009110E+03  0.46067192875E+03  0.00000000000E+00 0. -1.
          2    1    1    2  502    0  0.65933491745E+01  0.20005842669E+02  0.83216676751E+02  0.85841256304E+02  0.00000000000E+00 0.  1.
</event>
<event>
 4    1  0.8988950E+003  0.6905748E+02  0.7546771E-02  0.1231819E+00
          2   -1    0    0  502    0  0.00000000000E+00  0.00000000000E+00  0.67037191268E+03  0.67037191268E+03  0.00000000000E+00 0. -1.
          2   -1    0    0  501    0 -0.00000000000E+00 -0.00000000000E+00 -0.38898962863E+02  0.38898962863E+02  0.00000000000E+00 0.  1.
          2    1    1    2  501    0 -0.56621532372E+02 -0.39534012982E+02  0.63630795937E+03  0.64004433852E+03  0.00000000000E+00 0. -1.
          2    1    1    2  502    0  0.56621532372E+02  0.39534012982E+02 -0.48350095566E+01  0.69226537021E+02  0.00000000000E+00 0.  1.
</event>
<event>
 4    1  0.8988950E+003  0.3422991E+02  0.7546771E-02  0.1386059E+00
          2   -1    0    0  501    0  0.00000000000E+00  0.00000000000E+00  0.18434532982E+03  0.18434532982E+03  0.00000000000E+00 0. -1.
          2   -1    0    0  502    0 -0.00000000000E+00 -0.00000000000E+00 -0.15323943733E+02  0.15323943733E+02  0.00000000000E+00 0. -1.
          2    1    1    2  501    0 -0.31785077343E+02 -0.12704158607E+02  0.81369636060E+01  0.35183759951E+02  0.00000000000E+00 0. -1.
          2    1    1    2  502    0  0.31785077343E+02  0.12704158607E+02  0.16088442248E+03  0.16448551360E+03  0.00000000000E+00 0. -1.
</event>
<event>
 4    1  0.8988950E+003  0.2461265E+02  0.7546771E-02  0.1473184E+00
          2   -1    0    0  501    0  0.00000000000E+00  0.00000000000E+00  0.10639390004E+04  0.10639390004E+04  0.00000000000E+00 0.  1.
          2   -1    0    0  502    0 -0.00000000000E+00 -0.00000000000E+00 -0.11741279384E+02  0.11741279384E+02  0.00000000000E+00 0. -1.
          2    1    1    2  501    0 -0.91233143588E+01  0.22859298125E+02  0.14616784492E+01  0.24656011023E+02  0.00000000000E+00 0. -1.
          2    1    1    2  502    0  0.91233143588E+01 -0.22859298125E+02  0.10507360425E+04  0.10510242687E+04  0.00000000000E+00 0.  1.
</event>
<event>
 4    1  0.8988950E+003  0.2604322E+02  0.7546771E-02  0.1457463E+00
          2   -1    0    0  502    0  0.00000000000E+00  0.00000000000E+00  0.30160847964E+03  0.30160847964E+03  0.00000000000E+00 0.  1.
          2   -1    0    0  501    0 -0.00000000000E+00 -0.00000000000E+00 -0.43558334432E+01  0.43558334432E+01  0.00000000000E+00 0. -1.
          2    1    1    2  501    0 -0.14078346994E+02 -0.21910031142E+02  0.25502679061E+03  0.25635310267E+03  0.00000000000E+00 0.  1.
          2    1    1    2  502    0  0.14078346994E+02  0.21910031142E+02  0.42225855582E+02  0.49611210410E+02  0.00000000000E+00 0. -1.
</event>
<event>
 4    1  0.8988950E+003  0.2105134E+02  0.7546771E-02  0.1518533E+00
          2   -1    0    0  501    0  0.00000000000E+00  0.00000000000E+00  0.87904409401E+03  0.87904409401E+03  0.00000000000E+00 0. -1.
          2   -1    0    0  502    0 -0.00000000000E+00 -0.00000000000E+00 -0.43573985195E+01  0.43573985195E+01  0.00000000000E+00 0. -1.
          2    1    1    2  501    0  0.10084094651E+02 -0.18478907007E+02  0.21979480151E+02  0.30434462650E+02  0.00000000000E+00 0. -1.
          2    1    1    2  502    0 -0.10084094651E+02  0.18478907007E+02  0.85270721534E+03  0.85296702988E+03  0.00000000000E+00 0. -1.
</event>
<event>
 4    1  0.8988950E+003  0.2016730E+02  0.7546771E-02  0.1531493E+00
          2   -1    0    0  501    0  0.00000000000E+00  0.00000000000E+00  0.12286373674E+04  0.12286373674E+04  0.00000000000E+00 0. -1.
          2   -1    0    0  502    0 -0.00000000000E+00 -0.00000000000E+00 -0.24100717009E+03  0.24100717009E+03  0.00000000000E+00 0.  1.
          2    1    1    2  501    0 -0.38284720719E+01  0.19800580091E+02 -0.24050234196E+03  0.24134642458E+03  0.00000000000E+00 0.  1.
          2    1    1    2  502    0  0.38284720719E+01 -0.19800580091E+02  0.12281325392E+04  0.12282981129E+04  0.00000000000E+00 0. -1.
</event>
<event>
 4    1  0.8988950E+003  0.2180439E+02  0.7546771E-02  0.1508083E+00
          2   -1    0    0  502    0  0.00000000000E+00  0.00000000000E+00  0.73983975686E+03  0.73983975686E+03  0.00000000000E+00 0. -1.
          2   -1    0    0  501    0 -0.00000000000E+00 -0.00000000000E+00 -0.99447797282E+02  0.99447797282E+02  0.00000000000E+00 0.  1.
          2    1    1    2  501    0 -0.15734759634E+02  0.15094661161E+02  0.73848172750E+03  0.73880355529E+03  0.00000000000E+00 0. -1.
          2    1    1    2  502    0  0.15734759634E+02 -0.15094661161E+02 -0.98089767918E+02  0.10048399886E+03  0.00000000000E+00 0.  1.
</event>
<event>
 4    1  0.8988950E+003  0.3357798E+02  0.7546771E-02  0.1390846E+00
          2   -1    0    0  501    0  0.00000000000E+00  0.00000000000E+00  0.24492955318E+02  0.24492955318E+02  0.00000000000E+00 0. -1.
          2   -1    0    0  502    0 -0.00000000000E+00 -0.00000000000E+00 -0.53143132991E+02  0.53143132991E+02  0.00000000000E+00 0. -1.
          2    1    1    2  501    0 -0.32818823940E+02  0.70996653418E+01 -0.28523953579E+02  0.44057875353E+02  0.00000000000E+00 0. -1.
          2    1    1    2  502    0  0.32818823940E+02 -0.70996653418E+01 -0.12622409334E+00  0.33578212956E+02  0.00000000000E+00 0. -1.
</event>
<event>
 4    1  0.8988950E+003  0.2398006E+02  0.7546771E-02  0.1480545E+00
          2   -1    0    0  502    0  0.00000000000E+00  0.00000000000E+00  0.85408703623E+03  0.85408703623E+03  0.00000000000E+00 0. -1.
          2   -1    0    0  501    0 -0.00000000000E+00 -0.00000000000E+00 -0.54564808208E+01  0.54564808208E+01  0.00000000000E+00 0.  1.
          2    1    1    2  501    0  0.23978815105E+02  0.24386639389E+00  0.82669926298E+03  0.82704698443E+03  0.00000000000E+00 0. -1.
          2    1    1    2  502    0 -0.23978815105E+02 -0.24386639389E+00  0.21931292426E+02  0.32496532617E+02  0.00000000000E+00 0.  1.
</event>
<event>
 4    1  0.8988950E+003  0.2551515E+02  0.7546771E-02  0.1463122E+00
          2   -1    0    0  501    0  0.00000000000E+00  0.00000000000E+00  0.14939355333E+01  0.14939355333E+01  0.00000000000E+00 0. -1.
          2   -1    0    0  502    0 -0.00000000000E+00 -0.00000000000E+00 -0.46588758465E+03  0.46588758465E+03  0.00000000000E+00 0. -1.
          2    1    1    2  501    0 -0.22298944776E+02  0.12400809772E+02 -0.29160678090E+03  0.29272092116E+03  0.00000000000E+00 0. -1.
          2    1    1    2  502    0  0.22298944776E+02 -0.12400809772E+02 -0.17278686822E+03  0.17466059902E+03  0.00000000000E+00 0. -1.
</event>
<event>
 4    1  0.8988950E+003  0.3118458E+02  0.7546771E-02  0.1409574E+00
          2   -1    0    0  501    0  0.00000000000E+00  0.00000000000E+00  0.29060670924E+02  0.29060670924E+02  0.00000000000E+00 0.  1.
          2   -1    0    0  502    0 -0.00000000000E+00 -0.00000000000E+00 -0.11613771488E+04  0.11613771488E+04  0.00000000000E+00 0. -1.
          2    1    1    2  501    0  0.23722907350E+02  0.20241084271E+02 -0.11527392066E+04  0.11531609412E+04  0.00000000000E+00 0. -1.
          2    1    1    2  502    0 -0.23722907350E+02 -0.20241084271E+02  0.20422728724E+02  0.37276878546E+02  0.00000000000E+00 0.  1.
</event>
<event>
 4    1  0.8988950E+003  0.2810721E+02  0.7546771E-02  0.1436792E+00
          2   -1    0    0  501    0  0.00000000000E+00  0.00000000000E+00  0.82818369731E+01  0.82818369731E+01  0.00000000000E+00 0. -1.
          2   -1    0    0  502    0 -0.00000000000E+00 -0.00000000000E+00 -0.13092244147E+03  0.13092244147E+03  0.00000000000E+00 0.  1.
          2    1    1    2  501    0  0.28028866543E+02 -0.20970779482E+01 -0.97579667195E+02  0.10154706567E+03  0.00000000000E+00 0.  1.
          2    1    1    2  502    0 -0.28028866543E+02  0.20970779482E+01 -0.25060937300E+02  0.37657212775E+02  0.00000000000E+00 0. -1.
</event>
<event>
 4    1  0.8988950E+003  0.3723091E+02  0.7546771E-02  0.1365524E+00
          2   -1    0    0  502    0  0.00000000000E+00  0.00000000000E+00  0.37510909694E+03  0.37510909694E+03  0.00000000000E+00 0. -1.
          2   -1    0    0  501    0 -0.00000000000E+00 -0.00000000000E+00 -0.44873766651E+03  0.44873766651E+03  0.00000000000E+00 0.  1.
          2    1    1    2  501    0 -0.24191204045E+02 -0.28300645615E+02  0.37340952103E+03  0.37526099090E+03  0.00000000000E+00 0. -1.
          2    1    1    2  502    0  0.24191204045E+02  0.28300645615E+02 -0.44703809059E+03  0.44858577255E+03  0.00000000000E+00 0.  1.
</event>
<event>
 4    1  0.8988950E+003  0.2158074E+02  0.7546771E-02  0.1511133E+00
          2   -1    0    0  501    0  0.00000000000E+00  0.00000000000E+00  0.64151112845E+03  0.64151112845E+03  0.00000000000E+00 0. -1.
          2   -1    0    0  502    0 -0.00000000000E+00 -0.00000000000E+00 -0.14826365185E+01  0.14826365185E+01  0.00000000000E+00 0.  1.
          2    1    1    2  501    0 -0.18260502826E+02 -0.11501401747E+02  0.90342782124E+02  0.92884586921E+02  0.00000000000E+00 0.  1.
          2    1    1    2  502    0  0.18260502826E+02  0.11501401747E+02  0.54968570981E+03  0.55010917805E+03  0.00000000000E+00 0. -1.
</event>
<event>
 4    1  0.8988950E+003  0.2406042E+02  0.7546771E-02  0.1479595E+00
          2   -1    0    0  501    0  0.00000000000E+00  0.00000000000E+00  0.88979989022E+02  0.88979989022E+02  0.00000000000E+00 0. -1.
          2   -1    0    0  502    0 -0.00000000000E+00 -0.00000000000E+00 -0.94954645648E+03  0.94954645648E+03  0.00000000000E+00 0.  1.
          2    1    1    2  501    0 -0.22570533280E+02  0.83351673871E+01 -0.94776448242E+03  0.94806983821E+03  0.00000000000E+00 0.  1.
          2    1    1    2  502    0  0.22570533280E+02 -0.83351673871E+01  0.87198014966E+02  0.90456607287E+02  0.00000000000E+00 0. -1.
</event>
<event>
 4    1  0.8988950E+003  0.2385729E+02  0.7546771E-02  0.1482005E+00
          2   -1    0    0  502    0  0.00000000000E+00  0.00000000000E+00  0.13144728225E+04  0.13144728225E+04  0.00000000000E+00 0. -1.
          2   -1    0    0  501    0 -0.00000000000E+00 -0.00000000000E+00 -0.15658901512E+01  0.15658901512E+01  0.00000000000E+00 0. -1.
          2    1    1    2  501    0  0.11422361793E+02  0.20945166059E+02  0.12161484295E+04  0.12163824122E+04  0.00000000000E+00 0. -1.
          2    1    1    2  502    0 -0.11422361793E+02 -0.20945166059E+02  0.96758502873E+02  0.99656300395E+02  0.00000000000E+00 0. -1.
</event>
<event>
 4    1  0.8988950E+003  0.3005616E+02  0.7546771E-02  0.1419109E+00
          2   -1    0    0  501    0  0.00000000000E+00  0.00000000000E+00  0.38235319783E+01  0.38235319783E+01  0.00000000000E+00 0.  1.
          2   -1    0    0  502    0 -0.00000000000E+00 -0.00000000000E+00 -0.48943135590E+03  0.48943135590E+03  0.00000000000E+00 0.  1.
          2    1    1    2  501    0 -0.29378589188E+02 -0.63459751899E+01 -0.42018084005E+03  0.42125444953E+03  0.00000000000E+00 0.  1.
          2    1    1    2  502    0  0.29378589188E+02  0.63459751899E+01 -0.65426983872E+02  0.72000438349E+02  0.00000000000E+00 0.  1.
</event>
<event>
 4    1  0.8988950E+003  0.2154770E+02  0.7546771E-02  0.1511587E+00
          2   -1    0    0  501    0  0.00000000000E+00  0.00000000000E+00  0.44142493078E+00  0.44142493078E+00  0.00000000000E+00 0.  1.
          2   -1    0    0  502    0 -0.00000000000E+00 -0.00000000000E+00 -0.14274697160E+04  0.14274697160E+04  0.00000000000E+00 0.  1.
          2    1    1    2  501    0  0.12449139776E+02 -0.17587556463E+02 -0.10797614894E+04  0.10799764706E+04  0.00000000000E+00 0.  1.
          2    1    1    2  502    0 -0.12449139776E+02  0.17587556463E+02 -0.34726680173E+03  0.34793467032E+03  0.00000000000E+00 0.  1.
</event>
<event>
 4    1  0.8988950E+003  0.4518260E+02  0.7546771E-02  0.1320529E+00
          2   -1    0    0  501    0  0.00000000000E+00  0.00000000000E+00  0.23425947678E+03  0.23425947678E+03  0.00000000000E+00 0.  1.
          2   -1    0    0  502    0 -0.00000000000E+00 -0.00000000000E+00 -0.41067143211E+02  0.41067143211E+02  0.00000000000E+00 0.  1.
          2    1    1    2  501    0 -0.45175647714E+02  0.79236090156E+00 -0.25590967571E+02  0.51926530824E+02  0.00000000000E+00 0.  1.
          2    1    1    2  502    0  0.45175647714E+02 -0.79236090156E+00  0.21878330114E+03  0.22340008917E+03  0.00000000000E+00 0.  1.
</event>
<event>
 4    1  0.8988950E+003  0.2797552E+02  0.7546771E-02  0.1438047E+00
          2   -1    0    0  501    0  0.00000000000E+00  0.00000000000E+00  0.81703340904E+03  0.81703340904E+03  0.00000000000E+00 0. -1.
          2   -1    0    0  502    0 -0.00000000000E+00 -0.00000000000E+00 -0.16355203713E+02  0.16355203713E+02  0.00000000000E+00 0.  1.
          2    1    1    2  501    0  0.27286304817E+02  0.61714931387E+01 -0.39686216204E+01  0.28255613879E+02  0.00000000000E+00 0.  1.
          2    1    1    2  502    0 -0.27286304817E+02 -0.61714931387E+01  0.80464682695E+03  0.80513299888E+03  0.00000000000E+00 0. -1.
</event>
<event>
 4    1  0.8988950E+003  0.7116256E+02  0.7546771E-02  0.1225999E+00
          2   -1    0    0  502    0  0.00000000000E+00  0.00000000000E+00  0.39366889399E+03  0.39366889399E+03  0.00000000000E+00 0. -1.
          2   -1    0    0  501    0 -0.00000000000E+00 -0.00000000000E+00 -0.37316535749E+02  0.37316535749E+02  0.00000000000E+00 0. -1.
          2    1    1    2  501    0 -0.40791995118E+02 -0.58310569715E+02  0.35261572599E+03  0.35972483876E+03  0.00000000000E+00 0. -1.
          2    1    1    2  502    0  0.40791995118E+02  0.58310569715E+02  0.37366322520E+01  0.71260590980E+02  0.00000000000E+00 0. -1.
</event>
<event>
 4    1  0.8988950E+003  0.2026178E+02  0.7546771E-02  0.1530071E+00
          2   -1    0    0  501    0  0.00000000000E+00  0.00000000000E+00  0.28933874134E+01  0.28933874134E+01  0.00000000000E+00 0. -1.
          2   -1    0    0  502    0 -0.00000000000E+00 -0.00000000000E+00 -0.19507706461E+03  0.19507706461E+03  0.00000000000E+00 0. -1.
          2    1    1    2  501    0 -0.19108838494E+02 -0.67373528591E+01 -0.14777804644E+03  0.14916062027E+03  0.00000000000E+00 0. -1.
          2    1    1    2  502    0  0.19108838494E+02  0.67373528591E+01 -0.44405630762E+02  0.48809831751E+02  0.00000000000E+00 0. -1.
</event>
<event>
 4    1  0.8988950E+003  0.2126640E+02  0.7546771E-02  0.1515495E+00
          2   -1    0    0  502    0  0.00000000000E+00  0.00000000000E+00  0.77274275654E+01  0.77274275654E+01  0.00000000000E+00 0. -1.
          2   -1    0    0  501    0 -0.00000000000E+00 -0.00000000000E+00 -0.39648039521E+03  0.39648039521E+03  0.00000000000E+00 0. -1.
          2    1    1    2  501    0  0.70606895465E+01  0.20060067436E+02 -0.77846819007E+01  0.22646432715E+02  0.00000000000E+00 0. -1.
          2    1    1    2  502    0 -0.70606895465E+01 -0.20060067436E+02 -0.38096828575E+03  0.38156139006E+03  0.00000000000E+00 0. -1.
</event>
<event>
 4    1  0.8988950E+003  0.2185165E+02  0.7546771E-02  0.1507444E+00
          2   -1    0    0  502    0  0.00000000000E+00  0.00000000000E+00  0.10661628528E+04  0.10661628528E+04  0.00000000000E+00 0.  1.
          2   -1    0    0  501    0 -0.00000000000E+00 -0.00000000000E+00 -0.12207616349E+01  0.12207616349E+01  0.00000000000E+00 0. -1.
          2    1    1    2  501    0  0.13290463529E+02 -0.17345262398E+02  0.95712625977E+03  0.95737566905E+03  0.00000000000E+00 0.  1.
          2    1    1    2  502    0 -0.13290463529E+02  0.17345262398E+02  0.10781583144E+03  0.11000794543E+03  0.00000000000E+00 0. -1.
</event>
<event>
 4    1  0.8988950E+003  0.3016764E+02  0.7546771E-02  0.1418145E+00
          2   -1    0    0  501    0  0.00000000000E+00  0.00000000000E+00  0.25536846425E+03  0.25536846425E+03  0.00000000000E+00 0. -1.
          2   -1    0    0  502    0 -0.00000000000E+00 -0.00000000000E+00 -0.13340220708E+04  0.13340220708E+04  0.00000000000E+00 0. -1.
          2    1    1    2  501    0  0.21722667588E+02  0.20933516615E+02 -0.13329598536E+04  0.13333011879E+04  0.00000000000E+00 0. -1.
          2    1    1    2  502    0 -0.21722667588E+02 -0.20933516615E+02  0.25430624706E+03  0.25608934711E+03  0.00000000000E+00 0. -1.
</event>
<event>
 4    1  0.8988950E+003  0.2092933E+02  0.7546771E-02  0.1520276E+00
          2   -1    0    0  501    0  0.00000000000E+00  0.00000000000E+00  0.10781717690E+03  0.10781717690E+03  0.00000000000E+00 0. -1.
          2   -1    0    0  502    0 -0.00000000000E+00 -0.00000000000E+00 -0.60166676734E+03  0.60166676734E+03  0.00000000000E+00 0. -1.
          2    1    1    2  501    0 -0.13278857108E+02  0.16177420090E+02 -0.60046703497E+03  0.60083167115E+03  0.00000000000E+00 0. -1.
          2    1    1    2  502    0  0.13278857108E+02 -0.16177420090E+02  0.10661744454E+03  0.10865227309E+03  0.00000000000E+00 0. -1.
</event>
<event>
 4    1  0.8988950E+003  0.3109797E+02  0.7546771E-02  0.1410289E+00
          2   -1    0    0  501    0  0.00000000000E+00  0.00000000000E+00  0.26407178230E+02  0.26407178230E+02  0.00000000000E+00 0.  1.
          2   -1    0    0  502    0 -0.00000000000E+00 -0.00000000000E+00 -0.55661910139E+02  0.55661910139E+02  0.00000000000E+00 0.  1.
          2    1    1    2  501    0 -0.30853736421E+02  0.38898338495E+01 -0.38626906706E+02  0.49589532970E+02  0.00000000000E+00 0.  1.
          2    1    1    2  502    0  0.30853736421E+02 -0.38898338495E+01  0.93721747977E+01  0.32479555399E+02  0.00000000000E+00 0.  1.
</event>
<event>
 4    1  0.8988950E+003  0.6590516E+02  0.7546771E-02  0.1240989E+00
          2   -1    0    0  501    0  0.00000000000E+00  0.00000000000E+00  0.13751590913E+02  0.13751590913E+02  0.00000000000E+00 0. -1.
          2   -1    0    0  502    0 -0.00000000000E+00 -0.00000000000E+00 -0.11083358583E+04  0.11083358583E+04  0.00000000000E+00 0.  1.
          2    1    1    2  501    0 -0.81403788512E+01  0.65400491485E+02 -0.10217042583E+04  0.10238276620E+04  0.00000000000E+00 0.  1.
          2    1    1    2  502    0  0.81403788512E+01 -0.65400491485E+02 -0.72880009016E+02  0.98259787138E+02  0.00000000000E+00 0. -1.
</event>
<event>
 4    1  0.8988950E+003  0.2371533E+02  0.7546771E-02  0.1483706E+00
          2   -1    0    0  501    0  0.00000000000E+00  0.00000000000E+00  0.61617654445E+02  0.61617654445E+02  0.00000000000E+00 0. -1.
          2   -1    0    0  502    0 -0.00000000000E+00 -0.00000000000E+00 -0.12462069726E+03  0.12462069726E+03  0.00000000000E+00 0. -1.
          2    1    1    2  501    0  0.16666781032E+02 -0.16871134188E+02 -0.12114571979E+03  0.12344513835E+03  0.00000000000E+00 0. -1.
          2    1    1    2  502    0 -0.16666781032E+02  0.16871134188E+02  0.58142676971E+02  0.62793213360E+02  0.00000000000E+00 0. -1.
</event>
<event>
 4    1  0.8988950E+003  0.2853330E+02  0.7546771E-02  0.1432785E+00
          2   -1    0    0  501    0  0.00000000000E+00  0.00000000000E+00  0.53310151558E+02  0.53310151558E+02  0.00000000000E+00 0. -1.
          2   -1    0    0  502    0 -0.00000000000E+00 -0.00000000000E+00 -0.19183295358E+03  0.19183295358E+03  0.00000000000E+00 0. -1.
          2    1    1    2  501    0  0.60752115098E+01  0.27879046838E+02 -0.18685278093E+03  0.18901881174E+03  0.00000000000E+00 0. -1.
          2    1    1    2  502    0 -0.60752115098E+01 -0.27879046838E+02  0.48329978916E+02  0.56124293398E+02  0.00000000000E+00 0. -1.
</event>
<event>
 4    1  0.8988950E+003  0.2248664E+02  0.7546771E-02  0.1499047E+00
          2   -1    0    0  502    0  0.00000000000E+00  0.00000000000E+00  0.12454344672E+02  0.12454344672E+02  0.00000000000E+00 0.  1.
          2   -1    0    0  501    0 -0.00000000000E+00 -0.00000000000E+00 -0.21636344948E+03  0.21636344948E+03  0.00000000000E+00 0.  1.
          2    1    1    2  501    0  0.46533049854E+01 -0.21999901279E+02  0.11628312244E+01  0.22516684481E+02  0.00000000000E+00 0.  1.
          2    1    1    2  502    0 -0.46533049854E+01  0.21999901279E+02 -0.20507193603E+03  0.20630110967E+03  0.00000000000E+00 0.  1.
</event>
<event>
 4    1  0.8988950E+003  0.3602654E+02  0.7546771E-02  0.1373487E+00
          2   -1    0    0  501    0  0.00000000000E+00  0.00000000000E+00  0.81145146471E+02  0.81145146471E+02  0.00000000000E+00 0. -1.
          2   -1    0    0  502    0 -0.00000000000E+00 -0.00000000000E+00 -0.20042705223E+02  0.20042705223E+02  0.00000000000E+00 0.  1.
          2    1    1    2  501    0 -0.20957778435E+02 -0.29303292449E+02  0.78144865805E+01  0.36864313717E+02  0.00000000000E+00 0.  1.
          2    1    1    2  502    0  0.20957778435E+02  0.29303292449E+02  0.53287954667E+02  0.64323537977E+02  0.00000000000E+00 0. -1.
</event>
<event>
 4    1  0.8988950E+003  0.2309227E+02  0.7546771E-02  0.1491343E+00
          2   -1    0    0  501    0  0.00000000000E+00  0.00000000000E+00  0.12504251699E+01  0.12504251699E+01  0.00000000000E+00 0. -1.
          2   -1    0    0  502    0 -0.00000000000E+00 -0.00000000000E+00 -0.55970782288E+03  0.55970782288E+03  0.00000000000E+00 0.  1.
          2    1    1    2  501    0  0.23035123026E+02  0.16235510010E+01 -0.41608175040E+03  0.41672206064E+03  0.00000000000E+00 0.  1.
          2    1    1    2  502    0 -0.23035123026E+02 -0.16235510010E+01 -0.14237564731E+03  0.14423618741E+03  0.00000000000E+00 0. -1.
</event>
<event>
 4    1  0.8988950E+003  0.2627488E+02  0.7546771E-02  0.1455031E+00
          2   -1    0    0  502    0  0.00000000000E+00  0.00000000000E+00  0.11646852025E+04  0.11646852025E+04  0.00000000000E+00 0.  1.
          2   -1    0    0  501    0 -0.00000000000E+00 -0.00000000000E+00 -0.32203966572E+01  0.32203966572E+01  0.00000000000E+00 0. -1.
          2    1    1    2  501    0 -0.23474603645E+02  0.11803055851E+02  0.11082128948E+04  0.11085243296E+04  0.00000000000E+00 0.  1.
          2    1    1    2  502    0  0.23474603645E+02 -0.11803055851E+02  0.53251911105E+02  0.59381269607E+02  0.00000000000E+00 0. -1.
</event>
<event>
 4    1  0.8988950E+003  0.4194033E+02  0.7546771E-02  0.1337476E+00
          2   -1    0    0  501    0  0.00000000000E+00  0.00000000000E+00  0.14686916436E+04  0.14686916436E+04  0.00000000000E+00 0.  1.
          2   -1    0    0  502    0 -0.00000000000E+00 -0.00000000000E+00 -0.12702644093E+02  0.12702644093E+02  0.00000000000E+00 0.  1.
          2    1    1    2  501    0 -0.11452879291E+02  0.40346284920E+02  0.23079676795E+02  0.47871313246E+02  0.00000000000E+00 0.  1.
          2    1    1    2  502    0  0.11452879291E+02 -0.40346284920E+02  0.14329093227E+04  0.14335229744E+04  0.00000000000E+00 0.  1.
</event>
<event>
 4    1  0.8988950E+003  0.2979770E+02  0.7546771E-02  0.1421363E+00
          2   -1    0    0  502    0  0.00000000000E+00  0.00000000000E+00  0.11352659888E+01  0.11352659888E+01  0.00000000000E+00 0.  1.
          2   -1    0    0  501    0 -0.00000000000E+00 -0.00000000000E+00 -0.18707692169E+04  0.18707692169E+04  0.00000000000E+00 0. -1.
          2    1    1    2  501    0 -0.20082035545E+02  0.22013963181E+02 -0.22083115741E+03  0.22283245457E+03  0.00000000000E+00 0.  1.
          2    1    1    2  502    0  0.20082035545E+02 -0.22013963181E+02 -0.16488027935E+04  0.16490720283E+04  0.00000000000E+00 0. -1.
</event>
<event>
 4    1  0.8988950E+003  0.2044465E+02  0.7546771E-02  0.1527343E+00
          2   -1    0    0  502    0  0.00000000000E+00  0.00000000000E+00  0.69701193083E+03  0.69701193083E+03  0.00000000000E+00 0. -1.
          2   -1    0    0  501    0 -0.00000000000E+00 -0.00000000000E+00 -0.19942834836E+01  0.19942834836E+01  0.00000000000E+00 0.  1.
          2    1    1    2  501    0 -0.19798117771E+02  0.51008195558E+01  0.63977801090E+03  0.64010459072E+03  0.00000000000E+00 0. -1.
          2    1    1    2  502    0  0.19798117771E+02 -0.51008195558E+01  0.55239636445E+02  0.58901623594E+02  0.00000000000E+00 0.  1.
</event>
<event>
 4    1  0.8988950E+003  0.3077284E+02  0.7546771E-02  0.1412997E+00
          2   -1    0    0  501    0  0.00000000000E+00  0.00000000000E+00  0.65463253427E+03  0.65463253427E+03  0.00000000000E+00 0.  1.
          2   -1    0    0  502    0 -0.00000000000E+00 -0.00000000000E+00 -0.14984936038E+02  0.14984936038E+02  0.00000000000E+00 0. -1.
          2    1    1    2  501    0  0.26255154084E+02 -0.16051006393E+02  0.15854197962E+01  0.30813657331E+02  0.00000000000E+00 0. -1.
          2    1    1    2  502    0 -0.26255154084E+02  0.16051006393E+02  0.63806217844E+03  0.63880381298E+03  0.00000000000E+00 0.  1.
</event>
<event>
 4    1  0.8988950E+003  0.2086123E+02  0.7546771E-02  0.1521255E+00
          2   -1    0    0  501    0  0.00000000000E+00  0.00000000000E+00  0.99550308683E+03  0.99550308683E+03  0.00000000000E+00 0.  1.
          2   -1    0    0  502    0 -0.00000000000E+00 -0.00000000000E+00 -0.61718510683E+00  0.61718510683E+00  0.00000000000E+00 0.  1.
          2    1    1    2  501    0  0.12846860880E+02  0.16436208172E+02  0.22844766516E+03  0.22939818328E+03  0.00000000000E+00 0.  1.
          2    1    1    2  502    0 -0.12846860880E+02 -0.16436208172E+02  0.76643823656E+03  0.76672208866E+03  0.00000000000E+00 0.  1.
</event>
<event>
 4    1  0.8988950E+003  0.2181570E+02  0.7546771E-02  0.1507930E+00
          2   -1    0    0  502    0  0.00000000000E+00  0.00000000000E+00  0.17319154580E+03  0.17319154580E+03  0.00000000000E+00 0.  1.
          2   -1    0    0  501    0 -0.00000000000E+00 -0.00000000000E+00 -0.34860280847E+01  0.34860280847E+01  0.00000000000E+00 0. -1.
          2    1    1    2  501    0  0.31432530792E+01  0.21588068005E+02  0.12550008941E+03  0.12738209121E+03  0.00000000000E+00 0.  1.
          2    1    1    2  502    0 -0.31432530792E+01 -0.21588068005E+02  0.44205428308E+02  0.49295482673E+02  0.00000000000E+00 0. -1.
</event>
<event>
 4    1  0.8988950E+003  0.2053373E+02  0.7546771E-02  0.1526027E+00
          2   -1    0    0  501    0  0.00000000000E+00  0.00000000000E+00  0.10530839918E+04  0.10530839918E+04  0.00000000000E+00 0. -1.
          2   -1    0    0  502    0 -0.00000000000E+00 -0.00000000000E+00 -0.56736954151E+00  0.56736954151E+00  0.00000000000E+00 0. -1.
          2    1    1    2  501    0 -0.13096579899E+01 -0.20491925609E+02  0.24044792415E+03  0.24132309970E+03  0.00000000000E+00 0. -1.
          2    1    1    2  502    0  0.13096579899E+01  0.20491925609E+02  0.81206869815E+03  0.81232826169E+03  0.00000000000E+00 0. -1.
</event>
<event>
 4    1  0.8988950E+003  0.2207261E+02  0.7546771E-02  0.1504484E+00
          2   -1    0    0  502    0  0.00000000000E+00  0.00000000000E+00  0.67337509761E+03  0.67337509761E+03  0.00000000000E+00 0.  1.
          2   -1    0    0  501    0 -0.00000000000E+00 -0.00000000000E+00 -0.26955331051E+01  0.26955331051E+01  0.00000000000E+00 0. -1.
          2    1    1    2  501    0 -0.14882094699E+02  0.16301028600E+02  0.62447077675E+03  0.62486074552E+03  0.00000000000E+00 0.  1.
          2    1    1    2  502    0  0.14882094699E+02 -0.16301028600E+02  0.46208787758E+02  0.51209885199E+02  0.00000000000E+00 0. -1.
</event>
<event>
 4    1  0.8988950E+003  0.2229548E+02  0.7546771E-02  0.1501539E+00
          2   -1    0    0  502    0  0.00000000000E+00  0.00000000000E+00  0.61469831010E+01  0.61469831010E+01  0.00000000000E+00 0. -1.
          2   -1    0    0  501    0 -0.00000000000E+00 -0.00000000000E+00 -0.98937486217E+03  0.98937486217E+03  0.00000000000E+00 0.  1.
          2    1    1    2  501    0 -0.56959055513E+01  0.21555628663E+02 -0.14628971173E+02  0.26666369545E+02  0.00000000000E+00 0. -1.
          2    1    1    2  502    0  0.56959055513E+01 -0.21555628663E+02 -0.96859890789E+03  0.96885547572E+03  0.00000000000E+00 0.  1.
</event>
<event>
 4    1  0.8988950E+003  0.3384165E+02  0.7546771E-02  0.1388895E+00
          2   -1    0    0  502    0  0.00000000000E+00  0.00000000000E+00  0.89956200274E+03  0.89956200274E+03  0.00000000000E+00 0. -1.
          2   -1    0    0  501    0 -0.00000000000E+00 -0.00000000000E+00 -0.21657693858E+02  0.21657693858E+02  0.00000000000E+00 0.  1.
          2    1    1    2  501    0 -0.35441742030E+01 -0.33655552097E+02  0.88581870751E+03  0.88646491185E+03  0.00000000000E+00 0. -1.
          2    1    1    2  502    0  0.35441742030E+01  0.33655552097E+02 -0.79143986257E+01  0.34754784755E+02  0.00000000000E+00 0.  1.
</event>
<event>
 4    1  0.8988950E+003  0.3595156E+02  0.7546771E-02  0.1373994E+00
          2   -1    0    0  501    0  0.00000000000E+00  0.00000000000E+00  0.38357716273E+03  0.38357716273E+03  0.00000000000E+00 0. -1.
          2   -1    0    0  502    0 -0.00000000000E+00 -0.00000000000E+00 -0.79589734996E+01  0.79589734996E+01  0.00000000000E+00 0. -1.
          2    1    1    2  501    0 -0.22813173793E+02  0.27786212993E+02  0.39151044027E+02  0.53153727803E+02  0.00000000000E+00 0. -1.
          2    1    1    2  502    0  0.22813173793E+02 -0.27786212993E+02  0.33646714520E+03  0.33838240842E+03  0.00000000000E+00 0. -1.
</event>
<event>
 4    1  0.1120820E+004  0.2323624E+02  0.7546771E-02  0.1489553E+00
          2   -1    0    0  502    0  0.00000000000E+00  0.00000000000E+00  0.74297439109E+03  0.74297439109E+03  0.00000000000E+00 0.  1.
          2   -1    0    0  501    0 -0.00000000000E+00 -0.00000000000E+00 -0.61540276014E+03  0.61540276014E+03  0.00000000000E+00 0.  1.
          2    1    1    2  501    0  0.11671169763E+02  0.20092456460E+02  0.74257325919E+03  0.74293671889E+03  0.00000000000E+00 0.  1.
          2    1    1    2  502    0 -0.11671169763E+02 -0.20092456460E+02 -0.61500162825E+03  0.61544043234E+03  0.00000000000E+00 0.  1.
</event>
<event>
 4    1  0.8988950E+003  0.2600930E+02  0.7546771E-02  0.1457822E+00
          2   -1    0    0  501    0  0.00000000000E+00  0.00000000000E+00  0.34512664706E+01  0.34512664706E+01  0.00000000000E+00 0. -1.
          2   -1    0    0  502    0 -0.00000000000E+00 -0.00000000000E+00 -0.11723396668E+04  0.11723396668E+04  0.00000000000E+00 0.  1.
          2    1    1    2  501    0  0.25936268437E+02 -0.19476813129E+01 -0.11209464858E+04  0.11212481918E+04  0.00000000000E+00 0.  1.
          2    1    1    2  502    0 -0.25936268437E+02  0.19476813129E+01 -0.47941914488E+02  0.54542741476E+02  0.00000000000E+00 0. -1.
</event>
<event>
 4    1  0.8988950E+003  0.2871843E+02  0.7546771E-02  0.1431070E+00
          2   -1    0    0  501    0  0.00000000000E+00  0.00000000000E+00  0.24388356249E+04  0.24388356249E+04  0.00000000000E+00 0.  1.
          2   -1    0    0  502    0 -0.00000000000E+00 -0.00000000000E+00 -0.35604056988E+00  0.35604056988E+00  0.00000000000E+00 0.  1.
          2    1    1    2  501    0  0.23262278238E+02  0.16840869856E+02  0.14924508684E+04  0.14927271496E+04  0.00000000000E+00 0.  1.
          2    1    1    2  502    0 -0.23262278238E+02 -0.16840869856E+02  0.94602871598E+03  0.94646451594E+03  0.00000000000E+00 0.  1.
</event>
<event>
 4    1  0.8988950E+003  0.4429108E+02  0.7546771E-02  0.1325023E+00
          2   -1    0    0  501    0  0.00000000000E+00  0.00000000000E+00  0.16895622809E+04  0.16895622809E+04  0.00000000000E+00 0.  1.
          2   -1    0    0  502    0 -0.00000000000E+00 -0.00000000000E+00 -0.20064264369E+03  0.20064264369E+03  0.00000000000E+00 0. -1.
          2    1    1    2  501    0  0.41894560890E+02  0.14371679213E+02 -0.19790413851E+03  0.20279977178E+03  0.00000000000E+00 0. -1.
          2    1    1    2  502    0 -0.41894560890E+02 -0.14371679213E+02  0.16868237757E+04  0.16874051528E+04  0.00000000000E+00 0.  1.
</event>
<event>
 4    1  0.8988950E+003  0.2322070E+02  0.7546771E-02  0.1489745E+00
          2   -1    0    0  501    0  0.00000000000E+00  0.00000000000E+00  0.40156251278E+03  0.40156251278E+03  0.00000000000E+00 0.  1.
          2   -1    0    0  502    0 -0.00000000000E+00 -0.00000000000E+00 -0.19732729196E+01  0.19732729196E+01  0.00000000000E+00 0.  1.
          2    1    1    2  501    0 -0.10254154437E+02 -0.20833949421E+02  0.85741731466E+02  0.88830431984E+02  0.00000000000E+00 0.  1.
          2    1    1    2  502    0  0.10254154437E+02  0.20833949421E+02  0.31384750839E+03  0.31470535371E+03  0.00000000000E+00 0.  1.
</event>
<event>
 4    1  0.8988950E+003  0.2587928E+02  0.7546771E-02  0.1459203E+00
          2   -1    0    0  502    0  0.00000000000E+00  0.00000000000E+00  0.10549476941E+02  0.10549476941E+02  0.00000000000E+00 0. -1.
          2   -1    0    0  501    0 -0.00000000000E+00 -0.00000000000E+00 -0.10038267191E+03  0.10038267191E+03  0.00000000000E+00 0.  1.
          2    1    1    2  501    0  0.18190359228E+02 -0.18407817781E+02 -0.11289014668E+02  0.28234354543E+02  0.00000000000E+00 0. -1.
          2    1    1    2  502    0 -0.18190359228E+02  0.18407817781E+02 -0.78544180300E+02  0.82697794307E+02  0.00000000000E+00 0.  1.
</event>
<event>
 4    1  0.8988950E+003  0.2764051E+02  0.7546771E-02  0.1441278E+00
          2   -1    0    0  501    0  0.00000000000E+00  0.00000000000E+00  0.54254200767E+03  0.54254200767E+03  0.00000000000E+00 0.  1.
          2   -1    0    0  502    0 -0.00000000000E+00 -0.00000000000E+00 -0.59879549103E+01  0.59879549103E+01  0.00000000000E+00 0.  1.
          2    1    1    2  501    0 -0.26939306132E+02 -0.61864076998E+01  0.28419652855E+02  0.39644350462E+02  0.00000000000E+00 0.  1.
          2    1    1    2  502    0  0.26939306132E+02  0.61864076998E+01  0.50813439991E+03  0.50888561212E+03  0.00000000000E+00 0.  1.
</event>
<event>
 4    1  0.8988950E+003  0.3041576E+02  0.7546771E-02  0.1416017E+00
          2   -1    0    0  501    0  0.00000000000E+00  0.00000000000E+00  0.13015703197E+04  0.13015703197E+04  0.00000000000E+00 0. -1.
          2   -1    0    0  502    0 -0.00000000000E+00 -0.00000000000E+00 -0.50755677147E+01  0.50755677147E+01  0.00000000000E+00 0. -1.
          2    1    1    2  501    0  0.13709120403E+02 -0.27151027248E+02  0.42393885011E+02  0.52176237400E+02  0.00000000000E+00 0. -1.
          2    1    1    2  502    0 -0.13709120403E+02  0.27151027248E+02  0.12541008669E+04  0.12544696500E+04  0.00000000000E+00 0. -1.
</event>
<event>
 4    1  0.8988950E+003  0.3372191E+02  0.7546771E-02  0.1389778E+00
          2   -1    0    0  502    0  0.00000000000E+00  0.00000000000E+00  0.37674813986E+03  0.37674813986E+03  0.00000000000E+00 0.  1.
          2   -1    0    0  501    0 -0.00000000000E+00 -0.00000000000E+00 -0.80311840017E+01  0.80311840017E+01  0.00000000000E+00 0. -1.
          2    1    1    2  501    0  0.26069693789E+02 -0.21390141150E+02  0.33635460881E+03  0.33804081106E+03  0.00000000000E+00 0.  1.
          2    1    1    2  502    0 -0.26069693789E+02  0.21390141150E+02  0.32362347049E+02  0.46738512805E+02  0.00000000000E+00 0. -1.
</event>
<event>
 4    1  0.8988950E+003  0.2261612E+02  0.7546771E-02  0.1497376E+00
          2   -1    0    0  501    0  0.00000000000E+00  0.00000000000E+00  0.79664467807E+02  0.79664467807E+02  0.00000000000E+00 0.  1.
          2   -1    0    0  502    0 -0.00000000000E+00 -0.00000000000E+00 -0.22738789191E+02  0.22738789191E+02  0.00000000000E+00 0.  1.
          2    1    1    2  501    0 -0.93986991593E+01  0.20570694902E+02 -0.14911898720E+02  0.27089735290E+02  0.00000000000E+00 0.  1.
          2    1    1    2  502    0  0.93986991593E+01 -0.20570694902E+02  0.71837577335E+02  0.75313521708E+02  0.00000000000E+00 0.  1.
</event>
<event>
 4    1  0.8988950E+003  0.2433951E+02  0.7546771E-02  0.1476330E+00
          2   -1    0    0  501    0  0.00000000000E+00  0.00000000000E+00  0.49209775408E+03  0.49209775408E+03  0.00000000000E+00 0. -1.
          2   -1    0    0  502    0 -0.00000000000E+00 -0.00000000000E+00 -0.12176734167E+01  0.12176734167E+01  0.00000000000E+00 0.  1.
          2    1    1    2  501    0  0.16306192452E+01 -0.24284828589E+02  0.27172086477E+03  0.27280879783E+03  0.00000000000E+00 0. -1.
          2    1    1    2  502    0 -0.16306192452E+01  0.24284828589E+02  0.21915921589E+03  0.22050662967E+03  0.00000000000E+00 0.  1.
</event>
<event>
 4    1  0.8988950E+003  0.2022183E+02  0.7546771E-02  0.1530671E+00
          2   -1    0    0  502    0  0.00000000000E+00  0.00000000000E+00  0.23606876671E+01  0.23606876671E+01  0.00000000000E+00 0.  1.
          2   -1    0    0  501    0 -0.00000000000E+00 -0.00000000000E+00 -0.88494202194E+03  0.88494202194E+03  0.00000000000E+00 0. -1.
          2    1    1    2  501    0  0.53759094770E+01  0.19494148651E+02 -0.43422586641E+02  0.47900347232E+02  0.00000000000E+00 0.  1.
          2    1    1    2  502    0 -0.53759094770E+01 -0.19494148651E+02 -0.83915874763E+03  0.83940236237E+03  0.00000000000E+00 0. -1.
</event>
<event>
 4    1  0.8988950E+003  0.2161650E+02  0.7546771E-02  0.1510642E+00
          2   -1    0    0  502    0  0.00000000000E+00  0.00000000000E+00  0.30617686885E+01  0.30617686885E+01  0.00000000000E+00 0.  1.
          2   -1    0    0  501    0 -0.00000000000E+00 -0.00000000000E+00 -0.30824801843E+03  0.30824801843E+03  0.00000000000E+00 0.  1.
          2    1    1    2  501    0  0.19721519199E+02  0.88506882556E+01 -0.41991128144E+02  0.47228464351E+02  0.00000000000E+00 0.  1.
          2    1    1    2  502    0 -0.19721519199E+02 -0.88506882556E+01 -0.26319512160E+03  0.26408132277E+03  0.00000000000E+00 0.  1.
</event>
<event>
 4    1  0.8988950E+003  0.2169187E+02  0.7546771E-02  0.1509612E+00
          2   -1    0    0  502    0  0.00000000000E+00  0.00000000000E+00  0.65961774352E+03  0.65961774352E+03  0.00000000000E+00 0.  1.
          2   -1    0    0  501    0 -0.00000000000E+00 -0.00000000000E+00 -0.84251029143E+02  0.84251029143E+02  0.00000000000E+00 0.  1.
          2    1    1    2  501    0 -0.21462329355E+02 -0.31473027832E+01  0.65803982389E+03  0.65839725616E+03  0.00000000000E+00 0.  1.
          2    1    1    2  502    0  0.21462329355E+02  0.31473027832E+01 -0.82673109514E+02  0.85471516501E+02  0.00000000000E+00 0.  1.
</event>
<event>
 4    1  0.8988950E+003  0.2779537E+02  0.7546771E-02  0.1439778E+00
          2   -1    0    0  501    0  0.00000000000E+00  0.00000000000E+00  0.93764168644E+02  0.93764168644E+02  0.00000000000E+00 0.  1.
          2   -1    0    0  502    0 -0.00000000000E+00 -0.00000000000E+00 -0.25700365759E+03  0.25700365759E+03  0.00000000000E+00 0.  1.
          2    1    1    2  501    0 -0.18316372539E+02  0.20906767586E+02 -0.25416931789E+03  0.25568461939E+03  0.00000000000E+00 0.  1.
          2    1    1    2  502    0  0.18316372539E+02 -0.20906767586E+02  0.90929828941E+02  0.95083206851E+02  0.00000000000E+00 0.  1.
</event>
<event>
 4    1  0.8988950E+003  0.2323539E+02  0.7546771E-02  0.1489563E+00
          2   -1    0    0  502    0  0.00000000000E+00  0.00000000000E+00  0.11451022852E+04  0.11451022852E+04  0.00000000000E+00 0.  1.
          2   -1    0    0  501    0 -0.00000000000E+00 -0.00000000000E+00 -0.19928327604E+03  0.19928327604E+03  0.00000000000E+00 0. -1.
          2    1    1    2  501    0  0.20209901818E+02 -0.11464877632E+02  0.11443066648E+04  0.11445425404E+04  0.00000000000E+00 0.  1.
          2    1    1    2  502    0 -0.20209901818E+02  0.11464877632E+02 -0.19848765566E+03  0.19984302089E+03  0.00000000000E+00 0. -1.
</event>
<event>
 4    1  0.8988950E+003  0.2220701E+02  0.7546771E-02  0.1502703E+00
          2   -1    0    0  501    0  0.00000000000E+00  0.00000000000E+00  0.66043690996E+00  0.66043690996E+00  0.00000000000E+00 0.  1.
          2   -1    0    0  502    0 -0.00000000000E+00 -0.00000000000E+00 -0.94832535811E+03  0.94832535811E+03  0.00000000000E+00 0. -1.
          2    1    1    2  501    0  0.21537092052E+02 -0.54133979012E+01 -0.69261807681E+03  0.69297399052E+03  0.00000000000E+00 0. -1.
          2    1    1    2  502    0 -0.21537092052E+02  0.54133979012E+01 -0.25504684439E+03  0.25601180451E+03  0.00000000000E+00 0.  1.
</event>
<event>
 4    1  0.8988950E+003  0.2010841E+02  0.7546771E-02  0.1532385E+00
          2   -1    0    0  501    0  0.00000000000E+00  0.00000000000E+00  0.48450269341E+01  0.48450269341E+01  0.00000000000E+00 0.  1.
          2   -1    0    0  502    0 -0.00000000000E+00 -0.00000000000E+00 -0.19258558104E+03  0.19258558104E+03  0.00000000000E+00 0. -1.
          2    1    1    2  501    0 -0.13084370723E+02  0.15269171205E+02 -0.16817956788E+03  0.16937743474E+03  0.00000000000E+00 0. -1.
          2    1    1    2  502    0  0.13084370723E+02 -0.15269171205E+02 -0.19560986231E+02  0.28053173240E+02  0.00000000000E+00 0.  1.
</event>
<event>
 4    1  0.8988950E+003  0.3396469E+02  0.7546771E-02  0.1387991E+00
          2   -1    0    0  502    0  0.00000000000E+00  0.00000000000E+00  0.27164917247E+01  0.27164917247E+01  0.00000000000E+00 0. -1.
          2   -1    0    0  501    0 -0.00000000000E+00 -0.00000000000E+00 -0.19401078927E+04  0.19401078927E+04  0.00000000000E+00 0.  1.
          2    1    1    2  501    0  0.54847120076E+01  0.33518917742E+02 -0.11015607211E+03  0.11527341469E+03  0.00000000000E+00 0. -1.
          2    1    1    2  502    0 -0.54847120076E+01 -0.33518917742E+02 -0.18272353289E+04  0.18275509697E+04  0.00000000000E+00 0.  1.
</event>
<event>
 4    1  0.8988950E+003  0.3155731E+02  0.7546771E-02  0.1406529E+00
          2   -1    0    0  502    0  0.00000000000E+00  0.00000000000E+00  0.42097504562E+02  0.42097504562E+02  0.00000000000E+00 0. -1.
          2   -1    0    0  501    0 -0.00000000000E+00 -0.00000000000E+00 -0.63346811925E+02  0.63346811925E+02  0.00000000000E+00 0.  1.
          2    1    1    2  501    0  0.88046823390E+01  0.30304145764E+02  0.31107915866E+02  0.44312144059E+02  0.00000000000E+00 0. -1.
          2    1    1    2  502    0 -0.88046823390E+01 -0.30304145764E+02 -0.52357223228E+02  0.61132172428E+02  0.00000000000E+00 0.  1.
</event>
<event>
 4    1  0.8988950E+003  0.3122580E+02  0.7546771E-02  0.1409235E+00
          2   -1    0    0  502    0  0.00000000000E+00  0.00000000000E+00  0.10365960311E+04  0.10365960311E+04  0.00000000000E+00 0.  1.
          2   -1    0    0  501    0 -0.00000000000E+00 -0.00000000000E+00 -0.20345743748E+03  0.20345743748E+03  0.00000000000E+00 0. -1.
          2    1    1    2  501    0  0.25184833366E+02 -0.18460089050E+02  0.10351611122E+04  0.10356319708E+04  0.00000000000E+00 0.  1.
          2    1    1    2  502    0 -0.25184833366E+02  0.18460089050E+02 -0.20202251861E+03  0.20442149775E+03  0.00000000000E+00 0. -1.
</event>
<event>
 4    1  0.8988950E+003  0.3589919E+02  0.7546771E-02  0.1374350E+00
          2   -1    0    0  501    0  0.00000000000E+00  0.00000000000E+00  0.26586184614E+03  0.26586184614E+03  0.00000000000E+00 0.  1.
          2   -1    0    0  502    0 -0.00000000000E+00 -0.00000000000E+00 -0.31651084588E+02  0.31651084588E+02  0.00000000000E+00 0.  1.
          2    1    1    2  501    0  0.21843513921E+02  0.28488819919E+02 -0.19786722997E+02  0.40991052289E+02  0.00000000000E+00 0.  1.
          2    1    1    2  502    0 -0.21843513921E+02 -0.28488819919E+02  0.25399748455E+03  0.25652187844E+03  0.00000000000E+00 0.  1.
</event>
<event>
 4    1  0.8988950E+003  0.2278748E+02  0.7546771E-02  0.1495184E+00
          2   -1    0    0  501    0  0.00000000000E+00  0.00000000000E+00  0.52839054124E+02  0.52839054124E+02  0.00000000000E+00 0.  1.
          2   -1    0    0  502    0 -0.00000000000E+00 -0.00000000000E+00 -0.14068547036E+02  0.14068547036E+02  0.00000000000E+00 0. -1.
          2    1    1    2  501    0 -0.32106466306E+01  0.22560167836E+02  0.10171818081E+01  0.22810174997E+02  0.00000000000E+00 0. -1.
          2    1    1    2  502    0  0.32106466306E+01 -0.22560167836E+02  0.37753325280E+02  0.44097426163E+02  0.00000000000E+00 0.  1.
</event>
<event>
 4    1  0.8988950E+003  0.2158702E+02  0.7546771E-02  0.1511046E+00
          2   -1    0    0  501    0  0.00000000000E+00  0.00000000000E+00  0.19836822037E+01  0.19836822037E+01  0.00000000000E+00 0. -1.
          2   -1    0    0  502    0 -0.00000000000E+00 -0.00000000000E+00 -0.32832401341E+03  0.32832401341E+03  0.00000000000E+00 0.  1.
          2    1    1    2  501    0  0.13398712994E+02 -0.16925537829E+02 -0.25126058468E+03  0.25218620255E+03  0.00000000000E+00 0.  1.
          2    1    1    2  502    0 -0.13398712994E+02  0.16925537829E+02 -0.75079746529E+02  0.78121493071E+02  0.00000000000E+00 0. -1.
</event>
<event>
 4    1  0.8988950E+003  0.2187193E+02  0.7546771E-02  0.1507171E+00
          2   -1    0    0  501    0  0.00000000000E+00  0.00000000000E+00  0.88635367463E+02  0.88635367463E+02  0.00000000000E+00 0. -1.
          2   -1    0    0  502    0 -0.00000000000E+00 -0.00000000000E+00 -0.77863385360E+03  0.77863385360E+03  0.00000000000E+00 0.  1.
          2    1    1    2  501    0 -0.16298306360E+02  0.14585831834E+02 -0.77712834812E+03  0.77743607501E+03  0.00000000000E+00 0.  1.
          2    1    1    2  502    0  0.16298306360E+02 -0.14585831834E+02  0.87129861981E+02  0.89833146051E+02  0.00000000000E+00 0. -1.
</event>
<event>
 4    1  0.8988950E+003  0.2707019E+02  0.7546771E-02  0.1446904E+00
          2   -1    0    0  502    0  0.00000000000E+00  0.00000000000E+00  0.12616892112E+02  0.12616892112E+02  0.00000000000E+00 0. -1.
          2   -1    0    0  501    0 -0.00000000000E+00 -0.00000000000E+00 -0.16027226965E+04  0.16027226965E+04  0.00000000000E+00 0. -1.
          2    1    1    2  501    0  0.26504178546E+02 -0.55067148882E+01 -0.21525785159E+01  0.27155643677E+02  0.00000000000E+00 0. -1.
          2    1    1    2  502    0 -0.26504178546E+02  0.55067148882E+01 -0.15879532259E+04  0.15881839450E+04  0.00000000000E+00 0. -1.
</event>
<event>
 4    1  0.8988950E+003  0.2280606E+02  0.7546771E-02  0.1494948E+00
          2   -1    0    0  501    0  0.00000000000E+00  0.00000000000E+00  0.81963175445E+02  0.81963175445E+02  0.00000000000E+00 0. -1.
          2   -1    0    0  502    0 -0.00000000000E+00 -0.00000000000E+00 -0.49604131796E+03  0.49604131796E+03  0.00000000000E+00 0.  1.
          2    1    1    2  501    0 -0.79961603265E+01  0.21358313865E+02 -0.49418680190E+03  0.49471275637E+03  0.00000000000E+00 0.  1.
          2    1    1    2  502    0  0.79961603265E+01 -0.21358313865E+02  0.80108659377E+02  0.83291737035E+02  0.00000000000E+00 0. -1.
</event>
<event>
 4    1  0.8988950E+003  0.2319103E+02  0.7546771E-02  0.1490113E+00
          2   -1    0    0  501    0  0.00000000000E+00  0.00000000000E+00  0.13975832765E+03  0.13975832765E+03  0.00000000000E+00 0. -1.
          2   -1    0    0  502    0 -0.00000000000E+00 -0.00000000000E+00 -0.18279218220E+02  0.18279218220E+02  0.00000000000E+00 0. -1.
          2    1    1    2  501    0 -0.22029844422E+02 -0.72463750474E+01 -0.94705004152E+01  0.25050237019E+02  0.00000000000E+00 0. -1.
          2    1    1    2  502    0  0.22029844422E+02  0.72463750474E+01  0.13094960985E+03  0.13298730885E+03  0.00000000000E+00 0. -1.
</event>
<event>
 4    1  0.8988950E+003  0.2293458E+02  0.7546771E-02  0.1493321E+00
          2   -1    0    0  502    0  0.00000000000E+00  0.00000000000E+00  0.99923158839E+03  0.99923158839E+03  0.00000000000E+00 0.  1.
          2   -1    0    0  501    0 -0.00000000000E+00 -0.00000000000E+00 -0.47803118310E+03  0.47803118310E+03  0.00000000000E+00 0.  1.
          2    1    1    2  501    0  0.17777713533E+02 -0.14489579878E+02  0.99882479244E+03  0.99908806470E+03  0.00000000000E+00 0.  1.
          2    1    1    2  502    0 -0.17777713533E+02  0.14489579878E+02 -0.47762438714E+03  0.47817470679E+03  0.00000000000E+00 0.  1.
</event>
<event>
 4    1  0.8988950E+003  0.2024695E+02  0.7546771E-02  0.1530293E+00
          2   -1    0    0  502    0  0.00000000000E+00  0.00000000000E+00  0.12798934662E+03  0.12798934662E+03  0.00000000000E+00 0.  1.
          2   -1    0    0  501    0 -0.00000000000E+00 -0.00000000000E+00 -0.84345153319E+01  0.84345153319E+01  0.00000000000E+00 0. -1.
          2    1    1    2  501    0  0.13857483964E+02 -0.14761750695E+02  0.11349883883E+03  0.11529061350E+03  0.00000000000E+00 0.  1.
          2    1    1    2  502    0 -0.13857483964E+02  0.14761750695E+02  0.60559924549E+01  0.21133248449E+02  0.00000000000E+00 0. -1.
</event>
<event>
 4    1  0.8988950E+003  0.2955988E+02  0.7546771E-02  0.1423460E+00
          2   -1    0    0  502    0  0.00000000000E+00  0.00000000000E+00  0.28332816418E+02  0.28332816418E+02  0.00000000000E+00 0.  1.
          2   -1    0    0  501    0 -0.00000000000E+00 -0.00000000000E+00 -0.15138581696E+04  0.15138581696E+04  0.00000000000E+00 0. -1.
          2    1    1    2  501    0  0.33093758378E+01  0.29374047057E+02  0.20438081473E+02  0.35937470462E+02  0.00000000000E+00 0.  1.
          2    1    1    2  502    0 -0.33093758378E+01 -0.29374047057E+02 -0.15059634346E+04  0.15062535155E+04  0.00000000000E+00 0. -1.
</event>
<event>
 4    1  0.8988950E+003  0.5936399E+02  0.7546771E-02  0.1262009E+00
          2   -1    0    0  501    0  0.00000000000E+00  0.00000000000E+00  0.43081647615E+03  0.43081647615E+03  0.00000000000E+00 0. -1.
          2   -1    0    0  502    0 -0.00000000000E+00 -0.00000000000E+00 -0.25742970632E+02  0.25742970632E+02  0.00000000000E+00 0. -1.
          2    1    1    2  501    0 -0.58409221419E+02  0.10604081117E+02  0.13982273565E+02  0.60988422321E+02  0.00000000000E+00 0. -1.
          2    1    1    2  502    0  0.58409221419E+02 -0.10604081117E+02  0.39109123195E+03  0.39557102446E+03  0.00000000000E+00 0. -1.
</event>
<event>
 4    1  0.8988950E+003  0.3165879E+02  0.7546771E-02  0.1405709E+00
          2   -1    0    0  502    0  0.00000000000E+00  0.00000000000E+00  0.31057131461E+02  0.31057131461E+02  0.00000000000E+00 0.  1.
          2   -1    0    0  501    0 -0.00000000000E+00 -0.00000000000E+00 -0.36977160682E+03  0.36977160682E+03  0.00000000000E+00 0.  1.
          2    1    1    2  501    0  0.31144775560E+02  0.56817157161E+01  0.22111839990E+02  0.38616219466E+02  0.00000000000E+00 0.  1.
          2    1    1    2  502    0 -0.31144775560E+02 -0.56817157161E+01 -0.36082631535E+03  0.36221251882E+03  0.00000000000E+00 0.  1.
</event>
<event>
 4    1  0.8988950E+003  0.3963809E+02  0.7546771E-02  0.1350620E+00
          2   -1    0    0  502    0  0.00000000000E+00  0.00000000000E+00  0.55246253573E+02  0.55246253573E+02  0.00000000000E+00 0.  1.
          2   -1    0    0  501    0 -0.00000000000E+00 -0.00000000000E+00 -0.35249822076E+02  0.35249822076E+02  0.00000000000E+00 0.  1.
          2    1    1    2  501    0 -0.39573230172E+02  0.22666313825E+01  0.29886795166E+02  0.49642710335E+02  0.00000000000E+00 0.  1.
          2    1    1    2  502    0  0.39573230172E+02 -0.22666313825E+01 -0.98903636692E+01  0.40853365315E+02  0.00000000000E+00 0.  1.
</event>
<event>
 4    1  0.8988950E+003  0.2128862E+02  0.7546771E-02  0.1515184E+00
          2   -1    0    0  502    0  0.00000000000E+00  0.00000000000E+00  0.37592496483E+03  0.37592496483E+03  0.00000000000E+00 0.  1.
          2   -1    0    0  501    0 -0.00000000000E+00 -0.00000000000E+00 -0.13605631751E+03  0.13605631751E+03  0.00000000000E+00 0.  1.
          2    1    1    2  501    0 -0.18937287470E+02 -0.97254518946E+01  0.37478829474E+03  0.37539242287E+03  0.00000000000E+00 0.  1.
          2    1    1    2  502    0  0.18937287470E+02  0.97254518946E+01 -0.13491964742E+03  0.13658885947E+03  0.00000000000E+00 0.  1.
</event>
<event>
 4    1  0.8988950E+003  0.2077310E+02  0.7546771E-02  0.1522529E+00
          2   -1    0    0  502    0  0.00000000000E+00  0.00000000000E+00  0.29145863376E+02  0.29145863376E+02  0.00000000000E+00 0.  1.
          2   -1    0    0  501    0 -0.00000000000E+00 -0.00000000000E+00 -0.37310512073E+02  0.37310512073E+02  0.00000000000E+00 0. -1.
          2    1    1    2  501    0 -0.16518425436E+02 -0.12596160970E+02  0.21724218285E+02  0.30057666412E+02  0.00000000000E+00 0.  1.
          2    1    1    2  502    0  0.16518425436E+02  0.12596160970E+02 -0.29888866982E+02  0.36398709036E+02  0.00000000000E+00 0. -1.
</event>
<event>
 4    1  0.8988950E+003  0.2018870E+02  0.7546771E-02  0.1531170E+00
          2   -1    0    0  502    0  0.00000000000E+00  0.00000000000E+00  0.44333723107E+03  0.44333723107E+03  0.00000000000E+00 0. -1.
          2   -1    0    0  501    0 -0.00000000000E+00 -0.00000000000E+00 -0.16769549795E+01  0.16769549795E+01  0.00000000000E+00 0. -1.
          2    1    1    2  501    0 -0.18010186163E+02  0.91223319156E+01  0.37038601852E+03  0.37093582526E+03  0.00000000000E+00 0. -1.
          2    1    1    2  502    0  0.18010186163E+02 -0.91223319156E+01  0.71274257566E+02  0.74078360787E+02  0.00000000000E+00 0. -1.
</event>
<event>
 4    1  0.8988950E+003  0.4595443E+02  0.7546771E-02  0.1316735E+00
          2   -1    0    0  502    0  0.00000000000E+00  0.00000000000E+00  0.44531235552E+02  0.44531235552E+02  0.00000000000E+00 0. -1.
          2   -1    0    0  501    0 -0.00000000000E+00 -0.00000000000E+00 -0.11873345859E+03  0.11873345859E+03  0.00000000000E+00 0. -1.
          2    1    1    2  501    0  0.41696586494E+02 -0.19318490469E+02  0.26162214836E+02  0.52879777650E+02  0.00000000000E+00 0. -1.
          2    1    1    2  502    0 -0.41696586494E+02  0.19318490469E+02 -0.10036443788E+03  0.11038491649E+03  0.00000000000E+00 0. -1.
</event>
<event>
 4    1  0.8988950E+003  0.1321802E+03  0.7546771E-02  0.1117425E+00
          2   -1    0    0  502    0  0.00000000000E+00  0.00000000000E+00  0.10104554422E+04  0.10104554422E+04  0.00000000000E+00 0. -1.
          2   -1    0    0  501    0 -0.00000000000E+00 -0.00000000000E+00 -0.39407817214E+03  0.39407817214E+03  0.00000000000E+00 0. -1.
          2    1    1    2  501    0  0.18969893492E+02 -0.13081189715E+03  0.99487607889E+03  0.10036184642E+04  0.00000000000E+00 0. -1.
          2    1    1    2  502    0 -0.18969893492E+02  0.13081189715E+03 -0.37849880886E+03  0.40091515013E+03  0.00000000000E+00 0. -1.
</event>
<event>
 4    1  0.8988950E+003  0.2128560E+02  0.7546771E-02  0.1515226E+00
          2   -1    0    0  501    0  0.00000000000E+00  0.00000000000E+00  0.11700354754E+03  0.11700354754E+03  0.00000000000E+00 0.  1.
          2   -1    0    0  502    0 -0.00000000000E+00 -0.00000000000E+00 -0.69082501863E+03  0.69082501863E+03  0.00000000000E+00 0. -1.
          2    1    1    2  501    0 -0.25528372414E+01  0.21131959382E+02 -0.68969138239E+03  0.69001976757E+03  0.00000000000E+00 0. -1.
          2    1    1    2  502    0  0.25528372414E+01 -0.21131959382E+02  0.11586991130E+03  0.11780879861E+03  0.00000000000E+00 0.  1.
</event>
<event>
 4    1  0.8988950E+003  0.2896990E+02  0.7546771E-02  0.1428764E+00
          2   -1    0    0  502    0  0.00000000000E+00  0.00000000000E+00  0.20768369229E+02  0.20768369229E+02  0.00000000000E+00 0. -1.
          2   -1    0    0  501    0 -0.00000000000E+00 -0.00000000000E+00 -0.59202037951E+02  0.59202037951E+02  0.00000000000E+00 0. -1.
          2    1    1    2  501    0 -0.22341556027E+02 -0.18442077524E+02  0.33107609790E+01  0.29158471966E+02  0.00000000000E+00 0. -1.
          2    1    1    2  502    0  0.22341556027E+02  0.18442077524E+02 -0.41744429701E+02  0.50811935214E+02  0.00000000000E+00 0. -1.
</event>
<event>
 4    1  0.8988950E+003  0.2250616E+02  0.7546771E-02  0.1498794E+00
          2   -1    0    0  501    0  0.00000000000E+00  0.00000000000E+00  0.71823194213E+01  0.71823194213E+01  0.00000000000E+00 0.  1.
          2   -1    0    0  502    0 -0.00000000000E+00 -0.00000000000E+00 -0.94584692928E+03  0.94584692928E+03  0.00000000000E+00 0. -1.
          2    1    1    2  501    0 -0.19238976837E+02  0.11678569236E+02 -0.92773790214E+03  0.92801085246E+03  0.00000000000E+00 0. -1.
          2    1    1    2  502    0  0.19238976837E+02 -0.11678569236E+02 -0.10926707720E+02  0.25018396246E+02  0.00000000000E+00 0.  1.
</event>
<event>
 4    1  0.8988950E+003  0.2058853E+02  0.7546771E-02  0.1525221E+00
          2   -1    0    0  502    0  0.00000000000E+00  0.00000000000E+00  0.24200379303E+03  0.24200379303E+03  0.00000000000E+00 0. -1.
          2   -1    0    0  501    0 -0.00000000000E+00 -0.00000000000E+00 -0.25564214744E+02  0.25564214744E+02  0.00000000000E+00 0. -1.
          2    1    1    2  501    0  0.11571511004E+02 -0.17029019742E+02  0.23733926287E+03  0.23823058805E+03  0.00000000000E+00 0. -1.
          2    1    1    2  502    0 -0.11571511004E+02  0.17029019742E+02 -0.20899684588E+02  0.29337419725E+02  0.00000000000E+00 0. -1.
</event>
<event>
 4    1  0.8988950E+003  0.2142922E+02  0.7546771E-02  0.1513224E+00
          2   -1    0    0  501    0  0.00000000000E+00  0.00000000000E+00  0.29355302776E+03  0.29355302776E+03  0.00000000000E+00 0. -1.
          2   -1    0    0  502    0 -0.00000000000E+00 -0.00000000000E+00 -0.37394253828E+01  0.37394253828E+01  0.00000000000E+00 0.  1.
          2    1    1    2  501    0 -0.20557824433E+02 -0.60487399724E+01  0.31538555799E+02  0.38129934469E+02  0.00000000000E+00 0.  1.
          2    1    1    2  502    0  0.20557824433E+02  0.60487399724E+01  0.25827504658E+03  0.25916251868E+03  0.00000000000E+00 0. -1.
</event>
<event>
 4    1  0.8988950E+003  0.2148099E+02  0.7546771E-02  0.1512507E+00
          2   -1    0    0  501    0  0.00000000000E+00  0.00000000000E+00  0.11373311409E+01  0.11373311409E+01  0.00000000000E+00 0. -1.
          2   -1    0    0  502    0 -0.00000000000E+00 -0.00000000000E+00 -0.70216143700E+03  0.70216143700E+03  0.00000000000E+00 0.  1.
          2    1    1    2  501    0  0.22175942966E+01 -0.21366217079E+02 -0.57900040791E+03  0.57939874466E+03  0.00000000000E+00 0.  1.
          2    1    1    2  502    0 -0.22175942966E+01  0.21366217079E+02 -0.12202369795E+03  0.12390002348E+03  0.00000000000E+00 0. -1.
</event>
<event>
 4    1  0.8988950E+003  0.3129053E+02  0.7546771E-02  0.1408704E+00
          2   -1    0    0  501    0  0.00000000000E+00  0.00000000000E+00  0.19039397965E+02  0.19039397965E+02  0.00000000000E+00 0. -1.
          2   -1    0    0  502    0 -0.00000000000E+00 -0.00000000000E+00 -0.17277849747E+03  0.17277849747E+03  0.00000000000E+00 0. -1.
          2    1    1    2  501    0  0.44656460296E+01  0.30970236205E+02 -0.15724820919E+03  0.16033120974E+03  0.00000000000E+00 0. -1.
          2    1    1    2  502    0 -0.44656460296E+01 -0.30970236205E+02  0.35091096833E+01  0.31486685691E+02  0.00000000000E+00 0. -1.
</event>
<event>
 4    1  0.8988950E+003  0.2399349E+02  0.7546771E-02  0.1480386E+00
          2   -1    0    0  501    0  0.00000000000E+00  0.00000000000E+00  0.13529977823E+03  0.13529977823E+03  0.00000000000E+00 0. -1.
          2   -1    0    0  502    0 -0.00000000000E+00 -0.00000000000E+00 -0.19052802356E+02  0.19052802356E+02  0.00000000000E+00 0. -1.
          2    1    1    2  501    0  0.22225863968E+02  0.90387179301E+01 -0.98914804487E+01  0.25952434113E+02  0.00000000000E+00 0. -1.
          2    1    1    2  502    0 -0.22225863968E+02 -0.90387179301E+01  0.12613845632E+03  0.12840014648E+03  0.00000000000E+00 0. -1.
</event>
<event>
 4    1  0.8988950E+003  0.2035735E+02  0.7546771E-02  0.1528641E+00
          2   -1    0    0  501    0  0.00000000000E+00  0.00000000000E+00  0.19271417472E+02  0.19271417472E+02  0.00000000000E+00 0. -1.
          2   -1    0    0  502    0 -0.00000000000E+00 -0.00000000000E+00 -0.17478554634E+03  0.17478554634E+03  0.00000000000E+00 0.  1.
          2    1    1    2  501    0  0.20310281410E+02 -0.13835865403E+01 -0.16862083036E+03  0.16984524213E+03  0.00000000000E+00 0.  1.
          2    1    1    2  502    0 -0.20310281410E+02  0.13835865403E+01  0.13106701495E+02  0.24211721681E+02  0.00000000000E+00 0. -1.
</event>
<event>
 4    1  0.8988950E+003  0.2565741E+02  0.7546771E-02  0.1461582E+00
          2   -1    0    0  501    0  0.00000000000E+00  0.00000000000E+00  0.52790128315E+03  0.52790128315E+03  0.00000000000E+00 0. -1.
          2   -1    0    0  502    0 -0.00000000000E+00 -0.00000000000E+00 -0.95655134652E+01  0.95655134652E+01  0.00000000000E+00 0.  1.
          2    1    1    2  501    0  0.24943657222E+02  0.60097219496E+01  0.85628031968E+01  0.27048556193E+02  0.00000000000E+00 0.  1.
          2    1    1    2  502    0 -0.24943657222E+02 -0.60097219496E+01  0.50977296649E+03  0.51041824042E+03  0.00000000000E+00 0. -1.
</event>
<event>
 4    1  0.8988950E+003  0.4924961E+02  0.7546771E-02  0.1301459E+00
          2   -1    0    0  501    0  0.00000000000E+00  0.00000000000E+00  0.11473904948E+03  0.11473904948E+03  0.00000000000E+00 0.  1.
          2   -1    0    0  502    0 -0.00000000000E+00 -0.00000000000E+00 -0.35208601501E+02  0.35208601501E+02  0.00000000000E+00 0. -1.
          2    1    1    2  501    0 -0.15761140431E+02 -0.46659518167E+02 -0.76282700295E+01  0.49836880790E+02  0.00000000000E+00 0. -1.
          2    1    1    2  502    0  0.15761140431E+02  0.46659518167E+02  0.87158718010E+02  0.10011077019E+03  0.00000000000E+00 0.  1.
</event>
<event>
 4    1  0.8988950E+003  0.3512587E+02  0.7546771E-02  0.1379680E+00
          2   -1    0    0  502    0  0.00000000000E+00  0.00000000000E+00  0.13039245753E+03  0.13039245753E+03  0.00000000000E+00 0.  1.
          2   -1    0    0  501    0 -0.00000000000E+00 -0.00000000000E+00 -0.36284496637E+02  0.36284496637E+02  0.00000000000E+00 0.  1.
          2    1    1    2  501    0  0.34638181818E+02  0.58329493214E+01  0.11870647032E+03  0.12379439823E+03  0.00000000000E+00 0.  1.
          2    1    1    2  502    0 -0.34638181818E+02 -0.58329493214E+01 -0.24598509428E+02  0.42882555935E+02  0.00000000000E+00 0.  1.
</event>
<event>
 4    1  0.8988950E+003  0.2571305E+02  0.7546771E-02  0.1460982E+00
          2   -1    0    0  502    0  0.00000000000E+00  0.00000000000E+00  0.11045191522E+02  0.11045191522E+02  0.00000000000E+00 0. -1.
          2   -1    0    0  501    0 -0.00000000000E+00 -0.00000000000E+00 -0.42020186411E+03  0.42020186411E+03  0.00000000000E+00 0.  1.
          2    1    1    2  501    0 -0.24394239338E+02 -0.81290984966E+01 -0.49028553817E+01  0.26176308872E+02  0.00000000000E+00 0. -1.
          2    1    1    2  502    0  0.24394239338E+02  0.81290984966E+01 -0.40425381721E+03  0.40507074676E+03  0.00000000000E+00 0.  1.
</event>
<event>
 4    1  0.8988950E+003  0.2954038E+02  0.7546771E-02  0.1423633E+00
          2   -1    0    0  501    0  0.00000000000E+00  0.00000000000E+00  0.19152253244E+04  0.19152253244E+04  0.00000000000E+00 0. -1.
          2   -1    0    0  502    0 -0.00000000000E+00 -0.00000000000E+00 -0.13513143017E+02  0.13513143017E+02  0.00000000000E+00 0. -1.
          2    1    1    2  501    0  0.29353977234E+02  0.33133048137E+01  0.28843413838E+01  0.29680859042E+02  0.00000000000E+00 0. -1.
          2    1    1    2  502    0 -0.29353977234E+02 -0.33133048137E+01  0.18988278400E+04  0.18990576084E+04  0.00000000000E+00 0. -1.
</event>
<event>
 4    1  0.8988950E+003  0.6958091E+02  0.7546771E-02  0.1230350E+00
          2   -1    0    0  501    0  0.00000000000E+00  0.00000000000E+00  0.14495570364E+02  0.14495570364E+02  0.00000000000E+00 0. -1.
          2   -1    0    0  502    0 -0.00000000000E+00 -0.00000000000E+00 -0.13791040097E+04  0.13791040097E+04  0.00000000000E+00 0.  1.
          2    1    1    2  501    0 -0.54685009890E+02  0.43023862835E+02 -0.12888862037E+04  0.12907630105E+04  0.00000000000E+00 0.  1.
          2    1    1    2  502    0  0.54685009890E+02 -0.43023862835E+02 -0.75722235661E+02  0.10283656963E+03  0.00000000000E+00 0. -1.
</event>
<event>
 4    1  0.8988950E+003  0.2063968E+02  0.7546771E-02  0.1524472E+00
          2   -1    0    0  502    0  0.00000000000E+00  0.00000000000E+00  0.27973232806E+03  0.27973232806E+03  0.00000000000E+00 0.  1.
          2   -1    0    0  501    0 -0.00000000000E+00 -0.00000000000E+00 -0.11887252741E+04  0.11887252741E+04  0.00000000000E+00 0. -1.
          2    1    1    2  501    0 -0.14955131876E+02 -0.14224635606E+02  0.27926186863E+03  0.28002354811E+03  0.00000000000E+00 0.  1.
          2    1    1    2  502    0  0.14955131876E+02  0.14224635606E+02 -0.11882548147E+04  0.11884340540E+04  0.00000000000E+00 0. -1.
</event>
<event>
 4    1  0.8988950E+003  0.2231706E+02  0.7546771E-02  0.1501257E+00
          2   -1    0    0  502    0  0.00000000000E+00  0.00000000000E+00  0.40353311652E+03  0.40353311652E+03  0.00000000000E+00 0. -1.
          2   -1    0    0  501    0 -0.00000000000E+00 -0.00000000000E+00 -0.16516025889E+02  0.16516025889E+02  0.00000000000E+00 0.  1.
          2    1    1    2  501    0  0.22252346572E+02  0.16983245922E+01  0.39553329505E+03  0.39616238934E+03  0.00000000000E+00 0. -1.
          2    1    1    2  502    0 -0.22252346572E+02 -0.16983245922E+01 -0.85162044201E+01  0.23886753068E+02  0.00000000000E+00 0.  1.
</event>
<event>
 4    1  0.8988950E+003  0.2519205E+02  0.7546771E-02  0.1466666E+00
          2   -1    0    0  501    0  0.00000000000E+00  0.00000000000E+00  0.39188627785E+01  0.39188627785E+01  0.00000000000E+00 0.  1.
          2   -1    0    0  502    0 -0.00000000000E+00 -0.00000000000E+00 -0.25295236865E+03  0.25295236865E+03  0.00000000000E+00 0.  1.
          2    1    1    2  501    0 -0.73787525079E+01 -0.24087206270E+02 -0.20155472199E+03  0.20312298110E+03  0.00000000000E+00 0.  1.
          2    1    1    2  502    0  0.73787525079E+01  0.24087206270E+02 -0.47478783876E+02  0.53748250323E+02  0.00000000000E+00 0.  1.
</event>
<event>
 4    1  0.8988950E+003  0.2115827E+02  0.7546771E-02  0.1517017E+00
          2   -1    0    0  501    0  0.00000000000E+00  0.00000000000E+00  0.31563733686E+03  0.31563733686E+03  0.00000000000E+00 0.  1.
          2   -1    0    0  502    0 -0.00000000000E+00 -0.00000000000E+00 -0.20055478936E+01  0.20055478936E+01  0.00000000000E+00 0. -1.
          2    1    1    2  501    0 -0.13820130838E+01  0.21113083237E+02  0.70875194139E+02  0.73965974530E+02  0.00000000000E+00 0. -1.
          2    1    1    2  502    0  0.13820130838E+01 -0.21113083237E+02  0.24275659482E+03  0.24367691022E+03  0.00000000000E+00 0.  1.
</event>
<event>
 4    1  0.8988950E+003  0.3367214E+02  0.7546771E-02  0.1390147E+00
          2   -1    0    0  501    0  0.00000000000E+00  0.00000000000E+00  0.43431334761E+01  0.43431334761E+01  0.00000000000E+00 0.  1.
          2   -1    0    0  502    0 -0.00000000000E+00 -0.00000000000E+00 -0.15282492813E+04  0.15282492813E+04  0.00000000000E+00 0. -1.
          2    1    1    2  501    0  0.32062525050E+02 -0.10286266865E+02 -0.14597363290E+04  0.14601246396E+04  0.00000000000E+00 0. -1.
          2    1    1    2  502    0 -0.32062525050E+02  0.10286266865E+02 -0.64169818778E+02  0.72467775187E+02  0.00000000000E+00 0.  1.
</event>
<event>
 4    1  0.8988950E+003  0.2465287E+02  0.7546771E-02  0.1472724E+00
          2   -1    0    0  501    0  0.00000000000E+00  0.00000000000E+00  0.48946228599E+03  0.48946228599E+03  0.00000000000E+00 0. -1.
          2   -1    0    0  502    0 -0.00000000000E+00 -0.00000000000E+00 -0.13020513412E+02  0.13020513412E+02  0.00000000000E+00 0.  1.
          2    1    1    2  501    0 -0.20817439119E+02 -0.13206000727E+02 -0.74062811875E+00  0.24663997176E+02  0.00000000000E+00 0.  1.
          2    1    1    2  502    0  0.20817439119E+02  0.13206000727E+02  0.47718240070E+03  0.47781880223E+03  0.00000000000E+00 0. -1.
</event>
<event>
 4    1  0.8988950E+003  0.3004202E+02  0.7546771E-02  0.1419232E+00
          2   -1    0    0  501    0  0.00000000000E+00  0.00000000000E+00  0.10349455718E+04  0.10349455718E+04  0.00000000000E+00 0. -1.
          2   -1    0    0  502    0 -0.00000000000E+00 -0.00000000000E+00 -0.56192548020E+02  0.56192548020E+02  0.00000000000E+00 0.  1.
          2    1    1    2  501    0  0.15479374774E+02 -0.25747071693E+02 -0.51942669713E+02  0.60004697159E+02  0.00000000000E+00 0.  1.
          2    1    1    2  502    0 -0.15479374774E+02  0.25747071693E+02  0.10306956935E+04  0.10311334226E+04  0.00000000000E+00 0. -1.
</event>
<event>
 4    1  0.8988950E+003  0.3503948E+02  0.7546771E-02  0.1380286E+00
          2   -1    0    0  501    0  0.00000000000E+00  0.00000000000E+00  0.29334371004E+03  0.29334371004E+03  0.00000000000E+00 0.  1.
          2   -1    0    0  502    0 -0.00000000000E+00 -0.00000000000E+00 -0.61253450334E+01  0.61253450334E+01  0.00000000000E+00 0.  1.
          2    1    1    2  501    0 -0.15735152433E+02 -0.31307664531E+02  0.59343679087E+02  0.68916160137E+02  0.00000000000E+00 0.  1.
          2    1    1    2  502    0  0.15735152433E+02  0.31307664531E+02  0.22787468591E+03  0.23055289493E+03  0.00000000000E+00 0.  1.
</event>
<event>
 4    1  0.8988950E+003  0.2779768E+02  0.7546771E-02  0.1439756E+00
          2   -1    0    0  502    0  0.00000000000E+00  0.00000000000E+00  0.85564879236E+02  0.85564879236E+02  0.00000000000E+00 0.  1.
          2   -1    0    0  501    0 -0.00000000000E+00 -0.00000000000E+00 -0.14591460267E+02  0.14591460267E+02  0.00000000000E+00 0.  1.
          2    1    1    2  501    0  0.22142521645E+02  0.16805345828E+02  0.66401484019E+02  0.71985192874E+02  0.00000000000E+00 0.  1.
          2    1    1    2  502    0 -0.22142521645E+02 -0.16805345828E+02  0.45719349504E+01  0.28171146629E+02  0.00000000000E+00 0.  1.
</event>
<event>
 4    1  0.8988950E+003  0.3162696E+02  0.7546771E-02  0.1405966E+00
          2   -1    0    0  501    0  0.00000000000E+00  0.00000000000E+00  0.93295450927E+01  0.93295450927E+01  0.00000000000E+00 0.  1.
          2   -1    0    0  502    0 -0.00000000000E+00 -0.00000000000E+00 -0.28443883091E+03  0.28443883091E+03  0.00000000000E+00 0. -1.
          2    1    1    2  501    0  0.28651095596E+02  0.13393264615E+02 -0.25349695974E+03  0.25546227395E+03  0.00000000000E+00 0. -1.
          2    1    1    2  502    0 -0.28651095596E+02 -0.13393264615E+02 -0.21612326081E+02  0.38306102053E+02  0.00000000000E+00 0.  1.
</event>
<event>
 4    1  0.8988950E+003  0.2571026E+02  0.7546771E-02  0.1461012E+00
          2   -1    0    0  502    0  0.00000000000E+00  0.00000000000E+00  0.24048413045E+02  0.24048413045E+02  0.00000000000E+00 0. -1.
          2   -1    0    0  501    0 -0.00000000000E+00 -0.00000000000E+00 -0.30936071475E+02  0.30936071475E+02  0.00000000000E+00 0. -1.
          2    1    1    2  501    0  0.21041336506E+02 -0.14774289258E+02  0.57359447611E+01  0.26342333369E+02  0.00000000000E+00 0. -1.
          2    1    1    2  502    0 -0.21041336506E+02  0.14774289258E+02 -0.12623603191E+02  0.28642151151E+02  0.00000000000E+00 0. -1.
</event>
<event>
 4    1  0.8988950E+003  0.2804532E+02  0.7546771E-02  0.1437381E+00
          2   -1    0    0  502    0  0.00000000000E+00  0.00000000000E+00  0.36559653031E+03  0.36559653031E+03  0.00000000000E+00 0.  1.
          2   -1    0    0  501    0 -0.00000000000E+00 -0.00000000000E+00 -0.61881303520E+02  0.61881303520E+02  0.00000000000E+00 0. -1.
          2    1    1    2  501    0 -0.13489358269E+02  0.24588151392E+02  0.36184820060E+03  0.36293341022E+03  0.00000000000E+00 0.  1.
          2    1    1    2  502    0  0.13489358269E+02 -0.24588151392E+02 -0.58132973810E+02  0.64544423612E+02  0.00000000000E+00 0. -1.
</event>
<event>
 4    1  0.8988950E+003  0.4498599E+02  0.7546771E-02  0.1321509E+00
          2   -1    0    0  502    0  0.00000000000E+00  0.00000000000E+00  0.44121410924E+03  0.44121410924E+03  0.00000000000E+00 0. -1.
          2   -1    0    0  501    0 -0.00000000000E+00 -0.00000000000E+00 -0.72286001466E+01  0.72286001466E+01  0.00000000000E+00 0.  1.
          2    1    1    2  501    0  0.17243564381E+01 -0.44952929926E+02  0.81441398077E+02  0.93039994813E+02  0.00000000000E+00 0.  1.
          2    1    1    2  502    0 -0.17243564381E+01  0.44952929926E+02  0.35254411102E+03  0.35540271458E+03  0.00000000000E+00 0. -1.
</event>
<event>
 4    1  0.8988950E+003  0.3055721E+02  0.7546771E-02  0.1414815E+00
          2   -1    0    0  501    0  0.00000000000E+00  0.00000000000E+00  0.22418281371E+02  0.22418281371E+02  0.00000000000E+00 0. -1.
          2   -1    0    0  502    0 -0.00000000000E+00 -0.00000000000E+00 -0.12933001757E+04  0.12933001757E+04  0.00000000000E+00 0. -1.
          2    1    1    2  501    0 -0.30446621395E+02  0.25973416707E+01 -0.12826202486E+04  0.12829841952E+04  0.00000000000E+00 0. -1.
          2    1    1    2  502    0  0.30446621395E+02 -0.25973416707E+01  0.11738354304E+02  0.32734261866E+02  0.00000000000E+00 0. -1.
</event>
<event>
 4    1  0.8988950E+003  0.2281553E+02  0.7546771E-02  0.1494828E+00
          2   -1    0    0  501    0  0.00000000000E+00  0.00000000000E+00  0.24181683674E+03  0.24181683674E+03  0.00000000000E+00 0.  1.
          2   -1    0    0  502    0 -0.00000000000E+00 -0.00000000000E+00 -0.23856625445E+03  0.23856625445E+03  0.00000000000E+00 0.  1.
          2    1    1    2  501    0 -0.10115835385E+02 -0.20450384465E+02 -0.23748013830E+03  0.23857360382E+03  0.00000000000E+00 0.  1.
          2    1    1    2  502    0  0.10115835385E+02  0.20450384465E+02  0.24073072058E+03  0.24180948737E+03  0.00000000000E+00 0.  1.
</event>
<event>
 4    1  0.8988950E+003  0.2529631E+02  0.7546771E-02  0.1465516E+00
          2   -1    0    0  502    0  0.00000000000E+00  0.00000000000E+00  0.14834160007E+03  0.14834160007E+03  0.00000000000E+00 0. -1.
          2   -1    0    0  501    0 -0.00000000000E+00 -0.00000000000E+00 -0.38730720371E+02  0.38730720371E+02  0.00000000000E+00 0.  1.
          2    1    1    2  501    0  0.10303265093E+02 -0.23102939606E+02  0.14297898500E+03  0.14519949463E+03  0.00000000000E+00 0. -1.
          2    1    1    2  502    0 -0.10303265093E+02  0.23102939606E+02 -0.33368105299E+02  0.41872825810E+02  0.00000000000E+00 0.  1.
</event>
<event>
 4    1  0.8988950E+003  0.4052538E+02  0.7546771E-02  0.1345434E+00
          2   -1    0    0  501    0  0.00000000000E+00  0.00000000000E+00  0.28630803055E+04  0.28630803055E+04  0.00000000000E+00 0. -1.
          2   -1    0    0  502    0 -0.00000000000E+00 -0.00000000000E+00 -0.44817355210E+01  0.44817355210E+01  0.00000000000E+00 0.  1.
          2    1    1    2  501    0  0.37603519272E+02  0.15108996845E+02  0.90413049189E+02  0.99079896603E+02  0.00000000000E+00 0.  1.
          2    1    1    2  502    0 -0.37603519272E+02 -0.15108996845E+02  0.27681855208E+04  0.27684821444E+04  0.00000000000E+00 0. -1.
</event>
<event>
 4    1  0.8988950E+003  0.2240898E+02  0.7546771E-02  0.1500056E+00
          2   -1    0    0  502    0  0.00000000000E+00  0.00000000000E+00  0.12159065636E+01  0.12159065636E+01  0.00000000000E+00 0.  1.
          2   -1    0    0  501    0 -0.00000000000E+00 -0.00000000000E+00 -0.95423490729E+03  0.95423490729E+03  0.00000000000E+00 0.  1.
          2    1    1    2  501    0  0.39527794036E+01 -0.22057605347E+02 -0.11672214524E+03  0.11885378248E+03  0.00000000000E+00 0.  1.
          2    1    1    2  502    0 -0.39527794036E+01  0.22057605347E+02 -0.83629685548E+03  0.83659703138E+03  0.00000000000E+00 0.  1.
</event>
<event>
 4    1  0.8988950E+003  0.6371336E+02  0.7546771E-02  0.1247712E+00
          2   -1    0    0  502    0  0.00000000000E+00  0.00000000000E+00  0.94302442508E+01  0.94302442508E+01  0.00000000000E+00 0.  1.
          2   -1    0    0  501    0 -0.00000000000E+00 -0.00000000000E+00 -0.91350534119E+03  0.91350534119E+03  0.00000000000E+00 0. -1.
          2    1    1    2  501    0 -0.28119371780E+02  0.57172484961E+02 -0.11647193151E+03  0.13275956815E+03  0.00000000000E+00 0.  1.
          2    1    1    2  502    0  0.28119371780E+02 -0.57172484961E+02 -0.78760316543E+03  0.79017601730E+03  0.00000000000E+00 0. -1.
</event>
<event>
 4    1  0.8988950E+003  0.2525259E+02  0.7546771E-02  0.1465997E+00
          2   -1    0    0  502    0  0.00000000000E+00  0.00000000000E+00  0.15366520595E+02  0.15366520595E+02  0.00000000000E+00 0. -1.
          2   -1    0    0  501    0 -0.00000000000E+00 -0.00000000000E+00 -0.80919484642E+02  0.80919484642E+02  0.00000000000E+00 0. -1.
          2    1    1    2  501    0  0.23460666718E+02 -0.93429395682E+01  0.82576009174E+00  0.25266089574E+02  0.00000000000E+00 0. -1.
          2    1    1    2  502    0 -0.23460666718E+02  0.93429395682E+01 -0.66378724138E+02  0.71019915663E+02  0.00000000000E+00 0. -1.
</event>
<event>
 4    1  0.8988950E+003  0.2485950E+02  0.7546771E-02  0.1470381E+00
          2   -1    0    0  501    0  0.00000000000E+00  0.00000000000E+00  0.70725421468E+01  0.70725421468E+01  0.00000000000E+00 0.  1.
          2   -1    0    0  502    0 -0.00000000000E+00 -0.00000000000E+00 -0.96518823466E+02  0.96518823466E+02  0.00000000000E+00 0.  1.
          2    1    1    2  501    0 -0.15404795101E+02 -0.19511202210E+02 -0.60661593631E+02  0.65557788749E+02  0.00000000000E+00 0.  1.
          2    1    1    2  502    0  0.15404795101E+02  0.19511202210E+02 -0.28784687688E+02  0.38033576864E+02  0.00000000000E+00 0.  1.
</event>
<event>
 4    1  0.8988950E+003  0.2307196E+02  0.7546771E-02  0.1491597E+00
          2   -1    0    0  501    0  0.00000000000E+00  0.00000000000E+00  0.31076815727E+03  0.31076815727E+03  0.00000000000E+00 0.  1.
          2   -1    0    0  502    0 -0.00000000000E+00 -0.00000000000E+00 -0.24310390699E+01  0.24310390699E+01  0.00000000000E+00 0. -1.
          2    1    1    2  501    0 -0.16926300679E+02  0.15678510945E+02  0.23928204616E+03  0.24039179057E+03  0.00000000000E+00 0.  1.
          2    1    1    2  502    0  0.16926300679E+02 -0.15678510945E+02  0.69055072043E+02  0.72807405770E+02  0.00000000000E+00 0. -1.
</event>
<event>
 4    1  0.8988950E+003  0.3711249E+02  0.7546771E-02  0.1366291E+00
          2   -1    0    0  502    0  0.00000000000E+00  0.00000000000E+00  0.14385922504E+03  0.14385922504E+03  0.00000000000E+00 0.  1.
          2   -1    0    0  501    0 -0.00000000000E+00 -0.00000000000E+00 -0.24906952364E+02  0.24906952364E+02  0.00000000000E+00 0.  1.
          2    1    1    2  501    0 -0.33320309255E+01 -0.36962608979E+02  0.12568333210E+03  0.13104822341E+03  0.00000000000E+00 0.  1.
          2    1    1    2  502    0  0.33320309255E+01  0.36962608979E+02 -0.67310594182E+01  0.37717953995E+02  0.00000000000E+00 0.  1.
</event>
<event>
 4    1  0.8988950E+003  0.2138576E+02  0.7546771E-02  0.1513828E+00
          2   -1    0    0  502    0  0.00000000000E+00  0.00000000000E+00  0.45017815075E+01  0.45017815075E+01  0.00000000000E+00 0.  1.
          2   -1    0    0  501    0 -0.00000000000E+00 -0.00000000000E+00 -0.12070606700E+04  0.12070606700E+04  0.00000000000E+00 0. -1.
          2    1    1    2  501    0 -0.18008289137E+02 -0.11534820081E+02 -0.21551497845E+02  0.30361449427E+02  0.00000000000E+00 0.  1.
          2    1    1    2  502    0  0.18008289137E+02  0.11534820081E+02 -0.11810073907E+04  0.11812010021E+04  0.00000000000E+00 0. -1.
</event>
<event>
 4    1  0.8988950E+003  0.2302316E+02  0.7546771E-02  0.1492208E+00
          2   -1    0    0  502    0  0.00000000000E+00  0.00000000000E+00  0.78675548720E+02  0.78675548720E+02  0.00000000000E+00 0. -1.
          2   -1    0    0  501    0 -0.00000000000E+00 -0.00000000000E+00 -0.11159223753E+03  0.11159223753E+03  0.00000000000E+00 0.  1.
          2    1    1    2  501    0 -0.50076034808E+01 -0.22471975805E+02  0.75758994907E+02  0.79180118076E+02  0.00000000000E+00 0. -1.
          2    1    1    2  502    0  0.50076034808E+01  0.22471975805E+02 -0.10867568372E+03  0.11108766818E+03  0.00000000000E+00 0.  1.
</event>
<event>
 4    1  0.8988950E+003  0.2286097E+02  0.7546771E-02  0.1494251E+00
          2   -1    0    0  501    0  0.00000000000E+00  0.00000000000E+00  0.76949489398E+03  0.76949489398E+03  0.00000000000E+00 0.  1.
          2   -1    0    0  502    0 -0.00000000000E+00 -0.00000000000E+00 -0.12337887660E+01  0.12337887660E+01  0.00000000000E+00 0. -1.
          2    1    1    2  501    0  0.22860229706E+02 -0.18415161043E+00  0.12575866239E+03  0.12781965881E+03  0.00000000000E+00 0. -1.
          2    1    1    2  502    0 -0.22860229706E+02  0.18415161043E+00  0.64250244283E+03  0.64290902393E+03  0.00000000000E+00 0.  1.
</event>
<event>
 4    1  0.8988950E+003  0.3363465E+02  0.7546771E-02  0.1390425E+00
          2   -1    0    0  501    0  0.00000000000E+00  0.00000000000E+00  0.25469957713E+03  0.25469957713E+03  0.00000000000E+00 0. -1.
          2   -1    0    0  502    0 -0.00000000000E+00 -0.00000000000E+00 -0.43962610763E+02  0.43962610763E+02  0.00000000000E+00 0.  1.
          2    1    1    2  501    0 -0.28091660010E+02  0.18497249148E+02 -0.36218127755E+02  0.49427142000E+02  0.00000000000E+00 0.  1.
          2    1    1    2  502    0  0.28091660010E+02 -0.18497249148E+02  0.24695509412E+03  0.24923504589E+03  0.00000000000E+00 0. -1.
</event>
<event>
 4    1  0.8988950E+003  0.2486970E+02  0.7546771E-02  0.1470266E+00
          2   -1    0    0  501    0  0.00000000000E+00  0.00000000000E+00  0.55510452327E+03  0.55510452327E+03  0.00000000000E+00 0. -1.
          2   -1    0    0  502    0 -0.00000000000E+00 -0.00000000000E+00 -0.89662038770E+01  0.89662038770E+01  0.00000000000E+00 0.  1.
          2    1    1    2  501    0 -0.20743096536E+02  0.13719544696E+02  0.91388361313E+01  0.26495665426E+02  0.00000000000E+00 0.  1.
          2    1    1    2  502    0  0.20743096536E+02 -0.13719544696E+02  0.53699948327E+03  0.53757506173E+03  0.00000000000E+00 0. -1.
</event>
<event>
 4    1  0.8988950E+003  0.5705050E+02  0.7546771E-02  0.1270197E+00
          2   -1    0    0  501    0  0.00000000000E+00  0.00000000000E+00  0.30077084645E+01  0.30077084645E+01  0.00000000000E+00 0.  1.
          2   -1    0    0  502    0 -0.00000000000E+00 -0.00000000000E+00 -0.12644620754E+04  0.12644620754E+04  0.00000000000E+00 0.  1.
          2    1    1    2  501    0 -0.55073573011E+02 -0.14888275522E+02 -0.87137133499E+03  0.87323694530E+03  0.00000000000E+00 0.  1.
          2    1    1    2  502    0  0.55073573011E+02  0.14888275522E+02 -0.39008303198E+03  0.39423283860E+03  0.00000000000E+00 0.  1.
</event>
<event>
 4    1  0.8988950E+003  0.2491557E+02  0.7546771E-02  0.1469750E+00
          2   -1    0    0  502    0  0.00000000000E+00  0.00000000000E+00  0.10318151066E+04  0.10318151066E+04  0.00000000000E+00 0. -1.
          2   -1    0    0  501    0 -0.00000000000E+00 -0.00000000000E+00 -0.18817332975E+01  0.18817332975E+01  0.00000000000E+00 0. -1.
          2    1    1    2  501    0  0.14881225610E+02  0.19983361247E+02  0.94125581085E+03  0.94158551765E+03  0.00000000000E+00 0. -1.
          2    1    1    2  502    0 -0.14881225610E+02 -0.19983361247E+02  0.88677562454E+02  0.92111322242E+02  0.00000000000E+00 0. -1.
</event>
<event>
 4    1  0.8988950E+003  0.4422293E+02  0.7546771E-02  0.1325371E+00
          2   -1    0    0  502    0  0.00000000000E+00  0.00000000000E+00  0.54776440557E+01  0.54776440557E+01  0.00000000000E+00 0. -1.
          2   -1    0    0  501    0 -0.00000000000E+00 -0.00000000000E+00 -0.84412814755E+03  0.84412814755E+03  0.00000000000E+00 0. -1.
          2    1    1    2  501    0 -0.29073905842E+02  0.33322296996E+02 -0.96629832371E+02  0.10626849007E+03  0.00000000000E+00 0. -1.
          2    1    1    2  502    0  0.29073905842E+02 -0.33322296996E+02 -0.74202067113E+03  0.74333730154E+03  0.00000000000E+00 0. -1.
</event>
<event>
 4    1  0.8988950E+003  0.3244048E+02  0.7546771E-02  0.1399509E+00
          2   -1    0    0  502    0  0.00000000000E+00  0.00000000000E+00  0.22351610756E+02  0.22351610756E+02  0.00000000000E+00 0.  1.
          2   -1    0    0  501    0 -0.00000000000E+00 -0.00000000000E+00 -0.57575679009E+03  0.57575679009E+03  0.00000000000E+00 0.  1.
          2    1    1    2  501    0  0.26618244529E+02 -0.18543300258E+02  0.98630980260E+01  0.33906719525E+02  0.00000000000E+00 0.  1.
          2    1    1    2  502    0 -0.26618244529E+02  0.18543300258E+02 -0.56326827736E+03  0.56420168132E+03  0.00000000000E+00 0.  1.
</event>
<event>
 4    1  0.8988950E+003  0.2749447E+02  0.7546771E-02  0.1442703E+00
          2   -1    0    0  501    0  0.00000000000E+00  0.00000000000E+00  0.25649929634E+03  0.25649929634E+03  0.00000000000E+00 0.  1.
          2   -1    0    0  502    0 -0.00000000000E+00 -0.00000000000E+00 -0.13557928952E+02  0.13557928952E+02  0.00000000000E+00 0. -1.
          2    1    1    2  501    0 -0.24698498253E+02  0.12080140750E+02  0.20161971632E+01  0.27568290979E+02  0.00000000000E+00 0. -1.
          2    1    1    2  502    0  0.24698498253E+02 -0.12080140750E+02  0.24092517022E+03  0.24248893431E+03  0.00000000000E+00 0.  1.
</event>
<event>
 4    1  0.1213174E+004  0.2730964E+02  0.7546771E-02  0.1444522E+00
          2   -1    0    0  502    0  0.00000000000E+00  0.00000000000E+00  0.80601068287E+03  0.80601068287E+03  0.00000000000E+00 0.  1.
          2   -1    0    0  501    0 -0.00000000000E+00 -0.00000000000E+00 -0.57809508383E+03  0.57809508383E+03  0.00000000000E+00 0.  1.
          2    1    1    2  501    0  0.22495703326E+02 -0.15484181834E+02  0.80545659949E+03  0.80591944400E+03  0.00000000000E+00 0.  1.
          2    1    1    2  502    0 -0.22495703326E+02  0.15484181834E+02 -0.57754100045E+03  0.57818632270E+03  0.00000000000E+00 0.  1.
</event>
<event>
 4    1  0.8988950E+003  0.3384575E+02  0.7546771E-02  0.1388865E+00
          2   -1    0    0  501    0  0.00000000000E+00  0.00000000000E+00  0.20706615200E+04  0.20706615200E+04  0.00000000000E+00 0. -1.
          2   -1    0    0  502    0 -0.00000000000E+00 -0.00000000000E+00 -0.19627519318E+01  0.19627519318E+01  0.00000000000E+00 0.  1.
          2    1    1    2  501    0 -0.32367915416E+02  0.98920524318E+01  0.15614602782E+03  0.15977207721E+03  0.00000000000E+00 0.  1.
          2    1    1    2  502    0  0.32367915416E+02 -0.98920524318E+01  0.19125527402E+04  0.19128521947E+04  0.00000000000E+00 0. -1.
</event>
<event>
 4    1  0.8988950E+003  0.2654144E+02  0.7546771E-02  0.1452270E+00
          2   -1    0    0  502    0  0.00000000000E+00  0.00000000000E+00  0.41515338484E+03  0.41515338484E+03  0.00000000000E+00 0. -1.
          2   -1    0    0  501    0 -0.00000000000E+00 -0.00000000000E+00 -0.35592772961E+02  0.35592772961E+02  0.00000000000E+00 0.  1.
          2    1    1    2  501    0 -0.25715929365E+02 -0.65680186464E+01  0.40971560429E+03  0.41057438339E+03  0.00000000000E+00 0. -1.
          2    1    1    2  502    0  0.25715929365E+02  0.65680186464E+01 -0.30154992415E+02  0.40171774414E+02  0.00000000000E+00 0.  1.
</event>
<event>
 4    1  0.8988950E+003  0.2084940E+02  0.7546771E-02  0.1521426E+00
          2   -1    0    0  501    0  0.00000000000E+00  0.00000000000E+00  0.16893977887E+03  0.16893977887E+03  0.00000000000E+00 0.  1.
          2   -1    0    0  502    0 -0.00000000000E+00 -0.00000000000E+00 -0.73207372203E+01  0.73207372203E+01  0.00000000000E+00 0. -1.
          2    1    1    2  501    0  0.20071041299E+02  0.56436660274E+01  0.98375701202E+01  0.23053751342E+02  0.00000000000E+00 0. -1.
          2    1    1    2  502    0 -0.20071041299E+02 -0.56436660274E+01  0.15178147153E+03  0.15320676475E+03  0.00000000000E+00 0.  1.
</event>
<event>
 4    1  0.8988950E+003  0.3141763E+02  0.7546771E-02  0.1407665E+00
          2   -1    0    0  502    0  0.00000000000E+00  0.00000000000E+00  0.25389599110E+03  0.25389599110E+03  0.00000000000E+00 0. -1.
          2   -1    0    0  501    0 -0.00000000000E+00 -0.00000000000E+00 -0.47449193936E+01  0.47449193936E+01  0.00000000000E+00 0. -1.
          2    1    1    2  501    0 -0.24811764038E+02 -0.19272885803E+02  0.17954259140E+03  0.18227070497E+03  0.00000000000E+00 0. -1.
          2    1    1    2  502    0  0.24811764038E+02  0.19272885803E+02  0.69608480304E+02  0.76370205526E+02  0.00000000000E+00 0. -1.
</event>
<event>
 4    1  0.8988950E+003  0.2112386E+02  0.7546771E-02  0.1517504E+00
          2   -1    0    0  502    0  0.00000000000E+00  0.00000000000E+00  0.14197799108E+04  0.14197799108E+04  0.00000000000E+00 0.  1.
          2   -1    0    0  501    0 -0.00000000000E+00 -0.00000000000E+00 -0.55800169313E+02  0.55800169313E+02  0.00000000000E+00 0.  1.
          2    1    1    2  501    0  0.42350822862E+01 -0.20694963577E+02  0.14176992293E+04  0.14178565944E+04  0.00000000000E+00 0.  1.
          2    1    1    2  502    0 -0.42350822862E+01  0.20694963577E+02 -0.53719487795E+02  0.57723485761E+02  0.00000000000E+00 0.  1.
</event>
<event>
 4    1  0.8988950E+003  0.2361566E+02  0.7546771E-02  0.1484909E+00
          2   -1    0    0  501    0  0.00000000000E+00  0.00000000000E+00  0.11117843895E+04  0.11117843895E+04  0.00000000000E+00 0.  1.
          2   -1    0    0  502    0 -0.00000000000E+00 -0.00000000000E+00 -0.92015732736E+02  0.92015732736E+02  0.00000000000E+00 0. -1.
          2    1    1    2  501    0 -0.23587694848E+02  0.11489932971E+01 -0.90372855479E+02  0.93407454421E+02  0.00000000000E+00 0. -1.
          2    1    1    2  502    0  0.23587694848E+02 -0.11489932971E+01  0.11101415123E+04  0.11103926678E+04  0.00000000000E+00 0.  1.
</event>
<event>
 4    1  0.8988950E+003  0.2310123E+02  0.7546771E-02  0.1491231E+00
          2   -1    0    0  501    0  0.00000000000E+00  0.00000000000E+00  0.16368463094E+02  0.16368463094E+02  0.00000000000E+00 0.  1.
          2   -1    0    0  502    0 -0.00000000000E+00 -0.00000000000E+00 -0.53969170453E+02  0.53969170453E+02  0.00000000000E+00 0. -1.
          2    1    1    2  501    0  0.66870644559E+00  0.23091552232E+02 -0.40928474570E+02  0.46997946587E+02  0.00000000000E+00 0. -1.
          2    1    1    2  502    0 -0.66870644559E+00 -0.23091552232E+02  0.33277672108E+01  0.23339686960E+02  0.00000000000E+00 0.  1.
</event>
<event>
 4    1  0.8988950E+003  0.2851241E+02  0.7546771E-02  0.1432980E+00
          2   -1    0    0  501    0  0.00000000000E+00  0.00000000000E+00  0.64057436648E+02  0.64057436648E+02  0.00000000000E+00 0.  1.
          2   -1    0    0  502    0 -0.00000000000E+00 -0.00000000000E+00 -0.15349323404E+03  0.15349323404E+03  0.00000000000E+00 0.  1.
          2    1    1    2  501    0  0.13680393300E+02 -0.25016085864E+02 -0.14889936609E+03  0.15160467979E+03  0.00000000000E+00 0.  1.
          2    1    1    2  502    0 -0.13680393300E+02  0.25016085864E+02  0.59463568699E+02  0.65945990896E+02  0.00000000000E+00 0.  1.
</event>
<event>
 4    1  0.8988950E+003  0.2430673E+02  0.7546771E-02  0.1476710E+00
          2   -1    0    0  501    0  0.00000000000E+00  0.00000000000E+00  0.26124547553E+03  0.26124547553E+03  0.00000000000E+00 0.  1.
          2   -1    0    0  502    0 -0.00000000000E+00 -0.00000000000E+00 -0.55434489897E+02  0.55434489897E+02  0.00000000000E+00 0. -1.
          2    1    1    2  501    0 -0.91238169319E+01  0.22529386683E+02 -0.52170988902E+02  0.57555446160E+02  0.00000000000E+00 0. -1.
          2    1    1    2  502    0  0.91238169319E+01 -0.22529386683E+02  0.25798197453E+03  0.25912451927E+03  0.00000000000E+00 0.  1.
</event>
<event>
 4    1  0.8988950E+003  0.2218106E+02  0.7546771E-02  0.1503046E+00
          2   -1    0    0  502    0  0.00000000000E+00  0.00000000000E+00  0.31624951208E+02  0.31624951208E+02  0.00000000000E+00 0. -1.
          2   -1    0    0  501    0 -0.00000000000E+00 -0.00000000000E+00 -0.57331716209E+02  0.57331716209E+02  0.00000000000E+00 0.  1.
          2    1    1    2  501    0 -0.14321721292E+02 -0.16937762865E+02  0.25113603679E+02  0.33506605340E+02  0.00000000000E+00 0. -1.
          2    1    1    2  502    0  0.14321721292E+02  0.16937762865E+02 -0.50820368680E+02  0.55450062078E+02  0.00000000000E+00 0.  1.
</event>
<event>
 4    1  0.8988950E+003  0.3339930E+02  0.7546771E-02  0.1392180E+00
          2   -1    0    0  501    0  0.00000000000E+00  0.00000000000E+00  0.24371058708E+03  0.24371058708E+03  0.00000000000E+00 0. -1.
          2   -1    0    0  502    0 -0.00000000000E+00 -0.00000000000E+00 -0.13453217994E+04  0.13453217994E+04  0.00000000000E+00 0. -1.
          2    1    1    2  501    0  0.44594976022E+01 -0.33100246137E+02 -0.13439690516E+04  0.13443839946E+04  0.00000000000E+00 0. -1.
          2    1    1    2  502    0 -0.44594976022E+01  0.33100246137E+02  0.24235783923E+03  0.24464839188E+03  0.00000000000E+00 0. -1.
</event>
<event>
 4    1  0.8988950E+003  0.2136204E+02  0.7546771E-02  0.1514158E+00
          2   -1    0    0  501    0  0.00000000000E+00  0.00000000000E+00  0.15508120670E+01  0.15508120670E+01  0.00000000000E+00 0.  1.
          2   -1    0    0  502    0 -0.00000000000E+00 -0.00000000000E+00 -0.79655530200E+03  0.79655530200E+03  0.00000000000E+00 0.  1.
          2    1    1    2  501    0  0.17525172726E+02 -0.12214946213E+02 -0.71438873969E+03  0.71470805787E+03  0.00000000000E+00 0.  1.
          2    1    1    2  502    0 -0.17525172726E+02  0.12214946213E+02 -0.80615750251E+02  0.83398056204E+02  0.00000000000E+00 0.  1.
</event>
<event>
 4    1  0.8988950E+003  0.2779280E+02  0.7546771E-02  0.1439803E+00
          2   -1    0    0  501    0  0.00000000000E+00  0.00000000000E+00  0.33401181058E+02  0.33401181058E+02  0.00000000000E+00 0. -1.
          2   -1    0    0  502    0 -0.00000000000E+00 -0.00000000000E+00 -0.24690472181E+02  0.24690472181E+02  0.00000000000E+00 0.  1.
          2    1    1    2  501    0 -0.21394029653E+02  0.17740773735E+02 -0.29558173663E+01  0.27949533338E+02  0.00000000000E+00 0.  1.
          2    1    1    2  502    0  0.21394029653E+02 -0.17740773735E+02  0.11666526243E+02  0.30142119900E+02  0.00000000000E+00 0. -1.
</event>
<event>
 4    1  0.8988950E+003  0.2206315E+02  0.7546771E-02  0.1504610E+00
          2   -1    0    0  502    0  0.00000000000E+00  0.00000000000E+00  0.81167508249E+03  0.81167508249E+03  0.00000000000E+00 0.  1.
          2   -1    0    0  501    0 -0.00000000000E+00 -0.00000000000E+00 -0.70423200709E+01  0.70423200709E+01  0.00000000000E+00 0. -1.
          2    1    1    2  501    0 -0.20849884699E+02 -0.72156026950E+01  0.79385673785E+03  0.79416327216E+03  0.00000000000E+00 0.  1.
          2    1    1    2  502    0  0.20849884699E+02  0.72156026950E+01  0.10776024565E+02  0.24554130399E+02  0.00000000000E+00 0. -1.
</event>
<event>
 4    1  0.8988950E+003  0.2855533E+02  0.7546771E-02  0.1432580E+00
          2   -1    0    0  501    0  0.00000000000E+00  0.00000000000E+00  0.28308639134E+01  0.28308639134E+01  0.00000000000E+00 0. -1.
          2   -1    0    0  502    0 -0.00000000000E+00 -0.00000000000E+00 -0.16970733014E+04  0.16970733014E+04  0.00000000000E+00 0.  1.
          2    1    1    2  501    0 -0.15281392138E+02 -0.24122312254E+02 -0.16215910527E+04  0.16218424551E+04  0.00000000000E+00 0.  1.
          2    1    1    2  502    0  0.15281392138E+02  0.24122312254E+02 -0.72651384836E+02  0.78061710286E+02  0.00000000000E+00 0. -1.
</event>
<event>
 4    1  0.8988950E+003  0.3358991E+02  0.7546771E-02  0.1390757E+00
          2   -1    0    0  501    0  0.00000000000E+00  0.00000000000E+00  0.18989359144E+03  0.18989359144E+03  0.00000000000E+00 0. -1.
          2   -1    0    0  502    0 -0.00000000000E+00 -0.00000000000E+00 -0.20222007655E+04  0.20222007655E+04  0.00000000000E+00 0.  1.
          2    1    1    2  501    0  0.33322919153E+02 -0.42267328397E+01 -0.20205746695E+04  0.20208538485E+04  0.00000000000E+00 0.  1.
          2    1    1    2  502    0 -0.33322919153E+02  0.42267328397E+01  0.18826749544E+03  0.19124050839E+03  0.00000000000E+00 0. -1.
</event>
<event>
 4    1  0.8988950E+003  0.2272283E+02  0.7546771E-02  0.1496008E+00
          2   -1    0    0  502    0  0.00000000000E+00  0.00000000000E+00  0.35630981277E+02  0.35630981277E+02  0.00000000000E+00 0. -1.
          2   -1    0    0  501    0 -0.00000000000E+00 -0.00000000000E+00 -0.42052505831E+02  0.42052505831E+02  0.00000000000E+00 0. -1.
          2    1    1    2  501    0  0.27835424299E+01  0.22551696657E+02  0.28234452208E+02  0.36242398128E+02  0.00000000000E+00 0. -1.
          2    1    1    2  502    0 -0.27835424299E+01 -0.22551696657E+02 -0.34655976762E+02  0.41441088980E+02  0.00000000000E+00 0. -1.
</event>
<event>
 4    1  0.8988950E+003  0.3319948E+02  0.7546771E-02  0.1393683E+00
          2   -1    0    0  502    0  0.00000000000E+00  0.00000000000E+00  0.69752583352E+03  0.69752583352E+03  0.00000000000E+00 0. -1.
          2   -1    0    0  501    0 -0.00000000000E+00 -0.00000000000E+00 -0.30388328872E+02  0.30388328872E+02  0.00000000000E+00 0. -1.
          2    1    1    2  501    0  0.55893446112E+01  0.32725601791E+02  0.68793679950E+03  0.68873742884E+03  0.00000000000E+00 0. -1.
          2    1    1    2  502    0 -0.55893446112E+01 -0.32725601791E+02 -0.20799294847E+02  0.39176733553E+02  0.00000000000E+00 0. -1.
</event>
<event>
 4    1  0.8988950E+003  0.4227980E+02  0.7546771E-02  0.1335620E+00
          2   -1    0    0  502    0  0.00000000000E+00  0.00000000000E+00  0.26287104847E+01  0.26287104847E+01  0.00000000000E+00 0. -1.
          2   -1    0    0  501    0 -0.00000000000E+00 -0.00000000000E+00 -0.26404860637E+04  0.26404860637E+04  0.00000000000E+00 0.  1.
          2    1    1    2  501    0 -0.14203401096E+01  0.42255933348E+02 -0.18019145450E+03  0.18508522779E+03  0.00000000000E+00 0. -1.
          2    1    1    2  502    0  0.14203401096E+01 -0.42255933348E+02 -0.24576658987E+04  0.24580295464E+04  0.00000000000E+00 0.  1.
</event>
<event>
 4    1  0.8988950E+003  0.3491459E+02  0.7546771E-02  0.1381165E+00
          2   -1    0    0  502    0  0.00000000000E+00  0.00000000000E+00  0.15433356339E+01  0.15433356339E+01  0.00000000000E+00 0.  1.
          2   -1    0    0  501    0 -0.00000000000E+00 -0.00000000000E+00 -0.96082825539E+03  0.96082825539E+03  0.00000000000E+00 0.  1.
          2    1    1    2  501    0 -0.34644525703E+02 -0.43342436215E+01 -0.27666882202E+03  0.27886316699E+03  0.00000000000E+00 0.  1.
          2    1    1    2  502    0  0.34644525703E+02  0.43342436215E+01 -0.68261609774E+03  0.68350842403E+03  0.00000000000E+00 0.  1.
</event>
<event>
 4    1  0.8988950E+003  0.2236801E+02  0.7546771E-02  0.1500590E+00
          2   -1    0    0  501    0  0.00000000000E+00  0.00000000000E+00  0.44771379535E+02  0.44771379535E+02  0.00000000000E+00 0.  1.
          2   -1    0    0  502    0 -0.00000000000E+00 -0.00000000000E+00 -0.36509767146E+02  0.36509767146E+02  0.00000000000E+00 0. -1.
          2    1    1    2  501    0  0.18055495698E+02 -0.13203296869E+02 -0.29723370655E+02  0.37199552903E+02  0.00000000000E+00 0. -1.
          2    1    1    2  502    0 -0.18055495698E+02  0.13203296869E+02  0.37984983044E+02  0.44081593778E+02  0.00000000000E+00 0.  1.
</event>
<event>
 4    1  0.8988950E+003  0.2380861E+02  0.7546771E-02  0.1482587E+00
          2   -1    0    0  501    0  0.00000000000E+00  0.00000000000E+00  0.10099551141E+03  0.10099551141E+03  0.00000000000E+00 0.  1.
          2   -1    0    0  502    0 -0.00000000000E+00 -0.00000000000E+00 -0.25455221146E+03  0.25455221146E+03  0.00000000000E+00 0.  1.
          2    1    1    2  501    0 -0.23450853447E+02  0.41118664619E+01 -0.25258141817E+03  0.25370105002E+03  0.00000000000E+00 0.  1.
          2    1    1    2  502    0  0.23450853447E+02 -0.41118664619E+01  0.99024718121E+02  0.10184667286E+03  0.00000000000E+00 0.  1.
</event>
<event>
 4    1  0.8988950E+003  0.2206484E+02  0.7546771E-02  0.1504587E+00
          2   -1    0    0  502    0  0.00000000000E+00  0.00000000000E+00  0.39554568917E+03  0.39554568917E+03  0.00000000000E+00 0. -1.
          2   -1    0    0  501    0 -0.00000000000E+00 -0.00000000000E+00 -0.79666185870E+01  0.79666185870E+01  0.00000000000E+00 0.  1.
          2    1    1    2  501    0 -0.28823868478E+01  0.21875760639E+02  0.37930639557E+03  0.37994762636E+03  0.00000000000E+00 0. -1.
          2    1    1    2  502    0  0.28823868478E+01 -0.21875760639E+02  0.82726750160E+01  0.23564681398E+02  0.00000000000E+00 0.  1.
</event>
<event>
 4    1  0.8988950E+003  0.2096193E+02  0.7546771E-02  0.1519809E+00
          2   -1    0    0  502    0  0.00000000000E+00  0.00000000000E+00  0.10661307821E+04  0.10661307821E+04  0.00000000000E+00 0.  1.
          2   -1    0    0  501    0 -0.00000000000E+00 -0.00000000000E+00 -0.57150734555E+00  0.57150734555E+00  0.00000000000E+00 0.  1.
          2    1    1    2  501    0 -0.17009839627E+02 -0.12250213329E+02  0.81441861033E+03  0.81468833011E+03  0.00000000000E+00 0.  1.
          2    1    1    2  502    0  0.17009839627E+02  0.12250213329E+02  0.25114066437E+03  0.25201395928E+03  0.00000000000E+00 0.  1.
</event>
<event>
 4    1  0.8988950E+003  0.3894217E+02  0.7546771E-02  0.1354799E+00
          2   -1    0    0  502    0  0.00000000000E+00  0.00000000000E+00  0.41158196405E+03  0.41158196405E+03  0.00000000000E+00 0.  1.
          2   -1    0    0  501    0 -0.00000000000E+00 -0.00000000000E+00 -0.38434511229E+01  0.38434511229E+01  0.00000000000E+00 0. -1.
          2    1    1    2  501    0 -0.14638775615E+00 -0.38941895072E+02  0.16163435086E+03  0.16625930349E+03  0.00000000000E+00 0. -1.
          2    1    1    2  502    0  0.14638775615E+00  0.38941895072E+02  0.24610416207E+03  0.24916611168E+03  0.00000000000E+00 0.  1.
</event>
<event>
 4    1  0.8988950E+003  0.2027952E+02  0.7546771E-02  0.1529805E+00
          2   -1    0    0  501    0  0.00000000000E+00  0.00000000000E+00  0.10343952071E+04  0.10343952071E+04  0.00000000000E+00 0. -1.
          2   -1    0    0  502    0 -0.00000000000E+00 -0.00000000000E+00 -0.54911066040E+00  0.54911066040E+00  0.00000000000E+00 0.  1.
          2    1    1    2  501    0  0.10543073769E+02  0.17323468384E+02  0.24509040479E+03  0.24592796807E+03  0.00000000000E+00 0.  1.
          2    1    1    2  502    0 -0.10543073769E+02 -0.17323468384E+02  0.78875569168E+03  0.78901634971E+03  0.00000000000E+00 0. -1.
</event>
<event>
 4    1  0.8988950E+003  0.2802354E+02  0.7546771E-02  0.1437589E+00
          2   -1    0    0  502    0  0.00000000000E+00  0.00000000000E+00  0.11196989448E+04  0.11196989448E+04  0.00000000000E+00 0. -1.
          2   -1    0    0  501    0 -0.00000000000E+00 -0.00000000000E+00 -0.86857825632E+01  0.86857825632E+01  0.00000000000E+00 0. -1.
          2    1    1    2  501    0  0.12609368725E+02 -0.25026439770E+02  0.10964406293E+04  0.10967986927E+04  0.00000000000E+00 0. -1.
          2    1    1    2  502    0 -0.12609368725E+02  0.25026439770E+02  0.14572532985E+02  0.31586034648E+02  0.00000000000E+00 0. -1.
</event>
<event>
 4    1  0.8988950E+003  0.2221322E+02  0.7546771E-02  0.1502621E+00
          2   -1    0    0  502    0  0.00000000000E+00  0.00000000000E+00  0.11049188198E+04  0.11049188198E+04  0.00000000000E+00 0.  1.
          2   -1    0    0  501    0 -0.00000000000E+00 -0.00000000000E+00 -0.25620840264E+01  0.25620840264E+01  0.00000000000E+00 0.  1.
          2    1    1    2  501    0  0.12870139234E+02 -0.18104875714E+02  0.10543512231E+04  0.10545851927E+04  0.00000000000E+00 0.  1.
          2    1    1    2  502    0 -0.12870139234E+02  0.18104875714E+02  0.48005512669E+02  0.52895711122E+02  0.00000000000E+00 0.  1.
</event>
<event>
 4    1  0.8988950E+003  0.2985342E+02  0.7546771E-02  0.1420875E+00
          2   -1    0    0  501    0  0.00000000000E+00  0.00000000000E+00  0.33590490996E+01  0.33590490996E+01  0.00000000000E+00 0. -1.
          2   -1    0    0  502    0 -0.00000000000E+00 -0.00000000000E+00 -0.10878406597E+04  0.10878406597E+04  0.00000000000E+00 0. -1.
          2    1    1    2  501    0 -0.73270095177E+01  0.28940306429E+02 -0.10166627123E+04  0.10171009276E+04  0.00000000000E+00 0. -1.
          2    1    1    2  502    0  0.73270095177E+01 -0.28940306429E+02 -0.67818898345E+02  0.74098781214E+02  0.00000000000E+00 0. -1.
</event>
<event>
 4    1  0.8988950E+003  0.2203458E+02  0.7546771E-02  0.1504990E+00
          2   -1    0    0  501    0  0.00000000000E+00  0.00000000000E+00  0.11904507498E+02  0.11904507498E+02  0.00000000000E+00 0. -1.
          2   -1    0    0  502    0 -0.00000000000E+00 -0.00000000000E+00 -0.22812021336E+03  0.22812021336E+03  0.00000000000E+00 0.  1.
          2    1    1    2  501    0  0.15348362911E+01  0.21981060467E+02 -0.21686406066E+03  0.21798060360E+03  0.00000000000E+00 0.  1.
          2    1    1    2  502    0 -0.15348362911E+01 -0.21981060467E+02  0.64835479514E+00  0.22044117257E+02  0.00000000000E+00 0. -1.
</event>
<event>
 4    1  0.8988950E+003  0.1417773E+03  0.7546771E-02  0.1106356E+00
          2   -1    0    0  501    0  0.00000000000E+00  0.00000000000E+00  0.10006276266E+04  0.10006276266E+04  0.00000000000E+00 0. -1.
          2   -1    0    0  502    0 -0.00000000000E+00 -0.00000000000E+00 -0.20311497490E+04  0.20311497490E+04  0.00000000000E+00 0. -1.
          2    1    1    2  501    0  0.84955608571E+02 -0.11350480746E+03 -0.20236350090E+04  0.20285954369E+04  0.00000000000E+00 0. -1.
          2    1    1    2  502    0 -0.84955608571E+02  0.11350480746E+03  0.99311288660E+03  0.10031819388E+04  0.00000000000E+00 0. -1.
</event>
<event>
 4    1  0.8988950E+003  0.2541512E+02  0.7546771E-02  0.1464213E+00
          2   -1    0    0  502    0  0.00000000000E+00  0.00000000000E+00  0.82662527052E+03  0.82662527052E+03  0.00000000000E+00 0.  1.
          2   -1    0    0  501    0 -0.00000000000E+00 -0.00000000000E+00 -0.66165752804E+01  0.66165752804E+01  0.00000000000E+00 0.  1.
          2    1    1    2  501    0 -0.87134581077E+01  0.23874754412E+02  0.80125155775E+03  0.80165453099E+03  0.00000000000E+00 0.  1.
          2    1    1    2  502    0  0.87134581077E+01 -0.23874754412E+02  0.18757137487E+02  0.31587314813E+02  0.00000000000E+00 0.  1.
</event>
<event>
 4    1  0.8988950E+003  0.2213960E+02  0.7546771E-02  0.1503594E+00
          2   -1    0    0  501    0  0.00000000000E+00  0.00000000000E+00  0.22134862615E+03  0.22134862615E+03  0.00000000000E+00 0.  1.
          2   -1    0    0  502    0 -0.00000000000E+00 -0.00000000000E+00 -0.27777284203E+01  0.27777284203E+01  0.00000000000E+00 0.  1.
          2    1    1    2  501    0 -0.21749078454E+02  0.41400019265E+01  0.58820994644E+02  0.62849593797E+02  0.00000000000E+00 0.  1.
          2    1    1    2  502    0  0.21749078454E+02 -0.41400019265E+01  0.15974990309E+03  0.16127676077E+03  0.00000000000E+00 0.  1.
</event>
<event>
 4    1  0.8988950E+003  0.2489821E+02  0.7546771E-02  0.1469945E+00
          2   -1    0    0  501    0  0.00000000000E+00  0.00000000000E+00  0.15540032487E+03  0.15540032487E+03  0.00000000000E+00 0.  1.
          2   -1    0    0  502    0 -0.00000000000E+00 -0.00000000000E+00 -0.42988023116E+02  0.42988023116E+02  0.00000000000E+00 0. -1.
          2    1    1    2  501    0 -0.21278704817E+02 -0.12928167793E+02 -0.38273495052E+02  0.45659404559E+02  0.00000000000E+00 0. -1.
          2    1    1    2  502    0  0.21278704817E+02  0.12928167793E+02  0.15068579680E+03  0.15272894342E+03  0.00000000000E+00 0.  1.
</event>
<event>
 4    1  0.8988950E+003  0.2084262E+02  0.7546771E-02  0.1521524E+00
          2   -1    0    0  502    0  0.00000000000E+00  0.00000000000E+00  0.66316107502E+02  0.66316107502E+02  0.00000000000E+00 0.  1.
          2   -1    0    0  501    0 -0.00000000000E+00 -0.00000000000E+00 -0.10198023110E+02  0.10198023110E+02  0.00000000000E+00 0. -1.
          2    1    1    2  501    0 -0.19834944453E+02 -0.64023151645E+01  0.50938346180E+02  0.55037530581E+02  0.00000000000E+00 0.  1.
          2    1    1    2  502    0  0.19834944453E+02  0.64023151645E+01  0.51797382120E+01  0.21476600030E+02  0.00000000000E+00 0. -1.
</event>
<event>
 4    1  0.8988950E+003  0.2648433E+02  0.7546771E-02  0.1452858E+00
          2   -1    0    0  501    0  0.00000000000E+00  0.00000000000E+00  0.46518637596E+01  0.46518637596E+01  0.00000000000E+00 0. -1.
          2   -1    0    0  502    0 -0.00000000000E+00 -0.00000000000E+00 -0.33061092107E+03  0.33061092107E+03  0.00000000000E+00 0.  1.
          2    1    1    2  501    0  0.15780524204E+02 -0.21269569566E+02 -0.28661012091E+03  0.28783116743E+03  0.00000000000E+00 0.  1.
          2    1    1    2  502    0 -0.15780524204E+02  0.21269569566E+02 -0.39348936399E+02  0.47431617403E+02  0.00000000000E+00 0. -1.
</event>
<event>
 4    1  0.8988950E+003  0.2553280E+02  0.7546771E-02  0.1462930E+00
          2   -1    0    0  502    0  0.00000000000E+00  0.00000000000E+00  0.28169442102E+03  0.28169442102E+03  0.00000000000E+00 0. -1.
          2   -1    0    0  501    0 -0.00000000000E+00 -0.00000000000E+00 -0.16090768789E+02  0.16090768789E+02  0.00000000000E+00 0.  1.
          2    1    1    2  501    0  0.16674087809E+01 -0.25478298192E+02  0.27057153481E+03  0.27177358110E+03  0.00000000000E+00 0. -1.
          2    1    1    2  502    0 -0.16674087809E+01  0.25478298192E+02 -0.49678825764E+01  0.26011608718E+02  0.00000000000E+00 0.  1.
</event>
<event>
 4    1  0.8988950E+003  0.3662643E+02  0.7546771E-02  0.1369476E+00
          2   -1    0    0  501    0  0.00000000000E+00  0.00000000000E+00  0.12867692261E+04  0.12867692261E+04  0.00000000000E+00 0. -1.
          2   -1    0    0  502    0 -0.00000000000E+00 -0.00000000000E+00 -0.16575624004E+03  0.16575624004E+03  0.00000000000E+00 0.  1.
          2    1    1    2  501    0 -0.23010706115E+02  0.28495663931E+02 -0.16346870944E+03  0.16752168345E+03  0.00000000000E+00 0.  1.
          2    1    1    2  502    0  0.23010706115E+02 -0.28495663931E+02  0.12844816955E+04  0.12850037827E+04  0.00000000000E+00 0. -1.
</event>
<event>
 4    1  0.8988950E+003  0.2241615E+02  0.7546771E-02  0.1499963E+00
          2   -1    0    0  502    0  0.00000000000E+00  0.00000000000E+00  0.12277212479E+02  0.12277212479E+02  0.00000000000E+00 0. -1.
          2   -1    0    0  501    0 -0.00000000000E+00 -0.00000000000E+00 -0.11954001415E+04  0.11954001415E+04  0.00000000000E+00 0. -1.
          2    1    1    2  501    0 -0.88745335192E+01  0.20584611814E+02  0.18500595691E+01  0.22492361128E+02  0.00000000000E+00 0. -1.
          2    1    1    2  502    0  0.88745335192E+01 -0.20584611814E+02 -0.11849729886E+04  0.11851849928E+04  0.00000000000E+00 0. -1.
</event>
<event>
 4    1  0.8988950E+003  0.3052435E+02  0.7546771E-02  0.1415094E+00
          2   -1    0    0  502    0  0.00000000000E+00  0.00000000000E+00  0.88545387510E+02  0.88545387510E+02  0.00000000000E+00 0. -1.
          2   -1    0    0  501    0 -0.00000000000E+00 -0.00000000000E+00 -0.12279867491E+02  0.12279867491E+02  0.00000000000E+00 0. -1.
          2    1    1    2  501    0  0.12382297997E+01  0.30499223448E+02  0.57202732093E+02  0.64837399724E+02  0.00000000000E+00 0. -1.
          2    1    1    2  502    0 -0.12382297997E+01 -0.30499223448E+02  0.19062787925E+02  0.35987855278E+02  0.00000000000E+00 0. -1.
</event>
<event>
 4    1  0.8988950E+003  0.2304213E+02  0.7546771E-02  0.1491970E+00
          2   -1    0    0  502    0  0.00000000000E+00  0.00000000000E+00  0.11565290596E+03  0.11565290596E+03  0.00000000000E+00 0. -1.
          2   -1    0    0  501    0 -0.00000000000E+00 -0.00000000000E+00 -0.59910544918E+02  0.59910544918E+02  0.00000000000E+00 0.  1.
          2    1    1    2  501    0  0.17840108105E+02  0.14583220238E+02  0.11222262979E+03  0.11456377441E+03  0.00000000000E+00 0. -1.
          2    1    1    2  502    0 -0.17840108105E+02 -0.14583220238E+02 -0.56480268756E+02  0.60999676462E+02  0.00000000000E+00 0.  1.
</event>
<event>
 4    1  0.8988950E+003  0.2616033E+02  0.7546771E-02  0.1456230E+00
          2   -1    0    0  501    0  0.00000000000E+00  0.00000000000E+00  0.22197604394E+02  0.22197604394E+02  0.00000000000E+00 0. -1.
          2   -1    0    0  502    0 -0.00000000000E+00 -0.00000000000E+00 -0.10686641879E+03  0.10686641879E+03  0.00000000000E+00 0. -1.
          2    1    1    2  501    0  0.16682740538E+02  0.20150661359E+02 -0.96767624881E+02  0.10024138971E+03  0.00000000000E+00 0. -1.
          2    1    1    2  502    0 -0.16682740538E+02 -0.20150661359E+02  0.12098810489E+02  0.28822633473E+02  0.00000000000E+00 0. -1.
</event>
<event>
 4    1  0.8988950E+003  0.2875999E+02  0.7546771E-02  0.1430687E+00
          2   -1    0    0  502    0  0.00000000000E+00  0.00000000000E+00  0.24503740710E+01  0.24503740710E+01  0.00000000000E+00 0. -1.
          2   -1    0    0  501    0 -0.00000000000E+00 -0.00000000000E+00 -0.44806035268E+03  0.44806035268E+03  0.00000000000E+00 0. -1.
          2    1    1    2  501    0 -0.28518233056E+02 -0.37211837527E+01 -0.11093904484E+03  0.11460631962E+03  0.00000000000E+00 0. -1.
          2    1    1    2  502    0  0.28518233056E+02  0.37211837527E+01 -0.33467093376E+03  0.33590440713E+03  0.00000000000E+00 0. -1.
</event>
<event>
 4    1  0.8988950E+003  0.2331623E+02  0.7546771E-02  0.1488565E+00
          2   -1    0    0  502    0  0.00000000000E+00  0.00000000000E+00  0.54054889811E+02  0.54054889811E+02  0.00000000000E+00 0. -1.
          2   -1    0    0  501    0 -0.00000000000E+00 -0.00000000000E+00 -0.19772508692E+02  0.19772508692E+02  0.00000000000E+00 0.  1.
          2    1    1    2  501    0  0.17435811282E+02 -0.15480283743E+02  0.43016321741E+02  0.48929036737E+02  0.00000000000E+00 0. -1.
          2    1    1    2  502    0 -0.17435811282E+02  0.15480283743E+02 -0.87339406230E+01  0.24898361766E+02  0.00000000000E+00 0.  1.
</event>
<event>
 4    1  0.8988950E+003  0.2215807E+02  0.7546771E-02  0.1503350E+00
          2   -1    0    0  502    0  0.00000000000E+00  0.00000000000E+00  0.63192626338E+02  0.63192626338E+02  0.00000000000E+00 0. -1.
          2   -1    0    0  501    0 -0.00000000000E+00 -0.00000000000E+00 -0.99138377782E+01  0.99138377782E+01  0.00000000000E+00 0. -1.
          2    1    1    2  501    0  0.17461757457E+02  0.13640648054E+02  0.43639171772E+02  0.48942390274E+02  0.00000000000E+00 0. -1.
          2    1    1    2  502    0 -0.17461757457E+02 -0.13640648054E+02  0.96396167879E+01  0.24164073842E+02  0.00000000000E+00 0. -1.
</event>
<event>
 4    1  0.8988950E+003  0.3613235E+02  0.7546771E-02  0.1372773E+00
          2   -1    0    0  501    0  0.00000000000E+00  0.00000000000E+00  0.97422537220E+02  0.97422537220E+02  0.00000000000E+00 0. -1.
          2   -1    0    0  502    0 -0.00000000000E+00 -0.00000000000E+00 -0.54176407487E+02  0.54176407487E+02  0.00000000000E+00 0.  1.
          2    1    1    2  501    0 -0.26322461070E+02  0.24752270174E+02 -0.44136801789E+02  0.57040372612E+02  0.00000000000E+00 0.  1.
          2    1    1    2  502    0  0.26322461070E+02 -0.24752270174E+02  0.87382931521E+02  0.94558572096E+02  0.00000000000E+00 0. -1.
</event>
<event>
 4    1  0.8988950E+003  0.2269489E+02  0.7546771E-02  0.1496365E+00
          2   -1    0    0  502    0  0.00000000000E+00  0.00000000000E+00  0.29313895551E+03  0.29313895551E+03  0.00000000000E+00 0.  1.
          2   -1    0    0  501    0 -0.00000000000E+00 -0.00000000000E+00 -0.41482073289E+01  0.41482073289E+01  0.00000000000E+00 0.  1.
          2    1    1    2  501    0 -0.13844019405E+02  0.17983361581E+02  0.25735029893E+03  0.25834905559E+03  0.00000000000E+00 0.  1.
          2    1    1    2  502    0  0.13844019405E+02 -0.17983361581E+02  0.31640449254E+02  0.38938107248E+02  0.00000000000E+00 0.  1.
</event>
<event>
 4    1  0.1408827E+004  0.2958054E+02  0.7546771E-02  0.1423277E+00
          2   -1    0    0  502    0  0.00000000000E+00  0.00000000000E+00  0.65255111689E+03  0.65255111689E+03  0.00000000000E+00 0. -1.
          2   -1    0    0  501    0 -0.00000000000E+00 -0.00000000000E+00 -0.11789296926E+04  0.11789296926E+04  0.00000000000E+00 0.  1.
          2    1    1    2  501    0 -0.67480999291E+01  0.28800544617E+02  0.65203019139E+03  0.65270083400E+03  0.00000000000E+00 0. -1.
          2    1    1    2  502    0  0.67480999291E+01 -0.28800544617E+02 -0.11784087671E+04  0.11787799755E+04  0.00000000000E+00 0.  1.
</event>
<event>
 4    1  0.8988950E+003  0.2065602E+02  0.7546771E-02  0.1524233E+00
          2   -1    0    0  501    0  0.00000000000E+00  0.00000000000E+00  0.66288059407E+03  0.66288059407E+03  0.00000000000E+00 0. -1.
          2   -1    0    0  502    0 -0.00000000000E+00 -0.00000000000E+00 -0.25361371313E+02  0.25361371313E+02  0.00000000000E+00 0.  1.
          2    1    1    2  501    0 -0.12935384398E+02  0.16104255919E+02 -0.20966474940E+02  0.29432368231E+02  0.00000000000E+00 0.  1.
          2    1    1    2  502    0  0.12935384398E+02 -0.16104255919E+02  0.65848569769E+03  0.65880959715E+03  0.00000000000E+00 0. -1.
</event>
<event>
 4    1  0.8988950E+003  0.2370458E+02  0.7546771E-02  0.1483835E+00
          2   -1    0    0  502    0  0.00000000000E+00  0.00000000000E+00  0.60419152820E+03  0.60419152820E+03  0.00000000000E+00 0.  1.
          2   -1    0    0  501    0 -0.00000000000E+00 -0.00000000000E+00 -0.21009290745E+01  0.21009290745E+01  0.00000000000E+00 0. -1.
          2    1    1    2  501    0  0.17733406197E+02 -0.15730011829E+02  0.52735806611E+03  0.52789055386E+03  0.00000000000E+00 0.  1.
          2    1    1    2  502    0 -0.17733406197E+02  0.15730011829E+02  0.74732533017E+02  0.78401903412E+02  0.00000000000E+00 0. -1.
</event>
<event>
 4    1  0.8988950E+003  0.2478579E+02  0.7546771E-02  0.1471214E+00
          2   -1    0    0  502    0  0.00000000000E+00  0.00000000000E+00  0.44904699269E+01  0.44904699269E+01  0.00000000000E+00 0.  1.
          2   -1    0    0  501    0 -0.00000000000E+00 -0.00000000000E+00 -0.24553690582E+03  0.24553690582E+03  0.00000000000E+00 0.  1.
          2    1    1    2  501    0  0.14844869697E+02 -0.19848553043E+02 -0.37333366236E+02  0.44812001168E+02  0.00000000000E+00 0.  1.
          2    1    1    2  502    0 -0.14844869697E+02  0.19848553043E+02 -0.20371306966E+03  0.20521537458E+03  0.00000000000E+00 0.  1.
</event>
<event>
 4    1  0.8988950E+003  0.2755042E+02  0.7546771E-02  0.1442156E+00
          2   -1    0    0  501    0  0.00000000000E+00  0.00000000000E+00  0.20414820644E+02  0.20414820644E+02  0.00000000000E+00 0.  1.
          2   -1    0    0  502    0 -0.00000000000E+00 -0.00000000000E+00 -0.97319892112E+03  0.97319892112E+03  0.00000000000E+00 0.  1.
          2    1    1    2  501    0 -0.16878116266E+02  0.21775098127E+02 -0.96361649310E+03  0.96401025486E+03  0.00000000000E+00 0.  1.
          2    1    1    2  502    0  0.16878116266E+02 -0.21775098127E+02  0.10832392619E+02  0.29603486906E+02  0.00000000000E+00 0.  1.
</event>
<event>
 4    1  0.8988950E+003  0.2500588E+02  0.7546771E-02  0.1468738E+00
          2   -1    0    0  501    0  0.00000000000E+00  0.00000000000E+00  0.27772261971E+01  0.27772261971E+01  0.00000000000E+00 0.  1.
          2   -1    0    0  502    0 -0.00000000000E+00 -0.00000000000E+00 -0.50264300235E+03  0.50264300235E+03  0.00000000000E+00 0. -1.
          2    1    1    2  501    0  0.21376848992E+02 -0.12973991847E+02 -0.43769949320E+03  0.43841320748E+03  0.00000000000E+00 0. -1.
          2    1    1    2  502    0 -0.21376848992E+02  0.12973991847E+02 -0.62166282946E+02  0.67007021069E+02  0.00000000000E+00 0.  1.
</event>
<event>
 4    1  0.8988950E+003  0.2488578E+02  0.7546771E-02  0.1470085E+00
          2   -1    0    0  502    0  0.00000000000E+00  0.00000000000E+00  0.14254556893E+02  0.14254556893E+02  0.00000000000E+00 0. -1.
          2   -1    0    0  501    0 -0.00000000000E+00 -0.00000000000E+00 -0.32097725684E+03  0.32097725684E+03  0.00000000000E+00 0.  1.
          2    1    1    2  501    0 -0.24828755577E+01 -0.24761615692E+02  0.24984510297E+01  0.25010888434E+02  0.00000000000E+00 0. -1.
          2    1    1    2  502    0  0.24828755577E+01  0.24761615692E+02 -0.30922115098E+03  0.31022092530E+03  0.00000000000E+00 0.  1.
</event>
<event>
 4    1  0.8988950E+003  0.3187318E+02  0.7546771E-02  0.1403988E+00
          2   -1    0    0  501    0  0.00000000000E+00  0.00000000000E+00  0.18802236366E+03  0.18802236366E+03  0.00000000000E+00 0.  1.
          2   -1    0    0  502    0 -0.00000000000E+00 -0.00000000000E+00 -0.14179065324E+02  0.14179065324E+02  0.00000000000E+00 0. -1.
          2    1    1    2  501    0 -0.99958235177E+01  0.30265209141E+02  0.73829593010E+01  0.32717082086E+02  0.00000000000E+00 0. -1.
          2    1    1    2  502    0  0.99958235177E+01 -0.30265209141E+02  0.16646033904E+03  0.16948434690E+03  0.00000000000E+00 0.  1.
</event>
<event>
 4    1  0.8988950E+003  0.2173019E+02  0.7546771E-02  0.1509090E+00
          2   -1    0    0  501    0  0.00000000000E+00  0.00000000000E+00  0.78998133246E+03  0.78998133246E+03  0.00000000000E+00 0.  1.
          2   -1    0    0  502    0 -0.00000000000E+00 -0.00000000000E+00 -0.19345078169E+02  0.19345078169E+02  0.00000000000E+00 0.  1.
          2    1    1    2  501    0 -0.21642733343E+02  0.19475776533E+01 -0.13044250438E+02  0.25344692438E+02  0.00000000000E+00 0.  1.
          2    1    1    2  502    0  0.21642733343E+02 -0.19475776533E+01  0.78368050473E+03  0.78398171819E+03  0.00000000000E+00 0.  1.
</event>
<event>
 4    1  0.8988950E+003  0.3513612E+02  0.7546771E-02  0.1379609E+00
          2   -1    0    0  501    0  0.00000000000E+00  0.00000000000E+00  0.85186991308E+00  0.85186991308E+00  0.00000000000E+00 0.  1.
          2   -1    0    0  502    0 -0.00000000000E+00 -0.00000000000E+00 -0.14492745053E+04  0.14492745053E+04  0.00000000000E+00 0. -1.
          2    1    1    2  501    0  0.26040458836E+02 -0.23589005989E+02 -0.72866813851E+03  0.72951477214E+03  0.00000000000E+00 0.  1.
          2    1    1    2  502    0 -0.26040458836E+02  0.23589005989E+02 -0.71975449686E+03  0.72061160305E+03  0.00000000000E+00 0. -1.
</event>
<event>
 4    1  0.8988950E+003  0.4044887E+02  0.7546771E-02  0.1345875E+00
          2   -1    0    0  502    0  0.00000000000E+00  0.00000000000E+00  0.13913655096E+04  0.13913655096E+04  0.00000000000E+00 0.  1.
          2   -1    0    0  501    0 -0.00000000000E+00 -0.00000000000E+00 -0.28440643079E+02  0.28440643079E+02  0.00000000000E+00 0. -1.
          2    1    1    2  501    0 -0.13727520546E+02  0.38048210344E+02  0.13765348136E+04  0.13771289715E+04  0.00000000000E+00 0.  1.
          2    1    1    2  502    0  0.13727520546E+02 -0.38048210344E+02 -0.13609947096E+02  0.42677181147E+02  0.00000000000E+00 0. -1.
</event>
<event>
 4    1  0.8988950E+003  0.2077643E+02  0.7546771E-02  0.1522481E+00
          2   -1    0    0  502    0  0.00000000000E+00  0.00000000000E+00  0.44236303697E+03  0.44236303697E+03  0.00000000000E+00 0.  1.
          2   -1    0    0  501    0 -0.00000000000E+00 -0.00000000000E+00 -0.16140254956E+03  0.16140254956E+03  0.00000000000E+00 0.  1.
          2    1    1    2  501    0  0.72436242862E+00 -0.20763802643E+02  0.44144909409E+03  0.44193773642E+03  0.00000000000E+00 0.  1.
          2    1    1    2  502    0 -0.72436242862E+00  0.20763802643E+02 -0.16048860667E+03  0.16182785012E+03  0.00000000000E+00 0.  1.
</event>
<event>
 4    1  0.8988950E+003  0.2174619E+02  0.7546771E-02  0.1508872E+00
          2   -1    0    0  502    0  0.00000000000E+00  0.00000000000E+00  0.70275308047E+00  0.70275308047E+00  0.00000000000E+00 0.  1.
          2   -1    0    0  501    0 -0.00000000000E+00 -0.00000000000E+00 -0.16933542078E+04  0.16933542078E+04  0.00000000000E+00 0. -1.
          2    1    1    2  501    0 -0.21703649031E+02  0.13595687703E+01 -0.18879424751E+03  0.19004253393E+03  0.00000000000E+00 0.  1.
          2    1    1    2  502    0  0.21703649031E+02 -0.13595687703E+01 -0.15038572072E+04  0.15040144270E+04  0.00000000000E+00 0. -1.
</event>
<event>
 4    1  0.8988950E+003  0.2111627E+02  0.7546771E-02  0.1517611E+00
          2   -1    0    0  501    0  0.00000000000E+00  0.00000000000E+00  0.30431538679E+03  0.30431538679E+03  0.00000000000E+00 0.  1.
          2   -1    0    0  502    0 -0.00000000000E+00 -0.00000000000E+00 -0.52682449405E+02  0.52682449405E+02  0.00000000000E+00 0.  1.
          2    1    1    2  501    0 -0.28688067428E+01 -0.20920483532E+02 -0.50182669981E+02  0.54444440026E+02  0.00000000000E+00 0.  1.
          2    1    1    2  502    0  0.28688067428E+01  0.20920483532E+02  0.30181560737E+03  0.30255339617E+03  0.00000000000E+00 0.  1.
</event>
<event>
 4    1  0.8988950E+003  0.3433464E+02  0.7546771E-02  0.1385302E+00
          2   -1    0    0  502    0  0.00000000000E+00  0.00000000000E+00  0.37282349964E+03  0.37282349964E+03  0.00000000000E+00 0.  1.
          2   -1    0    0  501    0 -0.00000000000E+00 -0.00000000000E+00 -0.38858769195E+02  0.38858769195E+02  0.00000000000E+00 0.  1.
          2    1    1    2  501    0 -0.12047755968E+02 -0.32151497835E+02  0.36427102058E+03  0.36588556089E+03  0.00000000000E+00 0.  1.
          2    1    1    2  502    0  0.12047755968E+02  0.32151497835E+02 -0.30306290132E+02  0.45796707944E+02  0.00000000000E+00 0.  1.
</event>
<event>
 4    1  0.8988950E+003  0.2475919E+02  0.7546771E-02  0.1471515E+00
          2   -1    0    0  502    0  0.00000000000E+00  0.00000000000E+00  0.57582797839E+03  0.57582797839E+03  0.00000000000E+00 0. -1.
          2   -1    0    0  501    0 -0.00000000000E+00 -0.00000000000E+00 -0.17211540617E+01  0.17211540617E+01  0.00000000000E+00 0.  1.
          2    1    1    2  501    0 -0.21890743439E+02 -0.11567758695E+02  0.46541008167E+03  0.46606819438E+03  0.00000000000E+00 0. -1.
          2    1    1    2  502    0  0.21890743439E+02  0.11567758695E+02  0.10869674266E+03  0.11148093807E+03  0.00000000000E+00 0.  1.
</event>
<event>
 4    1  0.8988950E+003  0.3623020E+02  0.7546771E-02  0.1372115E+00
          2   -1    0    0  502    0  0.00000000000E+00  0.00000000000E+00  0.77402090608E+00  0.77402090608E+00  0.00000000000E+00 0.  1.
          2   -1    0    0  501    0 -0.00000000000E+00 -0.00000000000E+00 -0.19348043881E+04  0.19348043881E+04  0.00000000000E+00 0.  1.
          2    1    1    2  501    0 -0.35317848336E+02  0.80794321402E+01 -0.62690884958E+03  0.62795488159E+03  0.00000000000E+00 0.  1.
          2    1    1    2  502    0  0.35317848336E+02 -0.80794321402E+01 -0.13071215176E+04  0.13076235274E+04  0.00000000000E+00 0.  1.
</event>
<event>
 4    1  0.8988950E+003  0.2820179E+02  0.7546771E-02  0.1435896E+00
          2   -1    0    0  502    0  0.00000000000E+00  0.00000000000E+00  0.30781587971E+02  0.30781587971E+02  0.00000000000E+00 0. -1.
          2   -1    0    0  501    0 -0.00000000000E+00 -0.00000000000E+00 -0.10470047089E+03  0.10470047089E+03  0.00000000000E+00 0.  1.
          2    1    1    2  501    0  0.26751497091E+02 -0.89274000388E+01  0.21831727087E+02  0.35664623588E+02  0.00000000000E+00 0. -1.
          2    1    1    2  502    0 -0.26751497091E+02  0.89274000388E+01 -0.95750610005E+02  0.99817435273E+02  0.00000000000E+00 0.  1.
</event>
<event>
 4    1  0.8988950E+003  0.2553605E+02  0.7546771E-02  0.1462895E+00
          2   -1    0    0  501    0  0.00000000000E+00  0.00000000000E+00  0.17808988722E+02  0.17808988722E+02  0.00000000000E+00 0.  1.
          2   -1    0    0  502    0 -0.00000000000E+00 -0.00000000000E+00 -0.12759256959E+03  0.12759256959E+03  0.00000000000E+00 0.  1.
          2    1    1    2  501    0 -0.23780434450E+02 -0.93048681741E+01 -0.11628095566E+03  0.11905188064E+03  0.00000000000E+00 0.  1.
          2    1    1    2  502    0  0.23780434450E+02  0.93048681741E+01  0.64973747914E+01  0.26349677675E+02  0.00000000000E+00 0.  1.
</event>
<event>
 4    1  0.8988950E+003  0.7058028E+02  0.7546771E-02  0.1227585E+00
          2   -1    0    0  501    0  0.00000000000E+00  0.00000000000E+00  0.19644834950E+03  0.19644834950E+03  0.00000000000E+00 0. -1.
          2   -1    0    0  502    0 -0.00000000000E+00 -0.00000000000E+00 -0.12181605149E+03  0.12181605149E+03  0.00000000000E+00 0.  1.
          2    1    1    2  501    0 -0.34183425342E+02 -0.61750060706E+02 -0.10428755087E+03  0.12592644612E+03  0.00000000000E+00 0.  1.
          2    1    1    2  502    0  0.34183425342E+02  0.61750060706E+02  0.17891984887E+03  0.19233795488E+03  0.00000000000E+00 0. -1.
</event>
<event>
 4    1  0.8988950E+003  0.3619906E+02  0.7546771E-02  0.1372324E+00
          2   -1    0    0  502    0  0.00000000000E+00  0.00000000000E+00  0.23637987066E+02  0.23637987066E+02  0.00000000000E+00 0.  1.
          2   -1    0    0  501    0 -0.00000000000E+00 -0.00000000000E+00 -0.70164448293E+02  0.70164448293E+02  0.00000000000E+00 0.  1.
          2    1    1    2  501    0 -0.82291344123E+01 -0.35251288108E+02 -0.17741069396E+01  0.36242508493E+02  0.00000000000E+00 0.  1.
          2    1    1    2  502    0  0.82291344123E+01  0.35251288108E+02 -0.44752354288E+02  0.57559926865E+02  0.00000000000E+00 0.  1.
</event>
<event>
 4    1  0.8988950E+003  0.3367479E+02  0.7546771E-02  0.1390127E+00
          2   -1    0    0  502    0  0.00000000000E+00  0.00000000000E+00  0.19214699119E+02  0.19214699119E+02  0.00000000000E+00 0. -1.
          2   -1    0    0  501    0 -0.00000000000E+00 -0.00000000000E+00 -0.35659012825E+03  0.35659012825E+03  0.00000000000E+00 0.  1.
          2    1    1    2  501    0  0.32573129184E+02  0.85429973961E+01  0.29626164389E+01  0.33804861271E+02  0.00000000000E+00 0. -1.
          2    1    1    2  502    0 -0.32573129184E+02 -0.85429973961E+01 -0.34033804557E+03  0.34199996610E+03  0.00000000000E+00 0.  1.
</event>
<event>
 4    1  0.8988950E+003  0.3298740E+02  0.7546771E-02  0.1395293E+00
          2   -1    0    0  502    0  0.00000000000E+00  0.00000000000E+00  0.80276008734E+01  0.80276008734E+01  0.00000000000E+00 0. -1.
          2   -1    0    0  501    0 -0.00000000000E+00 -0.00000000000E+00 -0.72129814061E+03  0.72129814061E+03  0.00000000000E+00 0.  1.
          2    1    1    2  501    0 -0.32590502746E+02  0.51017021914E+01 -0.28019534222E+02  0.43281202993E+02  0.00000000000E+00 0. -1.
          2    1    1    2  502    0  0.32590502746E+02 -0.51017021914E+01 -0.68525100552E+03  0.68604453849E+03  0.00000000000E+00 0.  1.
</event>
<event>
 4    1  0.8988950E+003  0.2147856E+02  0.7546771E-02  0.1512541E+00
          2   -1    0    0  502    0  0.00000000000E+00  0.00000000000E+00  0.33630274190E+01  0.33630274190E+01  0.00000000000E+00 0. -1.
          2   -1    0    0  501    0 -0.00000000000E+00 -0.00000000000E+00 -0.33310853769E+03  0.33310853769E+03  0.00000000000E+00 0. -1.
          2    1    1    2  501    0 -0.63271294497E+01  0.20525494145E+02 -0.35846476954E+02  0.41788735169E+02  0.00000000000E+00 0. -1.
          2    1    1    2  502    0  0.63271294497E+01 -0.20525494145E+02 -0.29389903332E+03  0.29468282994E+03  0.00000000000E+00 0. -1.
</event>
<event>
 4    1  0.8988950E+003  0.2232593E+02  0.7546771E-02  0.1501141E+00
          2   -1    0    0  502    0  0.00000000000E+00  0.00000000000E+00  0.22224295156E+01  0.22224295156E+01  0.00000000000E+00 0.  1.
          2   -1    0    0  501    0 -0.00000000000E+00 -0.00000000000E+00 -0.62611820771E+03  0.62611820771E+03  0.00000000000E+00 0.  1.
          2    1    1    2  501    0  0.51322976992E+01  0.21728011075E+02 -0.60259900734E+02  0.64262762012E+02  0.00000000000E+00 0.  1.
          2    1    1    2  502    0 -0.51322976992E+01 -0.21728011075E+02 -0.56363587746E+03  0.56407787521E+03  0.00000000000E+00 0.  1.
</event>
<event>
 4    1  0.8988950E+003  0.2559674E+02  0.7546771E-02  0.1462237E+00
          2   -1    0    0  502    0  0.00000000000E+00  0.00000000000E+00  0.78950809632E+00  0.78950809632E+00  0.00000000000E+00 0.  1.
          2   -1    0    0  501    0 -0.00000000000E+00 -0.00000000000E+00 -0.11817554263E+04  0.11817554263E+04  0.00000000000E+00 0.  1.
          2    1    1    2  501    0  0.24523895065E+02 -0.73329336621E+01 -0.26784076435E+03  0.26906108673E+03  0.00000000000E+00 0.  1.
          2    1    1    2  502    0 -0.24523895065E+02  0.73329336621E+01 -0.91312515382E+03  0.91348384763E+03  0.00000000000E+00 0.  1.
</event>
<event>
 4    1  0.8988950E+003  0.2584516E+02  0.7546771E-02  0.1459567E+00
          2   -1    0    0  502    0  0.00000000000E+00  0.00000000000E+00  0.25838948341E+01  0.25838948341E+01  0.00000000000E+00 0. -1.
          2   -1    0    0  501    0 -0.00000000000E+00 -0.00000000000E+00 -0.47685113288E+03  0.47685113288E+03  0.00000000000E+00 0.  1.
          2    1    1    2  501    0 -0.13498025198E+02  0.22040323463E+02 -0.74925596843E+02  0.79257918248E+02  0.00000000000E+00 0. -1.
          2    1    1    2  502    0  0.13498025198E+02 -0.22040323463E+02 -0.39934164120E+03  0.40017710947E+03  0.00000000000E+00 0.  1.
</event>
<event>
 4    1  0.8988950E+003  0.3961630E+02  0.7546771E-02  0.1350749E+00
          2   -1    0    0  501    0  0.00000000000E+00  0.00000000000E+00  0.13822390234E+03  0.13822390234E+03  0.00000000000E+00 0.  1.
          2   -1    0    0  502    0 -0.00000000000E+00 -0.00000000000E+00 -0.10144519191E+04  0.10144519191E+04  0.00000000000E+00 0. -1.
          2    1    1    2  501    0 -0.39610676294E+02  0.66748661468E+00 -0.10112174668E+04  0.10119931898E+04  0.00000000000E+00 0. -1.
          2    1    1    2  502    0  0.39610676294E+02 -0.66748661468E+00  0.13498945001E+03  0.14068263158E+03  0.00000000000E+00 0.  1.
</event>
<event>
 4    1  0.8988950E+003  0.2844148E+02  0.7546771E-02  0.1433642E+00
          2   -1    0    0  501    0  0.00000000000E+00  0.00000000000E+00  0.52909920027E+02  0.52909920027E+02  0.00000000000E+00 0. -1.
          2   -1    0    0  502    0 -0.00000000000E+00 -0.00000000000E+00 -0.15859065806E+02  0.15859065806E+02  0.00000000000E+00 0. -1.
          2    1    1    2  501    0  0.16546911820E+02  0.23132603350E+02  0.12003954939E+02  0.30870901552E+02  0.00000000000E+00 0. -1.
          2    1    1    2  502    0 -0.16546911820E+02 -0.23132603350E+02  0.25046899283E+02  0.37898084281E+02  0.00000000000E+00 0. -1.
</event>
<event>
 4    1  0.8988950E+003  0.2430671E+02  0.7546771E-02  0.1476711E+00
          2   -1    0    0  502    0  0.00000000000E+00  0.00000000000E+00  0.79726179397E+03  0.79726179397E+03  0.00000000000E+00 0.  1.
          2   -1    0    0  501    0 -0.00000000000E+00 -0.00000000000E+00 -0.14993939844E+01  0.14993939844E+01  0.00000000000E+00 0. -1.
          2    1    1    2  501    0 -0.24306698594E+02 -0.19545223025E-01  0.68190867857E+03  0.68234174860E+03  0.00000000000E+00 0.  1.
          2    1    1    2  502    0  0.24306698594E+02  0.19545223025E-01  0.11385372142E+03  0.11641943936E+03  0.00000000000E+00 0. -1.
</event>
<event>
 4    1  0.8988950E+003  0.3245057E+02  0.7546771E-02  0.1399431E+00
          2   -1    0    0  501    0  0.00000000000E+00  0.00000000000E+00  0.80724521739E+03  0.80724521739E+03  0.00000000000E+00 0. -1.
          2   -1    0    0  502    0 -0.00000000000E+00 -0.00000000000E+00 -0.21097635283E+02  0.21097635283E+02  0.00000000000E+00 0. -1.
          2    1    1    2  501    0  0.32167992598E+02  0.42731709725E+01 -0.80890499252E+01  0.33443571380E+02  0.00000000000E+00 0. -1.
          2    1    1    2  502    0 -0.32167992598E+02 -0.42731709725E+01  0.79423663203E+03  0.79489928129E+03  0.00000000000E+00 0. -1.
</event>
<event>
 4    1  0.8988950E+003  0.2292636E+02  0.7546771E-02  0.1493425E+00
          2   -1    0    0  501    0  0.00000000000E+00  0.00000000000E+00  0.52239267152E+01  0.52239267152E+01  0.00000000000E+00 0.  1.
          2   -1    0    0  502    0 -0.00000000000E+00 -0.00000000000E+00 -0.14236281735E+04  0.14236281735E+04  0.00000000000E+00 0. -1.
          2    1    1    2  501    0  0.21642709420E+02  0.75638017255E+01 -0.13979189343E+04  0.13981069218E+04  0.00000000000E+00 0. -1.
          2    1    1    2  502    0 -0.21642709420E+02 -0.75638017255E+01 -0.20485312516E+02  0.30745178426E+02  0.00000000000E+00 0.  1.
</event>
<event>
 4    1  0.8988950E+003  0.3793211E+02  0.7546771E-02  0.1361049E+00
          2   -1    0    0  502    0  0.00000000000E+00  0.00000000000E+00  0.26494085507E+04  0.26494085507E+04  0.00000000000E+00 0. -1.
          2   -1    0    0  501    0 -0.00000000000E+00 -0.00000000000E+00 -0.38886182096E+02  0.38886182096E+02  0.00000000000E+00 0. -1.
          2    1    1    2  501    0 -0.34075351254E+02  0.16664804789E+02  0.26399894144E+04  0.26402619100E+04  0.00000000000E+00 0. -1.
          2    1    1    2  502    0  0.34075351254E+02 -0.16664804789E+02 -0.29467045767E+02  0.48032822819E+02  0.00000000000E+00 0. -1.
</event>
<event>
 4    1  0.8988950E+003  0.2425348E+02  0.7546771E-02  0.1477331E+00
          2   -1    0    0  502    0  0.00000000000E+00  0.00000000000E+00  0.38519318200E+02  0.38519318200E+02  0.00000000000E+00 0. -1.
          2   -1    0    0  501    0 -0.00000000000E+00 -0.00000000000E+00 -0.18307592672E+03  0.18307592672E+03  0.00000000000E+00 0.  1.
          2    1    1    2  501    0 -0.24014943959E+02 -0.33931790951E+01  0.33797683376E+02  0.41599454315E+02  0.00000000000E+00 0. -1.
          2    1    1    2  502    0  0.24014943959E+02  0.33931790951E+01 -0.17835429190E+03  0.17999579061E+03  0.00000000000E+00 0.  1.
</event>
<event>
 4    1  0.8988950E+003  0.2439437E+02  0.7546771E-02  0.1475694E+00
          2   -1    0    0  501    0  0.00000000000E+00  0.00000000000E+00  0.31170245695E+00  0.31170245695E+00  0.00000000000E+00 0. -1.
          2   -1    0    0  502    0 -0.00000000000E+00 -0.00000000000E+00 -0.23440603574E+04  0.23440603574E+04  0.00000000000E+00 0. -1.
          2    1    1    2  501    0  0.63665676750E+01 -0.23548926276E+02 -0.16767851004E+04  0.16769625393E+04  0.00000000000E+00 0. -1.
          2    1    1    2  502    0 -0.63665676750E+01  0.23548926276E+02 -0.66696355452E+03  0.66740952059E+03  0.00000000000E+00 0. -1.
</event>
<event>
 4    1  0.8988950E+003  0.2112629E+02  0.7546771E-02  0.1517469E+00
          2   -1    0    0  502    0  0.00000000000E+00  0.00000000000E+00  0.39356839783E+01  0.39356839783E+01  0.00000000000E+00 0.  1.
          2   -1    0    0  501    0 -0.00000000000E+00 -0.00000000000E+00 -0.12432616943E+03  0.12432616943E+03  0.00000000000E+00 0.  1.
          2    1    1    2  501    0 -0.20979809312E+02  0.24834945137E+01 -0.41186577789E+02  0.46288814348E+02  0.00000000000E+00 0.  1.
          2    1    1    2  502    0  0.20979809312E+02 -0.24834945137E+01 -0.79203907668E+02  0.81973039065E+02  0.00000000000E+00 0.  1.
</event>
<event>
 4    1  0.8988950E+003  0.4648559E+02  0.7546771E-02  0.1314174E+00
          2   -1    0    0  501    0  0.00000000000E+00  0.00000000000E+00  0.56281082854E+01  0.56281082854E+01  0.00000000000E+00 0. -1.
          2   -1    0    0  502    0 -0.00000000000E+00 -0.00000000000E+00 -0.40268944579E+03  0.40268944579E+03  0.00000000000E+00 0. -1.
          2    1    1    2  501    0 -0.44821744919E+02 -0.12325651402E+02 -0.24257243770E+03  0.24698643289E+03  0.00000000000E+00 0. -1.
          2    1    1    2  502    0  0.44821744919E+02  0.12325651402E+02 -0.15448889980E+03  0.16133112118E+03  0.00000000000E+00 0. -1.
</event>
<event>
 4    1  0.8988950E+003  0.3772717E+02  0.7546771E-02  0.1362345E+00
          2   -1    0    0  502    0  0.00000000000E+00  0.00000000000E+00  0.13564686614E+02  0.13564686614E+02  0.00000000000E+00 0.  1.
          2   -1    0    0  501    0 -0.00000000000E+00 -0.00000000000E+00 -0.18579464640E+03  0.18579464640E+03  0.00000000000E+00 0.  1.
          2    1    1    2  501    0 -0.35479114954E+01 -0.37559972483E+02 -0.20353740604E+02  0.42867399798E+02  0.00000000000E+00 0.  1.
          2    1    1    2  502    0  0.35479114954E+01  0.37559972483E+02 -0.15187621918E+03  0.15649193322E+03  0.00000000000E+00 0.  1.
</event>
<event>
 4    1  0.8988950E+003  0.2978804E+02  0.7546771E-02  0.1421448E+00
          2   -1    0    0  502    0  0.00000000000E+00  0.00000000000E+00  0.87708774255E+01  0.87708774255E+01  0.00000000000E+00 0.  1.
          2   -1    0    0  501    0 -0.00000000000E+00 -0.00000000000E+00 -0.14156265160E+04  0.14156265160E+04  0.00000000000E+00 0. -1.
          2    1    1    2  501    0 -0.27615152165E+02 -0.11168289544E+02 -0.17149367314E+02  0.34371908875E+02  0.00000000000E+00 0.  1.
          2    1    1    2  502    0  0.27615152165E+02  0.11168289544E+02 -0.13897062712E+04  0.13900254845E+04  0.00000000000E+00 0. -1.
</event>
<event>
 4    1  0.8988950E+003  0.4954177E+02  0.7546771E-02  0.1300171E+00
          2   -1    0    0  501    0  0.00000000000E+00  0.00000000000E+00  0.47438337852E+01  0.47438337852E+01  0.00000000000E+00 0. -1.
          2   -1    0    0  502    0 -0.00000000000E+00 -0.00000000000E+00 -0.66913624959E+03  0.66913624959E+03  0.00000000000E+00 0. -1.
          2    1    1    2  501    0  0.34322411515E+02 -0.35726163567E+02 -0.49265444315E+03  0.49513915928E+03  0.00000000000E+00 0. -1.
          2    1    1    2  502    0 -0.34322411515E+02  0.35726163567E+02 -0.17173797266E+03  0.17874092410E+03  0.00000000000E+00 0. -1.
</event>
<event>
 4    1  0.8988950E+003  0.3043264E+02  0.7546771E-02  0.1415873E+00
          2   -1    0    0  501    0  0.00000000000E+00  0.00000000000E+00  0.60334785553E+03  0.60334785553E+03  0.00000000000E+00 0. -1.
          2   -1    0    0  502    0 -0.00000000000E+00 -0.00000000000E+00 -0.24999059156E+03  0.24999059156E+03  0.00000000000E+00 0.  1.
          2    1    1    2  501    0  0.21502624940E+02  0.21535607849E+02 -0.24867864177E+03  0.25053385431E+03  0.00000000000E+00 0.  1.
          2    1    1    2  502    0 -0.21502624940E+02 -0.21535607849E+02  0.60203590573E+03  0.60280459278E+03  0.00000000000E+00 0. -1.
</event>
<event>
 4    1  0.8988950E+003  0.2585125E+02  0.7546771E-02  0.1459502E+00
          2   -1    0    0  502    0  0.00000000000E+00  0.00000000000E+00  0.17185388592E+02  0.17185388592E+02  0.00000000000E+00 0.  1.
          2   -1    0    0  501    0 -0.00000000000E+00 -0.00000000000E+00 -0.59994763708E+02  0.59994763708E+02  0.00000000000E+00 0. -1.
          2    1    1    2  501    0  0.24578626915E+02  0.80111183349E+01  0.14850516706E+01  0.25893866001E+02  0.00000000000E+00 0.  1.
          2    1    1    2  502    0 -0.24578626915E+02 -0.80111183349E+01 -0.44294426787E+02  0.51286286299E+02  0.00000000000E+00 0. -1.
</event>
<event>
 4    1  0.8988950E+003  0.4968151E+02  0.7546771E-02  0.1299559E+00
          2   -1    0    0  502    0  0.00000000000E+00  0.00000000000E+00  0.69895641008E+03  0.69895641008E+03  0.00000000000E+00 0. -1.
          2   -1    0    0  501    0 -0.00000000000E+00 -0.00000000000E+00 -0.95186316530E+02  0.95186316530E+02  0.00000000000E+00 0. -1.
          2    1    1    2  501    0 -0.35221622689E+02  0.35038410050E+02  0.69152127552E+03  0.69330363289E+03  0.00000000000E+00 0. -1.
          2    1    1    2  502    0  0.35221622689E+02 -0.35038410050E+02 -0.87751181973E+02  0.10083909372E+03  0.00000000000E+00 0. -1.
</event>
<event>
 4    1  0.8988950E+003  0.2259099E+02  0.7546771E-02  0.1497699E+00
          2   -1    0    0  501    0  0.00000000000E+00  0.00000000000E+00  0.32789671403E+03  0.32789671403E+03  0.00000000000E+00 0.  1.
          2   -1    0    0  502    0 -0.00000000000E+00 -0.00000000000E+00 -0.79937418133E+03  0.79937418133E+03  0.00000000000E+00 0. -1.
          2    1    1    2  501    0 -0.22255740881E+02 -0.38775004489E+01 -0.79882519269E+03  0.79914456858E+03  0.00000000000E+00 0. -1.
          2    1    1    2  502    0  0.22255740881E+02  0.38775004489E+01  0.32734772539E+03  0.32812632679E+03  0.00000000000E+00 0.  1.
</event>
<event>
 4    1  0.8988950E+003  0.2642832E+02  0.7546771E-02  0.1453437E+00
          2   -1    0    0  501    0  0.00000000000E+00  0.00000000000E+00  0.81298039923E+01  0.81298039923E+01  0.00000000000E+00 0.  1.
          2   -1    0    0  502    0 -0.00000000000E+00 -0.00000000000E+00 -0.42622695771E+03  0.42622695771E+03  0.00000000000E+00 0.  1.
          2    1    1    2  501    0  0.14452333197E+02 -0.22126595927E+02 -0.40310855972E+03  0.40397396835E+03  0.00000000000E+00 0.  1.
          2    1    1    2  502    0 -0.14452333197E+02  0.22126595927E+02 -0.14988594000E+02  0.30382793358E+02  0.00000000000E+00 0.  1.
</event>
<event>
 4    1  0.8988950E+003  0.2314476E+02  0.7546771E-02  0.1490688E+00
          2   -1    0    0  502    0  0.00000000000E+00  0.00000000000E+00  0.24192945191E+01  0.24192945191E+01  0.00000000000E+00 0.  1.
          2   -1    0    0  501    0 -0.00000000000E+00 -0.00000000000E+00 -0.67768416447E+03  0.67768416447E+03  0.00000000000E+00 0. -1.
          2    1    1    2  501    0 -0.16621606602E+02  0.16105965368E+02 -0.58609725540E+02  0.63014124245E+02  0.00000000000E+00 0.  1.
          2    1    1    2  502    0  0.16621606602E+02 -0.16105965368E+02 -0.61665514441E+03  0.61708933474E+03  0.00000000000E+00 0. -1.
</event>
<event>
 4    1  0.8988950E+003  0.2097236E+02  0.7546771E-02  0.1519660E+00
          2   -1    0    0  502    0  0.00000000000E+00  0.00000000000E+00  0.45709809704E+00  0.45709809704E+00  0.00000000000E+00 0.  1.
          2   -1    0    0  501    0 -0.00000000000E+00 -0.00000000000E+00 -0.10746584066E+04  0.10746584066E+04  0.00000000000E+00 0.  1.
          2    1    1    2  501    0 -0.14173762196E+02 -0.15457821393E+02 -0.36323995555E+03  0.36384489152E+03  0.00000000000E+00 0.  1.
          2    1    1    2  502    0  0.14173762196E+02  0.15457821393E+02 -0.71096135296E+03  0.71127061318E+03  0.00000000000E+00 0.  1.
</event>
<event>
 4    1  0.8988950E+003  0.2879408E+02  0.7546771E-02  0.1430373E+00
          2   -1    0    0  501    0  0.00000000000E+00  0.00000000000E+00  0.10953741944E+02  0.10953741944E+02  0.00000000000E+00 0. -1.
          2   -1    0    0  502    0 -0.00000000000E+00 -0.00000000000E+00 -0.60050530103E+03  0.60050530103E+03  0.00000000000E+00 0. -1.
          2    1    1    2  501    0 -0.20995332761E+02 -0.19705208330E+02 -0.58058866288E+03  0.58130224040E+03  0.00000000000E+00 0. -1.
          2    1    1    2  502    0  0.20995332761E+02  0.19705208330E+02 -0.89628962087E+01  0.30156802574E+02  0.00000000000E+00 0. -1.
</event>
<event>
 4    1  0.1782276E+004  0.2391992E+02  0.7546771E-02  0.1481259E+00
          2   -1    0    0  501    0  0.00000000000E+00  0.00000000000E+00  0.12741019845E+04  0.12741019845E+04  0.00000000000E+00 0. -1.
          2   -1    0    0  502    0 -0.00000000000E+00 -0.00000000000E+00 -0.68841203909E+03  0.68841203909E+03  0.00000000000E+00 0.  1.
          2    1    1    2  501    0  0.86571628532E+01 -0.22298338394E+02 -0.68809193571E+03  0.68850757030E+03  0.00000000000E+00 0.  1.
          2    1    1    2  502    0 -0.86571628532E+01  0.22298338394E+02  0.12737818811E+04  0.12740064533E+04  0.00000000000E+00 0. -1.
</event>
<event>
 4    1  0.8988950E+003  0.3066377E+02  0.7546771E-02  0.1413914E+00
          2   -1    0    0  501    0  0.00000000000E+00  0.00000000000E+00  0.18114346086E+01  0.18114346086E+01  0.00000000000E+00 0.  1.
          2   -1    0    0  502    0 -0.00000000000E+00 -0.00000000000E+00 -0.94296661081E+03  0.94296661081E+03  0.00000000000E+00 0. -1.
          2    1    1    2  501    0  0.21696439839E+02  0.21668672478E+02 -0.78730091770E+03  0.78789783721E+03  0.00000000000E+00 0. -1.
          2    1    1    2  502    0 -0.21696439839E+02 -0.21668672478E+02 -0.15385425850E+03  0.15688020821E+03  0.00000000000E+00 0.  1.
</event>
<event>
 4    1  0.8988950E+003  0.2267796E+02  0.7546771E-02  0.1496582E+00
          2   -1    0    0  501    0  0.00000000000E+00  0.00000000000E+00  0.15226397088E+01  0.15226397088E+01  0.00000000000E+00 0.  1.
          2   -1    0    0  502    0 -0.00000000000E+00 -0.00000000000E+00 -0.43867510744E+03  0.43867510744E+03  0.00000000000E+00 0. -1.
          2    1    1    2  501    0  0.18160879346E+02  0.13582064466E+02 -0.32414121129E+03  0.32493355455E+03  0.00000000000E+00 0. -1.
          2    1    1    2  502    0 -0.18160879346E+02 -0.13582064466E+02 -0.11301125644E+03  0.11526419260E+03  0.00000000000E+00 0.  1.
</event>
<event>
 4    1  0.8988950E+003  0.3498779E+02  0.7546771E-02  0.1380649E+00
          2   -1    0    0  502    0  0.00000000000E+00  0.00000000000E+00  0.18035970923E+03  0.18035970923E+03  0.00000000000E+00 0.  1.
          2   -1    0    0  501    0 -0.00000000000E+00 -0.00000000000E+00 -0.40030568896E+02  0.40030568896E+02  0.00000000000E+00 0.  1.
          2    1    1    2  501    0  0.17720492354E+02 -0.30168348658E+02  0.17058424069E+03  0.17413537343E+03  0.00000000000E+00 0.  1.
          2    1    1    2  502    0 -0.17720492354E+02  0.30168348658E+02 -0.30255100358E+02  0.46254904688E+02  0.00000000000E+00 0.  1.
</event>
<event>
 4    1  0.8988950E+003  0.2567518E+02  0.7546771E-02  0.1461390E+00
          2   -1    0    0  501    0  0.00000000000E+00  0.00000000000E+00  0.41024559914E+03  0.41024559914E+03  0.00000000000E+00 0. -1.
          2   -1    0    0  502    0 -0.00000000000E+00 -0.00000000000E+00 -0.60834693356E+02  0.60834693356E+02  0.00000000000E+00 0.  1.
          2    1    1    2  501    0  0.15582516502E+02  0.20405880739E+02 -0.57703114799E+02  0.63157455987E+02  0.00000000000E+00 0.  1.
          2    1    1    2  502    0 -0.15582516502E+02 -0.20405880739E+02  0.40711402058E+03  0.40792283651E+03  0.00000000000E+00 0. -1.
</event>
<event>
 4    1  0.8988950E+003  0.2267561E+02  0.7546771E-02  0.1496612E+00
          2   -1    0    0  501    0  0.00000000000E+00  0.00000000000E+00  0.12394115677E+03  0.12394115677E+03  0.00000000000E+00 0. -1.
          2   -1    0    0  502    0 -0.00000000000E+00 -0.00000000000E+00 -0.11737300240E+04  0.11737300240E+04  0.00000000000E+00 0.  1.
          2    1    1    2  501    0  0.40516916830E+01  0.22310690835E+02 -0.11725823382E+04  0.11728015701E+04  0.00000000000E+00 0.  1.
          2    1    1    2  502    0 -0.40516916830E+01 -0.22310690835E+02  0.12279347099E+03  0.12486961059E+03  0.00000000000E+00 0. -1.
</event>
<event>
 4    1  0.8988950E+003  0.2583416E+02  0.7546771E-02  0.1459684E+00
          2   -1    0    0  502    0  0.00000000000E+00  0.00000000000E+00  0.43570729670E+02  0.43570729670E+02  0.00000000000E+00 0. -1.
          2   -1    0    0  501    0 -0.00000000000E+00 -0.00000000000E+00 -0.17888899295E+03  0.17888899295E+03  0.00000000000E+00 0.  1.
          2    1    1    2  501    0 -0.10162433073E+02 -0.23751393861E+02  0.38702041165E+02  0.46532265652E+02  0.00000000000E+00 0. -1.
          2    1    1    2  502    0  0.10162433073E+02  0.23751393861E+02 -0.17402030445E+03  0.17592745697E+03  0.00000000000E+00 0.  1.
</event>
<event>
 4    1  0.8988950E+003  0.2754760E+02  0.7546771E-02  0.1442184E+00
          2   -1    0    0  501    0  0.00000000000E+00  0.00000000000E+00  0.33760726914E+01  0.33760726914E+01  0.00000000000E+00 0.  1.
          2   -1    0    0  502    0 -0.00000000000E+00 -0.00000000000E+00 -0.82755511423E+03  0.82755511423E+03  0.00000000000E+00 0. -1.
          2    1    1    2  501    0  0.17182997899E+02 -0.21531717185E+02 -0.76666983097E+03  0.76716458467E+03  0.00000000000E+00 0. -1.
          2    1    1    2  502    0 -0.17182997899E+02  0.21531717185E+02 -0.57509210572E+02  0.63766602249E+02  0.00000000000E+00 0.  1.
</event>
<event>
 4    1  0.8988950E+003  0.5577632E+02  0.7546771E-02  0.1274900E+00
          2   -1    0    0  501    0  0.00000000000E+00  0.00000000000E+00  0.79236668151E+03  0.79236668151E+03  0.00000000000E+00 0.  1.
          2   -1    0    0  502    0 -0.00000000000E+00 -0.00000000000E+00 -0.40806173369E+01  0.40806173369E+01  0.00000000000E+00 0.  1.
          2    1    1    2  501    0 -0.53730591312E+02 -0.14967351603E+02  0.31667938178E+03  0.32155377295E+03  0.00000000000E+00 0.  1.
          2    1    1    2  502    0  0.53730591312E+02  0.14967351603E+02  0.47160668239E+03  0.47489352589E+03  0.00000000000E+00 0.  1.
</event>
<event>
 4    1  0.8988950E+003  0.3113511E+02  0.7546771E-02  0.1409982E+00
          2   -1    0    0  501    0  0.00000000000E+00  0.00000000000E+00  0.13478423837E+03  0.13478423837E+03  0.00000000000E+00 0. -1.
          2   -1    0    0  502    0 -0.00000000000E+00 -0.00000000000E+00 -0.11591854771E+02  0.11591854771E+02  0.00000000000E+00 0.  1.
          2    1    1    2  501    0 -0.11638230396E+02 -0.28878137379E+02  0.16506945019E+02  0.35240239203E+02  0.00000000000E+00 0.  1.
          2    1    1    2  502    0  0.11638230396E+02  0.28878137379E+02  0.10668543858E+03  0.11113585394E+03  0.00000000000E+00 0. -1.
</event>
<event>
 4    1  0.8988950E+003  0.3251050E+02  0.7546771E-02  0.1398964E+00
          2   -1    0    0  502    0  0.00000000000E+00  0.00000000000E+00  0.38037566803E+00  0.38037566803E+00  0.00000000000E+00 0. -1.
          2   -1    0    0  501    0 -0.00000000000E+00 -0.00000000000E+00 -0.27932944065E+04  0.27932944065E+04  0.00000000000E+00 0. -1.
          2    1    1    2  501    0  0.15725684211E+02 -0.28454091383E+02 -0.14975824961E+04  0.14979353341E+04  0.00000000000E+00 0. -1.
          2    1    1    2  502    0 -0.15725684211E+02  0.28454091383E+02 -0.12953315348E+04  0.12957394481E+04  0.00000000000E+00 0. -1.
</event>
<event>
 4    1  0.8988950E+003  0.3997621E+02  0.7546771E-02  0.1348625E+00
          2   -1    0    0  501    0  0.00000000000E+00  0.00000000000E+00  0.17782915900E+03  0.17782915900E+03  0.00000000000E+00 0.  1.
          2   -1    0    0  502    0 -0.00000000000E+00 -0.00000000000E+00 -0.41992035602E+03  0.41992035602E+03  0.00000000000E+00 0.  1.
          2    1    1    2  501    0  0.45752456452E+01 -0.39713530798E+02 -0.41670495580E+03  0.41861810471E+03  0.00000000000E+00 0.  1.
          2    1    1    2  502    0 -0.45752456452E+01  0.39713530798E+02  0.17461375879E+03  0.17913141031E+03  0.00000000000E+00 0.  1.
</event>
<event>
 4    1  0.8988950E+003  0.2559186E+02  0.7546771E-02  0.1462290E+00
          2   -1    0    0  502    0  0.00000000000E+00  0.00000000000E+00  0.99708279927E+02  0.99708279927E+02  0.00000000000E+00 0.  1.
          2   -1    0    0  501    0 -0.00000000000E+00 -0.00000000000E+00 -0.29870236955E+02  0.29870236955E+02  0.00000000000E+00 0. -1.
          2    1    1    2  501    0 -0.21880448613E+02 -0.13273622709E+02  0.92142856248E+02  0.95630795505E+02  0.00000000000E+00 0.  1.
          2    1    1    2  502    0  0.21880448613E+02  0.13273622709E+02 -0.22304813277E+02  0.33947721376E+02  0.00000000000E+00 0. -1.
</event>
<event>
 4    1  0.8988950E+003  0.2307152E+02  0.7546771E-02  0.1491602E+00
          2   -1    0    0  501    0  0.00000000000E+00  0.00000000000E+00  0.23378195031E+02  0.23378195031E+02  0.00000000000E+00 0. -1.
          2   -1    0    0  502    0 -0.00000000000E+00 -0.00000000000E+00 -0.24538647669E+02  0.24538647669E+02  0.00000000000E+00 0. -1.
          2    1    1    2  501    0 -0.23030786829E+02 -0.13703320791E+01 -0.70144022518E+01  0.24114244564E+02  0.00000000000E+00 0. -1.
          2    1    1    2  502    0  0.23030786829E+02  0.13703320791E+01  0.58539496132E+01  0.23802598136E+02  0.00000000000E+00 0. -1.
</event>
<event>
 4    1  0.8988950E+003  0.5959480E+02  0.7546771E-02  0.1261216E+00
          2   -1    0    0  501    0  0.00000000000E+00  0.00000000000E+00  0.13490732230E+02  0.13490732230E+02  0.00000000000E+00 0.  1.
          2   -1    0    0  502    0 -0.00000000000E+00 -0.00000000000E+00 -0.24587070098E+04  0.24587070098E+04  0.00000000000E+00 0. -1.
          2    1    1    2  501    0 -0.53238707852E+02 -0.26780220409E+02 -0.23906583688E+04  0.23914010488E+04  0.00000000000E+00 0. -1.
          2    1    1    2  502    0  0.53238707852E+02  0.26780220409E+02 -0.54557908822E+02  0.80796693212E+02  0.00000000000E+00 0.  1.
</event>
<event>
 4    1  0.8988950E+003  0.4933470E+02  0.7546771E-02  0.1301083E+00
          2   -1    0    0  502    0  0.00000000000E+00  0.00000000000E+00  0.35894525661E+02  0.35894525661E+02  0.00000000000E+00 0. -1.
          2   -1    0    0  501    0 -0.00000000000E+00 -0.00000000000E+00 -0.32538092385E+03  0.32538092385E+03  0.00000000000E+00 0. -1.
          2    1    1    2  501    0 -0.42137516141E+02 -0.25658183064E+02  0.15974262082E+02  0.51856433292E+02  0.00000000000E+00 0. -1.
          2    1    1    2  502    0  0.42137516141E+02  0.25658183064E+02 -0.30546066027E+03  0.30941901622E+03  0.00000000000E+00 0. -1.
</event>
<event>
 4    1  0.8988950E+003  0.2693360E+02  0.7546771E-02  0.1448276E+00
          2   -1    0    0  501    0  0.00000000000E+00  0.00000000000E+00  0.71672422033E+00  0.71672422033E+00  0.00000000000E+00 0.  1.
          2   -1    0    0  502    0 -0.00000000000E+00 -0.00000000000E+00 -0.12529888196E+04  0.12529888196E+04  0.00000000000E+00 0. -1.
          2    1    1    2  501    0  0.17377724333E+02 -0.20577499531E+02 -0.35130085529E+03  0.35233181764E+03  0.00000000000E+00 0.  1.
          2    1    1    2  502    0 -0.17377724333E+02  0.20577499531E+02 -0.90097124008E+03  0.90137372618E+03  0.00000000000E+00 0. -1.
</event>
<event>
 4    1  0.8988950E+003  0.2054328E+02  0.7546771E-02  0.1525887E+00
          2   -1    0    0  501    0  0.00000000000E+00  0.00000000000E+00  0.42143481061E+00  0.42143481061E+00  0.00000000000E+00 0.  1.
          2   -1    0    0  502    0 -0.00000000000E+00 -0.00000000000E+00 -0.14339571770E+04  0.14339571770E+04  0.00000000000E+00 0. -1.
          2    1    1    2  501    0  0.20540741801E+02  0.32304605348E+00 -0.11106674837E+04  0.11108574552E+04  0.00000000000E+00 0. -1.
          2    1    1    2  502    0 -0.20540741801E+02 -0.32304605348E+00 -0.32286825849E+03  0.32352115661E+03  0.00000000000E+00 0.  1.
</event>
<event>
 4    1  0.8988950E+003  0.3048036E+02  0.7546771E-02  0.1415467E+00
          2   -1    0    0  501    0  0.00000000000E+00  0.00000000000E+00  0.26057193891E+01  0.26057193891E+01  0.00000000000E+00 0. -1.
          2   -1    0    0  502    0 -0.00000000000E+00 -0.00000000000E+00 -0.16117651058E+04  0.16117651058E+04  0.00000000000E+00 0. -1.
          2    1    1    2  501    0  0.81650493331E+01 -0.29366380311E+02 -0.15169119849E+04  0.15172181855E+04  0.00000000000E+00 0. -1.
          2    1    1    2  502    0 -0.81650493331E+01  0.29366380311E+02 -0.92247401526E+02  0.97152639756E+02  0.00000000000E+00 0. -1.
</event>
<event>
 4    1  0.1276518E+004  0.2891628E+02  0.7546771E-02  0.1429253E+00
          2   -1    0    0  501    0  0.00000000000E+00  0.00000000000E+00  0.62572818646E+03  0.62572818646E+03  0.00000000000E+00 0. -1.
          2   -1    0    0  502    0 -0.00000000000E+00 -0.00000000000E+00 -0.15519919193E+04  0.15519919193E+04  0.00000000000E+00 0.  1.
          2    1    1    2  501    0 -0.22129579247E+02 -0.18612710095E+02 -0.15515230571E+04  0.15517924951E+04  0.00000000000E+00 0.  1.
          2    1    1    2  502    0  0.22129579247E+02  0.18612710095E+02  0.62525932423E+03  0.62592761066E+03  0.00000000000E+00 0. -1.
</event>
<event>
 4    1  0.8988950E+003  0.3527684E+02  0.7546771E-02  0.1378627E+00
          2   -1    0    0  502    0  0.00000000000E+00  0.00000000000E+00  0.66984475209E+03  0.66984475209E+03  0.00000000000E+00 0.  1.
          2   -1    0    0  501    0 -0.00000000000E+00 -0.00000000000E+00 -0.98650531715E+01  0.98650531715E+01  0.00000000000E+00 0.  1.
          2    1    1    2  501    0  0.31607181018E+02 -0.15666576262E+02  0.63617553173E+03  0.63715285660E+03  0.00000000000E+00 0.  1.
          2    1    1    2  502    0 -0.31607181018E+02  0.15666576262E+02  0.23804167188E+02  0.42556948660E+02  0.00000000000E+00 0.  1.
</event>
<event>
 4    1  0.1382425E+004  0.2090381E+02  0.7546771E-02  0.1520643E+00
          2   -1    0    0  501    0  0.00000000000E+00  0.00000000000E+00  0.10892689544E+04  0.10892689544E+04  0.00000000000E+00 0.  1.
          2   -1    0    0  502    0 -0.00000000000E+00 -0.00000000000E+00 -0.84704393974E+03  0.84704393974E+03  0.00000000000E+00 0. -1.
          2    1    1    2  501    0 -0.18468823518E+02  0.97914078327E+01 -0.84681465421E+03  0.84707262245E+03  0.00000000000E+00 0. -1.
          2    1    1    2  502    0  0.18468823518E+02 -0.97914078327E+01  0.10890396689E+04  0.10892402717E+04  0.00000000000E+00 0.  1.
</event>
<event>
 4    1  0.8988950E+003  0.2017712E+02  0.7546771E-02  0.1531345E+00
          2   -1    0    0  502    0  0.00000000000E+00  0.00000000000E+00  0.96605621671E+00  0.96605621671E+00  0.00000000000E+00 0. -1.
          2   -1    0    0  501    0 -0.00000000000E+00 -0.00000000000E+00 -0.12667473781E+04  0.12667473781E+04  0.00000000000E+00 0.  1.
          2    1    1    2  501    0 -0.19714943952E+01 -0.20080567777E+02 -0.11509500471E+03  0.11685022936E+03  0.00000000000E+00 0. -1.
          2    1    1    2  502    0  0.19714943952E+01  0.20080567777E+02 -0.11506863172E+04  0.11508632050E+04  0.00000000000E+00 0.  1.
</event>
<event>
 4    1  0.8988950E+003  0.4785215E+02  0.7546771E-02  0.1307763E+00
          2   -1    0    0  501    0  0.00000000000E+00  0.00000000000E+00  0.48512883945E+03  0.48512883945E+03  0.00000000000E+00 0.  1.
          2   -1    0    0  502    0 -0.00000000000E+00 -0.00000000000E+00 -0.22563350073E+02  0.22563350073E+02  0.00000000000E+00 0. -1.
          2    1    1    2  501    0  0.12309914980E+02  0.46241696113E+02  0.55438556262E+01  0.48172220225E+02  0.00000000000E+00 0. -1.
          2    1    1    2  502    0 -0.12309914980E+02 -0.46241696113E+02  0.45702163375E+03  0.45951996930E+03  0.00000000000E+00 0.  1.
</event>
<event>
 4    1  0.8988950E+003  0.2629442E+02  0.7546771E-02  0.1454827E+00
          2   -1    0    0  502    0  0.00000000000E+00  0.00000000000E+00  0.59089730316E+02  0.59089730316E+02  0.00000000000E+00 0. -1.
          2   -1    0    0  501    0 -0.00000000000E+00 -0.00000000000E+00 -0.45799805050E+03  0.45799805050E+03  0.00000000000E+00 0. -1.
          2    1    1    2  501    0  0.74796893703E+01  0.25208150805E+02  0.55765763638E+02  0.61654010528E+02  0.00000000000E+00 0. -1.
          2    1    1    2  502    0 -0.74796893703E+01 -0.25208150805E+02 -0.45467408382E+03  0.45543377029E+03  0.00000000000E+00 0. -1.
</event>
<event>
 4    1  0.8988950E+003  0.2984528E+02  0.7546771E-02  0.1420946E+00
          2   -1    0    0  502    0  0.00000000000E+00  0.00000000000E+00  0.28783479426E+02  0.28783479426E+02  0.00000000000E+00 0. -1.
          2   -1    0    0  501    0 -0.00000000000E+00 -0.00000000000E+00 -0.68081958834E+02  0.68081958834E+02  0.00000000000E+00 0. -1.
          2    1    1    2  501    0  0.29844066141E+02 -0.26904802551E+00  0.16120741003E+02  0.33920774772E+02  0.00000000000E+00 0. -1.
          2    1    1    2  502    0 -0.29844066141E+02  0.26904802551E+00 -0.55419220410E+02  0.62944663488E+02  0.00000000000E+00 0. -1.
</event>
<event>
 4    1  0.8988950E+003  0.2387945E+02  0.7546771E-02  0.1481741E+00
          2   -1    0    0  502    0  0.00000000000E+00  0.00000000000E+00  0.30015372450E+02  0.30015372450E+02  0.00000000000E+00 0.  1.
          2   -1    0    0  501    0 -0.00000000000E+00 -0.00000000000E+00 -0.84360603593E+03  0.84360603593E+03  0.00000000000E+00 0. -1.
          2    1    1    2  501    0 -0.19935726555E+02  0.13145150278E+02  0.25068912467E+02  0.34621937286E+02  0.00000000000E+00 0.  1.
          2    1    1    2  502    0  0.19935726555E+02 -0.13145150278E+02 -0.83865957595E+03  0.83899947110E+03  0.00000000000E+00 0. -1.
</event>
<event>
 4    1  0.8988950E+003  0.2307501E+02  0.7546771E-02  0.1491558E+00
          2   -1    0    0  502    0  0.00000000000E+00  0.00000000000E+00  0.20000130358E+03  0.20000130358E+03  0.00000000000E+00 0.  1.
          2   -1    0    0  501    0 -0.00000000000E+00 -0.00000000000E+00 -0.43635292299E+01  0.43635292299E+01  0.00000000000E+00 0. -1.
          2    1    1    2  501    0  0.22765310703E+02  0.37678554619E+01  0.16162221658E+03  0.16326113131E+03  0.00000000000E+00 0.  1.
          2    1    1    2  502    0 -0.22765310703E+02 -0.37678554619E+01  0.34015557774E+02  0.41103701498E+02  0.00000000000E+00 0. -1.
</event>
<event>
 4    1  0.8988950E+003  0.2672862E+02  0.7546771E-02  0.1450353E+00
          2   -1    0    0  502    0  0.00000000000E+00  0.00000000000E+00  0.16722638254E+04  0.16722638254E+04  0.00000000000E+00 0. -1.
          2   -1    0    0  501    0 -0.00000000000E+00 -0.00000000000E+00 -0.12551903753E+03  0.12551903753E+03  0.00000000000E+00 0.  1.
          2    1    1    2  501    0  0.14541455430E+02 -0.22426882320E+02  0.16707327879E+04  0.16709465783E+04  0.00000000000E+00 0. -1.
          2    1    1    2  502    0 -0.14541455430E+02  0.22426882320E+02 -0.12398799997E+03  0.12683628469E+03  0.00000000000E+00 0.  1.
</event>
<event>
 4    1  0.8988950E+003  0.2090035E+02  0.7546771E-02  0.1520692E+00
          2   -1    0    0  502    0  0.00000000000E+00  0.00000000000E+00  0.29349018673E+03  0.29349018673E+03  0.00000000000E+00 0.  1.
          2   -1    0    0  501    0 -0.00000000000E+00 -0.00000000000E+00 -0.18481226615E+01  0.18481226615E+01  0.00000000000E+00 0.  1.
          2    1    1    2  501    0  0.34029399111E+01 -0.20621459139E+02  0.80670033214E+02  0.83333539681E+02  0.00000000000E+00 0.  1.
          2    1    1    2  502    0 -0.34029399111E+01  0.20621459139E+02  0.21097203085E+03  0.21200476971E+03  0.00000000000E+00 0.  1.
</event>
<event>
 4    1  0.8988950E+003  0.2656198E+02  0.7546771E-02  0.1452058E+00
          2   -1    0    0  501    0  0.00000000000E+00  0.00000000000E+00  0.49813232786E+01  0.49813232786E+01  0.00000000000E+00 0. -1.
          2   -1    0    0  502    0 -0.00000000000E+00 -0.00000000000E+00 -0.32041997222E+03  0.32041997222E+03  0.00000000000E+00 0.  1.
          2    1    1    2  501    0  0.14715941410E+02  0.22112888296E+02 -0.27925192607E+03  0.28051234728E+03  0.00000000000E+00 0.  1.
          2    1    1    2  502    0 -0.14715941410E+02 -0.22112888296E+02 -0.36186722871E+02  0.44888948222E+02  0.00000000000E+00 0. -1.
</event>
<event>
 4    1  0.8988950E+003  0.3165465E+02  0.7546771E-02  0.1405742E+00
          2   -1    0    0  501    0  0.00000000000E+00  0.00000000000E+00  0.16771729146E+04  0.16771729146E+04  0.00000000000E+00 0. -1.
          2   -1    0    0  502    0 -0.00000000000E+00 -0.00000000000E+00 -0.43178874616E+01  0.43178874616E+01  0.00000000000E+00 0. -1.
          2    1    1    2  501    0 -0.10375066465E+02 -0.29906104445E+02  0.56011470384E+02  0.64337406707E+02  0.00000000000E+00 0. -1.
          2    1    1    2  502    0  0.10375066465E+02  0.29906104445E+02  0.16168435568E+04  0.16171533954E+04  0.00000000000E+00 0. -1.
</event>
<event>
 4    1  0.8988950E+003  0.9765213E+02  0.7546771E-02  0.1167940E+00
          2   -1    0    0  502    0  0.00000000000E+00  0.00000000000E+00  0.13189991101E+03  0.13189991101E+03  0.00000000000E+00 0.  1.
          2   -1    0    0  501    0 -0.00000000000E+00 -0.00000000000E+00 -0.13936581328E+04  0.13936581328E+04  0.00000000000E+00 0.  1.
          2    1    1    2  501    0  0.97073413708E+02  0.10615577832E+02  0.11185165653E+03  0.14848141706E+03  0.00000000000E+00 0.  1.
          2    1    1    2  502    0 -0.97073413708E+02 -0.10615577832E+02 -0.13736098783E+04  0.13770766268E+04  0.00000000000E+00 0.  1.
</event>
<event>
 4    1  0.8988950E+003  0.7558300E+02  0.7546771E-02  0.1214491E+00
          2   -1    0    0  501    0  0.00000000000E+00  0.00000000000E+00  0.62132645776E+03  0.62132645776E+03  0.00000000000E+00 0. -1.
          2   -1    0    0  502    0 -0.00000000000E+00 -0.00000000000E+00 -0.93909271999E+01  0.93909271999E+01  0.00000000000E+00 0. -1.
          2    1    1    2  501    0  0.26154615492E+02  0.70913505298E+02  0.26035924396E+03  0.27110832717E+03  0.00000000000E+00 0. -1.
          2    1    1    2  502    0 -0.26154615492E+02 -0.70913505298E+02  0.35157628660E+03  0.35960905779E+03  0.00000000000E+00 0. -1.
</event>
<event>
 4    1  0.8988950E+003  0.2717149E+02  0.7546771E-02  0.1445893E+00
          2   -1    0    0  501    0  0.00000000000E+00  0.00000000000E+00  0.34955428842E+03  0.34955428842E+03  0.00000000000E+00 0.  1.
          2   -1    0    0  502    0 -0.00000000000E+00 -0.00000000000E+00 -0.23915572498E+03  0.23915572498E+03  0.00000000000E+00 0. -1.
          2    1    1    2  501    0  0.27161863089E+02 -0.72335164900E+00 -0.23785305297E+03  0.23940001013E+03  0.00000000000E+00 0. -1.
          2    1    1    2  502    0 -0.27161863089E+02  0.72335164900E+00  0.34825161641E+03  0.34931000326E+03  0.00000000000E+00 0.  1.
</event>
<event>
 4    1  0.8988950E+003  0.2112901E+02  0.7546771E-02  0.1517431E+00
          2   -1    0    0  501    0  0.00000000000E+00  0.00000000000E+00  0.33532622579E+03  0.33532622579E+03  0.00000000000E+00 0.  1.
          2   -1    0    0  502    0 -0.00000000000E+00 -0.00000000000E+00 -0.79245125762E+01  0.79245125762E+01  0.00000000000E+00 0.  1.
          2    1    1    2  501    0  0.70761742167E+01 -0.19908857672E+02  0.71547518229E+01  0.22307517320E+02  0.00000000000E+00 0.  1.
          2    1    1    2  502    0 -0.70761742167E+01  0.19908857672E+02  0.32024696140E+03  0.32094322105E+03  0.00000000000E+00 0.  1.
</event>
<event>
 4    1  0.8988950E+003  0.2065153E+02  0.7546771E-02  0.1524299E+00
          2   -1    0    0  501    0  0.00000000000E+00  0.00000000000E+00  0.15347209905E+03  0.15347209905E+03  0.00000000000E+00 0.  1.
          2   -1    0    0  502    0 -0.00000000000E+00 -0.00000000000E+00 -0.31808177950E+01  0.31808177950E+01  0.00000000000E+00 0. -1.
          2    1    1    2  501    0  0.14300398667E+02 -0.14899143813E+02  0.47303686614E+02  0.51615159165E+02  0.00000000000E+00 0. -1.
          2    1    1    2  502    0 -0.14300398667E+02  0.14899143813E+02  0.10298759464E+03  0.10503775768E+03  0.00000000000E+00 0.  1.
</event>
<event>
 4    1  0.8988950E+003  0.2357827E+02  0.7546771E-02  0.1485362E+00
          2   -1    0    0  501    0  0.00000000000E+00  0.00000000000E+00  0.17901770079E+03  0.17901770079E+03  0.00000000000E+00 0.  1.
          2   -1    0    0  502    0 -0.00000000000E+00 -0.00000000000E+00 -0.48912471476E+03  0.48912471476E+03  0.00000000000E+00 0.  1.
          2    1    1    2  501    0  0.14969358719E+02 -0.18216830419E+02 -0.48806251019E+03  0.48863171046E+03  0.00000000000E+00 0.  1.
          2    1    1    2  502    0 -0.14969358719E+02  0.18216830419E+02  0.17795549622E+03  0.17951070510E+03  0.00000000000E+00 0.  1.
</event>
<event>
 4    1  0.8988950E+003  0.5329846E+02  0.7546771E-02  0.1284472E+00
          2   -1    0    0  501    0  0.00000000000E+00  0.00000000000E+00  0.69724439324E+02  0.69724439324E+02  0.00000000000E+00 0.  1.
          2   -1    0    0  502    0 -0.00000000000E+00 -0.00000000000E+00 -0.59741351203E+03  0.59741351203E+03  0.00000000000E+00 0. -1.
          2    1    1    2  501    0  0.49858984127E+02  0.18836328260E+02 -0.58583837343E+03  0.58825787317E+03  0.00000000000E+00 0. -1.
          2    1    1    2  502    0 -0.49858984127E+02 -0.18836328260E+02  0.58149300722E+02  0.78880078188E+02  0.00000000000E+00 0.  1.
</event>
<event>
 4    1  0.8988950E+003  0.5608168E+02  0.7546771E-02  0.1273760E+00
          2   -1    0    0  501    0  0.00000000000E+00  0.00000000000E+00  0.18756342115E+04  0.18756342115E+04  0.00000000000E+00 0. -1.
          2   -1    0    0  502    0 -0.00000000000E+00 -0.00000000000E+00 -0.89747751454E+01  0.89747751454E+01  0.00000000000E+00 0. -1.
          2    1    1    2  501    0 -0.52225021836E+02 -0.20437759805E+02  0.83603120657E+02  0.10067093282E+03  0.00000000000E+00 0. -1.
          2    1    1    2  502    0  0.52225021836E+02  0.20437759805E+02  0.17830563157E+04  0.17839380539E+04  0.00000000000E+00 0. -1.
</event>
<event>
 4    1  0.8988950E+003  0.5324204E+02  0.7546771E-02  0.1284696E+00
          2   -1    0    0  502    0  0.00000000000E+00  0.00000000000E+00  0.12558481690E+03  0.12558481690E+03  0.00000000000E+00 0. -1.
          2   -1    0    0  501    0 -0.00000000000E+00 -0.00000000000E+00 -0.13285142741E+03  0.13285142741E+03  0.00000000000E+00 0. -1.
          2    1    1    2  501    0  0.51706941377E+02  0.12692810963E+02  0.11409674595E+03  0.12590783404E+03  0.00000000000E+00 0. -1.
          2    1    1    2  502    0 -0.51706941377E+02 -0.12692810963E+02 -0.12136335646E+03  0.13252841026E+03  0.00000000000E+00 0. -1.
</event>
<event>
 4    1  0.8988950E+003  0.2109362E+02  0.7546771E-02  0.1517932E+00
          2   -1    0    0  501    0  0.00000000000E+00  0.00000000000E+00  0.55417412275E+01  0.55417412275E+01  0.00000000000E+00 0. -1.
          2   -1    0    0  502    0 -0.00000000000E+00 -0.00000000000E+00 -0.55091899623E+03  0.55091899623E+03  0.00000000000E+00 0. -1.
          2    1    1    2  501    0  0.14924069025E+02 -0.14906803016E+02 -0.52984688854E+03  0.53026659890E+03  0.00000000000E+00 0. -1.
          2    1    1    2  502    0 -0.14924069025E+02  0.14906803016E+02 -0.15530366466E+02  0.26194138562E+02  0.00000000000E+00 0. -1.
</event>
<event>
 4    1  0.8988950E+003  0.2664526E+02  0.7546771E-02  0.1451204E+00
          2   -1    0    0  501    0  0.00000000000E+00  0.00000000000E+00  0.56227498120E+03  0.56227498120E+03  0.00000000000E+00 0.  1.
          2   -1    0    0  502    0 -0.00000000000E+00 -0.00000000000E+00 -0.73039101740E+01  0.73039101740E+01  0.00000000000E+00 0. -1.
          2    1    1    2  501    0 -0.26641722216E+02  0.43403182639E+00  0.18479966685E+02  0.32426515615E+02  0.00000000000E+00 0. -1.
          2    1    1    2  502    0  0.26641722216E+02 -0.43403182639E+00  0.53649110434E+03  0.53715237576E+03  0.00000000000E+00 0.  1.
</event>
<event>
 4    1  0.8988950E+003  0.3352919E+02  0.7546771E-02  0.1391209E+00
          2   -1    0    0  501    0  0.00000000000E+00  0.00000000000E+00  0.40093428708E+03  0.40093428708E+03  0.00000000000E+00 0.  1.
          2   -1    0    0  502    0 -0.00000000000E+00 -0.00000000000E+00 -0.18733721862E+03  0.18733721862E+03  0.00000000000E+00 0. -1.
          2    1    1    2  501    0 -0.94860269880E+01  0.32159315919E+02 -0.18512768382E+03  0.18813948449E+03  0.00000000000E+00 0. -1.
          2    1    1    2  502    0  0.94860269880E+01 -0.32159315919E+02  0.39872475229E+03  0.40013202121E+03  0.00000000000E+00 0.  1.
</event>
<event>
 4    1  0.8988950E+003  0.2681798E+02  0.7546771E-02  0.1449445E+00
          2   -1    0    0  501    0  0.00000000000E+00  0.00000000000E+00  0.19071721139E+02  0.19071721139E+02  0.00000000000E+00 0.  1.
          2   -1    0    0  502    0 -0.00000000000E+00 -0.00000000000E+00 -0.13461452492E+03  0.13461452492E+03  0.00000000000E+00 0.  1.
          2    1    1    2  501    0 -0.21940612439E+01  0.26728082219E+02 -0.12296875081E+03  0.12585911949E+03  0.00000000000E+00 0.  1.
          2    1    1    2  502    0  0.21940612439E+01 -0.26728082219E+02  0.74259470256E+01  0.27827126569E+02  0.00000000000E+00 0.  1.
</event>
<event>
 4    1  0.8988950E+003  0.3351931E+02  0.7546771E-02  0.1391283E+00
          2   -1    0    0  502    0  0.00000000000E+00  0.00000000000E+00  0.39965986115E+02  0.39965986115E+02  0.00000000000E+00 0. -1.
          2   -1    0    0  501    0 -0.00000000000E+00 -0.00000000000E+00 -0.18323049575E+03  0.18323049575E+03  0.00000000000E+00 0.  1.
          2    1    1    2  501    0  0.13580335208E+02 -0.30645039537E+02  0.31048619319E+02  0.45689831628E+02  0.00000000000E+00 0. -1.
          2    1    1    2  502    0 -0.13580335208E+02  0.30645039537E+02 -0.17431312895E+03  0.17750665024E+03  0.00000000000E+00 0.  1.
</event>
<event>
 4    1  0.8988950E+003  0.6755024E+02  0.7546771E-02  0.1236134E+00
          2   -1    0    0  502    0  0.00000000000E+00  0.00000000000E+00  0.10436706231E+02  0.10436706231E+02  0.00000000000E+00 0.  1.
          2   -1    0    0  501    0 -0.00000000000E+00 -0.00000000000E+00 -0.99536488999E+03  0.99536488999E+03  0.00000000000E+00 0.  1.
          2    1    1    2  501    0  0.13509319085E+02 -0.66185600789E+02 -0.11587441005E+03  0.13412648641E+03  0.00000000000E+00 0.  1.
          2    1    1    2  502    0 -0.13509319085E+02  0.66185600789E+02 -0.86905377371E+03  0.87167510981E+03  0.00000000000E+00 0.  1.
</event>
<event>
 4    1  0.8988950E+003  0.2311477E+02  0.7546771E-02  0.1491062E+00
          2   -1    0    0  502    0  0.00000000000E+00  0.00000000000E+00  0.12663556004E+02  0.12663556004E+02  0.00000000000E+00 0. -1.
          2   -1    0    0  501    0 -0.00000000000E+00 -0.00000000000E+00 -0.23121716321E+03  0.23121716321E+03  0.00000000000E+00 0. -1.
          2    1    1    2  501    0 -0.15931773126E+02 -0.16747277898E+02  0.97811618810E+00  0.23135458137E+02  0.00000000000E+00 0. -1.
          2    1    1    2  502    0  0.15931773126E+02  0.16747277898E+02 -0.21953172339E+03  0.22074526108E+03  0.00000000000E+00 0. -1.
</event>
<event>
 4    1  0.8988950E+003  0.4268811E+02  0.7546771E-02  0.1333415E+00
          2   -1    0    0  501    0  0.00000000000E+00  0.00000000000E+00  0.23564899577E+03  0.23564899577E+03  0.00000000000E+00 0.  1.
          2   -1    0    0  502    0 -0.00000000000E+00 -0.00000000000E+00 -0.80457005681E+03  0.80457005681E+03  0.00000000000E+00 0.  1.
          2    1    1    2  501    0 -0.41122650312E+02 -0.11454348961E+02 -0.80206454493E+03  0.80319973152E+03  0.00000000000E+00 0.  1.
          2    1    1    2  502    0  0.41122650312E+02  0.11454348961E+02  0.23314348389E+03  0.23701932106E+03  0.00000000000E+00 0.  1.
</event>
<event>
 4    1  0.8988950E+003  0.2266157E+02  0.7546771E-02  0.1496792E+00
          2   -1    0    0  501    0  0.00000000000E+00  0.00000000000E+00  0.74421651078E+03  0.74421651078E+03  0.00000000000E+00 0. -1.
          2   -1    0    0  502    0 -0.00000000000E+00 -0.00000000000E+00 -0.39334355697E+01  0.39334355697E+01  0.00000000000E+00 0. -1.
          2    1    1    2  501    0  0.15553666124E+02  0.16481208151E+02  0.30460025756E+02  0.37965246227E+02  0.00000000000E+00 0. -1.
          2    1    1    2  502    0 -0.15553666124E+02 -0.16481208151E+02  0.70982304945E+03  0.71018470012E+03  0.00000000000E+00 0. -1.
</event>
<event>
 4    1  0.8988950E+003  0.3663132E+02  0.7546771E-02  0.1369443E+00
          2   -1    0    0  502    0  0.00000000000E+00  0.00000000000E+00  0.29236722892E+02  0.29236722892E+02  0.00000000000E+00 0.  1.
          2   -1    0    0  501    0 -0.00000000000E+00 -0.00000000000E+00 -0.17227512747E+03  0.17227512747E+03  0.00000000000E+00 0.  1.
          2    1    1    2  501    0  0.17894325823E+02 -0.31963209250E+02  0.14777994220E+02  0.39499908296E+02  0.00000000000E+00 0.  1.
          2    1    1    2  502    0 -0.17894325823E+02  0.31963209250E+02 -0.15781639879E+03  0.16201194206E+03  0.00000000000E+00 0.  1.
</event>
<event>
 4    1  0.8988950E+003  0.2085739E+02  0.7546771E-02  0.1521311E+00
          2   -1    0    0  502    0  0.00000000000E+00  0.00000000000E+00  0.15059818302E+04  0.15059818302E+04  0.00000000000E+00 0. -1.
          2   -1    0    0  501    0 -0.00000000000E+00 -0.00000000000E+00 -0.43391646900E+01  0.43391646900E+01  0.00000000000E+00 0.  1.
          2    1    1    2  501    0 -0.10418329607E+02  0.18069012454E+02  0.14804125301E+04  0.14805594517E+04  0.00000000000E+00 0. -1.
          2    1    1    2  502    0  0.10418329607E+02 -0.18069012454E+02  0.21230135444E+02  0.29761543203E+02  0.00000000000E+00 0.  1.
</event>
<event>
 4    1  0.8988950E+003  0.2422437E+02  0.7546771E-02  0.1477670E+00
          2   -1    0    0  501    0  0.00000000000E+00  0.00000000000E+00  0.42230667910E+01  0.42230667910E+01  0.00000000000E+00 0. -1.
          2   -1    0    0  502    0 -0.00000000000E+00 -0.00000000000E+00 -0.11798550415E+04  0.11798550415E+04  0.00000000000E+00 0. -1.
          2    1    1    2  501    0 -0.23677247205E+02  0.51193906221E+01 -0.11438999210E+04  0.11441563921E+04  0.00000000000E+00 0. -1.
          2    1    1    2  502    0  0.23677247205E+02 -0.51193906221E+01 -0.31732053720E+02  0.39921716257E+02  0.00000000000E+00 0. -1.
</event>
<event>
 4    1  0.8988950E+003  0.2930991E+02  0.7546771E-02  0.1425690E+00
          2   -1    0    0  502    0  0.00000000000E+00  0.00000000000E+00  0.26523927368E+01  0.26523927368E+01  0.00000000000E+00 0. -1.
          2   -1    0    0  501    0 -0.00000000000E+00 -0.00000000000E+00 -0.91815008096E+03  0.91815008096E+03  0.00000000000E+00 0.  1.
          2    1    1    2  501    0  0.29110047500E+02 -0.34170241650E+01 -0.87349974178E+02  0.92136251869E+02  0.00000000000E+00 0. -1.
          2    1    1    2  502    0 -0.29110047500E+02  0.34170241650E+01 -0.82814771405E+03  0.82866622183E+03  0.00000000000E+00 0.  1.
</event>
<event>
 4    1  0.8988950E+003  0.2172710E+02  0.7546771E-02  0.1509132E+00
          2   -1    0    0  502    0  0.00000000000E+00  0.00000000000E+00  0.21868414126E+02  0.21868414126E+02  0.00000000000E+00 0.  1.
          2   -1    0    0  501    0 -0.00000000000E+00 -0.00000000000E+00 -0.42750875961E+03  0.42750875961E+03  0.00000000000E+00 0.  1.
          2    1    1    2  501    0 -0.77014712575E+01 -0.20316354945E+02  0.16122204679E+02  0.27055358462E+02  0.00000000000E+00 0.  1.
          2    1    1    2  502    0  0.77014712575E+01  0.20316354945E+02 -0.42176255016E+03  0.42232181527E+03  0.00000000000E+00 0.  1.
</event>
<event>
 4    1  0.8988950E+003  0.3538072E+02  0.7546771E-02  0.1377906E+00
          2   -1    0    0  502    0  0.00000000000E+00  0.00000000000E+00  0.24124309663E+04  0.24124309663E+04  0.00000000000E+00 0. -1.
          2   -1    0    0  501    0 -0.00000000000E+00 -0.00000000000E+00 -0.21667341163E+02  0.21667341163E+02  0.00000000000E+00 0. -1.
          2    1    1    2  501    0 -0.21441796667E+02 -0.28143294987E+02  0.23977695856E+04  0.23980306047E+04  0.00000000000E+00 0. -1.
          2    1    1    2  502    0  0.21441796667E+02  0.28143294987E+02 -0.70059604601E+01  0.36067702713E+02  0.00000000000E+00 0. -1.
</event>
<event>
 4    1  0.8988950E+003  0.2688399E+02  0.7546771E-02  0.1448777E+00
          2   -1    0    0  501    0  0.00000000000E+00  0.00000000000E+00  0.98412324375E+02  0.98412324375E+02  0.00000000000E+00 0. -1.
          2   -1    0    0  502    0 -0.00000000000E+00 -0.00000000000E+00 -0.17198786439E+03  0.17198786439E+03  0.00000000000E+00 0. -1.
          2    1    1    2  501    0  0.17419096376E+02  0.20477399092E+02 -0.16906976986E+03  0.17119385466E+03  0.00000000000E+00 0. -1.
          2    1    1    2  502    0 -0.17419096376E+02 -0.20477399092E+02  0.95494229848E+02  0.99206334104E+02  0.00000000000E+00 0. -1.
</event>
<event>
 4    1  0.8988950E+003  0.2980380E+02  0.7546771E-02  0.1421309E+00
          2   -1    0    0  501    0  0.00000000000E+00  0.00000000000E+00  0.77354957713E+02  0.77354957713E+02  0.00000000000E+00 0.  1.
          2   -1    0    0  502    0 -0.00000000000E+00 -0.00000000000E+00 -0.34944220051E+03  0.34944220051E+03  0.00000000000E+00 0.  1.
          2    1    1    2  501    0 -0.24460100745E+02 -0.17028508385E+02 -0.34590667493E+03  0.34718826937E+03  0.00000000000E+00 0.  1.
          2    1    1    2  502    0  0.24460100745E+02  0.17028508385E+02  0.73819432126E+02  0.79608888861E+02  0.00000000000E+00 0.  1.
</event>
<event>
 4    1  0.8988950E+003  0.4592261E+02  0.7546771E-02  0.1316889E+00
          2   -1    0    0  501    0  0.00000000000E+00  0.00000000000E+00  0.17393166220E+04  0.17393166220E+04  0.00000000000E+00 0.  1.
          2   -1    0    0  502    0 -0.00000000000E+00 -0.00000000000E+00 -0.68380879893E+01  0.68380879893E+01  0.00000000000E+00 0.  1.
          2    1    1    2  501    0  0.40749364631E+02  0.21174879815E+02  0.74339668667E+02  0.87380046868E+02  0.00000000000E+00 0.  1.
          2    1    1    2  502    0 -0.40749364631E+02 -0.21174879815E+02  0.16581388653E+04  0.16587746631E+04  0.00000000000E+00 0.  1.
</event>
<event>
 4    1  0.8988950E+003  0.2040027E+02  0.7546771E-02  0.1528002E+00
          2   -1    0    0  502    0  0.00000000000E+00  0.00000000000E+00  0.27956018114E+03  0.27956018114E+03  0.00000000000E+00 0.  1.
          2   -1    0    0  501    0 -0.00000000000E+00 -0.00000000000E+00 -0.15326747775E+01  0.15326747775E+01  0.00000000000E+00 0.  1.
          2    1    1    2  501    0  0.13842934847E+02 -0.14984802467E+02  0.16283008160E+03  0.16410303661E+03  0.00000000000E+00 0.  1.
          2    1    1    2  502    0 -0.13842934847E+02  0.14984802467E+02  0.11519742477E+03  0.11698981932E+03  0.00000000000E+00 0.  1.
</event>
<event>
 4    1  0.8988950E+003  0.2144362E+02  0.7546771E-02  0.1513024E+00
          2   -1    0    0  502    0  0.00000000000E+00  0.00000000000E+00  0.29480730705E+02  0.29480730705E+02  0.00000000000E+00 0. -1.
          2   -1    0    0  501    0 -0.00000000000E+00 -0.00000000000E+00 -0.19921467277E+03  0.19921467277E+03  0.00000000000E+00 0. -1.
          2    1    1    2  501    0  0.17608414336E+02  0.12238167336E+02  0.24913046233E+02  0.32870790495E+02  0.00000000000E+00 0. -1.
          2    1    1    2  502    0 -0.17608414336E+02 -0.12238167336E+02 -0.19464698830E+03  0.19582461298E+03  0.00000000000E+00 0. -1.
</event>
<event>
 4    1  0.8988950E+003  0.2904356E+02  0.7546771E-02  0.1428094E+00
          2   -1    0    0  502    0  0.00000000000E+00  0.00000000000E+00  0.50618805674E+03  0.50618805674E+03  0.00000000000E+00 0.  1.
          2   -1    0    0  501    0 -0.00000000000E+00 -0.00000000000E+00 -0.17912561947E+02  0.17912561947E+02  0.00000000000E+00 0. -1.
          2    1    1    2  501    0 -0.20449711328E+02 -0.20623716166E+02  0.49370107928E+03  0.49455463201E+03  0.00000000000E+00 0.  1.
          2    1    1    2  502    0  0.20449711328E+02  0.20623716166E+02 -0.54255844831E+01  0.29545986680E+02  0.00000000000E+00 0. -1.
</event>
<event>
 4    1  0.8988950E+003  0.4327702E+02  0.7546771E-02  0.1330283E+00
          2   -1    0    0  501    0  0.00000000000E+00  0.00000000000E+00  0.14550979471E+03  0.14550979471E+03  0.00000000000E+00 0.  1.
          2   -1    0    0  502    0 -0.00000000000E+00 -0.00000000000E+00 -0.38380283170E+02  0.38380283170E+02  0.00000000000E+00 0.  1.
          2    1    1    2  501    0  0.38675059591E+02  0.19420104370E+02 -0.21393722268E+02  0.48276205740E+02  0.00000000000E+00 0.  1.
          2    1    1    2  502    0 -0.38675059591E+02 -0.19420104370E+02  0.12852323380E+03  0.13561387213E+03  0.00000000000E+00 0.  1.
</event>
<event>
 4    1  0.8988950E+003  0.2072994E+02  0.7546771E-02  0.1523156E+00
          2   -1    0    0  502    0  0.00000000000E+00  0.00000000000E+00  0.21016100634E+02  0.21016100634E+02  0.00000000000E+00 0. -1.
          2   -1    0    0  501    0 -0.00000000000E+00 -0.00000000000E+00 -0.29226317233E+02  0.29226317233E+02  0.00000000000E+00 0. -1.
          2    1    1    2  501    0 -0.20331945666E+02 -0.40425581259E+01  0.96627785125E+01  0.22871370299E+02  0.00000000000E+00 0. -1.
          2    1    1    2  502    0  0.20331945666E+02  0.40425581259E+01 -0.17872995111E+02  0.27371047569E+02  0.00000000000E+00 0. -1.
</event>
<event>
 4    1  0.8988950E+003  0.5741510E+02  0.7546771E-02  0.1268877E+00
          2   -1    0    0  502    0  0.00000000000E+00  0.00000000000E+00  0.23943237097E+02  0.23943237097E+02  0.00000000000E+00 0. -1.
          2   -1    0    0  501    0 -0.00000000000E+00 -0.00000000000E+00 -0.10827130004E+04  0.10827130004E+04  0.00000000000E+00 0. -1.
          2    1    1    2  501    0  0.21774101704E+01 -0.57373798537E+02 -0.12433550969E+02  0.58745953591E+02  0.00000000000E+00 0. -1.
          2    1    1    2  502    0 -0.21774101704E+01  0.57373798537E+02 -0.10463362124E+04  0.10479102839E+04  0.00000000000E+00 0. -1.
</event>
<event>
 4    1  0.8988950E+003  0.2775694E+02  0.7546771E-02  0.1440149E+00
          2   -1    0    0  502    0  0.00000000000E+00  0.00000000000E+00  0.62625641086E+01  0.62625641086E+01  0.00000000000E+00 0.  1.
          2   -1    0    0  501    0 -0.00000000000E+00 -0.00000000000E+00 -0.55828877464E+03  0.55828877464E+03  0.00000000000E+00 0. -1.
          2    1    1    2  501    0 -0.15840935417E+02 -0.22792815528E+02 -0.26771465042E+02  0.38563700744E+02  0.00000000000E+00 0.  1.
          2    1    1    2  502    0  0.15840935417E+02  0.22792815528E+02 -0.52525474549E+03  0.52598763801E+03  0.00000000000E+00 0. -1.
</event>
<event>
 4    1  0.8988950E+003  0.2211775E+02  0.7546771E-02  0.1503884E+00
          2   -1    0    0  501    0  0.00000000000E+00  0.00000000000E+00  0.57963835826E+03  0.57963835826E+03  0.00000000000E+00 0. -1.
          2   -1    0    0  502    0 -0.00000000000E+00 -0.00000000000E+00 -0.43738446354E+01  0.43738446354E+01  0.00000000000E+00 0. -1.
          2    1    1    2  501    0  0.15547591380E+02  0.15731090201E+02  0.25306964505E+02  0.33610076601E+02  0.00000000000E+00 0. -1.
          2    1    1    2  502    0 -0.15547591380E+02 -0.15731090201E+02  0.54995754912E+03  0.55040212630E+03  0.00000000000E+00 0. -1.
</event>
<event>
 4    1  0.8988950E+003  0.3153890E+02  0.7546771E-02  0.1406679E+00
          2   -1    0    0  501    0  0.00000000000E+00  0.00000000000E+00  0.21780012731E+02  0.21780012731E+02  0.00000000000E+00 0.  1.
          2   -1    0    0  502    0 -0.00000000000E+00 -0.00000000000E+00 -0.19208666654E+03  0.19208666654E+03  0.00000000000E+00 0.  1.
          2    1    1    2  501    0 -0.55318404163E+00  0.31534046380E+02 -0.17851296752E+03  0.18127763697E+03  0.00000000000E+00 0.  1.
          2    1    1    2  502    0  0.55318404163E+00 -0.31534046380E+02  0.82063137054E+01  0.32589042304E+02  0.00000000000E+00 0.  1.
</event>
<event>
 4    1  0.8988950E+003  0.3861267E+02  0.7546771E-02  0.1356813E+00
          2   -1    0    0  501    0  0.00000000000E+00  0.00000000000E+00  0.13238296337E+04  0.13238296337E+04  0.00000000000E+00 0.  1.
          2   -1    0    0  502    0 -0.00000000000E+00 -0.00000000000E+00 -0.14486317078E+01  0.14486317078E+01  0.00000000000E+00 0.  1.
          2    1    1    2  501    0  0.17232902575E+02  0.34553802827E+02  0.34858547716E+03  0.35071751184E+03  0.00000000000E+00 0.  1.
          2    1    1    2  502    0 -0.17232902575E+02 -0.34553802827E+02  0.97379552479E+03  0.97456075353E+03  0.00000000000E+00 0.  1.
</event>
<event>
 4    1  0.8988950E+003  0.2036166E+02  0.7546771E-02  0.1528577E+00
          2   -1    0    0  501    0  0.00000000000E+00  0.00000000000E+00  0.21392568286E+03  0.21392568286E+03  0.00000000000E+00 0.  1.
          2   -1    0    0  502    0 -0.00000000000E+00 -0.00000000000E+00 -0.93307149682E+01  0.93307149682E+01  0.00000000000E+00 0.  1.
          2    1    1    2  501    0 -0.19242318304E+01 -0.20270534198E+02  0.29362064036E+01  0.20572275831E+02  0.00000000000E+00 0.  1.
          2    1    1    2  502    0  0.19242318304E+01  0.20270534198E+02  0.20165876149E+03  0.20268412200E+03  0.00000000000E+00 0.  1.
</event>
<event>
 4    1  0.8988950E+003  0.2198864E+02  0.7546771E-02  0.1505604E+00
          2   -1    0    0  501    0  0.00000000000E+00  0.00000000000E+00  0.13098139602E+04  0.13098139602E+04  0.00000000000E+00 0. -1.
          2   -1    0    0  502    0 -0.00000000000E+00 -0.00000000000E+00 -0.67018148267E+00  0.67018148267E+00  0.00000000000E+00 0. -1.
          2    1    1    2  501    0  0.21985437981E+02 -0.37508405019E+00  0.21541344069E+03  0.21653279336E+03  0.00000000000E+00 0. -1.
          2    1    1    2  502    0 -0.21985437981E+02  0.37508405019E+00  0.10937303381E+04  0.10939513484E+04  0.00000000000E+00 0. -1.
</event>
<event>
 4    1  0.8988950E+003  0.2158449E+02  0.7546771E-02  0.1511081E+00
          2   -1    0    0  501    0  0.00000000000E+00  0.00000000000E+00  0.80642368450E+01  0.80642368450E+01  0.00000000000E+00 0. -1.
          2   -1    0    0  502    0 -0.00000000000E+00 -0.00000000000E+00 -0.86833255353E+03  0.86833255353E+03  0.00000000000E+00 0.  1.
          2    1    1    2  501    0 -0.20862474801E+02  0.55360172058E+01 -0.85350443614E+03  0.85377732042E+03  0.00000000000E+00 0.  1.
          2    1    1    2  502    0  0.20862474801E+02 -0.55360172058E+01 -0.67638805455E+01  0.22619469962E+02  0.00000000000E+00 0. -1.
</event>
<event>
 4    1  0.8988950E+003  0.2159599E+02  0.7546771E-02  0.1510923E+00
          2   -1    0    0  501    0  0.00000000000E+00  0.00000000000E+00  0.88752837958E+03  0.88752837958E+03  0.00000000000E+00 0.  1.
          2   -1    0    0  502    0 -0.00000000000E+00 -0.00000000000E+00 -0.23770361314E+01  0.23770361314E+01  0.00000000000E+00 0.  1.
          2    1    1    2  501    0  0.19609784530E+02  0.90467243687E+01  0.49873515252E+02  0.54348453472E+02  0.00000000000E+00 0.  1.
          2    1    1    2  502    0 -0.19609784530E+02 -0.90467243687E+01  0.83527782820E+03  0.83555696224E+03  0.00000000000E+00 0.  1.
</event>
<event>
 4    1  0.8988950E+003  0.2714562E+02  0.7546771E-02  0.1446151E+00
          2   -1    0    0  502    0  0.00000000000E+00  0.00000000000E+00  0.26444803238E+02  0.26444803238E+02  0.00000000000E+00 0. -1.
          2   -1    0    0  501    0 -0.00000000000E+00 -0.00000000000E+00 -0.31822660877E+03  0.31822660877E+03  0.00000000000E+00 0.  1.
          2    1    1    2  501    0  0.25868624546E+02  0.82279337928E+01  0.18726829242E+02  0.32978459089E+02  0.00000000000E+00 0. -1.
          2    1    1    2  502    0 -0.25868624546E+02 -0.82279337928E+01 -0.31050863477E+03  0.31169295292E+03  0.00000000000E+00 0.  1.
</event>
<event>
 4    1  0.8988950E+003  0.2143257E+02  0.7546771E-02  0.1513178E+00
          2   -1    0    0  502    0  0.00000000000E+00  0.00000000000E+00  0.25540100267E+03  0.25540100267E+03  0.00000000000E+00 0. -1.
          2   -1    0    0  501    0 -0.00000000000E+00 -0.00000000000E+00 -0.91791131770E+03  0.91791131770E+03  0.00000000000E+00 0. -1.
          2    1    1    2  501    0  0.19161936251E+02 -0.96008055447E+01  0.25482597080E+03  0.25572569417E+03  0.00000000000E+00 0. -1.
          2    1    1    2  502    0 -0.19161936251E+02  0.96008055447E+01 -0.91733628583E+03  0.91758662619E+03  0.00000000000E+00 0. -1.
</event>
<event>
 4    1  0.8988950E+003  0.2146894E+02  0.7546771E-02  0.1512674E+00
          2   -1    0    0  501    0  0.00000000000E+00  0.00000000000E+00  0.34957630955E+02  0.34957630955E+02  0.00000000000E+00 0.  1.
          2   -1    0    0  502    0 -0.00000000000E+00 -0.00000000000E+00 -0.69834585975E+03  0.69834585975E+03  0.00000000000E+00 0.  1.
          2    1    1    2  501    0 -0.21164147562E+01  0.21364362027E+02 -0.69486812239E+03  0.69519969986E+03  0.00000000000E+00 0.  1.
          2    1    1    2  502    0  0.21164147562E+01 -0.21364362027E+02  0.31479893591E+02  0.38103790845E+02  0.00000000000E+00 0.  1.
</event>
<event>
 4    1  0.8988950E+003  0.3965748E+02  0.7546771E-02  0.1350505E+00
          2   -1    0    0  502    0  0.00000000000E+00  0.00000000000E+00  0.22970817602E+04  0.22970817602E+04  0.00000000000E+00 0. -1.
          2   -1    0    0  501    0 -0.00000000000E+00 -0.00000000000E+00 -0.11611679994E+03  0.11611679994E+03  0.00000000000E+00 0. -1.
          2    1    1    2  501    0 -0.38531683696E+02 -0.93821525897E+01  0.22935192731E+04  0.22938621082E+04  0.00000000000E+00 0. -1.
          2    1    1    2  502    0  0.38531683696E+02  0.93821525897E+01 -0.11255431281E+03  0.11933645196E+03  0.00000000000E+00 0. -1.
</event>
<event>
 4    1  0.8988950E+003  0.2698725E+02  0.7546771E-02  0.1447736E+00
          2   -1    0    0  501    0  0.00000000000E+00  0.00000000000E+00  0.10610142987E+04  0.10610142987E+04  0.00000000000E+00 0. -1.
          2   -1    0    0  502    0 -0.00000000000E+00 -0.00000000000E+00 -0.29765105476E+01  0.29765105476E+01  0.00000000000E+00 0. -1.
          2    1    1    2  501    0  0.26854318088E+02 -0.26753511487E+01  0.62381477071E+02  0.67968820685E+02  0.00000000000E+00 0. -1.
          2    1    1    2  502    0 -0.26854318088E+02  0.26753511487E+01  0.99565631110E+03  0.99602198858E+03  0.00000000000E+00 0. -1.
</event>
<event>
 4    1  0.8988950E+003  0.2114709E+02  0.7546771E-02  0.1517175E+00
          2   -1    0    0  501    0  0.00000000000E+00  0.00000000000E+00  0.40775834089E+02  0.40775834089E+02  0.00000000000E+00 0. -1.
          2   -1    0    0  502    0 -0.00000000000E+00 -0.00000000000E+00 -0.13366814439E+04  0.13366814439E+04  0.00000000000E+00 0. -1.
          2    1    1    2  501    0  0.21146885692E+02 -0.93981008979E-01 -0.13338501668E+04  0.13340177912E+04  0.00000000000E+00 0. -1.
          2    1    1    2  502    0 -0.21146885692E+02  0.93981008979E-01  0.37944557024E+02  0.43439486814E+02  0.00000000000E+00 0. -1.
</event>
<event>
 4    1  0.8988950E+003  0.2092203E+02  0.7546771E-02  0.1520381E+00
          2   -1    0    0  501    0  0.00000000000E+00  0.00000000000E+00  0.10067000532E+01  0.10067000532E+01  0.00000000000E+00 0. -1.
          2   -1    0    0  502    0 -0.00000000000E+00 -0.00000000000E+00 -0.55054604838E+03  0.55054604838E+03  0.00000000000E+00 0.  1.
          2    1    1    2  501    0 -0.10884064686E+02  0.17868083032E+02 -0.40120826221E+03  0.40175340810E+03  0.00000000000E+00 0.  1.
          2    1    1    2  502    0  0.10884064686E+02 -0.17868083032E+02 -0.14833108612E+03  0.14979934033E+03  0.00000000000E+00 0. -1.
</event>
<event>
 4    1  0.8988950E+003  0.2026773E+02  0.7546771E-02  0.1529982E+00
          2   -1    0    0  502    0  0.00000000000E+00  0.00000000000E+00  0.13955965109E+01  0.13955965109E+01  0.00000000000E+00 0. -1.
          2   -1    0    0  501    0 -0.00000000000E+00 -0.00000000000E+00 -0.38191032594E+03  0.38191032594E+03  0.00000000000E+00 0.  1.
          2    1    1    2  501    0 -0.26240634922E+01 -0.20097147839E+02 -0.98485149737E+02  0.10054902177E+03  0.00000000000E+00 0. -1.
          2    1    1    2  502    0  0.26240634922E+01  0.20097147839E+02 -0.28202957969E+03  0.28275690068E+03  0.00000000000E+00 0.  1.
</event>
<event>
 4    1  0.8988950E+003  0.2201986E+02  0.7546771E-02  0.1505187E+00
          2   -1    0    0  502    0  0.00000000000E+00  0.00000000000E+00  0.32022433275E+02  0.32022433275E+02  0.00000000000E+00 0.  1.
          2   -1    0    0  501    0 -0.00000000000E+00 -0.00000000000E+00 -0.60036544803E+02  0.60036544803E+02  0.00000000000E+00 0. -1.
          2    1    1    2  501    0  0.97123057403E+00 -0.21998425556E+02  0.25796929394E+02  0.33916892280E+02  0.00000000000E+00 0.  1.
          2    1    1    2  502    0 -0.97123057403E+00  0.21998425556E+02 -0.53811040922E+02  0.58142085798E+02  0.00000000000E+00 0. -1.
</event>
<event>
 4    1  0.8988950E+003  0.3920818E+02  0.7546771E-02  0.1353189E+00
          2   -1    0    0  502    0  0.00000000000E+00  0.00000000000E+00  0.13334390658E+03  0.13334390658E+03  0.00000000000E+00 0. -1.
          2   -1    0    0  501    0 -0.00000000000E+00 -0.00000000000E+00 -0.42878030595E+02  0.42878030595E+02  0.00000000000E+00 0. -1.
          2    1    1    2  501    0  0.18770337971E+02 -0.34423190756E+02  0.12057312765E+03  0.12678785731E+03  0.00000000000E+00 0. -1.
          2    1    1    2  502    0 -0.18770337971E+02  0.34423190756E+02 -0.30107251666E+02  0.49434079866E+02  0.00000000000E+00 0. -1.
</event>
<event>
 4    1  0.8988950E+003  0.3960270E+02  0.7546771E-02  0.1350830E+00
          2   -1    0    0  502    0  0.00000000000E+00  0.00000000000E+00  0.16541306782E+04  0.16541306782E+04  0.00000000000E+00 0.  1.
          2   -1    0    0  501    0 -0.00000000000E+00 -0.00000000000E+00 -0.23635593352E+03  0.23635593352E+03  0.00000000000E+00 0. -1.
          2    1    1    2  501    0  0.25682674639E+02  0.30145880619E+02  0.16522328229E+04  0.16527073773E+04  0.00000000000E+00 0.  1.
          2    1    1    2  502    0 -0.25682674639E+02 -0.30145880619E+02 -0.23445807820E+03  0.23777923444E+03  0.00000000000E+00 0. -1.
</event>
<event>
 4    1  0.8988950E+003  0.2686281E+02  0.7546771E-02  0.1448991E+00
          2   -1    0    0  502    0  0.00000000000E+00  0.00000000000E+00  0.16226477414E+03  0.16226477414E+03  0.00000000000E+00 0. -1.
          2   -1    0    0  501    0 -0.00000000000E+00 -0.00000000000E+00 -0.61189949658E+01  0.61189949658E+01  0.00000000000E+00 0. -1.
          2    1    1    2  501    0 -0.16342194692E+02  0.21320020276E+02  0.12208096183E+03  0.12500148732E+03  0.00000000000E+00 0. -1.
          2    1    1    2  502    0  0.16342194692E+02 -0.21320020276E+02  0.34064817345E+02  0.43382281782E+02  0.00000000000E+00 0. -1.
</event>
<event>
 4    1  0.8988950E+003  0.2634517E+02  0.7546771E-02  0.1454299E+00
          2   -1    0    0  501    0  0.00000000000E+00  0.00000000000E+00  0.10544773252E+03  0.10544773252E+03  0.00000000000E+00 0. -1.
          2   -1    0    0  502    0 -0.00000000000E+00 -0.00000000000E+00 -0.49852199313E+03  0.49852199313E+03  0.00000000000E+00 0. -1.
          2    1    1    2  501    0  0.49182682825E+01 -0.25882018172E+02 -0.49652177919E+03  0.49722021825E+03  0.00000000000E+00 0. -1.
          2    1    1    2  502    0 -0.49182682825E+01  0.25882018172E+02  0.10344751859E+03  0.10674950740E+03  0.00000000000E+00 0. -1.
</event>
<event>
 4    1  0.8988950E+003  0.2498824E+02  0.7546771E-02  0.1468935E+00
          2   -1    0    0  502    0  0.00000000000E+00  0.00000000000E+00  0.61625884743E+03  0.61625884743E+03  0.00000000000E+00 0. -1.
          2   -1    0    0  501    0 -0.00000000000E+00 -0.00000000000E+00 -0.18566521026E+01  0.18566521026E+01  0.00000000000E+00 0. -1.
          2    1    1    2  501    0 -0.15572798790E+02 -0.19542263323E+02  0.51550470497E+03  0.51610998147E+03  0.00000000000E+00 0. -1.
          2    1    1    2  502    0  0.15572798790E+02  0.19542263323E+02  0.98897490354E+02  0.10200551807E+03  0.00000000000E+00 0. -1.
</event>
<event>
 4    1  0.8988950E+003  0.2754426E+02  0.7546771E-02  0.1442216E+00
          2   -1    0    0  502    0  0.00000000000E+00  0.00000000000E+00  0.16143433222E+02  0.16143433222E+02  0.00000000000E+00 0.  1.
          2   -1    0    0  501    0 -0.00000000000E+00 -0.00000000000E+00 -0.59158264289E+02  0.59158264289E+02  0.00000000000E+00 0.  1.
          2    1    1    2  501    0 -0.95202689859E+01 -0.25846675934E+02 -0.44362217835E+01  0.27899215797E+02  0.00000000000E+00 0.  1.
          2    1    1    2  502    0  0.95202689859E+01  0.25846675934E+02 -0.38578609283E+02  0.47402481714E+02  0.00000000000E+00 0.  1.
</event>
<event>
 4    1  0.8988950E+003  0.2234647E+02  0.7546771E-02  0.1500872E+00
          2   -1    0    0  502    0  0.00000000000E+00  0.00000000000E+00  0.28502087750E+03  0.28502087750E+03  0.00000000000E+00 0. -1.
          2   -1    0    0  501    0 -0.00000000000E+00 -0.00000000000E+00 -0.63403144628E+01  0.63403144628E+01  0.00000000000E+00 0. -1.
          2    1    1    2  501    0 -0.22345461611E+02  0.21254512881E+00  0.26326887693E+03  0.26421556803E+03  0.00000000000E+00 0. -1.
          2    1    1    2  502    0  0.22345461611E+02 -0.21254512881E+00  0.15411686110E+02  0.27145623934E+02  0.00000000000E+00 0. -1.
</event>
<event>
 4    1  0.8988950E+003  0.2572689E+02  0.7546771E-02  0.1460834E+00
          2   -1    0    0  502    0  0.00000000000E+00  0.00000000000E+00  0.14085830726E+02  0.14085830726E+02  0.00000000000E+00 0. -1.
          2   -1    0    0  501    0 -0.00000000000E+00 -0.00000000000E+00 -0.18528500963E+03  0.18528500963E+03  0.00000000000E+00 0. -1.
          2    1    1    2  501    0  0.19467176650E+02 -0.16819686857E+02  0.52298919276E+00  0.25732204538E+02  0.00000000000E+00 0. -1.
          2    1    1    2  502    0 -0.19467176650E+02  0.16819686857E+02 -0.17172216810E+03  0.17363863582E+03  0.00000000000E+00 0. -1.
</event>
<event>
 4    1  0.8988950E+003  0.2027854E+02  0.7546771E-02  0.1529820E+00
          2   -1    0    0  501    0  0.00000000000E+00  0.00000000000E+00  0.11305752772E+02  0.11305752772E+02  0.00000000000E+00 0.  1.
          2   -1    0    0  502    0 -0.00000000000E+00 -0.00000000000E+00 -0.41419347823E+02  0.41419347823E+02  0.00000000000E+00 0. -1.
          2    1    1    2  501    0  0.14381428750E+02 -0.14296626025E+02 -0.24259045556E+02  0.31618353845E+02  0.00000000000E+00 0. -1.
          2    1    1    2  502    0 -0.14381428750E+02  0.14296626025E+02 -0.58545494949E+01  0.21106746750E+02  0.00000000000E+00 0.  1.
</event>
<event>
 4    1  0.8988950E+003  0.2148810E+02  0.7546771E-02  0.1512409E+00
          2   -1    0    0  502    0  0.00000000000E+00  0.00000000000E+00  0.25990801991E+03  0.25990801991E+03  0.00000000000E+00 0. -1.
          2   -1    0    0  501    0 -0.00000000000E+00 -0.00000000000E+00 -0.43323454614E+01  0.43323454614E+01  0.00000000000E+00 0. -1.
          2    1    1    2  501    0  0.18215934385E+02 -0.11398160394E+02  0.22926564742E+03  0.23027043973E+03  0.00000000000E+00 0. -1.
          2    1    1    2  502    0 -0.18215934385E+02  0.11398160394E+02  0.26310027026E+02  0.33969925641E+02  0.00000000000E+00 0. -1.
</event>
<event>
 4    1  0.8988950E+003  0.2193441E+02  0.7546771E-02  0.1506330E+00
          2   -1    0    0  501    0  0.00000000000E+00  0.00000000000E+00  0.13358992978E+03  0.13358992978E+03  0.00000000000E+00 0. -1.
          2   -1    0    0  502    0 -0.00000000000E+00 -0.00000000000E+00 -0.14000593752E+04  0.14000593752E+04  0.00000000000E+00 0. -1.
          2    1    1    2  501    0 -0.20503494869E+02  0.77926384861E+01 -0.13990724652E+04  0.13992443966E+04  0.00000000000E+00 0. -1.
          2    1    1    2  502    0  0.20503494869E+02 -0.77926384861E+01  0.13260301983E+03  0.13440490833E+03  0.00000000000E+00 0. -1.
</event>
<event>
 4    1  0.8988950E+003  0.2703022E+02  0.7546771E-02  0.1447305E+00
          2   -1    0    0  502    0  0.00000000000E+00  0.00000000000E+00  0.79141609640E+03  0.79141609640E+03  0.00000000000E+00 0.  1.
          2   -1    0    0  501    0 -0.00000000000E+00 -0.00000000000E+00 -0.35833667166E+01  0.35833667166E+01  0.00000000000E+00 0.  1.
          2    1    1    2  501    0 -0.19588201859E+02  0.18626199855E+02  0.73640477837E+03  0.73690069248E+03  0.00000000000E+00 0.  1.
          2    1    1    2  502    0  0.19588201859E+02 -0.18626199855E+02  0.51427951320E+02  0.58098770642E+02  0.00000000000E+00 0.  1.
</event>
<event>
 4    1  0.8988950E+003  0.2421375E+02  0.7546771E-02  0.1477795E+00
          2   -1    0    0  501    0  0.00000000000E+00  0.00000000000E+00  0.70435149071E+01  0.70435149071E+01  0.00000000000E+00 0.  1.
          2   -1    0    0  502    0 -0.00000000000E+00 -0.00000000000E+00 -0.37624682885E+03  0.37624682885E+03  0.00000000000E+00 0. -1.
          2    1    1    2  501    0  0.24181991819E+02  0.12397773959E+01 -0.35372359675E+03  0.35455139073E+03  0.00000000000E+00 0. -1.
          2    1    1    2  502    0 -0.24181991819E+02 -0.12397773959E+01 -0.15479717195E+02  0.28738953021E+02  0.00000000000E+00 0.  1.
</event>
<event>
 4    1  0.8988950E+003  0.4731770E+02  0.7546771E-02  0.1310240E+00
          2   -1    0    0  502    0  0.00000000000E+00  0.00000000000E+00  0.22251106674E+03  0.22251106674E+03  0.00000000000E+00 0.  1.
          2   -1    0    0  501    0 -0.00000000000E+00 -0.00000000000E+00 -0.11231886331E+02  0.11231886331E+02  0.00000000000E+00 0. -1.
          2    1    1    2  501    0  0.22869464278E+02 -0.41424054894E+02  0.14335382675E+03  0.15096120152E+03  0.00000000000E+00 0. -1.
          2    1    1    2  502    0 -0.22869464278E+02  0.41424054894E+02  0.67925353658E+02  0.82781751551E+02  0.00000000000E+00 0.  1.
</event>
<event>
 4    1  0.8988950E+003  0.4703391E+02  0.7546771E-02  0.1311571E+00
          2   -1    0    0  502    0  0.00000000000E+00  0.00000000000E+00  0.24869917934E+02  0.24869917934E+02  0.00000000000E+00 0.  1.
          2   -1    0    0  501    0 -0.00000000000E+00 -0.00000000000E+00 -0.95574850561E+03  0.95574850561E+03  0.00000000000E+00 0. -1.
          2    1    1    2  501    0 -0.17170332737E+02 -0.43787769301E+02  0.14965533231E+01  0.47057717098E+02  0.00000000000E+00 0.  1.
          2    1    1    2  502    0  0.17170332737E+02  0.43787769301E+02 -0.93237514100E+03  0.93356070644E+03  0.00000000000E+00 0. -1.
</event>
<event>
 4    1  0.8988950E+003  0.2155566E+02  0.7546771E-02  0.1511477E+00
          2   -1    0    0  502    0  0.00000000000E+00  0.00000000000E+00  0.12759240482E+02  0.12759240482E+02  0.00000000000E+00 0.  1.
          2   -1    0    0  501    0 -0.00000000000E+00 -0.00000000000E+00 -0.17085316119E+03  0.17085316119E+03  0.00000000000E+00 0. -1.
          2    1    1    2  501    0  0.13504422739E+02  0.16801104867E+02  0.23895970141E+01  0.21687709241E+02  0.00000000000E+00 0.  1.
          2    1    1    2  502    0 -0.13504422739E+02 -0.16801104867E+02 -0.16048351772E+03  0.16192469243E+03  0.00000000000E+00 0. -1.
</event>
<event>
 4    1  0.8988950E+003  0.2891751E+02  0.7546771E-02  0.1429242E+00
          2   -1    0    0  502    0  0.00000000000E+00  0.00000000000E+00  0.18998483666E+04  0.18998483666E+04  0.00000000000E+00 0.  1.
          2   -1    0    0  501    0 -0.00000000000E+00 -0.00000000000E+00 -0.44395666435E+01  0.44395666435E+01  0.00000000000E+00 0. -1.
          2    1    1    2  501    0  0.27923142778E+02 -0.75180098892E+01  0.18514174154E+04  0.18516432346E+04  0.00000000000E+00 0.  1.
          2    1    1    2  502    0 -0.27923142778E+02  0.75180098892E+01  0.43991384580E+02  0.52644698618E+02  0.00000000000E+00 0. -1.
</event>
<event>
 4    1  0.8988950E+003  0.2291922E+02  0.7546771E-02  0.1493515E+00
          2   -1    0    0  501    0  0.00000000000E+00  0.00000000000E+00  0.65985688871E+03  0.65985688871E+03  0.00000000000E+00 0. -1.
          2   -1    0    0  502    0 -0.00000000000E+00 -0.00000000000E+00 -0.83427967851E+00  0.83427967851E+00  0.00000000000E+00 0. -1.
          2    1    1    2  501    0  0.10030422477E+01  0.22897264068E+02  0.40021011274E+03  0.40086584431E+03  0.00000000000E+00 0. -1.
          2    1    1    2  502    0 -0.10030422477E+01 -0.22897264068E+02  0.25881249629E+03  0.25982532408E+03  0.00000000000E+00 0. -1.
</event>
<event>
 4    1  0.8988950E+003  0.2576670E+02  0.7546771E-02  0.1460406E+00
          2   -1    0    0  501    0  0.00000000000E+00  0.00000000000E+00  0.52228768447E+02  0.52228768447E+02  0.00000000000E+00 0. -1.
          2   -1    0    0  502    0 -0.00000000000E+00 -0.00000000000E+00 -0.10640750934E+03  0.10640750934E+03  0.00000000000E+00 0.  1.
          2    1    1    2  501    0 -0.49994450825E+01 -0.25277028552E+02 -0.10151905621E+03  0.10473796540E+03  0.00000000000E+00 0.  1.
          2    1    1    2  502    0  0.49994450825E+01  0.25277028552E+02  0.47340315316E+02  0.53898312383E+02  0.00000000000E+00 0. -1.
</event>
<event>
 4    1  0.8988950E+003  0.2841203E+02  0.7546771E-02  0.1433917E+00
          2   -1    0    0  501    0  0.00000000000E+00  0.00000000000E+00  0.47629980244E+02  0.47629980244E+02  0.00000000000E+00 0.  1.
          2   -1    0    0  502    0 -0.00000000000E+00 -0.00000000000E+00 -0.23480837160E+03  0.23480837160E+03  0.00000000000E+00 0. -1.
          2    1    1    2  501    0 -0.27841837506E+02  0.56635109663E+01 -0.22961640476E+03  0.23136753577E+03  0.00000000000E+00 0. -1.
          2    1    1    2  502    0  0.27841837506E+02 -0.56635109663E+01  0.42438013409E+02  0.51070816072E+02  0.00000000000E+00 0.  1.
</event>
<event>
 4    1  0.8988950E+003  0.2793967E+02  0.7546771E-02  0.1438391E+00
          2   -1    0    0  501    0  0.00000000000E+00  0.00000000000E+00  0.15000718608E+04  0.15000718608E+04  0.00000000000E+00 0. -1.
          2   -1    0    0  502    0 -0.00000000000E+00 -0.00000000000E+00 -0.78870833548E+02  0.78870833548E+02  0.00000000000E+00 0. -1.
          2    1    1    2  501    0 -0.27912186667E+02  0.12388901419E+01 -0.76262047307E+02  0.81218993300E+02  0.00000000000E+00 0. -1.
          2    1    1    2  502    0  0.27912186667E+02 -0.12388901419E+01  0.14974630745E+04  0.14977237010E+04  0.00000000000E+00 0. -1.
</event>
<event>
 4    1  0.8988950E+003  0.2313656E+02  0.7546771E-02  0.1490790E+00
          2   -1    0    0  501    0  0.00000000000E+00  0.00000000000E+00  0.86862544431E+02  0.86862544431E+02  0.00000000000E+00 0. -1.
          2   -1    0    0  502    0 -0.00000000000E+00 -0.00000000000E+00 -0.37973976903E+02  0.37973976903E+02  0.00000000000E+00 0. -1.
          2    1    1    2  501    0  0.22042962640E+02 -0.70291063144E+01 -0.32685126839E+02  0.40045200137E+02  0.00000000000E+00 0. -1.
          2    1    1    2  502    0 -0.22042962640E+02  0.70291063144E+01  0.81573694367E+02  0.84791321197E+02  0.00000000000E+00 0. -1.
</event>
<event>
 4    1  0.8988950E+003  0.2976380E+02  0.7546771E-02  0.1421660E+00
          2   -1    0    0  501    0  0.00000000000E+00  0.00000000000E+00  0.74750757556E+01  0.74750757556E+01  0.00000000000E+00 0. -1.
          2   -1    0    0  502    0 -0.00000000000E+00 -0.00000000000E+00 -0.17289417525E+04  0.17289417525E+04  0.00000000000E+00 0.  1.
          2    1    1    2  501    0  0.21486512691E+02  0.20596448363E+02 -0.16986575567E+04  0.16989182967E+04  0.00000000000E+00 0.  1.
          2    1    1    2  502    0 -0.21486512691E+02 -0.20596448363E+02 -0.22809120072E+02  0.37498531588E+02  0.00000000000E+00 0. -1.
</event>
<event>
 4    1  0.8988950E+003  0.2807198E+02  0.7546771E-02  0.1437127E+00
          2   -1    0    0  502    0  0.00000000000E+00  0.00000000000E+00  0.64784574416E+02  0.64784574416E+02  0.00000000000E+00 0. -1.
          2   -1    0    0  501    0 -0.00000000000E+00 -0.00000000000E+00 -0.17714343633E+03  0.17714343633E+03  0.00000000000E+00 0.  1.
          2    1    1    2  501    0  0.32553184380E+01  0.27882595351E+02  0.60557588822E+02  0.66747717456E+02  0.00000000000E+00 0. -1.
          2    1    1    2  502    0 -0.32553184380E+01 -0.27882595351E+02 -0.17291645074E+03  0.17518029329E+03  0.00000000000E+00 0.  1.
</event>
<event>
 4    1  0.8988950E+003  0.2141564E+02  0.7546771E-02  0.1513413E+00
          2   -1    0    0  501    0  0.00000000000E+00  0.00000000000E+00  0.14948939215E+02  0.14948939215E+02  0.00000000000E+00 0. -1.
          2   -1    0    0  502    0 -0.00000000000E+00 -0.00000000000E+00 -0.16957240135E+03  0.16957240135E+03  0.00000000000E+00 0. -1.
          2    1    1    2  501    0 -0.13428837358E+02  0.16682206504E+02 -0.16081022799E+03  0.16222995751E+03  0.00000000000E+00 0. -1.
          2    1    1    2  502    0  0.13428837358E+02 -0.16682206504E+02  0.61867658598E+01  0.22291383054E+02  0.00000000000E+00 0. -1.
</event>
<event>
 4    1  0.8988950E+003  0.2030646E+02  0.7546771E-02  0.1529401E+00
          2   -1    0    0  501    0  0.00000000000E+00  0.00000000000E+00  0.10637758139E+04  0.10637758139E+04  0.00000000000E+00 0.  1.
          2   -1    0    0  502    0 -0.00000000000E+00 -0.00000000000E+00 -0.43021239842E+02  0.43021239842E+02  0.00000000000E+00 0. -1.
          2    1    1    2  501    0  0.14201190122E+02  0.14514765635E+02 -0.40522477786E+02  0.45325747962E+02  0.00000000000E+00 0. -1.
          2    1    1    2  502    0 -0.14201190122E+02 -0.14514765635E+02  0.10612770518E+04  0.10614713058E+04  0.00000000000E+00 0.  1.
</event>
<event>
 4    1  0.8988950E+003  0.4632328E+02  0.7546771E-02  0.1314952E+00
          2   -1    0    0  501    0  0.00000000000E+00  0.00000000000E+00  0.19909187382E+03  0.19909187382E+03  0.00000000000E+00 0.  1.
          2   -1    0    0  502    0 -0.00000000000E+00 -0.00000000000E+00 -0.16632204209E+04  0.16632204209E+04  0.00000000000E+00 0.  1.
          2    1    1    2  501    0 -0.11641772139E+02  0.44836539264E+02 -0.16601984307E+04  0.16608445669E+04  0.00000000000E+00 0.  1.
          2    1    1    2  502    0  0.11641772139E+02 -0.44836539264E+02  0.19606988359E+03  0.20146772785E+03  0.00000000000E+00 0.  1.
</event>
<event>
 4    1  0.8988950E+003  0.2557611E+02  0.7546771E-02  0.1462461E+00
          2   -1    0    0  502    0  0.00000000000E+00  0.00000000000E+00  0.73903715899E+03  0.73903715899E+03  0.00000000000E+00 0.  1.
          2   -1    0    0  501    0 -0.00000000000E+00 -0.00000000000E+00 -0.42656819517E+02  0.42656819517E+02  0.00000000000E+00 0. -1.
          2    1    1    2  501    0  0.12302608189E+02 -0.22422823442E+02  0.73496090273E+03  0.73540578303E+03  0.00000000000E+00 0.  1.
          2    1    1    2  502    0 -0.12302608189E+02  0.22422823442E+02 -0.38580563254E+02  0.46288195475E+02  0.00000000000E+00 0. -1.
</event>
<event>
 4    1  0.8988950E+003  0.2028463E+02  0.7546771E-02  0.1529728E+00
          2   -1    0    0  502    0  0.00000000000E+00  0.00000000000E+00  0.11749499711E+02  0.11749499711E+02  0.00000000000E+00 0. -1.
          2   -1    0    0  501    0 -0.00000000000E+00 -0.00000000000E+00 -0.11389127734E+03  0.11389127734E+03  0.00000000000E+00 0.  1.
          2    1    1    2  501    0 -0.14513213177E+02  0.14171553833E+02  0.12066461371E+01  0.20320489405E+02  0.00000000000E+00 0. -1.
          2    1    1    2  502    0  0.14513213177E+02 -0.14171553833E+02 -0.10334842376E+03  0.10532028764E+03  0.00000000000E+00 0.  1.
</event>
<event>
 4    1  0.8988950E+003  0.2022610E+02  0.7546771E-02  0.1530607E+00
          2   -1    0    0  501    0  0.00000000000E+00  0.00000000000E+00  0.41171509283E+02  0.41171509283E+02  0.00000000000E+00 0.  1.
          2   -1    0    0  502    0 -0.00000000000E+00 -0.00000000000E+00 -0.26783565210E+03  0.26783565210E+03  0.00000000000E+00 0.  1.
          2    1    1    2  501    0  0.18356043199E+02  0.84941618142E+01 -0.26494262282E+03  0.26571354593E+03  0.00000000000E+00 0.  1.
          2    1    1    2  502    0 -0.18356043199E+02 -0.84941618142E+01  0.38278480005E+02  0.43293615445E+02  0.00000000000E+00 0.  1.
</event>
<event>
 4    1  0.8988950E+003  0.2709393E+02  0.7546771E-02  0.1446667E+00
          2   -1    0    0  502    0  0.00000000000E+00  0.00000000000E+00  0.38122389895E+03  0.38122389895E+03  0.00000000000E+00 0. -1.
          2   -1    0    0  501    0 -0.00000000000E+00 -0.00000000000E+00 -0.50527826761E+03  0.50527826761E+03  0.00000000000E+00 0.  1.
          2    1    1    2  501    0 -0.12359802715E+02  0.24110501115E+02  0.38037848889E+03  0.38134220301E+03  0.00000000000E+00 0. -1.
          2    1    1    2  502    0  0.12359802715E+02 -0.24110501115E+02 -0.50443285756E+03  0.50515996355E+03  0.00000000000E+00 0.  1.
</event>
<event>
 4    1  0.8988950E+003  0.2310139E+02  0.7546771E-02  0.1491229E+00
          2   -1    0    0  501    0  0.00000000000E+00  0.00000000000E+00  0.32404335580E+02  0.32404335580E+02  0.00000000000E+00 0. -1.
          2   -1    0    0  502    0 -0.00000000000E+00 -0.00000000000E+00 -0.17882604768E+03  0.17882604768E+03  0.00000000000E+00 0. -1.
          2    1    1    2  501    0  0.22040004514E+02  0.69218926821E+01 -0.17384521161E+03  0.17537340733E+03  0.00000000000E+00 0. -1.
          2    1    1    2  502    0 -0.22040004514E+02 -0.69218926821E+01  0.27423499514E+02  0.35856975931E+02  0.00000000000E+00 0. -1.
</event>
<event>
 4    1  0.8988950E+003  0.2492020E+02  0.7546771E-02  0.1469698E+00
          2   -1    0    0  501    0  0.00000000000E+00  0.00000000000E+00  0.36353324073E+00  0.36353324073E+00  0.00000000000E+00 0.  1.
          2   -1    0    0  502    0 -0.00000000000E+00 -0.00000000000E+00 -0.19914541370E+04  0.19914541370E+04  0.00000000000E+00 0.  1.
          2    1    1    2  501    0 -0.23884336190E+02 -0.71101807151E+01 -0.62000026756E+03  0.62050088474E+03  0.00000000000E+00 0.  1.
          2    1    1    2  502    0  0.23884336190E+02  0.71101807151E+01 -0.13710903362E+04  0.13713167855E+04  0.00000000000E+00 0.  1.
</event>
<event>
 4    1  0.8988950E+003  0.2193217E+02  0.7546771E-02  0.1506361E+00
          2   -1    0    0  502    0  0.00000000000E+00  0.00000000000E+00  0.37103393885E+01  0.37103393885E+01  0.00000000000E+00 0.  1.
          2   -1    0    0  501    0 -0.00000000000E+00 -0.00000000000E+00 -0.79963316350E+03  0.79963316350E+03  0.00000000000E+00 0.  1.
          2    1    1    2  501    0  0.91789017566E+01 -0.19919037077E+02 -0.30289850708E+02  0.37396461482E+02  0.00000000000E+00 0.  1.
          2    1    1    2  502    0 -0.91789017566E+01  0.19919037077E+02 -0.76563297341E+03  0.76594704141E+03  0.00000000000E+00 0.  1.
</event>
<event>
 4    1  0.8988950E+003  0.2052386E+02  0.7546771E-02  0.1526173E+00
          2   -1    0    0  502    0  0.00000000000E+00  0.00000000000E+00  0.10884542587E+01  0.10884542587E+01  0.00000000000E+00 0.  1.
          2   -1    0    0  501    0 -0.00000000000E+00 -0.00000000000E+00 -0.15988853388E+04  0.15988853388E+04  0.00000000000E+00 0. -1.
          2    1    1    2  501    0 -0.13177559910E+02 -0.15734695055E+02 -0.10242351467E+03  0.10445958583E+03  0.00000000000E+00 0.  1.
          2    1    1    2  502    0  0.13177559910E+02  0.15734695055E+02 -0.14953733699E+04  0.14955142073E+04  0.00000000000E+00 0. -1.
</event>
<event>
 4    1  0.8988950E+003  0.2371441E+02  0.7546771E-02  0.1483717E+00
          2   -1    0    0  502    0  0.00000000000E+00  0.00000000000E+00  0.24245335380E+04  0.24245335380E+04  0.00000000000E+00 0. -1.
          2   -1    0    0  501    0 -0.00000000000E+00 -0.00000000000E+00 -0.26678540956E+00  0.26678540956E+00  0.00000000000E+00 0.  1.
          2    1    1    2  501    0  0.22729309493E+02 -0.67639908919E+01  0.16502289925E+04  0.16503993762E+04  0.00000000000E+00 0. -1.
          2    1    1    2  502    0 -0.22729309493E+02  0.67639908919E+01  0.77403776009E+03  0.77440094726E+03  0.00000000000E+00 0.  1.
</event>
<event>
 4    1  0.8988950E+003  0.2167273E+02  0.7546771E-02  0.1509873E+00
          2   -1    0    0  502    0  0.00000000000E+00  0.00000000000E+00  0.26029191159E+03  0.26029191159E+03  0.00000000000E+00 0.  1.
          2   -1    0    0  501    0 -0.00000000000E+00 -0.00000000000E+00 -0.52420933026E+01  0.52420933026E+01  0.00000000000E+00 0. -1.
          2    1    1    2  501    0  0.20707201462E+02 -0.63967885210E+01  0.23503828889E+03  0.23603538790E+03  0.00000000000E+00 0.  1.
          2    1    1    2  502    0 -0.20707201462E+02  0.63967885210E+01  0.20011529397E+02  0.29498616995E+02  0.00000000000E+00 0. -1.
</event>
<event>
 4    1  0.8988950E+003  0.3064104E+02  0.7546771E-02  0.1414106E+00
          2   -1    0    0  502    0  0.00000000000E+00  0.00000000000E+00  0.16199155532E+03  0.16199155532E+03  0.00000000000E+00 0.  1.
          2   -1    0    0  501    0 -0.00000000000E+00 -0.00000000000E+00 -0.24304652418E+03  0.24304652418E+03  0.00000000000E+00 0. -1.
          2    1    1    2  501    0  0.14054853890E+02 -0.27227457096E+02  0.15956229728E+03  0.16247769093E+03  0.00000000000E+00 0.  1.
          2    1    1    2  502    0 -0.14054853890E+02  0.27227457096E+02 -0.24061726614E+03  0.24256038857E+03  0.00000000000E+00 0. -1.
</event>
<event>
 4    1  0.8988950E+003  0.2310338E+02  0.7546771E-02  0.1491204E+00
          2   -1    0    0  501    0  0.00000000000E+00  0.00000000000E+00  0.23272615522E+03  0.23272615522E+03  0.00000000000E+00 0.  1.
          2   -1    0    0  502    0 -0.00000000000E+00 -0.00000000000E+00 -0.14559308244E+04  0.14559308244E+04  0.00000000000E+00 0.  1.
          2    1    1    2  501    0  0.52230158926E+01  0.22505249486E+02 -0.14552655241E+04  0.14554489039E+04  0.00000000000E+00 0.  1.
          2    1    1    2  502    0 -0.52230158926E+01 -0.22505249486E+02  0.23206085498E+03  0.23320807568E+03  0.00000000000E+00 0.  1.
</event>
<event>
 4    1  0.8988950E+003  0.3096665E+02  0.7546771E-02  0.1411378E+00
          2   -1    0    0  502    0  0.00000000000E+00  0.00000000000E+00  0.48696939182E+02  0.48696939182E+02  0.00000000000E+00 0. -1.
          2   -1    0    0  501    0 -0.00000000000E+00 -0.00000000000E+00 -0.22122732282E+02  0.22122732282E+02  0.00000000000E+00 0. -1.
          2    1    1    2  501    0 -0.27516234777E+02 -0.14205287009E+02  0.25024871298E+02  0.39814288123E+02  0.00000000000E+00 0. -1.
          2    1    1    2  502    0  0.27516234777E+02  0.14205287009E+02  0.15493356027E+01  0.31005383341E+02  0.00000000000E+00 0. -1.
</event>
<event>
 4    1  0.8988950E+003  0.4068770E+02  0.7546771E-02  0.1344502E+00
          2   -1    0    0  502    0  0.00000000000E+00  0.00000000000E+00  0.10992361244E+03  0.10992361244E+03  0.00000000000E+00 0. -1.
          2   -1    0    0  501    0 -0.00000000000E+00 -0.00000000000E+00 -0.20634011873E+02  0.20634011873E+02  0.00000000000E+00 0. -1.
          2    1    1    2  501    0 -0.36055649249E+02 -0.18854157308E+02  0.78572182779E+02  0.88482071615E+02  0.00000000000E+00 0. -1.
          2    1    1    2  502    0  0.36055649249E+02  0.18854157308E+02  0.10717417784E+02  0.42075552694E+02  0.00000000000E+00 0. -1.
</event>
<event>
 4    1  0.8988950E+003  0.2008820E+02  0.7546771E-02  0.1532692E+00
          2   -1    0    0  501    0  0.00000000000E+00  0.00000000000E+00  0.61362573005E+03  0.61362573005E+03  0.00000000000E+00 0. -1.
          2   -1    0    0  502    0 -0.00000000000E+00 -0.00000000000E+00 -0.17855672282E+01  0.17855672282E+01  0.00000000000E+00 0. -1.
          2    1    1    2  501    0  0.16577293383E+02 -0.11345883468E+02  0.61357077466E+02  0.64561805139E+02  0.00000000000E+00 0. -1.
          2    1    1    2  502    0 -0.16577293383E+02  0.11345883468E+02  0.55048308535E+03  0.55084949214E+03  0.00000000000E+00 0. -1.
</event>
<event>
 4    1  0.8988950E+003  0.2808406E+02  0.7546771E-02  0.1437012E+00
          2   -1    0    0  502    0  0.00000000000E+00  0.00000000000E+00  0.46089713673E+01  0.46089713673E+01  0.00000000000E+00 0. -1.
          2   -1    0    0  501    0 -0.00000000000E+00 -0.00000000000E+00 -0.78847701801E+03  0.78847701801E+03  0.00000000000E+00 0. -1.
          2    1    1    2  501    0 -0.19131887269E+02 -0.20559306234E+02 -0.41051371645E+02  0.49738609723E+02  0.00000000000E+00 0. -1.
          2    1    1    2  502    0  0.19131887269E+02  0.20559306234E+02 -0.74281667499E+03  0.74334737965E+03  0.00000000000E+00 0. -1.
</event>
<event>
 4    1  0.8988950E+003  0.3944581E+02  0.7546771E-02  0.1351764E+00
          2   -1    0    0  501    0  0.00000000000E+00  0.00000000000E+00  0.59452149627E+03  0.59452149627E+03  0.00000000000E+00 0.  1.
          2   -1    0    0  502    0 -0.00000000000E+00 -0.00000000000E+00 -0.21053608808E+03  0.21053608808E+03  0.00000000000E+00 0. -1.
          2    1    1    2  501    0 -0.62575138689E+01  0.38946311175E+02 -0.20802633765E+03  0.21173315468E+03  0.00000000000E+00 0. -1.
          2    1    1    2  502    0  0.62575138689E+01 -0.38946311175E+02  0.59201174584E+03  0.59332442968E+03  0.00000000000E+00 0.  1.
</event>
<event>
 4    1  0.8988950E+003  0.2822197E+02  0.7546771E-02  0.1435705E+00
          2   -1    0    0  501    0  0.00000000000E+00  0.00000000000E+00  0.51332309543E+02  0.51332309543E+02  0.00000000000E+00 0. -1.
          2   -1    0    0  502    0 -0.00000000000E+00 -0.00000000000E+00 -0.36288359658E+02  0.36288359658E+02  0.00000000000E+00 0.  1.
          2    1    1    2  501    0 -0.26486884889E+02  0.97429311302E+01 -0.25624264066E+02  0.38119321703E+02  0.00000000000E+00 0.  1.
          2    1    1    2  502    0  0.26486884889E+02 -0.97429311302E+01  0.40668213951E+02  0.49501347498E+02  0.00000000000E+00 0. -1.
</event>
<event>
 4    1  0.8988950E+003  0.4273292E+02  0.7546771E-02  0.1333175E+00
          2   -1    0    0  502    0  0.00000000000E+00  0.00000000000E+00  0.32963339759E+03  0.32963339759E+03  0.00000000000E+00 0. -1.
          2   -1    0    0  501    0 -0.00000000000E+00 -0.00000000000E+00 -0.37378036006E+03  0.37378036006E+03  0.00000000000E+00 0.  1.
          2    1    1    2  501    0 -0.56721451760E+01 -0.42354796876E+02  0.32701734535E+03  0.32979758369E+03  0.00000000000E+00 0. -1.
          2    1    1    2  502    0  0.56721451760E+01  0.42354796876E+02 -0.37116430781E+03  0.37361617396E+03  0.00000000000E+00 0.  1.
</event>
<event>
 4    1  0.8988950E+003  0.3366296E+02  0.7546771E-02  0.1390215E+00
          2   -1    0    0  502    0  0.00000000000E+00  0.00000000000E+00  0.81901182768E+03  0.81901182768E+03  0.00000000000E+00 0.  1.
          2   -1    0    0  501    0 -0.00000000000E+00 -0.00000000000E+00 -0.17652132787E+02  0.17652132787E+02  0.00000000000E+00 0. -1.
          2    1    1    2  501    0 -0.22795010420E+02 -0.24770600395E+02  0.80228243081E+03  0.80298835230E+03  0.00000000000E+00 0.  1.
          2    1    1    2  502    0  0.22795010420E+02  0.24770600395E+02 -0.92273591504E+00  0.33675608169E+02  0.00000000000E+00 0. -1.
</event>
<event>
 4    1  0.8988950E+003  0.2175818E+02  0.7546771E-02  0.1508710E+00
          2   -1    0    0  502    0  0.00000000000E+00  0.00000000000E+00  0.21768387363E+01  0.21768387363E+01  0.00000000000E+00 0. -1.
          2   -1    0    0  501    0 -0.00000000000E+00 -0.00000000000E+00 -0.37385325473E+03  0.37385325473E+03  0.00000000000E+00 0. -1.
          2    1    1    2  501    0 -0.13653736815E+02  0.16940889822E+02 -0.64240986373E+02  0.67825678081E+02  0.00000000000E+00 0. -1.
          2    1    1    2  502    0  0.13653736815E+02 -0.16940889822E+02 -0.30743542962E+03  0.30820441538E+03  0.00000000000E+00 0. -1.
</event>
<event>
 4    1  0.8988950E+003  0.4774623E+02  0.7546771E-02  0.1308251E+00
          2   -1    0    0  502    0  0.00000000000E+00  0.00000000000E+00  0.33489562070E+03  0.33489562070E+03  0.00000000000E+00 0. -1.
          2   -1    0    0  501    0 -0.00000000000E+00 -0.00000000000E+00 -0.10178616775E+03  0.10178616775E+03  0.00000000000E+00 0.  1.
          2    1    1    2  501    0 -0.29721187302E+02 -0.37367817036E+02  0.32746824509E+03  0.33093073938E+03  0.00000000000E+00 0. -1.
          2    1    1    2  502    0  0.29721187302E+02  0.37367817036E+02 -0.94358792139E+02  0.10575104907E+03  0.00000000000E+00 0.  1.
</event>
<event>
 4    1  0.8988950E+003  0.3193665E+02  0.7546771E-02  0.1403481E+00
          2   -1    0    0  502    0  0.00000000000E+00  0.00000000000E+00  0.62377603819E+01  0.62377603819E+01  0.00000000000E+00 0.  1.
          2   -1    0    0  501    0 -0.00000000000E+00 -0.00000000000E+00 -0.20846273517E+03  0.20846273517E+03  0.00000000000E+00 0.  1.
          2    1    1    2  501    0 -0.31925021584E+02 -0.86164090874E+00 -0.51263464272E+02  0.60397783050E+02  0.00000000000E+00 0.  1.
          2    1    1    2  502    0  0.31925021584E+02  0.86164090874E+00 -0.15096151052E+03  0.15430271250E+03  0.00000000000E+00 0.  1.
</event>
<event>
 4    1  0.8988950E+003  0.3562425E+02  0.7546771E-02  0.1376227E+00
          2   -1    0    0  501    0  0.00000000000E+00  0.00000000000E+00  0.10599560147E+01  0.10599560147E+01  0.00000000000E+00 0. -1.
          2   -1    0    0  502    0 -0.00000000000E+00 -0.00000000000E+00 -0.12032301328E+04  0.12032301328E+04  0.00000000000E+00 0. -1.
          2    1    1    2  501    0  0.35568719671E+02 -0.19883115472E+01 -0.55881876025E+03  0.55995311769E+03  0.00000000000E+00 0. -1.
          2    1    1    2  502    0 -0.35568719671E+02  0.19883115472E+01 -0.64335141649E+03  0.64433697108E+03  0.00000000000E+00 0. -1.
</event>
<event>
 4    1  0.8988950E+003  0.2715291E+02  0.7546771E-02  0.1446078E+00
          2   -1    0    0  501    0  0.00000000000E+00  0.00000000000E+00  0.21608329538E+03  0.21608329538E+03  0.00000000000E+00 0. -1.
          2   -1    0    0  502    0 -0.00000000000E+00 -0.00000000000E+00 -0.33415451646E+02  0.33415451646E+02  0.00000000000E+00 0. -1.
          2    1    1    2  501    0  0.59010217296E+01  0.26503935706E+02 -0.26874975383E+02  0.38203991509E+02  0.00000000000E+00 0. -1.
          2    1    1    2  502    0 -0.59010217296E+01 -0.26503935706E+02  0.20954281912E+03  0.21129475552E+03  0.00000000000E+00 0. -1.
</event>
<event>
 4    1  0.8988950E+003  0.2150120E+02  0.7546771E-02  0.1512228E+00
          2   -1    0    0  501    0  0.00000000000E+00  0.00000000000E+00  0.99578869984E+02  0.99578869984E+02  0.00000000000E+00 0.  1.
          2   -1    0    0  502    0 -0.00000000000E+00 -0.00000000000E+00 -0.10917072036E+02  0.10917072036E+02  0.00000000000E+00 0. -1.
          2    1    1    2  501    0 -0.18021023523E+02 -0.11727925519E+02  0.24464314562E+01  0.21639929590E+02  0.00000000000E+00 0. -1.
          2    1    1    2  502    0  0.18021023523E+02  0.11727925519E+02  0.86215366492E+02  0.88856012431E+02  0.00000000000E+00 0.  1.
</event>
<event>
 4    1  0.8988950E+003  0.2283439E+02  0.7546771E-02  0.1494588E+00
          2   -1    0    0  501    0  0.00000000000E+00  0.00000000000E+00  0.28936068834E+01  0.28936068834E+01  0.00000000000E+00 0.  1.
          2   -1    0    0  502    0 -0.00000000000E+00 -0.00000000000E+00 -0.13600353703E+04  0.13600353703E+04  0.00000000000E+00 0.  1.
          2    1    1    2  501    0  0.12482324945E+02  0.19120699590E+02 -0.13132876945E+04  0.13134861926E+04  0.00000000000E+00 0.  1.
          2    1    1    2  502    0 -0.12482324945E+02 -0.19120699590E+02 -0.43854068975E+02  0.49442784655E+02  0.00000000000E+00 0.  1.
</event>
<event>
 4    1  0.8988950E+003  0.2221896E+02  0.7546771E-02  0.1502546E+00
          2   -1    0    0  501    0  0.00000000000E+00  0.00000000000E+00  0.11431854403E+04  0.11431854403E+04  0.00000000000E+00 0.  1.
          2   -1    0    0  502    0 -0.00000000000E+00 -0.00000000000E+00 -0.38658597931E+01  0.38658597931E+01  0.00000000000E+00 0. -1.
          2    1    1    2  501    0 -0.49852024029E+00  0.22213369297E+02  0.29116239511E+02  0.36625642674E+02  0.00000000000E+00 0. -1.
          2    1    1    2  502    0  0.49852024029E+00 -0.22213369297E+02  0.11102033410E+04  0.11104256574E+04  0.00000000000E+00 0.  1.
</event>
<event>
 4    1  0.8988950E+003  0.2537862E+02  0.7546771E-02  0.1464612E+00
          2   -1    0    0  502    0  0.00000000000E+00  0.00000000000E+00  0.11127325561E+02  0.11127325561E+02  0.00000000000E+00 0.  1.
          2   -1    0    0  501    0 -0.00000000000E+00 -0.00000000000E+00 -0.72478461298E+03  0.72478461298E+03  0.00000000000E+00 0. -1.
          2    1    1    2  501    0  0.17573153736E+02  0.18310063447E+02 -0.38710640532E+01  0.25672150135E+02  0.00000000000E+00 0.  1.
          2    1    1    2  502    0 -0.17573153736E+02 -0.18310063447E+02 -0.70978622336E+03  0.71023978840E+03  0.00000000000E+00 0. -1.
</event>
<event>
 4    1  0.8988950E+003  0.2185268E+02  0.7546771E-02  0.1507430E+00
          2   -1    0    0  502    0  0.00000000000E+00  0.00000000000E+00  0.80850603052E+02  0.80850603052E+02  0.00000000000E+00 0.  1.
          2   -1    0    0  501    0 -0.00000000000E+00 -0.00000000000E+00 -0.10948496226E+03  0.10948496226E+03  0.00000000000E+00 0.  1.
          2    1    1    2  501    0 -0.21137428982E+02  0.55451505607E+01  0.78247981239E+02  0.81242145262E+02  0.00000000000E+00 0.  1.
          2    1    1    2  502    0  0.21137428982E+02 -0.55451505607E+01 -0.10688234045E+03  0.10909342005E+03  0.00000000000E+00 0.  1.
</event>
<event>
 4    1  0.8988950E+003  0.3119182E+02  0.7546771E-02  0.1409515E+00
          2   -1    0    0  501    0  0.00000000000E+00  0.00000000000E+00  0.12330682183E+03  0.12330682183E+03  0.00000000000E+00 0. -1.
          2   -1    0    0  502    0 -0.00000000000E+00 -0.00000000000E+00 -0.18751322329E+02  0.18751322329E+02  0.00000000000E+00 0.  1.
          2    1    1    2  501    0  0.26224801097E+02 -0.16887551543E+02 -0.17796631462E+01  0.31242547761E+02  0.00000000000E+00 0.  1.
          2    1    1    2  502    0 -0.26224801097E+02  0.16887551543E+02  0.10633516265E+03  0.11081559640E+03  0.00000000000E+00 0. -1.
</event>
<event>
 4    1  0.8988950E+003  0.2150624E+02  0.7546771E-02  0.1512158E+00
          2   -1    0    0  502    0  0.00000000000E+00  0.00000000000E+00  0.53424626076E+03  0.53424626076E+03  0.00000000000E+00 0.  1.
          2   -1    0    0  501    0 -0.00000000000E+00 -0.00000000000E+00 -0.86577795271E+00  0.86577795271E+00  0.00000000000E+00 0. -1.
          2    1    1    2  501    0  0.77978213939E+01  0.20042763144E+02  0.26846104519E+03  0.26932109304E+03  0.00000000000E+00 0.  1.
          2    1    1    2  502    0 -0.77978213939E+01 -0.20042763144E+02  0.26491943762E+03  0.26579094567E+03  0.00000000000E+00 0. -1.
</event>
<event>
 4    1  0.8988950E+003  0.2312636E+02  0.7546771E-02  0.1490917E+00
          2   -1    0    0  502    0  0.00000000000E+00  0.00000000000E+00  0.74191255205E+02  0.74191255205E+02  0.00000000000E+00 0. -1.
          2   -1    0    0  501    0 -0.00000000000E+00 -0.00000000000E+00 -0.47774172013E+03  0.47774172013E+03  0.00000000000E+00 0. -1.
          2    1    1    2  501    0 -0.22788204399E+02  0.39403526254E+01  0.72101272151E+02  0.75719363999E+02  0.00000000000E+00 0. -1.
          2    1    1    2  502    0  0.22788204399E+02 -0.39403526254E+01 -0.47565173707E+03  0.47621361133E+03  0.00000000000E+00 0. -1.
</event>
<event>
 4    1  0.8988950E+003  0.2039334E+02  0.7546771E-02  0.1528105E+00
          2   -1    0    0  502    0  0.00000000000E+00  0.00000000000E+00  0.11053770107E+02  0.11053770107E+02  0.00000000000E+00 0. -1.
          2   -1    0    0  501    0 -0.00000000000E+00 -0.00000000000E+00 -0.44617724491E+03  0.44617724491E+03  0.00000000000E+00 0. -1.
          2    1    1    2  501    0  0.20152972529E+02 -0.31218896342E+01  0.12024561492E+01  0.20428763973E+02  0.00000000000E+00 0. -1.
          2    1    1    2  502    0 -0.20152972529E+02  0.31218896342E+01 -0.43632593095E+03  0.43680225105E+03  0.00000000000E+00 0. -1.
</event>
<event>
 4    1  0.8988950E+003  0.2831470E+02  0.7546771E-02  0.1434831E+00
          2   -1    0    0  502    0  0.00000000000E+00  0.00000000000E+00  0.52089170579E+03  0.52089170579E+03  0.00000000000E+00 0. -1.
          2   -1    0    0  501    0 -0.00000000000E+00 -0.00000000000E+00 -0.17584208556E+03  0.17584208556E+03  0.00000000000E+00 0.  1.
          2    1    1    2  501    0 -0.23177554682E+02  0.16264175877E+02  0.51936373822E+03  0.52013499693E+03  0.00000000000E+00 0. -1.
          2    1    1    2  502    0  0.23177554682E+02 -0.16264175877E+02 -0.17431411799E+03  0.17659879442E+03  0.00000000000E+00 0.  1.
</event>
<event>
 4    1  0.8988950E+003  0.2439762E+02  0.7546771E-02  0.1475656E+00
          2   -1    0    0  501    0  0.00000000000E+00  0.00000000000E+00  0.46855318633E+01  0.46855318633E+01  0.00000000000E+00 0.  1.
          2   -1    0    0  502    0 -0.00000000000E+00 -0.00000000000E+00 -0.61688849754E+03  0.61688849754E+03  0.00000000000E+00 0.  1.
          2    1    1    2  501    0  0.32482824585E+01  0.24180419623E+02 -0.58304485774E+03  0.58355509609E+03  0.00000000000E+00 0.  1.
          2    1    1    2  502    0 -0.32482824585E+01 -0.24180419623E+02 -0.29158107938E+02  0.38018933318E+02  0.00000000000E+00 0.  1.
</event>
<event>
 4    1  0.8988950E+003  0.2198110E+02  0.7546771E-02  0.1505705E+00
          2   -1    0    0  501    0  0.00000000000E+00  0.00000000000E+00  0.15564861094E+01  0.15564861094E+01  0.00000000000E+00 0.  1.
          2   -1    0    0  502    0 -0.00000000000E+00 -0.00000000000E+00 -0.10445414015E+04  0.10445414015E+04  0.00000000000E+00 0. -1.
          2    1    1    2  501    0  0.21953217135E+02 -0.11068892138E+01 -0.95998537436E+03  0.96023699572E+03  0.00000000000E+00 0. -1.
          2    1    1    2  502    0 -0.21953217135E+02  0.11068892138E+01 -0.82999541020E+02  0.85860891888E+02  0.00000000000E+00 0.  1.
</event>
<event>
 4    1  0.8988950E+003  0.1277075E+03  0.7546771E-02  0.1122941E+00
          2   -1    0    0  502    0  0.00000000000E+00  0.00000000000E+00  0.20432538323E+04  0.20432538323E+04  0.00000000000E+00 0. -1.
          2   -1    0    0  501    0 -0.00000000000E+00 -0.00000000000E+00 -0.22607065846E+02  0.22607065846E+02  0.00000000000E+00 0. -1.
          2    1    1    2  501    0 -0.70226051451E+01 -0.12751431338E+03  0.18411265620E+04  0.18455503880E+04  0.00000000000E+00 0. -1.
          2    1    1    2  502    0  0.70226051451E+01  0.12751431338E+03  0.17952020440E+03  0.22031051016E+03  0.00000000000E+00 0. -1.
</event>
<event>
 4    1  0.8988950E+003  0.2482032E+02  0.7546771E-02  0.1470824E+00
          2   -1    0    0  502    0  0.00000000000E+00  0.00000000000E+00  0.20257458927E+03  0.20257458927E+03  0.00000000000E+00 0. -1.
          2   -1    0    0  501    0 -0.00000000000E+00 -0.00000000000E+00 -0.19653239890E+02  0.19653239890E+02  0.00000000000E+00 0. -1.
          2    1    1    2  501    0  0.14108113133E+01 -0.24780188217E+02  0.19361676304E+03  0.19520117583E+03  0.00000000000E+00 0. -1.
          2    1    1    2  502    0 -0.14108113133E+01  0.24780188217E+02 -0.10695413660E+02  0.27026653326E+02  0.00000000000E+00 0. -1.
</event>
<event>
 4    1  0.8988950E+003  0.2915716E+02  0.7546771E-02  0.1427065E+00
          2   -1    0    0  502    0  0.00000000000E+00  0.00000000000E+00  0.49896778727E+00  0.49896778727E+00  0.00000000000E+00 0. -1.
          2   -1    0    0  501    0 -0.00000000000E+00 -0.00000000000E+00 -0.18646062200E+04  0.18646062200E+04  0.00000000000E+00 0.  1.
          2    1    1    2  501    0  0.79050681031E+01 -0.28065101919E+02 -0.65818982940E+03  0.65883532963E+03  0.00000000000E+00 0. -1.
          2    1    1    2  502    0 -0.79050681031E+01  0.28065101919E+02 -0.12059174228E+04  0.12062698582E+04  0.00000000000E+00 0.  1.
</event>
<event>
 4    1  0.8988950E+003  0.2306639E+02  0.7546771E-02  0.1491666E+00
          2   -1    0    0  501    0  0.00000000000E+00  0.00000000000E+00  0.39667875734E+02  0.39667875734E+02  0.00000000000E+00 0. -1.
          2   -1    0    0  502    0 -0.00000000000E+00 -0.00000000000E+00 -0.65615636798E+02  0.65615636798E+02  0.00000000000E+00 0. -1.
          2    1    1    2  501    0  0.22408161517E+02 -0.54710682818E+01 -0.59927993710E+02  0.64213882617E+02  0.00000000000E+00 0. -1.
          2    1    1    2  502    0 -0.22408161517E+02  0.54710682818E+01  0.33980232646E+02  0.41069629915E+02  0.00000000000E+00 0. -1.
</event>
<event>
 4    1  0.8988950E+003  0.2425732E+02  0.7546771E-02  0.1477286E+00
          2   -1    0    0  501    0  0.00000000000E+00  0.00000000000E+00  0.24280298566E+02  0.24280298566E+02  0.00000000000E+00 0. -1.
          2   -1    0    0  502    0 -0.00000000000E+00 -0.00000000000E+00 -0.28273526914E+03  0.28273526914E+03  0.00000000000E+00 0. -1.
          2    1    1    2  501    0  0.22240809668E+02  0.96831808444E+01 -0.27600902603E+03  0.27707291470E+03  0.00000000000E+00 0. -1.
          2    1    1    2  502    0 -0.22240809668E+02 -0.96831808444E+01  0.17554055462E+02  0.29942653008E+02  0.00000000000E+00 0. -1.
</event>
<event>
 4    1  0.8988950E+003  0.2106648E+02  0.7546771E-02  0.1518318E+00
          2   -1    0    0  501    0  0.00000000000E+00  0.00000000000E+00  0.33621244002E+02  0.33621244002E+02  0.00000000000E+00 0. -1.
          2   -1    0    0  502    0 -0.00000000000E+00 -0.00000000000E+00 -0.43302440753E+03  0.43302440753E+03  0.00000000000E+00 0. -1.
          2    1    1    2  501    0 -0.53786639655E+00  0.21059608890E+02 -0.42944069625E+03  0.42995710021E+03  0.00000000000E+00 0. -1.
          2    1    1    2  502    0  0.53786639655E+00 -0.21059608890E+02  0.30037532715E+02  0.36688551327E+02  0.00000000000E+00 0. -1.
</event>
<event>
 4    1  0.8988950E+003  0.3239158E+02  0.7546771E-02  0.1399891E+00
          2   -1    0    0  502    0  0.00000000000E+00  0.00000000000E+00  0.28639055100E+02  0.28639055100E+02  0.00000000000E+00 0. -1.
          2   -1    0    0  501    0 -0.00000000000E+00 -0.00000000000E+00 -0.31298612031E+03  0.31298612031E+03  0.00000000000E+00 0.  1.
          2    1    1    2  501    0 -0.23934538833E+02 -0.21825500507E+02  0.18331007223E+02  0.37218818457E+02  0.00000000000E+00 0. -1.
          2    1    1    2  502    0  0.23934538833E+02  0.21825500507E+02 -0.30267807243E+03  0.30440635695E+03  0.00000000000E+00 0.  1.
</event>
<event>
 4    1  0.8988950E+003  0.2323109E+02  0.7546771E-02  0.1489617E+00
          2   -1    0    0  501    0  0.00000000000E+00  0.00000000000E+00  0.14961685835E+02  0.14961685835E+02  0.00000000000E+00 0. -1.
          2   -1    0    0  502    0 -0.00000000000E+00 -0.00000000000E+00 -0.77505489484E+03  0.77505489484E+03  0.00000000000E+00 0. -1.
          2    1    1    2  501    0  0.23224580754E+02  0.54986602048E+00 -0.76575354632E+03  0.76610585248E+03  0.00000000000E+00 0. -1.
          2    1    1    2  502    0 -0.23224580754E+02 -0.54986602048E+00  0.56603373218E+01  0.23910728188E+02  0.00000000000E+00 0. -1.
</event>
<event>
 4    1  0.8988950E+003  0.2159018E+02  0.7546771E-02  0.1511003E+00
          2   -1    0    0  501    0  0.00000000000E+00  0.00000000000E+00  0.15372879151E+04  0.15372879151E+04  0.00000000000E+00 0. -1.
          2   -1    0    0  502    0 -0.00000000000E+00 -0.00000000000E+00 -0.44974910202E+00  0.44974910202E+00  0.00000000000E+00 0. -1.
          2    1    1    2  501    0  0.21569057779E+02  0.95488772568E+00  0.32955563419E+03  0.33026209605E+03  0.00000000000E+00 0. -1.
          2    1    1    2  502    0 -0.21569057779E+02 -0.95488772568E+00  0.12072825318E+04  0.12074755681E+04  0.00000000000E+00 0. -1.
</event>
<event>
 4    1  0.8988950E+003  0.2207341E+02  0.7546771E-02  0.1504473E+00
          2   -1    0    0  502    0  0.00000000000E+00  0.00000000000E+00  0.30732690686E+01  0.30732690686E+01  0.00000000000E+00 0. -1.
          2   -1    0    0  501    0 -0.00000000000E+00 -0.00000000000E+00 -0.10205779581E+04  0.10205779581E+04  0.00000000000E+00 0.  1.
          2    1    1    2  501    0 -0.21084882855E+02  0.65316941564E+01 -0.38357903258E+02  0.44255666935E+02  0.00000000000E+00 0. -1.
          2    1    1    2  502    0  0.21084882855E+02 -0.65316941564E+01 -0.97914678575E+03  0.97939556021E+03  0.00000000000E+00 0.  1.
</event>
<event>
 4    1  0.8988950E+003  0.2513997E+02  0.7546771E-02  0.1467244E+00
          2   -1    0    0  502    0  0.00000000000E+00  0.00000000000E+00  0.87389669812E+01  0.87389669812E+01  0.00000000000E+00 0.  1.
          2   -1    0    0  501    0 -0.00000000000E+00 -0.00000000000E+00 -0.66749827473E+03  0.66749827473E+03  0.00000000000E+00 0.  1.
          2    1    1    2  501    0 -0.57564109563E+01  0.24472059131E+02 -0.10103202106E+02  0.27094143980E+02  0.00000000000E+00 0.  1.
          2    1    1    2  502    0  0.57564109563E+01 -0.24472059131E+02 -0.64865610564E+03  0.64914309773E+03  0.00000000000E+00 0.  1.
</event>
<event>
 4    1  0.8988950E+003  0.4373001E+02  0.7546771E-02  0.1327913E+00
          2   -1    0    0  502    0  0.00000000000E+00  0.00000000000E+00  0.17306989735E+03  0.17306989735E+03  0.00000000000E+00 0. -1.
          2   -1    0    0  501    0 -0.00000000000E+00 -0.00000000000E+00 -0.65707296155E+03  0.65707296155E+03  0.00000000000E+00 0.  1.
          2    1    1    2  501    0 -0.25733442225E+02 -0.35356807690E+02  0.16956516954E+03  0.17511327939E+03  0.00000000000E+00 0. -1.
          2    1    1    2  502    0  0.25733442225E+02  0.35356807690E+02 -0.65356823373E+03  0.65502957951E+03  0.00000000000E+00 0.  1.
</event>
<event>
 4    1  0.8988950E+003  0.2170480E+02  0.7546771E-02  0.1509435E+00
          2   -1    0    0  502    0  0.00000000000E+00  0.00000000000E+00  0.73173153191E+03  0.73173153191E+03  0.00000000000E+00 0. -1.
          2   -1    0    0  501    0 -0.00000000000E+00 -0.00000000000E+00 -0.26918405091E+03  0.26918405091E+03  0.00000000000E+00 0.  1.
          2    1    1    2  501    0  0.55990374489E+01  0.20970199233E+02  0.73113269581E+03  0.73145479515E+03  0.00000000000E+00 0. -1.
          2    1    1    2  502    0 -0.55990374489E+01 -0.20970199233E+02 -0.26858521481E+03  0.26946078767E+03  0.00000000000E+00 0.  1.
</event>
<event>
 4    1  0.8988950E+003  0.3110619E+02  0.7546771E-02  0.1410221E+00
          2   -1    0    0  502    0  0.00000000000E+00  0.00000000000E+00  0.15322369217E+03  0.15322369217E+03  0.00000000000E+00 0. -1.
          2   -1    0    0  501    0 -0.00000000000E+00 -0.00000000000E+00 -0.91823897003E+03  0.91823897003E+03  0.00000000000E+00 0.  1.
          2    1    1    2  501    0  0.25250678087E+02 -0.18165853870E+02  0.15137834691E+03  0.15454125308E+03  0.00000000000E+00 0. -1.
          2    1    1    2  502    0 -0.25250678087E+02  0.18165853870E+02 -0.91639362477E+03  0.91692140912E+03  0.00000000000E+00 0.  1.
</event>
<event>
 4    1  0.8988950E+003  0.2140256E+02  0.7546771E-02  0.1513594E+00
          2   -1    0    0  501    0  0.00000000000E+00  0.00000000000E+00  0.70301564624E+00  0.70301564624E+00  0.00000000000E+00 0. -1.
          2   -1    0    0  502    0 -0.00000000000E+00 -0.00000000000E+00 -0.67100041376E+03  0.67100041376E+03  0.00000000000E+00 0.  1.
          2    1    1    2  501    0 -0.60258721975E+01 -0.20536753735E+02 -0.39228866643E+03  0.39287207485E+03  0.00000000000E+00 0.  1.
          2    1    1    2  502    0  0.60258721975E+01  0.20536753735E+02 -0.27800873169E+03  0.27883135456E+03  0.00000000000E+00 0. -1.
</event>
<event>
 4    1  0.8988950E+003  0.4399463E+02  0.7546771E-02  0.1326544E+00
          2   -1    0    0  501    0  0.00000000000E+00  0.00000000000E+00  0.16486420665E+04  0.16486420665E+04  0.00000000000E+00 0. -1.
          2   -1    0    0  502    0 -0.00000000000E+00 -0.00000000000E+00 -0.38856112130E+01  0.38856112130E+01  0.00000000000E+00 0.  1.
          2    1    1    2  501    0 -0.22642581167E+01  0.43936323349E+02  0.13213566391E+03  0.13926722892E+03  0.00000000000E+00 0.  1.
          2    1    1    2  502    0  0.22642581167E+01 -0.43936323349E+02  0.15126207914E+04  0.15132604488E+04  0.00000000000E+00 0. -1.
</event>
<event>
 4    1  0.8988950E+003  0.5789644E+02  0.7546771E-02  0.1267152E+00
          2   -1    0    0  501    0  0.00000000000E+00  0.00000000000E+00  0.90367227889E+03  0.90367227889E+03  0.00000000000E+00 0.  1.
          2   -1    0    0  502    0 -0.00000000000E+00 -0.00000000000E+00 -0.18497198589E+02  0.18497198589E+02  0.00000000000E+00 0.  1.
          2    1    1    2  501    0 -0.49574201515E+02 -0.29906462811E+02  0.30318334686E+02  0.65354413713E+02  0.00000000000E+00 0.  1.
          2    1    1    2  502    0  0.49574201515E+02  0.29906462811E+02  0.85485674561E+03  0.85681506377E+03  0.00000000000E+00 0.  1.
</event>
<event>
 4    1  0.8988950E+003  0.5869900E+02  0.7546771E-02  0.1264318E+00
          2   -1    0    0  501    0  0.00000000000E+00  0.00000000000E+00  0.18874732965E+03  0.18874732965E+03  0.00000000000E+00 0.  1.
          2   -1    0    0  502    0 -0.00000000000E+00 -0.00000000000E+00 -0.46350464023E+02  0.46350464023E+02  0.00000000000E+00 0.  1.
          2    1    1    2  501    0  0.58092194456E+02 -0.84183936663E+01 -0.20320307250E+02  0.62116723154E+02  0.00000000000E+00 0.  1.
          2    1    1    2  502    0 -0.58092194456E+02  0.84183936663E+01  0.16271717288E+03  0.17298107052E+03  0.00000000000E+00 0.  1.
</event>
<event>
 4    1  0.8988950E+003  0.2787794E+02  0.7546771E-02  0.1438983E+00
          2   -1    0    0  502    0  0.00000000000E+00  0.00000000000E+00  0.81030777968E+02  0.81030777968E+02  0.00000000000E+00 0.  1.
          2   -1    0    0  501    0 -0.00000000000E+00 -0.00000000000E+00 -0.53653484187E+02  0.53653484187E+02  0.00000000000E+00 0. -1.
          2    1    1    2  501    0  0.26319542180E+02 -0.91902769092E+01  0.74715583675E+02  0.79747087308E+02  0.00000000000E+00 0.  1.
          2    1    1    2  502    0 -0.26319542180E+02  0.91902769092E+01 -0.47338289893E+02  0.54937174848E+02  0.00000000000E+00 0. -1.
</event>
<event>
 4    1  0.8988950E+003  0.3158381E+02  0.7546771E-02  0.1406315E+00
          2   -1    0    0  502    0  0.00000000000E+00  0.00000000000E+00  0.14465560871E+01  0.14465560871E+01  0.00000000000E+00 0. -1.
          2   -1    0    0  501    0 -0.00000000000E+00 -0.00000000000E+00 -0.75094364250E+03  0.75094364250E+03  0.00000000000E+00 0. -1.
          2    1    1    2  501    0  0.15576359035E+02  0.27475697587E+02 -0.26722236595E+03  0.26908238475E+03  0.00000000000E+00 0. -1.
          2    1    1    2  502    0 -0.15576359035E+02 -0.27475697587E+02 -0.48227472047E+03  0.48330781384E+03  0.00000000000E+00 0. -1.
</event>
<event>
 4    1  0.8988950E+003  0.5223107E+02  0.7546771E-02  0.1288779E+00
          2   -1    0    0  502    0  0.00000000000E+00  0.00000000000E+00  0.11740016076E+02  0.11740016076E+02  0.00000000000E+00 0.  1.
          2   -1    0    0  501    0 -0.00000000000E+00 -0.00000000000E+00 -0.30177314099E+04  0.30177314099E+04  0.00000000000E+00 0. -1.
          2    1    1    2  501    0 -0.15464182048E+02 -0.49889318668E+02 -0.47747839369E+02  0.70766808661E+02  0.00000000000E+00 0.  1.
          2    1    1    2  502    0  0.15464182048E+02  0.49889318668E+02 -0.29582435545E+04  0.29587046173E+04  0.00000000000E+00 0. -1.
</event>
<event>
 4    1  0.8988950E+003  0.2221306E+02  0.7546771E-02  0.1502623E+00
          2   -1    0    0  501    0  0.00000000000E+00  0.00000000000E+00  0.20513082969E+03  0.20513082969E+03  0.00000000000E+00 0.  1.
          2   -1    0    0  502    0 -0.00000000000E+00 -0.00000000000E+00 -0.46361659055E+01  0.46361659055E+01  0.00000000000E+00 0.  1.
          2    1    1    2  501    0  0.29635240384E+01  0.22014489631E+02  0.27493583417E+02  0.35345683719E+02  0.00000000000E+00 0.  1.
          2    1    1    2  502    0 -0.29635240384E+01 -0.22014489631E+02  0.17300108037E+03  0.17442131188E+03  0.00000000000E+00 0.  1.
</event>
<event>
 4    1  0.8988950E+003  0.3242036E+02  0.7546771E-02  0.1399666E+00
          2   -1    0    0  501    0  0.00000000000E+00  0.00000000000E+00  0.10319360660E+04  0.10319360660E+04  0.00000000000E+00 0.  1.
          2   -1    0    0  502    0 -0.00000000000E+00 -0.00000000000E+00 -0.25953348748E+01  0.25953348748E+01  0.00000000000E+00 0. -1.
          2    1    1    2  501    0  0.22207000903E+02  0.23620522543E+02  0.11148663077E+03  0.11610490435E+03  0.00000000000E+00 0. -1.
          2    1    1    2  502    0 -0.22207000903E+02 -0.23620522543E+02  0.91785410033E+03  0.91842649650E+03  0.00000000000E+00 0.  1.
</event>
<event>
 4    1  0.8988950E+003  0.3300901E+02  0.7546771E-02  0.1395128E+00
          2   -1    0    0  501    0  0.00000000000E+00  0.00000000000E+00  0.39029398338E+03  0.39029398338E+03  0.00000000000E+00 0. -1.
          2   -1    0    0  502    0 -0.00000000000E+00 -0.00000000000E+00 -0.79939118193E+01  0.79939118193E+01  0.00000000000E+00 0.  1.
          2    1    1    2  501    0 -0.84591197059E+01  0.31906710138E+02  0.30500209956E+02  0.44942826628E+02  0.00000000000E+00 0.  1.
          2    1    1    2  502    0  0.84591197059E+01 -0.31906710138E+02  0.35179986160E+03  0.35334506857E+03  0.00000000000E+00 0. -1.
</event>
<event>
 4    1  0.8988950E+003  0.2217742E+02  0.7546771E-02  0.1503094E+00
          2   -1    0    0  502    0  0.00000000000E+00  0.00000000000E+00  0.65998393173E+02  0.65998393173E+02  0.00000000000E+00 0.  1.
          2   -1    0    0  501    0 -0.00000000000E+00 -0.00000000000E+00 -0.27065692301E+03  0.27065692301E+03  0.00000000000E+00 0.  1.
          2    1    1    2  501    0  0.72382001866E+01  0.20962974511E+02  0.63664850546E+02  0.67416993684E+02  0.00000000000E+00 0.  1.
          2    1    1    2  502    0 -0.72382001866E+01 -0.20962974511E+02 -0.26832338038E+03  0.26923832250E+03  0.00000000000E+00 0.  1.
</event>
<event>
 4    1  0.8988950E+003  0.2017636E+02  0.7546771E-02  0.1531357E+00
          2   -1    0    0  501    0  0.00000000000E+00  0.00000000000E+00  0.13451918321E+01  0.13451918321E+01  0.00000000000E+00 0.  1.
          2   -1    0    0  502    0 -0.00000000000E+00 -0.00000000000E+00 -0.40198523325E+03  0.40198523325E+03  0.00000000000E+00 0. -1.
          2    1    1    2  501    0  0.19928893658E+02  0.31503742649E+01 -0.30058220053E+03  0.30125860143E+03  0.00000000000E+00 0. -1.
          2    1    1    2  502    0 -0.19928893658E+02 -0.31503742649E+01 -0.10005784089E+03  0.10207182366E+03  0.00000000000E+00 0.  1.
</event>
<event>
 4    1  0.8988950E+003  0.2475769E+02  0.7546771E-02  0.1471532E+00
          2   -1    0    0  501    0  0.00000000000E+00  0.00000000000E+00  0.72907526455E+02  0.72907526455E+02  0.00000000000E+00 0.  1.
          2   -1    0    0  502    0 -0.00000000000E+00 -0.00000000000E+00 -0.21115142435E+02  0.21115142435E+02  0.00000000000E+00 0.  1.
          2    1    1    2  501    0  0.21475580332E+02  0.12318392572E+02 -0.10574526398E+02  0.26921440428E+02  0.00000000000E+00 0.  1.
          2    1    1    2  502    0 -0.21475580332E+02 -0.12318392572E+02  0.62366910417E+02  0.67101228462E+02  0.00000000000E+00 0.  1.
</event>
<event>
 4    1  0.8988950E+003  0.2190488E+02  0.7546771E-02  0.1506727E+00
          2   -1    0    0  501    0  0.00000000000E+00  0.00000000000E+00  0.11704604543E+01  0.11704604543E+01  0.00000000000E+00 0. -1.
          2   -1    0    0  502    0 -0.00000000000E+00 -0.00000000000E+00 -0.93263306773E+03  0.93263306773E+03  0.00000000000E+00 0.  1.
          2    1    1    2  501    0  0.16808206319E+02  0.14046638527E+02 -0.81526705307E+03  0.81556127401E+03  0.00000000000E+00 0.  1.
          2    1    1    2  502    0 -0.16808206319E+02 -0.14046638527E+02 -0.11619555420E+03  0.11824225417E+03  0.00000000000E+00 0. -1.
</event>
<event>
 4    1  0.8988950E+003  0.4721462E+02  0.7546771E-02  0.1310723E+00
          2   -1    0    0  502    0  0.00000000000E+00  0.00000000000E+00  0.54917643456E+01  0.54917643456E+01  0.00000000000E+00 0. -1.
          2   -1    0    0  501    0 -0.00000000000E+00 -0.00000000000E+00 -0.54962209620E+03  0.54962209620E+03  0.00000000000E+00 0.  1.
          2    1    1    2  501    0  0.44826765592E+02  0.14825012501E+02 -0.13014283673E+03  0.13844268800E+03  0.00000000000E+00 0. -1.
          2    1    1    2  502    0 -0.44826765592E+02 -0.14825012501E+02 -0.41398749513E+03  0.41667117255E+03  0.00000000000E+00 0.  1.
</event>
<event>
 4    1  0.8988950E+003  0.2396149E+02  0.7546771E-02  0.1480765E+00
          2   -1    0    0  502    0  0.00000000000E+00  0.00000000000E+00  0.34574071961E+03  0.34574071961E+03  0.00000000000E+00 0.  1.
          2   -1    0    0  501    0 -0.00000000000E+00 -0.00000000000E+00 -0.74552738710E+01  0.74552738710E+01  0.00000000000E+00 0. -1.
          2    1    1    2  501    0 -0.22226086075E+02 -0.89528803086E+01  0.32483488312E+03  0.32571744543E+03  0.00000000000E+00 0.  1.
          2    1    1    2  502    0  0.22226086075E+02  0.89528803086E+01  0.13450562619E+02  0.27478548048E+02  0.00000000000E+00 0. -1.
</event>
<event>
 4    1  0.8988950E+003  0.2742925E+02  0.7546771E-02  0.1443343E+00
          2   -1    0    0  501    0  0.00000000000E+00  0.00000000000E+00  0.39495109798E+01  0.39495109798E+01  0.00000000000E+00 0. -1.
          2   -1    0    0  502    0 -0.00000000000E+00 -0.00000000000E+00 -0.38091766075E+03  0.38091766075E+03  0.00000000000E+00 0.  1.
          2    1    1    2  501    0 -0.24550076284E+02 -0.12233463410E+02 -0.32454208641E+03  0.32569913988E+03  0.00000000000E+00 0.  1.
          2    1    1    2  502    0  0.24550076284E+02  0.12233463410E+02 -0.52426063361E+02  0.59168031842E+02  0.00000000000E+00 0. -1.
</event>
<event>
 4    1  0.8988950E+003  0.3888019E+02  0.7546771E-02  0.1355176E+00
          2   -1    0    0  501    0  0.00000000000E+00  0.00000000000E+00  0.52885260299E+02  0.52885260299E+02  0.00000000000E+00 0.  1.
          2   -1    0    0  502    0 -0.00000000000E+00 -0.00000000000E+00 -0.20204613396E+04  0.20204613396E+04  0.00000000000E+00 0. -1.
          2    1    1    2  501    0 -0.38110344621E+02 -0.76987486087E+01 -0.20131021890E+04  0.20134776116E+04  0.00000000000E+00 0. -1.
          2    1    1    2  502    0  0.38110344621E+02  0.76987486087E+01  0.45526109685E+02  0.59868988303E+02  0.00000000000E+00 0.  1.
</event>
<event>
 4    1  0.8988950E+003  0.3968344E+02  0.7546771E-02  0.1350351E+00
          2   -1    0    0  502    0  0.00000000000E+00  0.00000000000E+00  0.10736691850E+04  0.10736691850E+04  0.00000000000E+00 0. -1.
          2   -1    0    0  501    0 -0.00000000000E+00 -0.00000000000E+00 -0.21061833673E+02  0.21061833673E+02  0.00000000000E+00 0. -1.
          2    1    1    2  501    0  0.67017809396E+01  0.39113443947E+02  0.10542663235E+04  0.10550129176E+04  0.00000000000E+00 0. -1.
          2    1    1    2  502    0 -0.67017809396E+01 -0.39113443947E+02 -0.16589721944E+01  0.39718101086E+02  0.00000000000E+00 0. -1.
</event>
<event>
 4    1  0.8988950E+003  0.2126078E+02  0.7546771E-02  0.1515574E+00
          2   -1    0    0  501    0  0.00000000000E+00  0.00000000000E+00  0.82836599687E+03  0.82836599687E+03  0.00000000000E+00 0. -1.
          2   -1    0    0  502    0 -0.00000000000E+00 -0.00000000000E+00 -0.16104704612E+01  0.16104704612E+01  0.00000000000E+00 0.  1.
          2    1    1    2  501    0  0.21227074589E+02 -0.11966642001E+01  0.75941320836E+02  0.78861301734E+02  0.00000000000E+00 0.  1.
          2    1    1    2  502    0 -0.21227074589E+02  0.11966642001E+01  0.75081420557E+03  0.75111516560E+03  0.00000000000E+00 0. -1.
</event>
<event>
 4    1  0.8988950E+003  0.2929983E+02  0.7546771E-02  0.1425780E+00
          2   -1    0    0  501    0  0.00000000000E+00  0.00000000000E+00  0.73949942086E+02  0.73949942086E+02  0.00000000000E+00 0.  1.
          2   -1    0    0  502    0 -0.00000000000E+00 -0.00000000000E+00 -0.24602673239E+02  0.24602673239E+02  0.00000000000E+00 0.  1.
          2    1    1    2  501    0  0.30620822651E+00 -0.29298227063E+02 -0.11137172781E+02  0.31345119079E+02  0.00000000000E+00 0.  1.
          2    1    1    2  502    0 -0.30620822651E+00  0.29298227063E+02  0.60484441628E+02  0.67207496245E+02  0.00000000000E+00 0.  1.
</event>
<event>
 4    1  0.8988950E+003  0.3116211E+02  0.7546771E-02  0.1409759E+00
          2   -1    0    0  502    0  0.00000000000E+00  0.00000000000E+00  0.10199740248E+03  0.10199740248E+03  0.00000000000E+00 0. -1.
          2   -1    0    0  501    0 -0.00000000000E+00 -0.00000000000E+00 -0.12999904352E+03  0.12999904352E+03  0.00000000000E+00 0.  1.
          2    1    1    2  501    0 -0.16097463249E+02  0.26682364979E+02  0.97669027183E+02  0.10251983123E+03  0.00000000000E+00 0. -1.
          2    1    1    2  502    0  0.16097463249E+02 -0.26682364979E+02 -0.12567066822E+03  0.12947661478E+03  0.00000000000E+00 0.  1.
</event>
<event>
 4    1  0.8988950E+003  0.2160861E+02  0.7546771E-02  0.1510750E+00
          2   -1    0    0  502    0  0.00000000000E+00  0.00000000000E+00  0.60096931767E+03  0.60096931767E+03  0.00000000000E+00 0. -1.
          2   -1    0    0  501    0 -0.00000000000E+00 -0.00000000000E+00 -0.74663991459E+02  0.74663991459E+02  0.00000000000E+00 0. -1.
          2    1    1    2  501    0 -0.10885690332E+01 -0.21581172136E+02  0.59920703553E+03  0.59959653385E+03  0.00000000000E+00 0. -1.
          2    1    1    2  502    0  0.10885690332E+01  0.21581172136E+02 -0.72901709319E+02  0.76036775280E+02  0.00000000000E+00 0. -1.
</event>
<event>
 4    1  0.8988950E+003  0.2956223E+02  0.7546771E-02  0.1423439E+00
          2   -1    0    0  502    0  0.00000000000E+00  0.00000000000E+00  0.14597247769E+04  0.14597247769E+04  0.00000000000E+00 0. -1.
          2   -1    0    0  501    0 -0.00000000000E+00 -0.00000000000E+00 -0.32743566172E+01  0.32743566172E+01  0.00000000000E+00 0. -1.
          2    1    1    2  501    0  0.25520820875E+02 -0.14920228488E+02  0.13894770964E+04  0.13897915408E+04  0.00000000000E+00 0. -1.
          2    1    1    2  502    0 -0.25520820875E+02  0.14920228488E+02  0.66973323864E+02  0.73207592677E+02  0.00000000000E+00 0. -1.
</event>
<event>
 4    1  0.8988950E+003  0.2945746E+02  0.7546771E-02  0.1424370E+00
          2   -1    0    0  502    0  0.00000000000E+00  0.00000000000E+00  0.10379059487E+04  0.10379059487E+04  0.00000000000E+00 0. -1.
          2   -1    0    0  501    0 -0.00000000000E+00 -0.00000000000E+00 -0.16116327759E+01  0.16116327759E+01  0.00000000000E+00 0. -1.
          2    1    1    2  501    0  0.21222411326E+02 -0.20429180491E+02  0.87871138436E+03  0.87920500405E+03  0.00000000000E+00 0. -1.
          2    1    1    2  502    0 -0.21222411326E+02  0.20429180491E+02  0.15758293160E+03  0.16031257745E+03  0.00000000000E+00 0. -1.
</event>
<event>
 4    1  0.1111964E+004  0.3017448E+02  0.7546771E-02  0.1418086E+00
          2   -1    0    0  502    0  0.00000000000E+00  0.00000000000E+00  0.47952735857E+03  0.47952735857E+03  0.00000000000E+00 0. -1.
          2   -1    0    0  501    0 -0.00000000000E+00 -0.00000000000E+00 -0.15790503589E+04  0.15790503589E+04  0.00000000000E+00 0. -1.
          2    1    1    2  501    0 -0.26990693076E+00 -0.30173268740E+02  0.47890833385E+03  0.47985799069E+03  0.00000000000E+00 0. -1.
          2    1    1    2  502    0  0.26990693076E+00  0.30173268740E+02 -0.15784313342E+04  0.15787197268E+04  0.00000000000E+00 0. -1.
</event>
<event>
 4    1  0.1008026E+004  0.2317700E+02  0.7546771E-02  0.1490287E+00
          2   -1    0    0  501    0  0.00000000000E+00  0.00000000000E+00  0.46730586962E+03  0.46730586962E+03  0.00000000000E+00 0. -1.
          2   -1    0    0  502    0 -0.00000000000E+00 -0.00000000000E+00 -0.10057916050E+04  0.10057916050E+04  0.00000000000E+00 0.  1.
          2    1    1    2  501    0  0.15742359361E+02 -0.17010332699E+02 -0.10053705868E+04  0.10056377032E+04  0.00000000000E+00 0.  1.
          2    1    1    2  502    0 -0.15742359361E+02  0.17010332699E+02  0.46688485148E+03  0.46745977136E+03  0.00000000000E+00 0. -1.
</event>
<event>
 4    1  0.8988950E+003  0.2053547E+02  0.7546771E-02  0.1526002E+00
          2   -1    0    0  502    0  0.00000000000E+00  0.00000000000E+00  0.16808427395E+02  0.16808427395E+02  0.00000000000E+00 0. -1.
          2   -1    0    0  501    0 -0.00000000000E+00 -0.00000000000E+00 -0.26469686785E+02  0.26469686785E+02  0.00000000000E+00 0. -1.
          2    1    1    2  501    0  0.33237401391E+01 -0.20264701132E+02 -0.97728652441E+01  0.22742344988E+02  0.00000000000E+00 0. -1.
          2    1    1    2  502    0 -0.33237401391E+01  0.20264701132E+02  0.11160585422E+00  0.20535769193E+02  0.00000000000E+00 0. -1.
</event>
<event>
 4    1  0.8988950E+003  0.2091873E+02  0.7546771E-02  0.1520428E+00
          2   -1    0    0  501    0  0.00000000000E+00  0.00000000000E+00  0.17644467992E+02  0.17644467992E+02  0.00000000000E+00 0.  1.
          2   -1    0    0  502    0 -0.00000000000E+00 -0.00000000000E+00 -0.13727104574E+03  0.13727104574E+03  0.00000000000E+00 0. -1.
          2    1    1    2  501    0 -0.18278472865E+02  0.10173035469E+02 -0.12992566276E+03  0.13159890221E+03  0.00000000000E+00 0. -1.
          2    1    1    2  502    0  0.18278472865E+02 -0.10173035469E+02  0.10299085005E+02  0.23316611522E+02  0.00000000000E+00 0.  1.
</event>
<event>
 4    1  0.8988950E+003  0.3323161E+02  0.7546771E-02  0.1393441E+00
          2   -1    0    0  502    0  0.00000000000E+00  0.00000000000E+00  0.91689689160E+02  0.91689689160E+02  0.00000000000E+00 0. -1.
          2   -1    0    0  501    0 -0.00000000000E+00 -0.00000000000E+00 -0.13105604327E+02  0.13105604327E+02  0.00000000000E+00 0.  1.
          2    1    1    2  501    0  0.21891435257E+02  0.25002102174E+02  0.24381311851E+02  0.41216361051E+02  0.00000000000E+00 0.  1.
          2    1    1    2  502    0 -0.21891435257E+02 -0.25002102174E+02  0.54202772983E+02  0.63578932436E+02  0.00000000000E+00 0. -1.
</event>
<event>
 4    1  0.8988950E+003  0.2727975E+02  0.7546771E-02  0.1444818E+00
          2   -1    0    0  501    0  0.00000000000E+00  0.00000000000E+00  0.15538742206E+03  0.15538742206E+03  0.00000000000E+00 0.  1.
          2   -1    0    0  502    0 -0.00000000000E+00 -0.00000000000E+00 -0.10636017455E+02  0.10636017455E+02  0.00000000000E+00 0.  1.
          2    1    1    2  501    0 -0.12916270190E+02 -0.24028210368E+02  0.10828427996E+02  0.29350294411E+02  0.00000000000E+00 0.  1.
          2    1    1    2  502    0  0.12916270190E+02  0.24028210368E+02  0.13392297660E+03  0.13667314510E+03  0.00000000000E+00 0.  1.
</event>
<event>
 4    1  0.8988950E+003  0.2367433E+02  0.7546771E-02  0.1484200E+00
          2   -1    0    0  501    0  0.00000000000E+00  0.00000000000E+00  0.46239154546E+03  0.46239154546E+03  0.00000000000E+00 0. -1.
          2   -1    0    0  502    0 -0.00000000000E+00 -0.00000000000E+00 -0.42022790646E+01  0.42022790646E+01  0.00000000000E+00 0. -1.
          2    1    1    2  501    0 -0.14257258239E+02 -0.18899850238E+02  0.32299779494E+02  0.40046841410E+02  0.00000000000E+00 0. -1.
          2    1    1    2  502    0  0.14257258239E+02  0.18899850238E+02  0.42588948690E+03  0.42654698312E+03  0.00000000000E+00 0. -1.
</event>
<event>
 4    1  0.8988950E+003  0.2185564E+02  0.7546771E-02  0.1507391E+00
          2   -1    0    0  502    0  0.00000000000E+00  0.00000000000E+00  0.13655873327E+04  0.13655873327E+04  0.00000000000E+00 0.  1.
          2   -1    0    0  501    0 -0.00000000000E+00 -0.00000000000E+00 -0.17539285957E+01  0.17539285957E+01  0.00000000000E+00 0.  1.
          2    1    1    2  501    0 -0.17765808489E+02  0.12729692452E+02  0.12936271976E+04  0.12938118083E+04  0.00000000000E+00 0.  1.
          2    1    1    2  502    0  0.17765808489E+02 -0.12729692452E+02  0.70206206575E+02  0.73529453030E+02  0.00000000000E+00 0.  1.
</event>
<event>
 4    1  0.8988950E+003  0.2229810E+02  0.7546771E-02  0.1501505E+00
          2   -1    0    0  501    0  0.00000000000E+00  0.00000000000E+00  0.14460736006E+04  0.14460736006E+04  0.00000000000E+00 0. -1.
          2   -1    0    0  502    0 -0.00000000000E+00 -0.00000000000E+00 -0.19123140534E+01  0.19123140534E+01  0.00000000000E+00 0. -1.
          2    1    1    2  501    0 -0.22199767264E+02  0.20918015005E+01  0.66396602071E+02  0.70040802870E+02  0.00000000000E+00 0. -1.
          2    1    1    2  502    0  0.22199767264E+02 -0.20918015005E+01  0.13777646845E+04  0.13779451118E+04  0.00000000000E+00 0. -1.
</event>
<event>
 4    1  0.8988950E+003  0.2023242E+02  0.7546771E-02  0.1530512E+00
          2   -1    0    0  502    0  0.00000000000E+00  0.00000000000E+00  0.81163099342E+00  0.81163099342E+00  0.00000000000E+00 0.  1.
          2   -1    0    0  501    0 -0.00000000000E+00 -0.00000000000E+00 -0.95494193008E+03  0.95494193008E+03  0.00000000000E+00 0.  1.
          2    1    1    2  501    0  0.19573118238E+02  0.51228804052E+01 -0.14880639278E+03  0.15017554192E+03  0.00000000000E+00 0.  1.
          2    1    1    2  502    0 -0.19573118238E+02 -0.51228804052E+01 -0.80532390631E+03  0.80557801915E+03  0.00000000000E+00 0.  1.
</event>
<event>
 4    1  0.8988950E+003  0.2074754E+02  0.7546771E-02  0.1522900E+00
          2   -1    0    0  502    0  0.00000000000E+00  0.00000000000E+00  0.10704482553E+03  0.10704482553E+03  0.00000000000E+00 0.  1.
          2   -1    0    0  501    0 -0.00000000000E+00 -0.00000000000E+00 -0.90160361899E+02  0.90160361899E+02  0.00000000000E+00 0.  1.
          2    1    1    2  501    0 -0.12433051419E+02 -0.16609631222E+02  0.10482081889E+03  0.10685440884E+03  0.00000000000E+00 0.  1.
          2    1    1    2  502    0  0.12433051419E+02  0.16609631222E+02 -0.87936355252E+02  0.90350778590E+02  0.00000000000E+00 0.  1.
</event>
<event>
 4    1  0.8988950E+003  0.2246830E+02  0.7546771E-02  0.1499285E+00
          2   -1    0    0  502    0  0.00000000000E+00  0.00000000000E+00  0.12004255124E+02  0.12004255124E+02  0.00000000000E+00 0.  1.
          2   -1    0    0  501    0 -0.00000000000E+00 -0.00000000000E+00 -0.11624300522E+03  0.11624300522E+03  0.00000000000E+00 0. -1.
          2    1    1    2  501    0 -0.16120797264E+02  0.15650695111E+02 -0.89164765223E+00  0.22485982243E+02  0.00000000000E+00 0.  1.
          2    1    1    2  502    0  0.16120797264E+02 -0.15650695111E+02 -0.10334710244E+03  0.10576127810E+03  0.00000000000E+00 0. -1.
</event>
<event>
 4    1  0.8988950E+003  0.4420642E+02  0.7546771E-02  0.1325456E+00
          2   -1    0    0  502    0  0.00000000000E+00  0.00000000000E+00  0.12790461608E+04  0.12790461608E+04  0.00000000000E+00 0. -1.
          2   -1    0    0  501    0 -0.00000000000E+00 -0.00000000000E+00 -0.16317031311E+02  0.16317031311E+02  0.00000000000E+00 0. -1.
          2    1    1    2  501    0 -0.10506917528E+02  0.42939637585E+02  0.12479778157E+04  0.12487605200E+04  0.00000000000E+00 0. -1.
          2    1    1    2  502    0  0.10506917528E+02 -0.42939637585E+02  0.14751313806E+02  0.46602672143E+02  0.00000000000E+00 0. -1.
</event>
<event>
 4    1  0.8988950E+003  0.3338352E+02  0.7546771E-02  0.1392298E+00
          2   -1    0    0  501    0  0.00000000000E+00  0.00000000000E+00  0.24808958688E+01  0.24808958688E+01  0.00000000000E+00 0. -1.
          2   -1    0    0  502    0 -0.00000000000E+00 -0.00000000000E+00 -0.77804005409E+03  0.77804005409E+03  0.00000000000E+00 0. -1.
          2    1    1    2  501    0 -0.33350514886E+02  0.14842071918E+01 -0.64148804317E+03  0.64235610781E+03  0.00000000000E+00 0. -1.
          2    1    1    2  502    0  0.33350514886E+02 -0.14842071918E+01 -0.13407111505E+03  0.13816484215E+03  0.00000000000E+00 0. -1.
</event>
<event>
 4    1  0.8988950E+003  0.2113823E+02  0.7546771E-02  0.1517300E+00
          2   -1    0    0  502    0  0.00000000000E+00  0.00000000000E+00  0.37470722246E+03  0.37470722246E+03  0.00000000000E+00 0. -1.
          2   -1    0    0  501    0 -0.00000000000E+00 -0.00000000000E+00 -0.11925216575E+01  0.11925216575E+01  0.00000000000E+00 0.  1.
          2    1    1    2  501    0 -0.85529489061E+01 -0.19330595597E+02  0.18545009821E+03  0.18665091424E+03  0.00000000000E+00 0. -1.
          2    1    1    2  502    0  0.85529489061E+01  0.19330595597E+02  0.18806460259E+03  0.18924882987E+03  0.00000000000E+00 0.  1.
</event>
<event>
 4    1  0.8988950E+003  0.2208895E+02  0.7546771E-02  0.1504266E+00
          2   -1    0    0  501    0  0.00000000000E+00  0.00000000000E+00  0.88300001701E+02  0.88300001701E+02  0.00000000000E+00 0.  1.
          2   -1    0    0  502    0 -0.00000000000E+00 -0.00000000000E+00 -0.33153595866E+02  0.33153595866E+02  0.00000000000E+00 0.  1.
          2    1    1    2  501    0 -0.11256252616E+02 -0.19005747242E+02 -0.27862398803E+02  0.35556081312E+02  0.00000000000E+00 0.  1.
          2    1    1    2  502    0  0.11256252616E+02  0.19005747242E+02  0.83008804639E+02  0.85897516255E+02  0.00000000000E+00 0.  1.
</event>
<event>
 4    1  0.8988950E+003  0.7498430E+02  0.7546771E-02  0.1215996E+00
          2   -1    0    0  501    0  0.00000000000E+00  0.00000000000E+00  0.40549940624E+01  0.40549940624E+01  0.00000000000E+00 0. -1.
          2   -1    0    0  502    0 -0.00000000000E+00 -0.00000000000E+00 -0.19239041657E+04  0.19239041657E+04  0.00000000000E+00 0. -1.
          2    1    1    2  501    0 -0.68473891616E+02 -0.30560951496E+02 -0.14693576574E+04  0.14712697139E+04  0.00000000000E+00 0. -1.
          2    1    1    2  502    0  0.68473891616E+02  0.30560951496E+02 -0.45049151419E+03  0.45668944585E+03  0.00000000000E+00 0. -1.
</event>
<event>
 4    1  0.8988950E+003  0.4360687E+02  0.7546771E-02  0.1328554E+00
          2   -1    0    0  501    0  0.00000000000E+00  0.00000000000E+00  0.59945006983E+01  0.59945006983E+01  0.00000000000E+00 0.  1.
          2   -1    0    0  502    0 -0.00000000000E+00 -0.00000000000E+00 -0.25849485695E+04  0.25849485695E+04  0.00000000000E+00 0. -1.
          2    1    1    2  501    0 -0.42348801565E+01 -0.43400744771E+02 -0.25028595238E+04  0.25032393723E+04  0.00000000000E+00 0. -1.
          2    1    1    2  502    0  0.42348801565E+01  0.43400744771E+02 -0.76094545004E+02  0.87703697961E+02  0.00000000000E+00 0.  1.
</event>
<event>
 4    1  0.8988950E+003  0.3269811E+02  0.7546771E-02  0.1397511E+00
          2   -1    0    0  502    0  0.00000000000E+00  0.00000000000E+00  0.69717407031E+03  0.69717407031E+03  0.00000000000E+00 0.  1.
          2   -1    0    0  501    0 -0.00000000000E+00 -0.00000000000E+00 -0.11278146613E+02  0.11278146613E+02  0.00000000000E+00 0. -1.
          2    1    1    2  501    0  0.28535561284E+02 -0.15965220548E+02  0.67221112505E+03  0.67300591614E+03  0.00000000000E+00 0.  1.
          2    1    1    2  502    0 -0.28535561284E+02  0.15965220548E+02  0.13684798650E+02  0.35446300781E+02  0.00000000000E+00 0. -1.
</event>
<event>
 4    1  0.8988950E+003  0.2486269E+02  0.7546771E-02  0.1470345E+00
          2   -1    0    0  502    0  0.00000000000E+00  0.00000000000E+00  0.23453616814E+02  0.23453616814E+02  0.00000000000E+00 0.  1.
          2   -1    0    0  501    0 -0.00000000000E+00 -0.00000000000E+00 -0.78046745467E+03  0.78046745467E+03  0.00000000000E+00 0.  1.
          2    1    1    2  501    0 -0.90523727738E+01  0.23156161516E+02  0.16608216883E+02  0.29899600951E+02  0.00000000000E+00 0.  1.
          2    1    1    2  502    0  0.90523727738E+01 -0.23156161516E+02 -0.77362205473E+03  0.77402147053E+03  0.00000000000E+00 0.  1.
</event>
<event>
 4    1  0.8988950E+003  0.2030064E+02  0.7546771E-02  0.1529488E+00
          2   -1    0    0  502    0  0.00000000000E+00  0.00000000000E+00  0.31762616585E+01  0.31762616585E+01  0.00000000000E+00 0.  1.
          2   -1    0    0  501    0 -0.00000000000E+00 -0.00000000000E+00 -0.64236520822E+03  0.64236520822E+03  0.00000000000E+00 0. -1.
          2    1    1    2  501    0 -0.19848987761E+02  0.42583508673E+01 -0.31258098623E+02  0.37271766752E+02  0.00000000000E+00 0.  1.
          2    1    1    2  502    0  0.19848987761E+02 -0.42583508673E+01 -0.60793084793E+03  0.60826970312E+03  0.00000000000E+00 0. -1.
</event>
<event>
 4    1  0.8988950E+003  0.3621359E+02  0.7546771E-02  0.1372226E+00
          2   -1    0    0  502    0  0.00000000000E+00  0.00000000000E+00  0.32897394209E+03  0.32897394209E+03  0.00000000000E+00 0. -1.
          2   -1    0    0  501    0 -0.00000000000E+00 -0.00000000000E+00 -0.76045535041E+01  0.76045535041E+01  0.00000000000E+00 0. -1.
          2    1    1    2  501    0  0.35905469598E+02 -0.47139281019E+01  0.27676608772E+03  0.27912522490E+03  0.00000000000E+00 0. -1.
          2    1    1    2  502    0 -0.35905469598E+02  0.47139281019E+01  0.44603300872E+02  0.57453270698E+02  0.00000000000E+00 0. -1.
</event>
<event>
 4    1  0.8988950E+003  0.2081398E+02  0.7546771E-02  0.1521937E+00
          2   -1    0    0  502    0  0.00000000000E+00  0.00000000000E+00  0.58523980569E+02  0.58523980569E+02  0.00000000000E+00 0.  1.
          2   -1    0    0  501    0 -0.00000000000E+00 -0.00000000000E+00 -0.89535738213E+03  0.89535738213E+03  0.00000000000E+00 0. -1.
          2    1    1    2  501    0  0.54486966197E+01 -0.20088138428E+02  0.56548309510E+02  0.60257222876E+02  0.00000000000E+00 0.  1.
          2    1    1    2  502    0 -0.54486966197E+01  0.20088138428E+02 -0.89338171107E+03  0.89362413982E+03  0.00000000000E+00 0. -1.
</event>
<event>
 4    1  0.8988950E+003  0.3527231E+02  0.7546771E-02  0.1378659E+00
          2   -1    0    0  501    0  0.00000000000E+00  0.00000000000E+00  0.19252502987E+03  0.19252502987E+03  0.00000000000E+00 0.  1.
          2   -1    0    0  502    0 -0.00000000000E+00 -0.00000000000E+00 -0.29723806068E+03  0.29723806068E+03  0.00000000000E+00 0. -1.
          2    1    1    2  501    0 -0.12672125655E+02  0.32917368254E+02 -0.29456146836E+03  0.29666579605E+03  0.00000000000E+00 0. -1.
          2    1    1    2  502    0  0.12672125655E+02 -0.32917368254E+02  0.18984843755E+03  0.19309729450E+03  0.00000000000E+00 0.  1.
</event>
<event>
 4    1  0.8988950E+003  0.2102796E+02  0.7546771E-02  0.1518866E+00
          2   -1    0    0  501    0  0.00000000000E+00  0.00000000000E+00  0.83751556265E+03  0.83751556265E+03  0.00000000000E+00 0. -1.
          2   -1    0    0  502    0 -0.00000000000E+00 -0.00000000000E+00 -0.20128758888E+01  0.20128758888E+01  0.00000000000E+00 0. -1.
          2    1    1    2  501    0 -0.54650903485E+01  0.20305368392E+02  0.57216070084E+02  0.60957804045E+02  0.00000000000E+00 0. -1.
          2    1    1    2  502    0  0.54650903485E+01 -0.20305368392E+02  0.77828661667E+03  0.77857063449E+03  0.00000000000E+00 0. -1.
</event>
<event>
 4    1  0.8988950E+003  0.2514539E+02  0.7546771E-02  0.1467183E+00
          2   -1    0    0  501    0  0.00000000000E+00  0.00000000000E+00  0.52974789901E+00  0.52974789901E+00  0.00000000000E+00 0.  1.
          2   -1    0    0  502    0 -0.00000000000E+00 -0.00000000000E+00 -0.13568355827E+04  0.13568355827E+04  0.00000000000E+00 0.  1.
          2    1    1    2  501    0 -0.17046404995E+02  0.18485415755E+02 -0.91357769859E+03  0.91392368493E+03  0.00000000000E+00 0.  1.
          2    1    1    2  502    0  0.17046404995E+02 -0.18485415755E+02 -0.44272813621E+03  0.44344164566E+03  0.00000000000E+00 0.  1.
</event>
<event>
 4    1  0.8988950E+003  0.2253589E+02  0.7546771E-02  0.1498410E+00
          2   -1    0    0  502    0  0.00000000000E+00  0.00000000000E+00  0.26293392153E+03  0.26293392153E+03  0.00000000000E+00 0.  1.
          2   -1    0    0  501    0 -0.00000000000E+00 -0.00000000000E+00 -0.34819106603E+01  0.34819106603E+01  0.00000000000E+00 0.  1.
          2    1    1    2  501    0  0.10457856243E+02  0.19962455848E+02  0.21861326527E+03  0.21977175923E+03  0.00000000000E+00 0.  1.
          2    1    1    2  502    0 -0.10457856243E+02 -0.19962455848E+02  0.40838745600E+02  0.46644072966E+02  0.00000000000E+00 0.  1.
</event>
<event>
 4    1  0.8988950E+003  0.2266746E+02  0.7546771E-02  0.1496717E+00
          2   -1    0    0  501    0  0.00000000000E+00  0.00000000000E+00  0.17201045038E+03  0.17201045038E+03  0.00000000000E+00 0. -1.
          2   -1    0    0  502    0 -0.00000000000E+00 -0.00000000000E+00 -0.11999434381E+04  0.11999434381E+04  0.00000000000E+00 0.  1.
          2    1    1    2  501    0  0.21417471739E+02  0.74233175494E+01 -0.11990890796E+04  0.11993033122E+04  0.00000000000E+00 0.  1.
          2    1    1    2  502    0 -0.21417471739E+02 -0.74233175494E+01  0.17115609185E+03  0.17265057635E+03  0.00000000000E+00 0. -1.
</event>
<event>
 4    1  0.8988950E+003  0.2025087E+02  0.7546771E-02  0.1530235E+00
          2   -1    0    0  501    0  0.00000000000E+00  0.00000000000E+00  0.75808954138E+00  0.75808954138E+00  0.00000000000E+00 0. -1.
          2   -1    0    0  502    0 -0.00000000000E+00 -0.00000000000E+00 -0.11009524441E+04  0.11009524441E+04  0.00000000000E+00 0. -1.
          2    1    1    2  501    0 -0.14312352971E+02  0.14326702092E+02 -0.94296225804E+03  0.94317968486E+03  0.00000000000E+00 0. -1.
          2    1    1    2  502    0  0.14312352971E+02 -0.14326702092E+02 -0.15723209651E+03  0.15853084878E+03  0.00000000000E+00 0. -1.
</event>
<event>
 4    1  0.8988950E+003  0.5423019E+02  0.7546771E-02  0.1280805E+00
          2   -1    0    0  502    0  0.00000000000E+00  0.00000000000E+00  0.11951391833E+03  0.11951391833E+03  0.00000000000E+00 0. -1.
          2   -1    0    0  501    0 -0.00000000000E+00 -0.00000000000E+00 -0.27609178014E+03  0.27609178014E+03  0.00000000000E+00 0.  1.
          2    1    1    2  501    0 -0.54102010020E+02 -0.37264248367E+01  0.11049342734E+03  0.12308416314E+03  0.00000000000E+00 0. -1.
          2    1    1    2  502    0  0.54102010020E+02  0.37264248367E+01 -0.26707128916E+03  0.27252153534E+03  0.00000000000E+00 0.  1.
</event>
<event>
 4    1  0.8988950E+003  0.2396854E+02  0.7546771E-02  0.1480682E+00
          2   -1    0    0  502    0  0.00000000000E+00  0.00000000000E+00  0.15580164635E+02  0.15580164635E+02  0.00000000000E+00 0. -1.
          2   -1    0    0  501    0 -0.00000000000E+00 -0.00000000000E+00 -0.47174204634E+03  0.47174204634E+03  0.00000000000E+00 0.  1.
          2    1    1    2  501    0  0.30180281076E+01  0.23777766900E+02  0.58636778335E+01  0.24675360386E+02  0.00000000000E+00 0. -1.
          2    1    1    2  502    0 -0.30180281076E+01 -0.23777766900E+02 -0.46202555954E+03  0.46264685059E+03  0.00000000000E+00 0.  1.
</event>
<event>
 4    1  0.8988950E+003  0.2445013E+02  0.7546771E-02  0.1475050E+00
          2   -1    0    0  502    0  0.00000000000E+00  0.00000000000E+00  0.17382254244E+04  0.17382254244E+04  0.00000000000E+00 0.  1.
          2   -1    0    0  501    0 -0.00000000000E+00 -0.00000000000E+00 -0.37540848905E+00  0.37540848905E+00  0.00000000000E+00 0.  1.
          2    1    1    2  501    0  0.24251593637E+02 -0.31095059233E+01  0.11206929137E+04  0.11209595959E+04  0.00000000000E+00 0.  1.
          2    1    1    2  502    0 -0.24251593637E+02  0.31095059233E+01  0.61715710224E+03  0.61764123702E+03  0.00000000000E+00 0.  1.
</event>
<event>
 4    1  0.8988950E+003  0.3402925E+02  0.7546771E-02  0.1387519E+00
          2   -1    0    0  501    0  0.00000000000E+00  0.00000000000E+00  0.25620883297E+01  0.25620883297E+01  0.00000000000E+00 0. -1.
          2   -1    0    0  502    0 -0.00000000000E+00 -0.00000000000E+00 -0.13193948239E+04  0.13193948239E+04  0.00000000000E+00 0. -1.
          2    1    1    2  501    0 -0.24032061829E+02 -0.24092530011E+02 -0.11943556037E+04  0.11948402815E+04  0.00000000000E+00 0. -1.
          2    1    1    2  502    0  0.24032061829E+02  0.24092530011E+02 -0.12247713178E+03  0.12711663073E+03  0.00000000000E+00 0. -1.
</event>
<event>
 4    1  0.8988950E+003  0.2300118E+02  0.7546771E-02  0.1492483E+00
          2   -1    0    0  502    0  0.00000000000E+00  0.00000000000E+00  0.26052243352E+00  0.26052243352E+00  0.00000000000E+00 0.  1.
          2   -1    0    0  501    0 -0.00000000000E+00 -0.00000000000E+00 -0.23610496777E+04  0.23610496777E+04  0.00000000000E+00 0.  1.
          2    1    1    2  501    0 -0.81157705739E+01  0.21521815197E+02 -0.73879487188E+03  0.73915283736E+03  0.00000000000E+00 0.  1.
          2    1    1    2  502    0  0.81157705739E+01 -0.21521815197E+02 -0.16219942834E+04  0.16221573628E+04  0.00000000000E+00 0.  1.
</event>
<event>
 4    1  0.8988950E+003  0.2670604E+02  0.7546771E-02  0.1450584E+00
          2   -1    0    0  501    0  0.00000000000E+00  0.00000000000E+00  0.25205118292E+03  0.25205118292E+03  0.00000000000E+00 0. -1.
          2   -1    0    0  502    0 -0.00000000000E+00 -0.00000000000E+00 -0.28929413623E+01  0.28929413623E+01  0.00000000000E+00 0. -1.
          2    1    1    2  501    0 -0.26613832654E+02 -0.22172965808E+01  0.10572207202E+03  0.10904296862E+03  0.00000000000E+00 0. -1.
          2    1    1    2  502    0  0.26613832654E+02  0.22172965808E+01  0.14343616954E+03  0.14590115567E+03  0.00000000000E+00 0. -1.
</event>
<event>
 4    1  0.8988950E+003  0.3223008E+02  0.7546771E-02  0.1401158E+00
          2   -1    0    0  501    0  0.00000000000E+00  0.00000000000E+00  0.10009248085E+02  0.10009248085E+02  0.00000000000E+00 0. -1.
          2   -1    0    0  502    0 -0.00000000000E+00 -0.00000000000E+00 -0.10509231071E+03  0.10509231071E+03  0.00000000000E+00 0. -1.
          2    1    1    2  501    0  0.13286755489E+02 -0.29363921135E+02 -0.53968213230E+02  0.62859730950E+02  0.00000000000E+00 0. -1.
          2    1    1    2  502    0 -0.13286755489E+02  0.29363921135E+02 -0.41114849390E+02  0.52241827841E+02  0.00000000000E+00 0. -1.
</event>
<event>
 4    1  0.8988950E+003  0.2281532E+02  0.7546771E-02  0.1494830E+00
          2   -1    0    0  502    0  0.00000000000E+00  0.00000000000E+00  0.13845153070E+04  0.13845153070E+04  0.00000000000E+00 0.  1.
          2   -1    0    0  501    0 -0.00000000000E+00 -0.00000000000E+00 -0.61271200645E+01  0.61271200645E+01  0.00000000000E+00 0. -1.
          2    1    1    2  501    0 -0.19175935848E+02 -0.12362139556E+02  0.13628444717E+04  0.13630354335E+04  0.00000000000E+00 0.  1.
          2    1    1    2  502    0  0.19175935848E+02  0.12362139556E+02  0.15543715287E+02  0.27606993588E+02  0.00000000000E+00 0. -1.
</event>
<event>
 4    1  0.8988950E+003  0.3070623E+02  0.7546771E-02  0.1413557E+00
          2   -1    0    0  502    0  0.00000000000E+00  0.00000000000E+00  0.10193184111E+04  0.10193184111E+04  0.00000000000E+00 0. -1.
          2   -1    0    0  501    0 -0.00000000000E+00 -0.00000000000E+00 -0.42111287887E+01  0.42111287887E+01  0.00000000000E+00 0.  1.
          2    1    1    2  501    0 -0.15358513998E+02  0.26589257865E+02  0.95963147749E+03  0.96012261986E+03  0.00000000000E+00 0. -1.
          2    1    1    2  502    0  0.15358513998E+02 -0.26589257865E+02  0.55475804801E+02  0.63406920004E+02  0.00000000000E+00 0.  1.
</event>
<event>
 4    1  0.8988950E+003  0.2976002E+02  0.7546771E-02  0.1421694E+00
          2   -1    0    0  501    0  0.00000000000E+00  0.00000000000E+00  0.25500655474E+03  0.25500655474E+03  0.00000000000E+00 0.  1.
          2   -1    0    0  502    0 -0.00000000000E+00 -0.00000000000E+00 -0.18818384720E+02  0.18818384720E+02  0.00000000000E+00 0. -1.
          2    1    1    2  501    0 -0.28349950595E+02 -0.90520186547E+01 -0.55403816515E+01  0.30271348984E+02  0.00000000000E+00 0. -1.
          2    1    1    2  502    0  0.28349950595E+02  0.90520186547E+01  0.24172855167E+03  0.24355359047E+03  0.00000000000E+00 0.  1.
</event>
<event>
 4    1  0.8988950E+003  0.3679599E+02  0.7546771E-02  0.1368358E+00
          2   -1    0    0  501    0  0.00000000000E+00  0.00000000000E+00  0.15744974050E+02  0.15744974050E+02  0.00000000000E+00 0.  1.
          2   -1    0    0  502    0 -0.00000000000E+00 -0.00000000000E+00 -0.11777364385E+03  0.11777364385E+03  0.00000000000E+00 0. -1.
          2    1    1    2  501    0  0.32781752639E+02 -0.16712313892E+02 -0.85693982990E+02  0.93259870589E+02  0.00000000000E+00 0. -1.
          2    1    1    2  502    0 -0.32781752639E+02  0.16712313892E+02 -0.16334686807E+02  0.40258747308E+02  0.00000000000E+00 0.  1.
</event>
<event>
 4    1  0.8988950E+003  0.2830359E+02  0.7546771E-02  0.1434935E+00
          2   -1    0    0  501    0  0.00000000000E+00  0.00000000000E+00  0.79281856476E+01  0.79281856476E+01  0.00000000000E+00 0.  1.
          2   -1    0    0  502    0 -0.00000000000E+00 -0.00000000000E+00 -0.59191550409E+03  0.59191550409E+03  0.00000000000E+00 0.  1.
          2    1    1    2  501    0  0.18100295885E+02  0.21759424174E+02 -0.56511917987E+03  0.56582751852E+03  0.00000000000E+00 0.  1.
          2    1    1    2  502    0 -0.18100295885E+02 -0.21759424174E+02 -0.18868138573E+02  0.34016171223E+02  0.00000000000E+00 0.  1.
</event>
<event>
 4    1  0.8988950E+003  0.2265206E+02  0.7546771E-02  0.1496914E+00
          2   -1    0    0  501    0  0.00000000000E+00  0.00000000000E+00  0.13698897895E+03  0.13698897895E+03  0.00000000000E+00 0. -1.
          2   -1    0    0  502    0 -0.00000000000E+00 -0.00000000000E+00 -0.12366987830E+03  0.12366987830E+03  0.00000000000E+00 0. -1.
          2    1    1    2  501    0  0.15996931715E+02 -0.16037897983E+02 -0.12168101506E+03  0.12377150489E+03  0.00000000000E+00 0. -1.
          2    1    1    2  502    0 -0.15996931715E+02  0.16037897983E+02  0.13500011571E+03  0.13688735237E+03  0.00000000000E+00 0. -1.
</event>
<event>
 4    1  0.8988950E+003  0.4569744E+02  0.7546771E-02  0.1317988E+00
          2   -1    0    0  501    0  0.00000000000E+00  0.00000000000E+00  0.25097992975E+04  0.25097992975E+04  0.00000000000E+00 0. -1.
          2   -1    0    0  502    0 -0.00000000000E+00 -0.00000000000E+00 -0.67881678527E+01  0.67881678527E+01  0.00000000000E+00 0. -1.
          2    1    1    2  501    0 -0.95846002288E+01  0.44680994975E+02  0.72847812187E+02  0.85994532465E+02  0.00000000000E+00 0. -1.
          2    1    1    2  502    0  0.95846002288E+01 -0.44680994975E+02  0.24301633175E+04  0.24305929329E+04  0.00000000000E+00 0. -1.
</event>
<event>
 4    1  0.8988950E+003  0.3933572E+02  0.7546771E-02  0.1352423E+00
          2   -1    0    0  501    0  0.00000000000E+00  0.00000000000E+00  0.20756022465E+01  0.20756022465E+01  0.00000000000E+00 0.  1.
          2   -1    0    0  502    0 -0.00000000000E+00 -0.00000000000E+00 -0.28442708594E+04  0.28442708594E+04  0.00000000000E+00 0.  1.
          2    1    1    2  501    0 -0.26053572664E+02  0.29470502774E+02 -0.26436230770E+04  0.26439157083E+04  0.00000000000E+00 0.  1.
          2    1    1    2  502    0  0.26053572664E+02 -0.29470502774E+02 -0.19857218015E+03  0.20243075338E+03  0.00000000000E+00 0.  1.
</event>
<event>
 4    1  0.8988950E+003  0.2143749E+02  0.7546771E-02  0.1513109E+00
          2   -1    0    0  502    0  0.00000000000E+00  0.00000000000E+00  0.61953661272E+01  0.61953661272E+01  0.00000000000E+00 0. -1.
          2   -1    0    0  501    0 -0.00000000000E+00 -0.00000000000E+00 -0.90666795165E+03  0.90666795165E+03  0.00000000000E+00 0.  1.
          2    1    1    2  501    0 -0.18434302517E+02 -0.10942688183E+02 -0.12874468340E+02  0.25006356572E+02  0.00000000000E+00 0. -1.
          2    1    1    2  502    0  0.18434302517E+02  0.10942688183E+02 -0.88759811718E+03  0.88785696121E+03  0.00000000000E+00 0.  1.
</event>
<event>
 4    1  0.8988950E+003  0.7889357E+02  0.7546771E-02  0.1206440E+00
          2   -1    0    0  501    0  0.00000000000E+00  0.00000000000E+00  0.16700959044E+04  0.16700959044E+04  0.00000000000E+00 0. -1.
          2   -1    0    0  502    0 -0.00000000000E+00 -0.00000000000E+00 -0.38874811942E+01  0.38874811942E+01  0.00000000000E+00 0. -1.
          2    1    1    2  501    0 -0.24257986380E+01 -0.78856265601E+02  0.66296539956E+03  0.66764310537E+03  0.00000000000E+00 0. -1.
          2    1    1    2  502    0  0.24257986380E+01  0.78856265601E+02  0.10032430236E+04  0.10063402802E+04  0.00000000000E+00 0. -1.
</event>
<event>
 4    1  0.8988950E+003  0.4269039E+02  0.7546771E-02  0.1333403E+00
          2   -1    0    0  502    0  0.00000000000E+00  0.00000000000E+00  0.90758127955E+01  0.90758127955E+01  0.00000000000E+00 0.  1.
          2   -1    0    0  501    0 -0.00000000000E+00 -0.00000000000E+00 -0.33547710546E+03  0.33547710546E+03  0.00000000000E+00 0.  1.
          2    1    1    2  501    0  0.20575471510E+02  0.37404806837E+02 -0.54048284306E+02  0.68874426595E+02  0.00000000000E+00 0.  1.
          2    1    1    2  502    0 -0.20575471510E+02 -0.37404806837E+02 -0.27235300836E+03  0.27567849166E+03  0.00000000000E+00 0.  1.
</event>
<event>
 4    1  0.8988950E+003  0.2133556E+02  0.7546771E-02  0.1514527E+00
          2   -1    0    0  502    0  0.00000000000E+00  0.00000000000E+00  0.38403506711E+03  0.38403506711E+03  0.00000000000E+00 0.  1.
          2   -1    0    0  501    0 -0.00000000000E+00 -0.00000000000E+00 -0.30340169224E+01  0.30340169224E+01  0.00000000000E+00 0.  1.
          2    1    1    2  501    0  0.18466206615E+02  0.10686693252E+02  0.34157177154E+03  0.34223746334E+03  0.00000000000E+00 0.  1.
          2    1    1    2  502    0 -0.18466206615E+02 -0.10686693252E+02  0.39429278651E+02  0.44831620697E+02  0.00000000000E+00 0.  1.
</event>
<event>
 4    1  0.1626814E+004  0.3049836E+02  0.7546771E-02  0.1415314E+00
          2   -1    0    0  501    0  0.00000000000E+00  0.00000000000E+00  0.10650527261E+04  0.10650527261E+04  0.00000000000E+00 0.  1.
          2   -1    0    0  502    0 -0.00000000000E+00 -0.00000000000E+00 -0.10776628140E+04  0.10776628140E+04  0.00000000000E+00 0.  1.
          2    1    1    2  501    0  0.30488403036E+02 -0.77919231961E+00 -0.10772286124E+04  0.10776602587E+04  0.00000000000E+00 0.  1.
          2    1    1    2  502    0 -0.30488403036E+02  0.77919231961E+00  0.10646185245E+04  0.10650552814E+04  0.00000000000E+00 0.  1.
</event>
<event>
 4    1  0.8988950E+003  0.2439436E+02  0.7546771E-02  0.1475694E+00
          2   -1    0    0  502    0  0.00000000000E+00  0.00000000000E+00  0.50042902876E+03  0.50042902876E+03  0.00000000000E+00 0.  1.
          2   -1    0    0  501    0 -0.00000000000E+00 -0.00000000000E+00 -0.37781108037E+01  0.37781108037E+01  0.00000000000E+00 0. -1.
          2    1    1    2  501    0  0.21337209164E+02 -0.11824055290E+02  0.45701681207E+03  0.45766740248E+03  0.00000000000E+00 0.  1.
          2    1    1    2  502    0 -0.21337209164E+02  0.11824055290E+02  0.39634105887E+02  0.46539737084E+02  0.00000000000E+00 0. -1.
</event>
<event>
 4    1  0.8988950E+003  0.4478838E+02  0.7546771E-02  0.1322501E+00
          2   -1    0    0  502    0  0.00000000000E+00  0.00000000000E+00  0.22836853783E+02  0.22836853783E+02  0.00000000000E+00 0.  1.
          2   -1    0    0  501    0 -0.00000000000E+00 -0.00000000000E+00 -0.27361165241E+04  0.27361165241E+04  0.00000000000E+00 0. -1.
          2    1    1    2  501    0  0.33815195505E+02 -0.29368884887E+02  0.51282517305E+00  0.44791314295E+02  0.00000000000E+00 0.  1.
          2    1    1    2  502    0 -0.33815195505E+02  0.29368884887E+02 -0.27137924955E+04  0.27141620636E+04  0.00000000000E+00 0. -1.
</event>
<event>
 4    1  0.8988950E+003  0.2069166E+02  0.7546771E-02  0.1523713E+00
          2   -1    0    0  501    0  0.00000000000E+00  0.00000000000E+00  0.75949055130E+02  0.75949055130E+02  0.00000000000E+00 0. -1.
          2   -1    0    0  502    0 -0.00000000000E+00 -0.00000000000E+00 -0.16053070179E+02  0.16053070179E+02  0.00000000000E+00 0.  1.
          2    1    1    2  501    0  0.94673000047E+01  0.18398772606E+02 -0.71060275229E+01  0.21877847928E+02  0.00000000000E+00 0.  1.
          2    1    1    2  502    0 -0.94673000047E+01 -0.18398772606E+02  0.67002012474E+02  0.70124277382E+02  0.00000000000E+00 0. -1.
</event>
<event>
 4    1  0.8988950E+003  0.2194260E+02  0.7546771E-02  0.1506221E+00
          2   -1    0    0  501    0  0.00000000000E+00  0.00000000000E+00  0.16185861688E+03  0.16185861688E+03  0.00000000000E+00 0.  1.
          2   -1    0    0  502    0 -0.00000000000E+00 -0.00000000000E+00 -0.74166931888E+03  0.74166931888E+03  0.00000000000E+00 0. -1.
          2    1    1    2  501    0 -0.21836122783E+02 -0.21590149224E+01 -0.74076244339E+03  0.74108735999E+03  0.00000000000E+00 0. -1.
          2    1    1    2  502    0  0.21836122783E+02  0.21590149224E+01  0.16095174138E+03  0.16244057577E+03  0.00000000000E+00 0.  1.
</event>
<event>
 4    1  0.8988950E+003  0.2295231E+02  0.7546771E-02  0.1493098E+00
          2   -1    0    0  501    0  0.00000000000E+00  0.00000000000E+00  0.17492710217E+02  0.17492710217E+02  0.00000000000E+00 0.  1.
          2   -1    0    0  502    0 -0.00000000000E+00 -0.00000000000E+00 -0.10225644604E+03  0.10225644604E+03  0.00000000000E+00 0. -1.
          2    1    1    2  501    0  0.22758641712E+02 -0.29753209349E+01 -0.92672477666E+02  0.95472490404E+02  0.00000000000E+00 0. -1.
          2    1    1    2  502    0 -0.22758641712E+02  0.29753209349E+01  0.79087418457E+01  0.24276665851E+02  0.00000000000E+00 0.  1.
</event>
<event>
 4    1  0.8988950E+003  0.3799185E+02  0.7546771E-02  0.1360673E+00
          2   -1    0    0  501    0  0.00000000000E+00  0.00000000000E+00  0.55797087330E+02  0.55797087330E+02  0.00000000000E+00 0. -1.
          2   -1    0    0  502    0 -0.00000000000E+00 -0.00000000000E+00 -0.40304649687E+02  0.40304649687E+02  0.00000000000E+00 0. -1.
          2    1    1    2  501    0  0.37017346185E+02  0.85496590468E+01 -0.21011277351E+02  0.43414909471E+02  0.00000000000E+00 0. -1.
          2    1    1    2  502    0 -0.37017346185E+02 -0.85496590468E+01  0.36503714995E+02  0.52686827546E+02  0.00000000000E+00 0. -1.
</event>
<event>
 4    1  0.8988950E+003  0.3026229E+02  0.7546771E-02  0.1417331E+00
          2   -1    0    0  502    0  0.00000000000E+00  0.00000000000E+00  0.88942213718E+02  0.88942213718E+02  0.00000000000E+00 0.  1.
          2   -1    0    0  501    0 -0.00000000000E+00 -0.00000000000E+00 -0.76844076463E+02  0.76844076463E+02  0.00000000000E+00 0. -1.
          2    1    1    2  501    0 -0.11039910808E+02  0.28176701251E+02  0.83188969943E+02  0.88522374823E+02  0.00000000000E+00 0.  1.
          2    1    1    2  502    0  0.11039910808E+02 -0.28176701251E+02 -0.71090832688E+02  0.77263915357E+02  0.00000000000E+00 0. -1.
</event>
<event>
 4    1  0.8988950E+003  0.2202636E+02  0.7546771E-02  0.1505100E+00
          2   -1    0    0  501    0  0.00000000000E+00  0.00000000000E+00  0.17701840007E+04  0.17701840007E+04  0.00000000000E+00 0.  1.
          2   -1    0    0  502    0 -0.00000000000E+00 -0.00000000000E+00 -0.95120061023E+00  0.95120061023E+00  0.00000000000E+00 0.  1.
          2    1    1    2  501    0  0.11190157999E+02  0.18972107869E+02  0.13744410136E+03  0.13919785025E+03  0.00000000000E+00 0.  1.
          2    1    1    2  502    0 -0.11190157999E+02 -0.18972107869E+02  0.16317886987E+04  0.16319373511E+04  0.00000000000E+00 0.  1.
</event>
<event>
 4    1  0.8988950E+003  0.4674196E+02  0.7546771E-02  0.1312952E+00
          2   -1    0    0  501    0  0.00000000000E+00  0.00000000000E+00  0.88085057337E+03  0.88085057337E+03  0.00000000000E+00 0.  1.
          2   -1    0    0  502    0 -0.00000000000E+00 -0.00000000000E+00 -0.36521684639E+01  0.36521684639E+01  0.00000000000E+00 0.  1.
          2    1    1    2  501    0 -0.36360041098E+02  0.29372742024E+02  0.18808897527E+03  0.19380988928E+03  0.00000000000E+00 0.  1.
          2    1    1    2  502    0  0.36360041098E+02 -0.29372742024E+02  0.68910942963E+03  0.69069285256E+03  0.00000000000E+00 0.  1.
</event>
<event>
 4    1  0.8988950E+003  0.2510841E+02  0.7546771E-02  0.1467594E+00
          2   -1    0    0  502    0  0.00000000000E+00  0.00000000000E+00  0.23223971822E+03  0.23223971822E+03  0.00000000000E+00 0. -1.
          2   -1    0    0  501    0 -0.00000000000E+00 -0.00000000000E+00 -0.27484799185E+02  0.27484799185E+02  0.00000000000E+00 0.  1.
          2    1    1    2  501    0 -0.10553264847E+02 -0.22782908538E+02  0.22566001546E+03  0.22705258179E+03  0.00000000000E+00 0. -1.
          2    1    1    2  502    0  0.10553264847E+02  0.22782908538E+02 -0.20905096424E+02  0.32671935615E+02  0.00000000000E+00 0.  1.
</event>
<event>
 4    1  0.8988950E+003  0.2421667E+02  0.7546771E-02  0.1477761E+00
          2   -1    0    0  501    0  0.00000000000E+00  0.00000000000E+00  0.68060301192E+01  0.68060301192E+01  0.00000000000E+00 0.  1.
          2   -1    0    0  502    0 -0.00000000000E+00 -0.00000000000E+00 -0.23568157015E+03  0.23568157015E+03  0.00000000000E+00 0. -1.
          2    1    1    2  501    0  0.24202875021E+02 -0.81720633691E+00 -0.21100732701E+03  0.21239241756E+03  0.00000000000E+00 0. -1.
          2    1    1    2  502    0 -0.24202875021E+02  0.81720633691E+00 -0.17868213013E+02  0.30095182701E+02  0.00000000000E+00 0.  1.
</event>
<event>
 4    1  0.8988950E+003  0.3296800E+02  0.7546771E-02  0.1395440E+00
          2   -1    0    0  501    0  0.00000000000E+00  0.00000000000E+00  0.45165499561E+03  0.45165499561E+03  0.00000000000E+00 0.  1.
          2   -1    0    0  502    0 -0.00000000000E+00 -0.00000000000E+00 -0.43526190846E+01  0.43526190846E+01  0.00000000000E+00 0.  1.
          2    1    1    2  501    0  0.17668211630E+02 -0.27833856413E+02  0.71191144596E+02  0.78454243569E+02  0.00000000000E+00 0.  1.
          2    1    1    2  502    0 -0.17668211630E+02  0.27833856413E+02  0.37611123193E+03  0.37755337113E+03  0.00000000000E+00 0.  1.
</event>
<event>
 4    1  0.8988950E+003  0.2103595E+02  0.7546771E-02  0.1518752E+00
          2   -1    0    0  502    0  0.00000000000E+00  0.00000000000E+00  0.16961688969E+01  0.16961688969E+01  0.00000000000E+00 0.  1.
          2   -1    0    0  501    0 -0.00000000000E+00 -0.00000000000E+00 -0.34440269986E+03  0.34440269986E+03  0.00000000000E+00 0.  1.
          2    1    1    2  501    0 -0.19775344575E+02  0.71726509431E+01 -0.86138129251E+02  0.88669546550E+02  0.00000000000E+00 0.  1.
          2    1    1    2  502    0  0.19775344575E+02 -0.71726509431E+01 -0.25656840172E+03  0.25742932221E+03  0.00000000000E+00 0.  1.
</event>
<event>
 4    1  0.8988950E+003  0.2141754E+02  0.7546771E-02  0.1513386E+00
          2   -1    0    0  501    0  0.00000000000E+00  0.00000000000E+00  0.50021389593E+01  0.50021389593E+01  0.00000000000E+00 0. -1.
          2   -1    0    0  502    0 -0.00000000000E+00 -0.00000000000E+00 -0.35548968310E+03  0.35548968310E+03  0.00000000000E+00 0.  1.
          2    1    1    2  501    0  0.39776120317E+00 -0.21413842206E+02 -0.33051050079E+03  0.33120371674E+03  0.00000000000E+00 0.  1.
          2    1    1    2  502    0 -0.39776120317E+00  0.21413842206E+02 -0.19977043351E+02  0.29288105316E+02  0.00000000000E+00 0. -1.
</event>
<event>
 4    1  0.8988950E+003  0.2386404E+02  0.7546771E-02  0.1481924E+00
          2   -1    0    0  502    0  0.00000000000E+00  0.00000000000E+00  0.68221510877E+01  0.68221510877E+01  0.00000000000E+00 0. -1.
          2   -1    0    0  501    0 -0.00000000000E+00 -0.00000000000E+00 -0.84003866456E+02  0.84003866456E+02  0.00000000000E+00 0. -1.
          2    1    1    2  501    0  0.23789173519E+02  0.18888538426E+01 -0.34994270221E+02  0.42356717222E+02  0.00000000000E+00 0. -1.
          2    1    1    2  502    0 -0.23789173519E+02 -0.18888538426E+01 -0.42187445148E+02  0.48469300322E+02  0.00000000000E+00 0. -1.
</event>
<event>
 4    1  0.8988950E+003  0.3496073E+02  0.7546771E-02  0.1380840E+00
          2   -1    0    0  501    0  0.00000000000E+00  0.00000000000E+00  0.33937139214E+03  0.33937139214E+03  0.00000000000E+00 0. -1.
          2   -1    0    0  502    0 -0.00000000000E+00 -0.00000000000E+00 -0.57567966996E+02  0.57567966996E+02  0.00000000000E+00 0.  1.
          2    1    1    2  501    0 -0.19383475620E+02 -0.29095243854E+02 -0.51259460554E+02  0.62046632772E+02  0.00000000000E+00 0.  1.
          2    1    1    2  502    0  0.19383475620E+02  0.29095243854E+02  0.33306288570E+03  0.33489272636E+03  0.00000000000E+00 0. -1.
</event>
<event>
 4    1  0.8988950E+003  0.2120618E+02  0.7546771E-02  0.1516341E+00
          2   -1    0    0  501    0  0.00000000000E+00  0.00000000000E+00  0.49128861284E+03  0.49128861284E+03  0.00000000000E+00 0. -1.
          2   -1    0    0  502    0 -0.00000000000E+00 -0.00000000000E+00 -0.13017140880E+01  0.13017140880E+01  0.00000000000E+00 0. -1.
          2    1    1    2  501    0 -0.17822696931E+02  0.11491448732E+02  0.11081108462E+03  0.11282197656E+03  0.00000000000E+00 0. -1.
          2    1    1    2  502    0  0.17822696931E+02 -0.11491448732E+02  0.37917581413E+03  0.37976835037E+03  0.00000000000E+00 0. -1.
</event>
<event>
 4    1  0.8988950E+003  0.2813418E+02  0.7546771E-02  0.1436536E+00
          2   -1    0    0  502    0  0.00000000000E+00  0.00000000000E+00  0.12670317908E+02  0.12670317908E+02  0.00000000000E+00 0.  1.
          2   -1    0    0  501    0 -0.00000000000E+00 -0.00000000000E+00 -0.17463900421E+04  0.17463900421E+04  0.00000000000E+00 0. -1.
          2    1    1    2  501    0 -0.26100603773E+02  0.10501944380E+02 -0.32040956193E+01  0.28316048132E+02  0.00000000000E+00 0.  1.
          2    1    1    2  502    0  0.26100603773E+02 -0.10501944380E+02 -0.17305156286E+04  0.17307443119E+04  0.00000000000E+00 0. -1.
</event>
<event>
 4    1  0.8988950E+003  0.2730169E+02  0.7546771E-02  0.1444601E+00
          2   -1    0    0  502    0  0.00000000000E+00  0.00000000000E+00  0.29275796448E+03  0.29275796448E+03  0.00000000000E+00 0.  1.
          2   -1    0    0  501    0 -0.00000000000E+00 -0.00000000000E+00 -0.13307665551E+04  0.13307665551E+04  0.00000000000E+00 0. -1.
          2    1    1    2  501    0 -0.26534977877E+02  0.64247461432E+01  0.29198104631E+03  0.29325469104E+03  0.00000000000E+00 0.  1.
          2    1    1    2  502    0  0.26534977877E+02 -0.64247461432E+01 -0.13299896370E+04  0.13302698286E+04  0.00000000000E+00 0. -1.
</event>
<event>
 4    1  0.8988950E+003  0.2341135E+02  0.7546771E-02  0.1487396E+00
          2   -1    0    0  502    0  0.00000000000E+00  0.00000000000E+00  0.68344477691E+03  0.68344477691E+03  0.00000000000E+00 0.  1.
          2   -1    0    0  501    0 -0.00000000000E+00 -0.00000000000E+00 -0.20803744133E+03  0.20803744133E+03  0.00000000000E+00 0.  1.
          2    1    1    2  501    0 -0.57593123996E+01 -0.22691882138E+02  0.68258481399E+03  0.68298617811E+03  0.00000000000E+00 0.  1.
          2    1    1    2  502    0  0.57593123996E+01  0.22691882138E+02 -0.20717747841E+03  0.20849604014E+03  0.00000000000E+00 0.  1.
</event>
<event>
 4    1  0.8988950E+003  0.2382794E+02  0.7546771E-02  0.1482355E+00
          2   -1    0    0  501    0  0.00000000000E+00  0.00000000000E+00  0.14941634721E+03  0.14941634721E+03  0.00000000000E+00 0.  1.
          2   -1    0    0  502    0 -0.00000000000E+00 -0.00000000000E+00 -0.58038591444E+02  0.58038591444E+02  0.00000000000E+00 0. -1.
          2    1    1    2  501    0 -0.17410213656E+02  0.16268231974E+02 -0.54585471328E+02  0.59559588575E+02  0.00000000000E+00 0. -1.
          2    1    1    2  502    0  0.17410213656E+02 -0.16268231974E+02  0.14596322710E+03  0.14789535008E+03  0.00000000000E+00 0.  1.
</event>
<event>
 4    1  0.8988950E+003  0.2357312E+02  0.7546771E-02  0.1485424E+00
          2   -1    0    0  501    0  0.00000000000E+00  0.00000000000E+00  0.18686251489E+02  0.18686251489E+02  0.00000000000E+00 0.  1.
          2   -1    0    0  502    0 -0.00000000000E+00 -0.00000000000E+00 -0.24683574594E+03  0.24683574594E+03  0.00000000000E+00 0.  1.
          2    1    1    2  501    0 -0.45842662422E+01  0.23123076534E+02 -0.23858184760E+03  0.23974359255E+03  0.00000000000E+00 0.  1.
          2    1    1    2  502    0  0.45842662422E+01 -0.23123076534E+02  0.10432353155E+02  0.25778404872E+02  0.00000000000E+00 0.  1.
</event>
<event>
 4    1  0.8988950E+003  0.2155745E+02  0.7546771E-02  0.1511453E+00
          2   -1    0    0  502    0  0.00000000000E+00  0.00000000000E+00  0.15827982403E+03  0.15827982403E+03  0.00000000000E+00 0. -1.
          2   -1    0    0  501    0 -0.00000000000E+00 -0.00000000000E+00 -0.37582595091E+01  0.37582595091E+01  0.00000000000E+00 0. -1.
          2    1    1    2  501    0  0.21557386575E+02  0.52639490393E-01  0.11515514483E+03  0.11715558488E+03  0.00000000000E+00 0. -1.
          2    1    1    2  502    0 -0.21557386575E+02 -0.52639490393E-01  0.39366419684E+02  0.44882498656E+02  0.00000000000E+00 0. -1.
</event>
<event>
 4    1  0.8988950E+003  0.3340086E+02  0.7546771E-02  0.1392168E+00
          2   -1    0    0  501    0  0.00000000000E+00  0.00000000000E+00  0.39581673679E+01  0.39581673679E+01  0.00000000000E+00 0. -1.
          2   -1    0    0  502    0 -0.00000000000E+00 -0.00000000000E+00 -0.33154315593E+03  0.33154315593E+03  0.00000000000E+00 0.  1.
          2    1    1    2  501    0 -0.28444674384E+02 -0.17507647928E+02 -0.22873573044E+03  0.23116152712E+03  0.00000000000E+00 0.  1.
          2    1    1    2  502    0  0.28444674384E+02  0.17507647928E+02 -0.98849258116E+02  0.10433979618E+03  0.00000000000E+00 0. -1.
</event>
<event>
 4    1  0.8988950E+003  0.2012621E+02  0.7546771E-02  0.1532115E+00
          2   -1    0    0  502    0  0.00000000000E+00  0.00000000000E+00  0.18319447578E+03  0.18319447578E+03  0.00000000000E+00 0.  1.
          2   -1    0    0  501    0 -0.00000000000E+00 -0.00000000000E+00 -0.62195352369E+01  0.62195352369E+01  0.00000000000E+00 0. -1.
          2    1    1    2  501    0 -0.11283073540E+02  0.16666029139E+02  0.16451829405E+03  0.16574478378E+03  0.00000000000E+00 0.  1.
          2    1    1    2  502    0  0.11283073540E+02 -0.16666029139E+02  0.12456646494E+02  0.23669227230E+02  0.00000000000E+00 0. -1.
</event>
<event>
 4    1  0.8988950E+003  0.4089780E+02  0.7546771E-02  0.1343304E+00
          2   -1    0    0  501    0  0.00000000000E+00  0.00000000000E+00  0.86236873492E+01  0.86236873492E+01  0.00000000000E+00 0. -1.
          2   -1    0    0  502    0 -0.00000000000E+00 -0.00000000000E+00 -0.60358504577E+03  0.60358504577E+03  0.00000000000E+00 0. -1.
          2    1    1    2  501    0  0.25857043672E+02 -0.31686645192E+02 -0.54965147142E+03  0.55117090837E+03  0.00000000000E+00 0. -1.
          2    1    1    2  502    0 -0.25857043672E+02  0.31686645192E+02 -0.45309886999E+02  0.61037824755E+02  0.00000000000E+00 0. -1.
</event>
<event>
 4    1  0.8988950E+003  0.5325471E+02  0.7546771E-02  0.1284646E+00
          2   -1    0    0  501    0  0.00000000000E+00  0.00000000000E+00  0.38032942852E+01  0.38032942852E+01  0.00000000000E+00 0. -1.
          2   -1    0    0  502    0 -0.00000000000E+00 -0.00000000000E+00 -0.22605397552E+04  0.22605397552E+04  0.00000000000E+00 0. -1.
          2    1    1    2  501    0 -0.36013391549E+02  0.39231365103E+02 -0.20551798427E+04  0.20558697065E+04  0.00000000000E+00 0. -1.
          2    1    1    2  502    0  0.36013391549E+02 -0.39231365103E+02 -0.20155661830E+03  0.20847334304E+03  0.00000000000E+00 0. -1.
</event>
<event>
 4    1  0.8988950E+003  0.2045143E+02  0.7546771E-02  0.1527243E+00
          2   -1    0    0  501    0  0.00000000000E+00  0.00000000000E+00  0.81184341971E+03  0.81184341971E+03  0.00000000000E+00 0. -1.
          2   -1    0    0  502    0 -0.00000000000E+00 -0.00000000000E+00 -0.17291184314E+03  0.17291184314E+03  0.00000000000E+00 0. -1.
          2    1    1    2  501    0  0.18494335391E+02  0.87304270108E+01 -0.17217776494E+03  0.17338812975E+03  0.00000000000E+00 0. -1.
          2    1    1    2  502    0 -0.18494335391E+02 -0.87304270108E+01  0.81110934151E+03  0.81136713310E+03  0.00000000000E+00 0. -1.
</event>
<event>
 4    1  0.8988950E+003  0.2396969E+02  0.7546771E-02  0.1480668E+00
          2   -1    0    0  501    0  0.00000000000E+00  0.00000000000E+00  0.15293273685E+02  0.15293273685E+02  0.00000000000E+00 0.  1.
          2   -1    0    0  502    0 -0.00000000000E+00 -0.00000000000E+00 -0.96312310046E+03  0.96312310046E+03  0.00000000000E+00 0. -1.
          2    1    1    2  501    0 -0.23217430561E+02 -0.59579489665E+01 -0.95348692040E+03  0.95378815972E+03  0.00000000000E+00 0. -1.
          2    1    1    2  502    0  0.23217430561E+02  0.59579489665E+01  0.56570936247E+01  0.24628214430E+02  0.00000000000E+00 0.  1.
</event>
<event>
 4    1  0.8988950E+003  0.3331287E+02  0.7546771E-02  0.1392829E+00
          2   -1    0    0  501    0  0.00000000000E+00  0.00000000000E+00  0.20914284176E+04  0.20914284176E+04  0.00000000000E+00 0. -1.
          2   -1    0    0  502    0 -0.00000000000E+00 -0.00000000000E+00 -0.64530541891E+00  0.64530541891E+00  0.00000000000E+00 0. -1.
          2    1    1    2  501    0  0.20249897322E+02 -0.26451632313E+02  0.60440599646E+03  0.60532334810E+03  0.00000000000E+00 0. -1.
          2    1    1    2  502    0 -0.20249897322E+02  0.26451632313E+02  0.14863771157E+04  0.14867503749E+04  0.00000000000E+00 0. -1.
</event>
<event>
 4    1  0.8988950E+003  0.3098546E+02  0.7546771E-02  0.1411222E+00
          2   -1    0    0  502    0  0.00000000000E+00  0.00000000000E+00  0.77778689708E+03  0.77778689708E+03  0.00000000000E+00 0.  1.
          2   -1    0    0  501    0 -0.00000000000E+00 -0.00000000000E+00 -0.12783474265E+01  0.12783474265E+01  0.00000000000E+00 0.  1.
          2    1    1    2  501    0 -0.22519300156E+02  0.21283329014E+02  0.46048027344E+03  0.46152159343E+03  0.00000000000E+00 0.  1.
          2    1    1    2  502    0  0.22519300156E+02 -0.21283329014E+02  0.31602827621E+03  0.31754365108E+03  0.00000000000E+00 0.  1.
</event>
<event>
 4    1  0.8988950E+003  0.7206392E+02  0.7546771E-02  0.1223576E+00
          2   -1    0    0  502    0  0.00000000000E+00  0.00000000000E+00  0.11005243174E+03  0.11005243174E+03  0.00000000000E+00 0. -1.
          2   -1    0    0  501    0 -0.00000000000E+00 -0.00000000000E+00 -0.34245978134E+03  0.34245978134E+03  0.00000000000E+00 0.  1.
          2    1    1    2  501    0 -0.35517291707E+01 -0.71976343356E+02  0.93886686956E+02  0.11835505384E+03  0.00000000000E+00 0. -1.
          2    1    1    2  502    0  0.35517291707E+01  0.71976343356E+02 -0.32629403655E+03  0.33415715924E+03  0.00000000000E+00 0.  1.
</event>
<event>
 4    1  0.8988950E+003  0.2028307E+02  0.7546771E-02  0.1529752E+00
          2   -1    0    0  502    0  0.00000000000E+00  0.00000000000E+00  0.98988683657E+01  0.98988683657E+01  0.00000000000E+00 0. -1.
          2   -1    0    0  501    0 -0.00000000000E+00 -0.00000000000E+00 -0.10779946576E+03  0.10779946576E+03  0.00000000000E+00 0.  1.
          2    1    1    2  501    0  0.15087174300E+02  0.13556552909E+02 -0.28197687041E+01  0.20478135918E+02  0.00000000000E+00 0. -1.
          2    1    1    2  502    0 -0.15087174300E+02 -0.13556552909E+02 -0.95080828688E+02  0.97220198206E+02  0.00000000000E+00 0.  1.
</event>
<event>
 4    1  0.8988950E+003  0.2156030E+02  0.7546771E-02  0.1511414E+00
          2   -1    0    0  502    0  0.00000000000E+00  0.00000000000E+00  0.44128395905E+01  0.44128395905E+01  0.00000000000E+00 0.  1.
          2   -1    0    0  501    0 -0.00000000000E+00 -0.00000000000E+00 -0.34548860727E+03  0.34548860727E+03  0.00000000000E+00 0. -1.
          2    1    1    2  501    0  0.93106041769E+01 -0.19446314745E+02 -0.24676836938E+02  0.32768777648E+02  0.00000000000E+00 0.  1.
          2    1    1    2  502    0 -0.93106041769E+01  0.19446314745E+02 -0.31639893074E+03  0.31713266921E+03  0.00000000000E+00 0. -1.
</event>
<event>
 4    1  0.8988950E+003  0.2421295E+02  0.7546771E-02  0.1477804E+00
          2   -1    0    0  501    0  0.00000000000E+00  0.00000000000E+00  0.21472321555E+01  0.21472321555E+01  0.00000000000E+00 0.  1.
          2   -1    0    0  502    0 -0.00000000000E+00 -0.00000000000E+00 -0.32840460505E+03  0.32840460505E+03  0.00000000000E+00 0.  1.
          2    1    1    2  501    0  0.14933366379E+02 -0.19059414486E+02 -0.23099368169E+03  0.23225922521E+03  0.00000000000E+00 0.  1.
          2    1    1    2  502    0 -0.14933366379E+02  0.19059414486E+02 -0.95263691198E+02  0.98292611994E+02  0.00000000000E+00 0.  1.
</event>
<event>
 4    1  0.8988950E+003  0.2558866E+02  0.7546771E-02  0.1462325E+00
          2   -1    0    0  502    0  0.00000000000E+00  0.00000000000E+00  0.48888299141E+03  0.48888299141E+03  0.00000000000E+00 0.  1.
          2   -1    0    0  501    0 -0.00000000000E+00 -0.00000000000E+00 -0.97334942628E+02  0.97334942628E+02  0.00000000000E+00 0.  1.
          2    1    1    2  501    0  0.25059447455E+02  0.51772262642E+01  0.48685940254E+03  0.48753139121E+03  0.00000000000E+00 0.  1.
          2    1    1    2  502    0 -0.25059447455E+02 -0.51772262642E+01 -0.95311353760E+02  0.98686542822E+02  0.00000000000E+00 0.  1.
</event>
<event>
 4    1  0.8988950E+003  0.2223782E+02  0.7546771E-02  0.1502297E+00
          2   -1    0    0  501    0  0.00000000000E+00  0.00000000000E+00  0.97432792111E+02  0.97432792111E+02  0.00000000000E+00 0. -1.
          2   -1    0    0  502    0 -0.00000000000E+00 -0.00000000000E+00 -0.22379622083E+03  0.22379622083E+03  0.00000000000E+00 0. -1.
          2    1    1    2  501    0  0.17796283294E+01  0.22166500149E+02 -0.22196447585E+03  0.22307565835E+03  0.00000000000E+00 0. -1.
          2    1    1    2  502    0 -0.17796283294E+01 -0.22166500149E+02  0.95601047132E+02  0.98153354597E+02  0.00000000000E+00 0. -1.
</event>
<event>
 4    1  0.8988950E+003  0.3137757E+02  0.7546771E-02  0.1407991E+00
          2   -1    0    0  502    0  0.00000000000E+00  0.00000000000E+00  0.13832291110E+01  0.13832291110E+01  0.00000000000E+00 0. -1.
          2   -1    0    0  501    0 -0.00000000000E+00 -0.00000000000E+00 -0.11259436734E+04  0.11259436734E+04  0.00000000000E+00 0.  1.
          2    1    1    2  501    0  0.14786445394E+02 -0.27675130690E+02 -0.22041991501E+03  0.22264206871E+03  0.00000000000E+00 0. -1.
          2    1    1    2  502    0 -0.14786445394E+02  0.27675130690E+02 -0.90414052930E+03  0.90468483383E+03  0.00000000000E+00 0.  1.
</event>
<event>
 4    1  0.8988950E+003  0.2739058E+02  0.7546771E-02  0.1443724E+00
          2   -1    0    0  502    0  0.00000000000E+00  0.00000000000E+00  0.23819925601E+02  0.23819925601E+02  0.00000000000E+00 0. -1.
          2   -1    0    0  501    0 -0.00000000000E+00 -0.00000000000E+00 -0.45247187029E+02  0.45247187029E+02  0.00000000000E+00 0. -1.
          2    1    1    2  501    0  0.48359872607E+01 -0.26960288790E+02  0.83237825733E+01  0.28627422181E+02  0.00000000000E+00 0. -1.
          2    1    1    2  502    0 -0.48359872607E+01  0.26960288790E+02 -0.29751044001E+02  0.40439690449E+02  0.00000000000E+00 0. -1.
</event>
<event>
 4    1  0.8988950E+003  0.2057632E+02  0.7546771E-02  0.1525401E+00
          2   -1    0    0  501    0  0.00000000000E+00  0.00000000000E+00  0.14538746162E+01  0.14538746162E+01  0.00000000000E+00 0.  1.
          2   -1    0    0  502    0 -0.00000000000E+00 -0.00000000000E+00 -0.46034832507E+03  0.46034832507E+03  0.00000000000E+00 0. -1.
          2    1    1    2  501    0 -0.10273079381E+02  0.17828310840E+02 -0.36940659049E+03  0.36997920742E+03  0.00000000000E+00 0. -1.
          2    1    1    2  502    0  0.10273079381E+02 -0.17828310840E+02 -0.89487859966E+02  0.91822992266E+02  0.00000000000E+00 0.  1.
</event>
<event>
 4    1  0.8988950E+003  0.2364926E+02  0.7546771E-02  0.1484502E+00
          2   -1    0    0  502    0  0.00000000000E+00  0.00000000000E+00  0.13211014439E+02  0.13211014439E+02  0.00000000000E+00 0. -1.
          2   -1    0    0  501    0 -0.00000000000E+00 -0.00000000000E+00 -0.76490555566E+02  0.76490555566E+02  0.00000000000E+00 0. -1.
          2    1    1    2  501    0 -0.11934739831E+02 -0.20416888558E+02 -0.16690439734E+01  0.23708080078E+02  0.00000000000E+00 0. -1.
          2    1    1    2  502    0  0.11934739831E+02  0.20416888558E+02 -0.61610497154E+02  0.65993489927E+02  0.00000000000E+00 0. -1.
</event>
<event>
 4    1  0.8988950E+003  0.4597351E+02  0.7546771E-02  0.1316642E+00
          2   -1    0    0  502    0  0.00000000000E+00  0.00000000000E+00  0.19480106047E+02  0.19480106047E+02  0.00000000000E+00 0.  1.
          2   -1    0    0  501    0 -0.00000000000E+00 -0.00000000000E+00 -0.33282797618E+03  0.33282797618E+03  0.00000000000E+00 0. -1.
          2    1    1    2  501    0 -0.98745720623E+01  0.44900517114E+02 -0.12054785313E+02  0.47527691501E+02  0.00000000000E+00 0.  1.
          2    1    1    2  502    0  0.98745720623E+01 -0.44900517114E+02 -0.30129308482E+03  0.30478039072E+03  0.00000000000E+00 0. -1.
</event>
<event>
 4    1  0.8988950E+003  0.2217487E+02  0.7546771E-02  0.1503128E+00
          2   -1    0    0  502    0  0.00000000000E+00  0.00000000000E+00  0.12586551184E+03  0.12586551184E+03  0.00000000000E+00 0. -1.
          2   -1    0    0  501    0 -0.00000000000E+00 -0.00000000000E+00 -0.55390599031E+03  0.55390599031E+03  0.00000000000E+00 0.  1.
          2    1    1    2  501    0 -0.49427036181E+01  0.21616999579E+02  0.12466476833E+03  0.12662159947E+03  0.00000000000E+00 0. -1.
          2    1    1    2  502    0  0.49427036181E+01 -0.21616999579E+02 -0.55270524680E+03  0.55314990268E+03  0.00000000000E+00 0.  1.
</event>
<event>
 4    1  0.8988950E+003  0.3252583E+02  0.7546771E-02  0.1398845E+00
          2   -1    0    0  502    0  0.00000000000E+00  0.00000000000E+00  0.24259386547E+03  0.24259386547E+03  0.00000000000E+00 0. -1.
          2   -1    0    0  501    0 -0.00000000000E+00 -0.00000000000E+00 -0.61258754363E+03  0.61258754363E+03  0.00000000000E+00 0.  1.
          2    1    1    2  501    0 -0.16820175506E+01  0.32482307851E+02  0.24106917389E+03  0.24325352229E+03  0.00000000000E+00 0. -1.
          2    1    1    2  502    0  0.16820175506E+01 -0.32482307851E+02 -0.61106285205E+03  0.61192788681E+03  0.00000000000E+00 0.  1.
</event>
<event>
 4    1  0.8988950E+003  0.4368492E+02  0.7546771E-02  0.1328148E+00
          2   -1    0    0  502    0  0.00000000000E+00  0.00000000000E+00  0.22844528630E+01  0.22844528630E+01  0.00000000000E+00 0.  1.
          2   -1    0    0  501    0 -0.00000000000E+00 -0.00000000000E+00 -0.17694971207E+04  0.17694971207E+04  0.00000000000E+00 0.  1.
          2    1    1    2  501    0 -0.43672708839E+02 -0.10328511171E+01 -0.23994511869E+03  0.24388938530E+03  0.00000000000E+00 0.  1.
          2    1    1    2  502    0  0.43672708839E+02  0.10328511171E+01 -0.15272675491E+04  0.15278921883E+04  0.00000000000E+00 0.  1.
</event>
<event>
 4    1  0.8988950E+003  0.2125524E+02  0.7546771E-02  0.1515652E+00
          2   -1    0    0  501    0  0.00000000000E+00  0.00000000000E+00  0.28263743399E+02  0.28263743399E+02  0.00000000000E+00 0.  1.
          2   -1    0    0  502    0 -0.00000000000E+00 -0.00000000000E+00 -0.11347882741E+04  0.11347882741E+04  0.00000000000E+00 0. -1.
          2    1    1    2  501    0  0.72057144125E+01 -0.19996576330E+02 -0.11306780613E+04  0.11308778288E+04  0.00000000000E+00 0. -1.
          2    1    1    2  502    0 -0.72057144125E+01  0.19996576330E+02  0.24153530532E+02  0.32174188759E+02  0.00000000000E+00 0.  1.
</event>
<event>
 4    1  0.8988950E+003  0.2633630E+02  0.7546771E-02  0.1454391E+00
          2   -1    0    0  502    0  0.00000000000E+00  0.00000000000E+00  0.11579571900E+03  0.11579571900E+03  0.00000000000E+00 0.  1.
          2   -1    0    0  501    0 -0.00000000000E+00 -0.00000000000E+00 -0.71430089849E+03  0.71430089849E+03  0.00000000000E+00 0. -1.
          2    1    1    2  501    0 -0.21753019202E+02  0.14846111000E+02  0.11405183373E+03  0.11705307187E+03  0.00000000000E+00 0.  1.
          2    1    1    2  502    0  0.21753019202E+02 -0.14846111000E+02 -0.71255701323E+03  0.71304354562E+03  0.00000000000E+00 0. -1.
</event>
<event>
 4    1  0.8988950E+003  0.2643926E+02  0.7546771E-02  0.1453324E+00
          2   -1    0    0  502    0  0.00000000000E+00  0.00000000000E+00  0.77700930178E+03  0.77700930178E+03  0.00000000000E+00 0. -1.
          2   -1    0    0  501    0 -0.00000000000E+00 -0.00000000000E+00 -0.15422951458E+01  0.15422951458E+01  0.00000000000E+00 0.  1.
          2    1    1    2  501    0 -0.71418100939E+01  0.25456409426E+02  0.63901483485E+03  0.63956156340E+03  0.00000000000E+00 0. -1.
          2    1    1    2  502    0  0.71418100939E+01 -0.25456409426E+02  0.13645217179E+03  0.13899003353E+03  0.00000000000E+00 0.  1.
</event>
<event>
 4    1  0.8988950E+003  0.3426478E+02  0.7546771E-02  0.1385807E+00
          2   -1    0    0  502    0  0.00000000000E+00  0.00000000000E+00  0.49059088790E+01  0.49059088790E+01  0.00000000000E+00 0.  1.
          2   -1    0    0  501    0 -0.00000000000E+00 -0.00000000000E+00 -0.61500495826E+03  0.61500495826E+03  0.00000000000E+00 0.  1.
          2    1    1    2  501    0 -0.25721602600E+02 -0.22637891083E+02 -0.62794556409E+02  0.71534825558E+02  0.00000000000E+00 0.  1.
          2    1    1    2  502    0  0.25721602600E+02  0.22637891083E+02 -0.54730449297E+03  0.54837604158E+03  0.00000000000E+00 0.  1.
</event>
<event>
 4    1  0.8988950E+003  0.2050649E+02  0.7546771E-02  0.1526429E+00
          2   -1    0    0  501    0  0.00000000000E+00  0.00000000000E+00  0.17126869706E+03  0.17126869706E+03  0.00000000000E+00 0. -1.
          2   -1    0    0  502    0 -0.00000000000E+00 -0.00000000000E+00 -0.52376475447E+02  0.52376475447E+02  0.00000000000E+00 0. -1.
          2    1    1    2  501    0 -0.50275264300E+01 -0.19880647943E+02 -0.49724010993E+02  0.53786554583E+02  0.00000000000E+00 0. -1.
          2    1    1    2  502    0  0.50275264300E+01  0.19880647943E+02  0.16861623261E+03  0.16985861793E+03  0.00000000000E+00 0. -1.
</event>
<event>
 4    1  0.8988950E+003  0.2224745E+02  0.7546771E-02  0.1502170E+00
          2   -1    0    0  502    0  0.00000000000E+00  0.00000000000E+00  0.10928623500E+01  0.10928623500E+01  0.00000000000E+00 0. -1.
          2   -1    0    0  501    0 -0.00000000000E+00 -0.00000000000E+00 -0.62878577263E+03  0.62878577263E+03  0.00000000000E+00 0.  1.
          2    1    1    2  501    0 -0.17005343585E+02  0.14344595581E+02 -0.14727515474E+03  0.14894603163E+03  0.00000000000E+00 0. -1.
          2    1    1    2  502    0  0.17005343585E+02 -0.14344595581E+02 -0.48041775553E+03  0.48093260335E+03  0.00000000000E+00 0.  1.
</event>
<event>
 4    1  0.8988950E+003  0.2790821E+02  0.7546771E-02  0.1438692E+00
          2   -1    0    0  502    0  0.00000000000E+00  0.00000000000E+00  0.57955666952E+03  0.57955666952E+03  0.00000000000E+00 0.  1.
          2   -1    0    0  501    0 -0.00000000000E+00 -0.00000000000E+00 -0.20403835078E+01  0.20403835078E+01  0.00000000000E+00 0.  1.
          2    1    1    2  501    0  0.22861862835E+02 -0.16006347718E+02  0.45865712885E+03  0.45950541867E+03  0.00000000000E+00 0.  1.
          2    1    1    2  502    0 -0.22861862835E+02  0.16006347718E+02  0.11885915716E+03  0.12209163436E+03  0.00000000000E+00 0.  1.
</event>
<event>
 4    1  0.8988950E+003  0.2091690E+02  0.7546771E-02  0.1520455E+00
          2   -1    0    0  502    0  0.00000000000E+00  0.00000000000E+00  0.91413983781E+02  0.91413983781E+02  0.00000000000E+00 0.  1.
          2   -1    0    0  501    0 -0.00000000000E+00 -0.00000000000E+00 -0.52807316841E+01  0.52807316841E+01  0.00000000000E+00 0.  1.
          2    1    1    2  501    0 -0.49580425419E+01 -0.20320790520E+02  0.57863346903E+02  0.61527909343E+02  0.00000000000E+00 0.  1.
          2    1    1    2  502    0  0.49580425419E+01  0.20320790520E+02  0.28269905194E+02  0.35166806123E+02  0.00000000000E+00 0.  1.
</event>
<event>
 4    1  0.8988950E+003  0.3107104E+02  0.7546771E-02  0.1410512E+00
          2   -1    0    0  501    0  0.00000000000E+00  0.00000000000E+00  0.21636382119E+01  0.21636382119E+01  0.00000000000E+00 0.  1.
          2   -1    0    0  502    0 -0.00000000000E+00 -0.00000000000E+00 -0.51317624585E+03  0.51317624585E+03  0.00000000000E+00 0. -1.
          2    1    1    2  501    0  0.15849289891E+02 -0.26724704050E+02 -0.34859549118E+03  0.34997746538E+03  0.00000000000E+00 0. -1.
          2    1    1    2  502    0 -0.15849289891E+02  0.26724704050E+02 -0.16241711645E+03  0.16536241868E+03  0.00000000000E+00 0.  1.
</event>
<event>
 4    1  0.8988950E+003  0.2763306E+02  0.7546771E-02  0.1441350E+00
          2   -1    0    0  502    0  0.00000000000E+00  0.00000000000E+00  0.90019033177E+03  0.90019033177E+03  0.00000000000E+00 0.  1.
          2   -1    0    0  501    0 -0.00000000000E+00 -0.00000000000E+00 -0.21027585022E+02  0.21027585022E+02  0.00000000000E+00 0.  1.
          2    1    1    2  501    0  0.15236167935E+02 -0.23053099638E+02  0.89080424968E+03  0.89123274035E+03  0.00000000000E+00 0.  1.
          2    1    1    2  502    0 -0.15236167935E+02  0.23053099638E+02 -0.11641502929E+02  0.29985176449E+02  0.00000000000E+00 0.  1.
</event>
<event>
 4    1  0.8988950E+003  0.2225483E+02  0.7546771E-02  0.1502073E+00
          2   -1    0    0  501    0  0.00000000000E+00  0.00000000000E+00  0.12365458097E+02  0.12365458097E+02  0.00000000000E+00 0.  1.
          2   -1    0    0  502    0 -0.00000000000E+00 -0.00000000000E+00 -0.10131318132E+04  0.10131318132E+04  0.00000000000E+00 0. -1.
          2    1    1    2  501    0 -0.21674098157E+02  0.50508533258E+01 -0.10028940631E+04  0.10031409569E+04  0.00000000000E+00 0. -1.
          2    1    1    2  502    0  0.21674098157E+02 -0.50508533258E+01  0.21277080162E+01  0.22356314357E+02  0.00000000000E+00 0.  1.
</event>
<event>
 4    1  0.8988950E+003  0.2224661E+02  0.7546771E-02  0.1502182E+00
          2   -1    0    0  501    0  0.00000000000E+00  0.00000000000E+00  0.20128480200E+02  0.20128480200E+02  0.00000000000E+00 0. -1.
          2   -1    0    0  502    0 -0.00000000000E+00 -0.00000000000E+00 -0.26505298016E+02  0.26505298016E+02  0.00000000000E+00 0. -1.
          2    1    1    2  501    0 -0.10802049309E+02  0.19448064848E+02 -0.94602015889E+01  0.24174509503E+02  0.00000000000E+00 0. -1.
          2    1    1    2  502    0  0.10802049309E+02 -0.19448064848E+02  0.30833837735E+01  0.22459268713E+02  0.00000000000E+00 0. -1.
</event>
<event>
 4    1  0.8988950E+003  0.2205598E+02  0.7546771E-02  0.1504705E+00
          2   -1    0    0  502    0  0.00000000000E+00  0.00000000000E+00  0.14524676078E+04  0.14524676078E+04  0.00000000000E+00 0. -1.
          2   -1    0    0  501    0 -0.00000000000E+00 -0.00000000000E+00 -0.37148738062E+00  0.37148738062E+00  0.00000000000E+00 0. -1.
          2    1    1    2  501    0  0.20725286860E+02  0.75451139132E+01  0.95394509176E+03  0.95420003372E+03  0.00000000000E+00 0. -1.
          2    1    1    2  502    0 -0.20725286860E+02 -0.75451139132E+01  0.49815102870E+03  0.49863906150E+03  0.00000000000E+00 0. -1.
</event>
<event>
 4    1  0.8988950E+003  0.2036742E+02  0.7546771E-02  0.1528491E+00
          2   -1    0    0  501    0  0.00000000000E+00  0.00000000000E+00  0.35070059032E+01  0.35070059032E+01  0.00000000000E+00 0. -1.
          2   -1    0    0  502    0 -0.00000000000E+00 -0.00000000000E+00 -0.10415610185E+04  0.10415610185E+04  0.00000000000E+00 0.  1.
          2    1    1    2  501    0  0.19715463832E+02  0.51119615523E+01 -0.10109958685E+04  0.10112010076E+04  0.00000000000E+00 0.  1.
          2    1    1    2  502    0 -0.19715463832E+02 -0.51119615523E+01 -0.27058144129E+02  0.33867016827E+02  0.00000000000E+00 0. -1.
</event>
<event>
 4    1  0.8988950E+003  0.2689636E+02  0.7546771E-02  0.1448652E+00
          2   -1    0    0  502    0  0.00000000000E+00  0.00000000000E+00  0.19284249016E+01  0.19284249016E+01  0.00000000000E+00 0. -1.
          2   -1    0    0  501    0 -0.00000000000E+00 -0.00000000000E+00 -0.20394059680E+04  0.20394059680E+04  0.00000000000E+00 0. -1.
          2    1    1    2  501    0 -0.12408672249E+02  0.23862921588E+02 -0.96709507937E+02  0.10037999352E+03  0.00000000000E+00 0. -1.
          2    1    1    2  502    0  0.12408672249E+02 -0.23862921588E+02 -0.19407680351E+04  0.19409543993E+04  0.00000000000E+00 0. -1.
</event>
<event>
 4    1  0.8988950E+003  0.3374731E+02  0.7546771E-02  0.1389590E+00
          2   -1    0    0  501    0  0.00000000000E+00  0.00000000000E+00  0.15595088057E+04  0.15595088057E+04  0.00000000000E+00 0.  1.
          2   -1    0    0  502    0 -0.00000000000E+00 -0.00000000000E+00 -0.32888901477E+02  0.32888901477E+02  0.00000000000E+00 0.  1.
          2    1    1    2  501    0 -0.19623711437E+02  0.27455256959E+02 -0.23999676025E+02  0.41410936172E+02  0.00000000000E+00 0.  1.
          2    1    1    2  502    0  0.19623711437E+02 -0.27455256959E+02  0.15506195803E+04  0.15509867710E+04  0.00000000000E+00 0.  1.
</event>
<event>
 4    1  0.8988950E+003  0.2578386E+02  0.7546771E-02  0.1460222E+00
          2   -1    0    0  501    0  0.00000000000E+00  0.00000000000E+00  0.65499909922E+03  0.65499909922E+03  0.00000000000E+00 0. -1.
          2   -1    0    0  502    0 -0.00000000000E+00 -0.00000000000E+00 -0.57659212557E+01  0.57659212557E+01  0.00000000000E+00 0. -1.
          2    1    1    2  501    0 -0.25782657446E+02  0.24892868541E+00  0.24719136752E+02  0.35718946124E+02  0.00000000000E+00 0. -1.
          2    1    1    2  502    0  0.25782657446E+02 -0.24892868541E+00  0.62451404121E+03  0.62504607435E+03  0.00000000000E+00 0. -1.
</event>
<event>
 4    1  0.8988950E+003  0.2296471E+02  0.7546771E-02  0.1492942E+00
          2   -1    0    0  501    0  0.00000000000E+00  0.00000000000E+00  0.51581943121E+02  0.51581943121E+02  0.00000000000E+00 0.  1.
          2   -1    0    0  502    0 -0.00000000000E+00 -0.00000000000E+00 -0.11049789445E+02  0.11049789445E+02  0.00000000000E+00 0. -1.
          2    1    1    2  501    0 -0.44586663874E+01 -0.22527716310E+02  0.11705518333E+02  0.25775897027E+02  0.00000000000E+00 0. -1.
          2    1    1    2  502    0  0.44586663874E+01  0.22527716310E+02  0.28826635344E+02  0.36855835539E+02  0.00000000000E+00 0.  1.
</event>
<event>
 4    1  0.8988950E+003  0.4384124E+02  0.7546771E-02  0.1327336E+00
          2   -1    0    0  501    0  0.00000000000E+00  0.00000000000E+00  0.23883101035E+03  0.23883101035E+03  0.00000000000E+00 0.  1.
          2   -1    0    0  502    0 -0.00000000000E+00 -0.00000000000E+00 -0.49090837746E+02  0.49090837746E+02  0.00000000000E+00 0. -1.
          2    1    1    2  501    0  0.37046418785E+02  0.23443913901E+02 -0.36762790577E+02  0.57215006902E+02  0.00000000000E+00 0. -1.
          2    1    1    2  502    0 -0.37046418785E+02 -0.23443913901E+02  0.22650296318E+03  0.23070684119E+03  0.00000000000E+00 0.  1.
</event>
<event>
 4    1  0.8988950E+003  0.2413774E+02  0.7546771E-02  0.1478685E+00
          2   -1    0    0  502    0  0.00000000000E+00  0.00000000000E+00  0.45656620714E+02  0.45656620714E+02  0.00000000000E+00 0.  1.
          2   -1    0    0  501    0 -0.00000000000E+00 -0.00000000000E+00 -0.14415894982E+03  0.14415894982E+03  0.00000000000E+00 0.  1.
          2    1    1    2  501    0 -0.87416721097E+01 -0.22499197548E+02  0.41358618429E+02  0.47887013270E+02  0.00000000000E+00 0.  1.
          2    1    1    2  502    0  0.87416721097E+01  0.22499197548E+02 -0.13986094753E+03  0.14192855726E+03  0.00000000000E+00 0.  1.
</event>
<event>
 4    1  0.1935028E+004  0.2485200E+02  0.7546771E-02  0.1470466E+00
          2   -1    0    0  502    0  0.00000000000E+00  0.00000000000E+00  0.88501211850E+03  0.88501211850E+03  0.00000000000E+00 0. -1.
          2   -1    0    0  501    0 -0.00000000000E+00 -0.00000000000E+00 -0.97100133594E+03  0.97100133594E+03  0.00000000000E+00 0. -1.
          2    1    1    2  501    0  0.85380971804E+01  0.23339299316E+02  0.88467857468E+03  0.88502757160E+03  0.00000000000E+00 0. -1.
          2    1    1    2  502    0 -0.85380971804E+01 -0.23339299316E+02 -0.97066779213E+03  0.97098588284E+03  0.00000000000E+00 0. -1.
</event>
<event>
 4    1  0.8988950E+003  0.2989032E+02  0.7546771E-02  0.1420552E+00
          2   -1    0    0  501    0  0.00000000000E+00  0.00000000000E+00  0.66235684724E+02  0.66235684724E+02  0.00000000000E+00 0. -1.
          2   -1    0    0  502    0 -0.00000000000E+00 -0.00000000000E+00 -0.21619032800E+03  0.21619032800E+03  0.00000000000E+00 0.  1.
          2    1    1    2  501    0  0.16516323011E+02  0.24912691997E+02 -0.21171406170E+03  0.21381364566E+03  0.00000000000E+00 0.  1.
          2    1    1    2  502    0 -0.16516323011E+02 -0.24912691997E+02  0.61759418431E+02  0.68612367058E+02  0.00000000000E+00 0. -1.
</event>
<event>
 4    1  0.8988950E+003  0.5167956E+02  0.7546771E-02  0.1291050E+00
          2   -1    0    0  502    0  0.00000000000E+00  0.00000000000E+00  0.15536698708E+04  0.15536698708E+04  0.00000000000E+00 0.  1.
          2   -1    0    0  501    0 -0.00000000000E+00 -0.00000000000E+00 -0.16290501174E+03  0.16290501174E+03  0.00000000000E+00 0. -1.
          2    1    1    2  501    0  0.48810787471E+02  0.16978926648E+02  0.15491294360E+04  0.15499912214E+04  0.00000000000E+00 0.  1.
          2    1    1    2  502    0 -0.48810787471E+02 -0.16978926648E+02 -0.15836457695E+03  0.16658366113E+03  0.00000000000E+00 0. -1.
</event>
<event>
 4    1  0.8988950E+003  0.5172217E+02  0.7546771E-02  0.1290874E+00
          2   -1    0    0  501    0  0.00000000000E+00  0.00000000000E+00  0.79681856527E+01  0.79681856527E+01  0.00000000000E+00 0.  1.
          2   -1    0    0  502    0 -0.00000000000E+00 -0.00000000000E+00 -0.77376087865E+03  0.77376087865E+03  0.00000000000E+00 0. -1.
          2    1    1    2  501    0  0.24380202181E+02  0.45615658708E+02 -0.67698195626E+03  0.67895489664E+03  0.00000000000E+00 0. -1.
          2    1    1    2  502    0 -0.24380202181E+02 -0.45615658708E+02 -0.88810736737E+02  0.10277416766E+03  0.00000000000E+00 0.  1.
</event>
<event>
 4    1  0.8988950E+003  0.2755222E+02  0.7546771E-02  0.1442138E+00
          2   -1    0    0  501    0  0.00000000000E+00  0.00000000000E+00  0.12928959515E+04  0.12928959515E+04  0.00000000000E+00 0.  1.
          2   -1    0    0  502    0 -0.00000000000E+00 -0.00000000000E+00 -0.54588958051E+02  0.54588958051E+02  0.00000000000E+00 0.  1.
          2    1    1    2  501    0 -0.23010173070E+02  0.15154437375E+02 -0.50955824233E+02  0.57927722725E+02  0.00000000000E+00 0.  1.
          2    1    1    2  502    0  0.23010173070E+02 -0.15154437375E+02  0.12892628177E+04  0.12895571869E+04  0.00000000000E+00 0.  1.
</event>
<event>
 4    1  0.8988950E+003  0.2046240E+02  0.7546771E-02  0.1527081E+00
          2   -1    0    0  501    0  0.00000000000E+00  0.00000000000E+00  0.24411270893E+02  0.24411270893E+02  0.00000000000E+00 0.  1.
          2   -1    0    0  502    0 -0.00000000000E+00 -0.00000000000E+00 -0.14216629107E+03  0.14216629107E+03  0.00000000000E+00 0.  1.
          2    1    1    2  501    0 -0.18998669203E+02 -0.76000172296E+01 -0.13698046792E+03  0.13850039092E+03  0.00000000000E+00 0.  1.
          2    1    1    2  502    0  0.18998669203E+02  0.76000172296E+01  0.19225447738E+02  0.28077171049E+02  0.00000000000E+00 0.  1.
</event>
<event>
 4    1  0.8988950E+003  0.2125048E+02  0.7546771E-02  0.1515718E+00
          2   -1    0    0  501    0  0.00000000000E+00  0.00000000000E+00  0.55950709272E+01  0.55950709272E+01  0.00000000000E+00 0.  1.
          2   -1    0    0  502    0 -0.00000000000E+00 -0.00000000000E+00 -0.15791531953E+03  0.15791531953E+03  0.00000000000E+00 0.  1.
          2    1    1    2  501    0 -0.20808227602E+02  0.43128568389E+01 -0.13332435716E+03  0.13500728603E+03  0.00000000000E+00 0.  1.
          2    1    1    2  502    0  0.20808227602E+02 -0.43128568389E+01 -0.18995891442E+02  0.28503104423E+02  0.00000000000E+00 0.  1.
</event>
<event>
 4    1  0.8988950E+003  0.2304526E+02  0.7546771E-02  0.1491931E+00
          2   -1    0    0  502    0  0.00000000000E+00  0.00000000000E+00  0.55510442699E+03  0.55510442699E+03  0.00000000000E+00 0.  1.
          2   -1    0    0  501    0 -0.00000000000E+00 -0.00000000000E+00 -0.33182244675E+03  0.33182244675E+03  0.00000000000E+00 0.  1.
          2    1    1    2  501    0 -0.18624715567E+02 -0.13572170647E+02  0.55446465703E+03  0.55494336624E+03  0.00000000000E+00 0.  1.
          2    1    1    2  502    0  0.18624715567E+02  0.13572170647E+02 -0.33118267679E+03  0.33198350750E+03  0.00000000000E+00 0.  1.
</event>
<event>
 4    1  0.8988950E+003  0.2230984E+02  0.7546771E-02  0.1501351E+00
          2   -1    0    0  502    0  0.00000000000E+00  0.00000000000E+00  0.71990211300E+03  0.71990211300E+03  0.00000000000E+00 0.  1.
          2   -1    0    0  501    0 -0.00000000000E+00 -0.00000000000E+00 -0.57235734212E+02  0.57235734212E+02  0.00000000000E+00 0.  1.
          2    1    1    2  501    0  0.19908045438E+02  0.10069701674E+02  0.71754810487E+03  0.71789484743E+03  0.00000000000E+00 0.  1.
          2    1    1    2  502    0 -0.19908045438E+02 -0.10069701674E+02 -0.54881726084E+02  0.59242999780E+02  0.00000000000E+00 0.  1.
</event>
<event>
 4    1  0.8988950E+003  0.2214419E+02  0.7546771E-02  0.1503534E+00
          2   -1    0    0  501    0  0.00000000000E+00  0.00000000000E+00  0.14109041607E+03  0.14109041607E+03  0.00000000000E+00 0. -1.
          2   -1    0    0  502    0 -0.00000000000E+00 -0.00000000000E+00 -0.29164262682E+03  0.29164262682E+03  0.00000000000E+00 0. -1.
          2    1    1    2  501    0 -0.13456736367E+02  0.17586402484E+02 -0.29034953015E+03  0.29119274539E+03  0.00000000000E+00 0. -1.
          2    1    1    2  502    0  0.13456736367E+02 -0.17586402484E+02  0.13979731940E+03  0.14154029751E+03  0.00000000000E+00 0. -1.
</event>
<event>
 4    1  0.8988950E+003  0.2392236E+02  0.7546771E-02  0.1481230E+00
          2   -1    0    0  501    0  0.00000000000E+00  0.00000000000E+00  0.21070897809E+01  0.21070897809E+01  0.00000000000E+00 0.  1.
          2   -1    0    0  502    0 -0.00000000000E+00 -0.00000000000E+00 -0.73620415728E+03  0.73620415728E+03  0.00000000000E+00 0.  1.
          2    1    1    2  501    0 -0.23182249569E+02 -0.59044489098E+01 -0.66030886118E+03  0.66074206115E+03  0.00000000000E+00 0.  1.
          2    1    1    2  502    0  0.23182249569E+02  0.59044489098E+01 -0.73788206318E+02  0.77569185916E+02  0.00000000000E+00 0.  1.
</event>
<event>
 4    1  0.8988950E+003  0.2880139E+02  0.7546771E-02  0.1430306E+00
          2   -1    0    0  501    0  0.00000000000E+00  0.00000000000E+00  0.80161406781E+01  0.80161406781E+01  0.00000000000E+00 0. -1.
          2   -1    0    0  502    0 -0.00000000000E+00 -0.00000000000E+00 -0.15748446789E+03  0.15748446789E+03  0.00000000000E+00 0.  1.
          2    1    1    2  501    0 -0.12041929507E+02 -0.26163181101E+02 -0.12319162164E+03  0.12651361885E+03  0.00000000000E+00 0.  1.
          2    1    1    2  502    0  0.12041929507E+02  0.26163181101E+02 -0.26276705565E+02  0.38986989714E+02  0.00000000000E+00 0. -1.
</event>
<event>
 4    1  0.8988950E+003  0.3432194E+02  0.7546771E-02  0.1385394E+00
          2   -1    0    0  502    0  0.00000000000E+00  0.00000000000E+00  0.20267568889E+04  0.20267568889E+04  0.00000000000E+00 0.  1.
          2   -1    0    0  501    0 -0.00000000000E+00 -0.00000000000E+00 -0.28124364852E+01  0.28124364852E+01  0.00000000000E+00 0.  1.
          2    1    1    2  501    0  0.20035150957E+02  0.27867332486E+02  0.19158364630E+04  0.19161438747E+04  0.00000000000E+00 0.  1.
          2    1    1    2  502    0 -0.20035150957E+02 -0.27867332486E+02  0.10810798944E+03  0.11342545073E+03  0.00000000000E+00 0.  1.
</event>
<event>
 4    1  0.8988950E+003  0.2670484E+02  0.7546771E-02  0.1450596E+00
          2   -1    0    0  501    0  0.00000000000E+00  0.00000000000E+00  0.33223413950E+01  0.33223413950E+01  0.00000000000E+00 0. -1.
          2   -1    0    0  502    0 -0.00000000000E+00 -0.00000000000E+00 -0.27020732344E+03  0.27020732344E+03  0.00000000000E+00 0. -1.
          2    1    1    2  501    0  0.25898963751E+02 -0.65109381279E+01 -0.19545610722E+03  0.19727199114E+03  0.00000000000E+00 0. -1.
          2    1    1    2  502    0 -0.25898963751E+02  0.65109381279E+01 -0.71428874828E+02  0.76257673698E+02  0.00000000000E+00 0. -1.
</event>
<event>
 4    1  0.8988950E+003  0.2090797E+02  0.7546771E-02  0.1520583E+00
          2   -1    0    0  501    0  0.00000000000E+00  0.00000000000E+00  0.10142208143E+02  0.10142208143E+02  0.00000000000E+00 0.  1.
          2   -1    0    0  502    0 -0.00000000000E+00 -0.00000000000E+00 -0.15057111093E+03  0.15057111093E+03  0.00000000000E+00 0. -1.
          2    1    1    2  501    0  0.19574536471E+02  0.73471534534E+01 -0.13810262627E+03  0.13967633487E+03  0.00000000000E+00 0. -1.
          2    1    1    2  502    0 -0.19574536471E+02 -0.73471534534E+01 -0.23262765250E+01  0.21036984204E+02  0.00000000000E+00 0.  1.
</event>
<event>
 4    1  0.8988950E+003  0.3951962E+02  0.7546771E-02  0.1351324E+00
          2   -1    0    0  502    0  0.00000000000E+00  0.00000000000E+00  0.12637335573E+03  0.12637335573E+03  0.00000000000E+00 0.  1.
          2   -1    0    0  501    0 -0.00000000000E+00 -0.00000000000E+00 -0.98559057260E+02  0.98559057260E+02  0.00000000000E+00 0.  1.
          2    1    1    2  501    0 -0.10278750177E+02 -0.38159498590E+02  0.11908602284E+03  0.12547223148E+03  0.00000000000E+00 0.  1.
          2    1    1    2  502    0  0.10278750177E+02  0.38159498590E+02 -0.91271724364E+02  0.99460181511E+02  0.00000000000E+00 0.  1.
</event>
<event>
 4    1  0.8988950E+003  0.4550902E+02  0.7546771E-02  0.1318914E+00
          2   -1    0    0  502    0  0.00000000000E+00  0.00000000000E+00  0.17845231582E+03  0.17845231582E+03  0.00000000000E+00 0.  1.
          2   -1    0    0  501    0 -0.00000000000E+00 -0.00000000000E+00 -0.11126423398E+04  0.11126423398E+04  0.00000000000E+00 0. -1.
          2    1    1    2  501    0  0.44567134262E+02 -0.92109558835E+01  0.17507670549E+03  0.18089478702E+03  0.00000000000E+00 0.  1.
          2    1    1    2  502    0 -0.44567134262E+02  0.92109558835E+01 -0.11092667295E+04  0.11101998686E+04  0.00000000000E+00 0. -1.
</event>
<event>
 4    1  0.8988950E+003  0.2434051E+02  0.7546771E-02  0.1476318E+00
          2   -1    0    0  501    0  0.00000000000E+00  0.00000000000E+00  0.34356638711E+02  0.34356638711E+02  0.00000000000E+00 0.  1.
          2   -1    0    0  502    0 -0.00000000000E+00 -0.00000000000E+00 -0.62626267124E+03  0.62626267124E+03  0.00000000000E+00 0. -1.
          2    1    1    2  501    0  0.60254718840E+01 -0.23582918202E+02 -0.62168331597E+03  0.62215963040E+03  0.00000000000E+00 0. -1.
          2    1    1    2  502    0 -0.60254718840E+01  0.23582918202E+02  0.29777283439E+02  0.38459679554E+02  0.00000000000E+00 0.  1.
</event>
<event>
 4    1  0.8988950E+003  0.2160574E+02  0.7546771E-02  0.1510789E+00
          2   -1    0    0  501    0  0.00000000000E+00  0.00000000000E+00  0.11317069525E+03  0.11317069525E+03  0.00000000000E+00 0. -1.
          2   -1    0    0  502    0 -0.00000000000E+00 -0.00000000000E+00 -0.43979808018E+02  0.43979808018E+02  0.00000000000E+00 0.  1.
          2    1    1    2  501    0 -0.20677711887E+02  0.62642066847E+01 -0.40204365692E+02  0.45642075709E+02  0.00000000000E+00 0.  1.
          2    1    1    2  502    0  0.20677711887E+02 -0.62642066847E+01  0.10939525292E+03  0.11150842755E+03  0.00000000000E+00 0. -1.
</event>
<event>
 4    1  0.8988950E+003  0.2804464E+02  0.7546771E-02  0.1437388E+00
          2   -1    0    0  501    0  0.00000000000E+00  0.00000000000E+00  0.10384928099E+02  0.10384928099E+02  0.00000000000E+00 0.  1.
          2   -1    0    0  502    0 -0.00000000000E+00 -0.00000000000E+00 -0.68018000380E+03  0.68018000380E+03  0.00000000000E+00 0.  1.
          2    1    1    2  501    0 -0.27587614671E+02  0.50423735581E+01 -0.66039005468E+03  0.66098526938E+03  0.00000000000E+00 0.  1.
          2    1    1    2  502    0  0.27587614671E+02 -0.50423735581E+01 -0.94050210188E+01  0.29579662519E+02  0.00000000000E+00 0.  1.
</event>
<event>
 4    1  0.8988950E+003  0.2127107E+02  0.7546771E-02  0.1515430E+00
          2   -1    0    0  501    0  0.00000000000E+00  0.00000000000E+00  0.55083332973E+02  0.55083332973E+02  0.00000000000E+00 0.  1.
          2   -1    0    0  502    0 -0.00000000000E+00 -0.00000000000E+00 -0.15154008854E+02  0.15154008854E+02  0.00000000000E+00 0. -1.
          2    1    1    2  501    0  0.18338110457E+02  0.10778318047E+02 -0.38011182619E+01  0.21608029413E+02  0.00000000000E+00 0. -1.
          2    1    1    2  502    0 -0.18338110457E+02 -0.10778318047E+02  0.43730442380E+02  0.48629312414E+02  0.00000000000E+00 0.  1.
</event>
<event>
 4    1  0.8988950E+003  0.2162373E+02  0.7546771E-02  0.1510543E+00
          2   -1    0    0  501    0  0.00000000000E+00  0.00000000000E+00  0.18778760761E+04  0.18778760761E+04  0.00000000000E+00 0.  1.
          2   -1    0    0  502    0 -0.00000000000E+00 -0.00000000000E+00 -0.46327684092E+00  0.46327684092E+00  0.00000000000E+00 0. -1.
          2    1    1    2  501    0  0.17072041613E+02 -0.13271446839E+02  0.29998096556E+03  0.30075931507E+03  0.00000000000E+00 0. -1.
          2    1    1    2  502    0 -0.17072041613E+02  0.13271446839E+02  0.15774318337E+04  0.15775800379E+04  0.00000000000E+00 0.  1.
</event>
<event>
 4    1  0.8988950E+003  0.2973753E+02  0.7546771E-02  0.1421891E+00
          2   -1    0    0  502    0  0.00000000000E+00  0.00000000000E+00  0.15936959116E+01  0.15936959116E+01  0.00000000000E+00 0.  1.
          2   -1    0    0  501    0 -0.00000000000E+00 -0.00000000000E+00 -0.10847518657E+04  0.10847518657E+04  0.00000000000E+00 0. -1.
          2    1    1    2  501    0  0.29047773781E+02  0.63677147918E+01 -0.16195355924E+03  0.16466109530E+03  0.00000000000E+00 0.  1.
          2    1    1    2  502    0 -0.29047773781E+02 -0.63677147918E+01 -0.92120461054E+03  0.92168446631E+03  0.00000000000E+00 0. -1.
</event>
<event>
 4    1  0.8988950E+003  0.2354793E+02  0.7546771E-02  0.1485730E+00
          2   -1    0    0  501    0  0.00000000000E+00  0.00000000000E+00  0.22189995650E+02  0.22189995650E+02  0.00000000000E+00 0.  1.
          2   -1    0    0  502    0 -0.00000000000E+00 -0.00000000000E+00 -0.17322266972E+03  0.17322266972E+03  0.00000000000E+00 0. -1.
          2    1    1    2  501    0  0.93879443318E+01 -0.21595634930E+02 -0.16590081114E+03  0.16756367173E+03  0.00000000000E+00 0. -1.
          2    1    1    2  502    0 -0.93879443318E+01  0.21595634930E+02  0.14868137070E+02  0.27848993640E+02  0.00000000000E+00 0.  1.
</event>
<event>
 4    1  0.8988950E+003  0.4294546E+02  0.7546771E-02  0.1332039E+00
          2   -1    0    0  502    0  0.00000000000E+00  0.00000000000E+00  0.54865238853E+03  0.54865238853E+03  0.00000000000E+00 0.  1.
          2   -1    0    0  501    0 -0.00000000000E+00 -0.00000000000E+00 -0.34959065561E+01  0.34959065561E+01  0.00000000000E+00 0.  1.
          2    1    1    2  501    0  0.73292638558E+01 -0.42315413722E+02  0.21845235940E+03  0.22263365800E+03  0.00000000000E+00 0.  1.
          2    1    1    2  502    0 -0.73292638558E+01  0.42315413722E+02  0.32670412257E+03  0.32951463709E+03  0.00000000000E+00 0.  1.
</event>
<event>
 4    1  0.8988950E+003  0.3249456E+02  0.7546771E-02  0.1399088E+00
          2   -1    0    0  502    0  0.00000000000E+00  0.00000000000E+00  0.64858470431E+02  0.64858470431E+02  0.00000000000E+00 0. -1.
          2   -1    0    0  501    0 -0.00000000000E+00 -0.00000000000E+00 -0.20711107726E+03  0.20711107726E+03  0.00000000000E+00 0.  1.
          2    1    1    2  501    0 -0.32434558199E+02 -0.19738753485E+01  0.59404543425E+02  0.67711125592E+02  0.00000000000E+00 0. -1.
          2    1    1    2  502    0  0.32434558199E+02  0.19738753485E+01 -0.20165715026E+03  0.20425842210E+03  0.00000000000E+00 0.  1.
</event>
<event>
 4    1  0.8988950E+003  0.2158802E+02  0.7546771E-02  0.1511033E+00
          2   -1    0    0  502    0  0.00000000000E+00  0.00000000000E+00  0.56919047091E+03  0.56919047091E+03  0.00000000000E+00 0. -1.
          2   -1    0    0  501    0 -0.00000000000E+00 -0.00000000000E+00 -0.16020487917E+03  0.16020487917E+03  0.00000000000E+00 0. -1.
          2    1    1    2  501    0 -0.51956051339E+01 -0.20953478992E+02  0.56825732142E+03  0.56866723657E+03  0.00000000000E+00 0. -1.
          2    1    1    2  502    0  0.51956051339E+01  0.20953478992E+02 -0.15927172968E+03  0.16072811350E+03  0.00000000000E+00 0. -1.
</event>
<event>
 4    1  0.8988950E+003  0.5522105E+02  0.7546771E-02  0.1276995E+00
          2   -1    0    0  501    0  0.00000000000E+00  0.00000000000E+00  0.47053565766E+01  0.47053565766E+01  0.00000000000E+00 0.  1.
          2   -1    0    0  502    0 -0.00000000000E+00 -0.00000000000E+00 -0.94619401614E+03  0.94619401614E+03  0.00000000000E+00 0.  1.
          2    1    1    2  501    0 -0.54682072483E+02 -0.76964167191E+01 -0.73762591392E+03  0.73969003831E+03  0.00000000000E+00 0.  1.
          2    1    1    2  502    0  0.54682072483E+02  0.76964167191E+01 -0.20386274564E+03  0.21120933441E+03  0.00000000000E+00 0.  1.
</event>
<event>
 4    1  0.8988950E+003  0.2783546E+02  0.7546771E-02  0.1439392E+00
          2   -1    0    0  501    0  0.00000000000E+00  0.00000000000E+00  0.90999765223E+01  0.90999765223E+01  0.00000000000E+00 0.  1.
          2   -1    0    0  502    0 -0.00000000000E+00 -0.00000000000E+00 -0.35031514407E+03  0.35031514407E+03  0.00000000000E+00 0.  1.
          2    1    1    2  501    0  0.27778341420E+02 -0.17822585513E+01 -0.32695821419E+03  0.32814095527E+03  0.00000000000E+00 0.  1.
          2    1    1    2  502    0 -0.27778341420E+02  0.17822585513E+01 -0.14256953354E+02  0.31274165321E+02  0.00000000000E+00 0.  1.
</event>
<event>
 4    1  0.8988950E+003  0.2279331E+02  0.7546771E-02  0.1495110E+00
          2   -1    0    0  501    0  0.00000000000E+00  0.00000000000E+00  0.16857795586E+02  0.16857795586E+02  0.00000000000E+00 0.  1.
          2   -1    0    0  502    0 -0.00000000000E+00 -0.00000000000E+00 -0.92827330078E+02  0.92827330078E+02  0.00000000000E+00 0.  1.
          2    1    1    2  501    0 -0.16215530640E+02 -0.16018474835E+02 -0.82808287176E+02  0.85887993311E+02  0.00000000000E+00 0.  1.
          2    1    1    2  502    0  0.16215530640E+02  0.16018474835E+02  0.68387526836E+01  0.23797132353E+02  0.00000000000E+00 0.  1.
</event>
<event>
 4    1  0.8988950E+003  0.2643918E+02  0.7546771E-02  0.1453324E+00
          2   -1    0    0  502    0  0.00000000000E+00  0.00000000000E+00  0.16564315996E+02  0.16564315996E+02  0.00000000000E+00 0.  1.
          2   -1    0    0  501    0 -0.00000000000E+00 -0.00000000000E+00 -0.38768801015E+03  0.38768801015E+03  0.00000000000E+00 0.  1.
          2    1    1    2  501    0  0.25949378273E+02 -0.50655585313E+01  0.52464390468E+01  0.26954688621E+02  0.00000000000E+00 0.  1.
          2    1    1    2  502    0 -0.25949378273E+02  0.50655585313E+01 -0.37637013320E+03  0.37729763753E+03  0.00000000000E+00 0.  1.
</event>
<event>
 4    1  0.8988950E+003  0.2569718E+02  0.7546771E-02  0.1461153E+00
          2   -1    0    0  501    0  0.00000000000E+00  0.00000000000E+00  0.17362032981E+04  0.17362032981E+04  0.00000000000E+00 0. -1.
          2   -1    0    0  502    0 -0.00000000000E+00 -0.00000000000E+00 -0.72439442603E+00  0.72439442603E+00  0.00000000000E+00 0. -1.
          2    1    1    2  501    0 -0.81271710203E+01  0.24378144623E+02  0.26921932890E+03  0.27044295497E+03  0.00000000000E+00 0. -1.
          2    1    1    2  502    0  0.81271710203E+01 -0.24378144623E+02  0.14662595748E+04  0.14664847376E+04  0.00000000000E+00 0. -1.
</event>
<event>
 4    1  0.8988950E+003  0.2111437E+02  0.7546771E-02  0.1517638E+00
          2   -1    0    0  501    0  0.00000000000E+00  0.00000000000E+00  0.14167118502E+02  0.14167118502E+02  0.00000000000E+00 0. -1.
          2   -1    0    0  502    0 -0.00000000000E+00 -0.00000000000E+00 -0.11797749668E+03  0.11797749668E+03  0.00000000000E+00 0. -1.
          2    1    1    2  501    0 -0.20131687709E+02  0.63664410245E+01 -0.10848360687E+03  0.11051927154E+03  0.00000000000E+00 0. -1.
          2    1    1    2  502    0  0.20131687709E+02 -0.63664410245E+01  0.46732286934E+01  0.21625343645E+02  0.00000000000E+00 0. -1.
</event>
<event>
 4    1  0.8988950E+003  0.2704692E+02  0.7546771E-02  0.1447137E+00
          2   -1    0    0  501    0  0.00000000000E+00  0.00000000000E+00  0.18444666023E+02  0.18444666023E+02  0.00000000000E+00 0. -1.
          2   -1    0    0  502    0 -0.00000000000E+00 -0.00000000000E+00 -0.70722255967E+03  0.70722255967E+03  0.00000000000E+00 0. -1.
          2    1    1    2  501    0 -0.23027087830E+02 -0.14187640307E+02 -0.69690190430E+03  0.69742655537E+03  0.00000000000E+00 0. -1.
          2    1    1    2  502    0  0.23027087830E+02  0.14187640307E+02  0.81240106540E+01  0.28240670327E+02  0.00000000000E+00 0. -1.
</event>
<event>
 4    1  0.8988950E+003  0.3301533E+02  0.7546771E-02  0.1395080E+00
          2   -1    0    0  502    0  0.00000000000E+00  0.00000000000E+00  0.63625328042E+03  0.63625328042E+03  0.00000000000E+00 0.  1.
          2   -1    0    0  501    0 -0.00000000000E+00 -0.00000000000E+00 -0.68861875470E+01  0.68861875470E+01  0.00000000000E+00 0. -1.
          2    1    1    2  501    0  0.87621926339E+01 -0.31831368957E+02  0.59339677649E+03  0.59431451809E+03  0.00000000000E+00 0.  1.
          2    1    1    2  502    0 -0.87621926339E+01  0.31831368957E+02  0.35970316385E+02  0.48824949875E+02  0.00000000000E+00 0. -1.
</event>
<event>
 4    1  0.8988950E+003  0.2145194E+02  0.7546771E-02  0.1512909E+00
          2   -1    0    0  502    0  0.00000000000E+00  0.00000000000E+00  0.72398897190E+00  0.72398897190E+00  0.00000000000E+00 0.  1.
          2   -1    0    0  501    0 -0.00000000000E+00 -0.00000000000E+00 -0.10707966052E+04  0.10707966052E+04  0.00000000000E+00 0. -1.
          2    1    1    2  501    0 -0.14426148666E+02 -0.15876768830E+02 -0.19349183249E+03  0.19467736077E+03  0.00000000000E+00 0.  1.
          2    1    1    2  502    0  0.14426148666E+02  0.15876768830E+02 -0.87658078371E+03  0.87684323338E+03  0.00000000000E+00 0. -1.
</event>
<event>
 4    1  0.8988950E+003  0.2043802E+02  0.7546771E-02  0.1527442E+00
          2   -1    0    0  502    0  0.00000000000E+00  0.00000000000E+00  0.21019138825E+03  0.21019138825E+03  0.00000000000E+00 0. -1.
          2   -1    0    0  501    0 -0.00000000000E+00 -0.00000000000E+00 -0.20186534238E+01  0.20186534238E+01  0.00000000000E+00 0.  1.
          2    1    1    2  501    0 -0.20435688909E+02  0.30879939506E+00  0.90862223695E+02  0.93132467126E+02  0.00000000000E+00 0.  1.
          2    1    1    2  502    0  0.20435688909E+02 -0.30879939506E+00  0.11731051113E+03  0.11907757455E+03  0.00000000000E+00 0. -1.
</event>
<event>
 4    1  0.8988950E+003  0.2467538E+02  0.7546771E-02  0.1472468E+00
          2   -1    0    0  501    0  0.00000000000E+00  0.00000000000E+00  0.85200864061E+03  0.85200864061E+03  0.00000000000E+00 0. -1.
          2   -1    0    0  502    0 -0.00000000000E+00 -0.00000000000E+00 -0.10038805258E+02  0.10038805258E+02  0.00000000000E+00 0.  1.
          2    1    1    2  501    0  0.15532829972E+02 -0.19173045513E+02  0.55860808824E+01  0.25299778276E+02  0.00000000000E+00 0.  1.
          2    1    1    2  502    0 -0.15532829972E+02  0.19173045513E+02  0.83638375447E+03  0.83674766760E+03  0.00000000000E+00 0. -1.
</event>
<event>
 4    1  0.8988950E+003  0.2543790E+02  0.7546771E-02  0.1463964E+00
          2   -1    0    0  501    0  0.00000000000E+00  0.00000000000E+00  0.26990476100E+00  0.26990476100E+00  0.00000000000E+00 0. -1.
          2   -1    0    0  502    0 -0.00000000000E+00 -0.00000000000E+00 -0.24070625176E+04  0.24070625176E+04  0.00000000000E+00 0. -1.
          2    1    1    2  501    0 -0.25333908700E+02 -0.22977577620E+01 -0.12794100096E+04  0.12796628694E+04  0.00000000000E+00 0. -1.
          2    1    1    2  502    0  0.25333908700E+02  0.22977577620E+01 -0.11273826033E+04  0.11276695530E+04  0.00000000000E+00 0. -1.
</event>
<event>
 4    1  0.8988950E+003  0.2241292E+02  0.7546771E-02  0.1500005E+00
          2   -1    0    0  501    0  0.00000000000E+00  0.00000000000E+00  0.20376796122E+02  0.20376796122E+02  0.00000000000E+00 0. -1.
          2   -1    0    0  502    0 -0.00000000000E+00 -0.00000000000E+00 -0.21391268763E+03  0.21391268763E+03  0.00000000000E+00 0. -1.
          2    1    1    2  501    0  0.68040405007E+01 -0.21355186352E+02 -0.20695591056E+03  0.20816601036E+03  0.00000000000E+00 0. -1.
          2    1    1    2  502    0 -0.68040405007E+01  0.21355186352E+02  0.13420019048E+02  0.26123473400E+02  0.00000000000E+00 0. -1.
</event>
<event>
 4    1  0.8988950E+003  0.2624983E+02  0.7546771E-02  0.1455293E+00
          2   -1    0    0  502    0  0.00000000000E+00  0.00000000000E+00  0.19476653151E+04  0.19476653151E+04  0.00000000000E+00 0. -1.
          2   -1    0    0  501    0 -0.00000000000E+00 -0.00000000000E+00 -0.19814372926E+01  0.19814372926E+01  0.00000000000E+00 0.  1.
          2    1    1    2  501    0  0.24414440097E+02  0.96430769326E+01  0.18563624807E+04  0.18565480639E+04  0.00000000000E+00 0. -1.
          2    1    1    2  502    0 -0.24414440097E+02 -0.96430769326E+01  0.89321397108E+02  0.93098688494E+02  0.00000000000E+00 0.  1.
</event>
<event>
 4    1  0.8988950E+003  0.2001157E+02  0.7546771E-02  0.1533859E+00
          2   -1    0    0  501    0  0.00000000000E+00  0.00000000000E+00  0.11382004907E+02  0.11382004907E+02  0.00000000000E+00 0. -1.
          2   -1    0    0  502    0 -0.00000000000E+00 -0.00000000000E+00 -0.12722805160E+04  0.12722805160E+04  0.00000000000E+00 0. -1.
          2    1    1    2  501    0 -0.12073814815E+02  0.15958879478E+02 -0.12633436430E+04  0.12635021263E+04  0.00000000000E+00 0. -1.
          2    1    1    2  502    0  0.12073814815E+02 -0.15958879478E+02  0.24451319631E+01  0.20160394557E+02  0.00000000000E+00 0. -1.
</event>
<event>
 4    1  0.1199111E+004  0.3104822E+02  0.7546771E-02  0.1410701E+00
          2   -1    0    0  502    0  0.00000000000E+00  0.00000000000E+00  0.93738559146E+03  0.93738559146E+03  0.00000000000E+00 0.  1.
          2   -1    0    0  501    0 -0.00000000000E+00 -0.00000000000E+00 -0.59989579481E+03  0.59989579481E+03  0.00000000000E+00 0. -1.
          2    1    1    2  501    0  0.30589061967E+02 -0.53198977213E+01  0.93672647984E+03  0.93724089222E+03  0.00000000000E+00 0.  1.
          2    1    1    2  502    0 -0.30589061967E+02  0.53198977213E+01 -0.59923668319E+03  0.60004049405E+03  0.00000000000E+00 0. -1.
</event>
<event>
 4    1  0.8988950E+003  0.2284919E+02  0.7546771E-02  0.1494401E+00
          2   -1    0    0  501    0  0.00000000000E+00  0.00000000000E+00  0.11159145614E+03  0.11159145614E+03  0.00000000000E+00 0. -1.
          2   -1    0    0  502    0 -0.00000000000E+00 -0.00000000000E+00 -0.56252965782E+01  0.56252965782E+01  0.00000000000E+00 0. -1.
          2    1    1    2  501    0  0.14908859490E+02 -0.17315068922E+02  0.28939181271E+02  0.36872237737E+02  0.00000000000E+00 0. -1.
          2    1    1    2  502    0 -0.14908859490E+02  0.17315068922E+02  0.77026978291E+02  0.80344514982E+02  0.00000000000E+00 0. -1.
</event>
<event>
 4    1  0.1452264E+004  0.2478251E+02  0.7546771E-02  0.1471251E+00
          2   -1    0    0  501    0  0.00000000000E+00  0.00000000000E+00  0.89345028312E+03  0.89345028312E+03  0.00000000000E+00 0. -1.
          2   -1    0    0  502    0 -0.00000000000E+00 -0.00000000000E+00 -0.55661500311E+03  0.55661500311E+03  0.00000000000E+00 0. -1.
          2    1    1    2  501    0  0.22729848693E+02  0.98755621045E+01 -0.55616715891E+03  0.55671903272E+03  0.00000000000E+00 0. -1.
          2    1    1    2  502    0 -0.22729848693E+02 -0.98755621045E+01  0.89300243891E+03  0.89334625350E+03  0.00000000000E+00 0. -1.
</event>
<event>
 4    1  0.8988950E+003  0.2707509E+02  0.7546771E-02  0.1446855E+00
          2   -1    0    0  502    0  0.00000000000E+00  0.00000000000E+00  0.76579120813E+03  0.76579120813E+03  0.00000000000E+00 0.  1.
          2   -1    0    0  501    0 -0.00000000000E+00 -0.00000000000E+00 -0.13131314386E+01  0.13131314386E+01  0.00000000000E+00 0.  1.
          2    1    1    2  501    0 -0.10150534276E+01  0.27056053528E+02  0.58191125952E+03  0.58254079198E+03  0.00000000000E+00 0.  1.
          2    1    1    2  502    0  0.10150534276E+01 -0.27056053528E+02  0.18256681718E+03  0.18456354759E+03  0.00000000000E+00 0.  1.
</event>
<event>
 4    1  0.8988950E+003  0.2667358E+02  0.7546771E-02  0.1450915E+00
          2   -1    0    0  501    0  0.00000000000E+00  0.00000000000E+00  0.15875333126E+02  0.15875333126E+02  0.00000000000E+00 0. -1.
          2   -1    0    0  502    0 -0.00000000000E+00 -0.00000000000E+00 -0.78075971930E+02  0.78075971930E+02  0.00000000000E+00 0. -1.
          2    1    1    2  501    0  0.26078512067E+02 -0.56027596527E+01 -0.61760211953E+02  0.67274092249E+02  0.00000000000E+00 0. -1.
          2    1    1    2  502    0 -0.26078512067E+02  0.56027596527E+01 -0.44042685022E+00  0.26677212807E+02  0.00000000000E+00 0. -1.
</event>
<event>
 4    1  0.8988950E+003  0.3361322E+02  0.7546771E-02  0.1390584E+00
          2   -1    0    0  502    0  0.00000000000E+00  0.00000000000E+00  0.61299331080E+01  0.61299331080E+01  0.00000000000E+00 0.  1.
          2   -1    0    0  501    0 -0.00000000000E+00 -0.00000000000E+00 -0.10687055970E+04  0.10687055970E+04  0.00000000000E+00 0. -1.
          2    1    1    2  501    0  0.18823890053E+02 -0.27847976019E+02 -0.42405170631E+02  0.54111432261E+02  0.00000000000E+00 0.  1.
          2    1    1    2  502    0 -0.18823890053E+02  0.27847976019E+02 -0.10201704933E+04  0.10207240978E+04  0.00000000000E+00 0. -1.
</event>
<event>
 4    1  0.8988950E+003  0.4822499E+02  0.7546771E-02  0.1306057E+00
          2   -1    0    0  502    0  0.00000000000E+00  0.00000000000E+00  0.13396019243E+04  0.13396019243E+04  0.00000000000E+00 0. -1.
          2   -1    0    0  501    0 -0.00000000000E+00 -0.00000000000E+00 -0.56984726687E+01  0.56984726687E+01  0.00000000000E+00 0.  1.
          2    1    1    2  501    0 -0.29470485808E+02 -0.38172502247E+02  0.12278564108E+04  0.12288030823E+04  0.00000000000E+00 0. -1.
          2    1    1    2  502    0  0.29470485808E+02  0.38172502247E+02  0.10604704080E+03  0.11649731467E+03  0.00000000000E+00 0.  1.
</event>
<event>
 4    1  0.8988950E+003  0.4106375E+02  0.7546771E-02  0.1342363E+00
          2   -1    0    0  502    0  0.00000000000E+00  0.00000000000E+00  0.39045024351E+02  0.39045024351E+02  0.00000000000E+00 0. -1.
          2   -1    0    0  501    0 -0.00000000000E+00 -0.00000000000E+00 -0.67056902060E+02  0.67056902060E+02  0.00000000000E+00 0. -1.
          2    1    1    2  501    0 -0.11231799073E+02  0.39497825211E+02  0.17645848381E+02  0.44694602268E+02  0.00000000000E+00 0. -1.
          2    1    1    2  502    0  0.11231799073E+02 -0.39497825211E+02 -0.45657726090E+02  0.61407324144E+02  0.00000000000E+00 0. -1.
</event>
<event>
 4    1  0.8988950E+003  0.2212891E+02  0.7546771E-02  0.1503736E+00
          2   -1    0    0  501    0  0.00000000000E+00  0.00000000000E+00  0.39752762321E+01  0.39752762321E+01  0.00000000000E+00 0. -1.
          2   -1    0    0  502    0 -0.00000000000E+00 -0.00000000000E+00 -0.17238828139E+03  0.17238828139E+03  0.00000000000E+00 0.  1.
          2    1    1    2  501    0  0.21001275328E+02  0.69738903273E+01 -0.13131815494E+03  0.13316961563E+03  0.00000000000E+00 0.  1.
          2    1    1    2  502    0 -0.21001275328E+02 -0.69738903273E+01 -0.37094850224E+02  0.43193941993E+02  0.00000000000E+00 0. -1.
</event>
<event>
 4    1  0.8988950E+003  0.2635888E+02  0.7546771E-02  0.1454157E+00
          2   -1    0    0  501    0  0.00000000000E+00  0.00000000000E+00  0.35788891317E+02  0.35788891317E+02  0.00000000000E+00 0.  1.
          2   -1    0    0  502    0 -0.00000000000E+00 -0.00000000000E+00 -0.26944648673E+03  0.26944648673E+03  0.00000000000E+00 0.  1.
          2    1    1    2  501    0  0.25940145398E+02  0.46797043352E+01 -0.26384567325E+03  0.26515906560E+03  0.00000000000E+00 0.  1.
          2    1    1    2  502    0 -0.25940145398E+02 -0.46797043352E+01  0.30188077837E+02  0.40076312448E+02  0.00000000000E+00 0.  1.
</event>
<event>
 4    1  0.8988950E+003  0.2646888E+02  0.7546771E-02  0.1453017E+00
          2   -1    0    0  502    0  0.00000000000E+00  0.00000000000E+00  0.13717319647E+04  0.13717319647E+04  0.00000000000E+00 0.  1.
          2   -1    0    0  501    0 -0.00000000000E+00 -0.00000000000E+00 -0.25172656891E+03  0.25172656891E+03  0.00000000000E+00 0.  1.
          2    1    1    2  501    0  0.24728492877E+02 -0.94394522912E+01  0.13709080647E+04  0.13711635656E+04  0.00000000000E+00 0.  1.
          2    1    1    2  502    0 -0.24728492877E+02  0.94394522912E+01 -0.25090266893E+03  0.25229496804E+03  0.00000000000E+00 0.  1.
</event>
<event>
 4    1  0.8988950E+003  0.2201355E+02  0.7546771E-02  0.1505271E+00
          2   -1    0    0  501    0  0.00000000000E+00  0.00000000000E+00  0.83303203678E+01  0.83303203678E+01  0.00000000000E+00 0. -1.
          2   -1    0    0  502    0 -0.00000000000E+00 -0.00000000000E+00 -0.13768752409E+04  0.13768752409E+04  0.00000000000E+00 0. -1.
          2    1    1    2  501    0 -0.17061034850E+02 -0.13911062551E+02 -0.13620862032E+04  0.13622640792E+04  0.00000000000E+00 0. -1.
          2    1    1    2  502    0  0.17061034850E+02  0.13911062551E+02 -0.64587174000E+01  0.22941482121E+02  0.00000000000E+00 0. -1.
</event>
<event>
 4    1  0.8988950E+003  0.3736238E+02  0.7546771E-02  0.1364676E+00
          2   -1    0    0  501    0  0.00000000000E+00  0.00000000000E+00  0.38781811653E+03  0.38781811653E+03  0.00000000000E+00 0.  1.
          2   -1    0    0  502    0 -0.00000000000E+00 -0.00000000000E+00 -0.22186270295E+03  0.22186270295E+03  0.00000000000E+00 0. -1.
          2    1    1    2  501    0  0.37312582865E+02 -0.19284106161E+01 -0.21937973236E+03  0.22253856874E+03  0.00000000000E+00 0. -1.
          2    1    1    2  502    0 -0.37312582865E+02  0.19284106161E+01  0.38533514594E+03  0.38714225073E+03  0.00000000000E+00 0.  1.
</event>
<event>
 4    1  0.8988950E+003  0.2154550E+02  0.7546771E-02  0.1511617E+00
          2   -1    0    0  502    0  0.00000000000E+00  0.00000000000E+00  0.10562836581E+04  0.10562836581E+04  0.00000000000E+00 0. -1.
          2   -1    0    0  501    0 -0.00000000000E+00 -0.00000000000E+00 -0.53109546235E+02  0.53109546235E+02  0.00000000000E+00 0.  1.
          2    1    1    2  501    0  0.19883063466E+02 -0.82989440475E+01  0.10539838751E+04  0.10542040684E+04  0.00000000000E+00 0. -1.
          2    1    1    2  502    0 -0.19883063466E+02  0.82989440475E+01 -0.50809763279E+02  0.55189135974E+02  0.00000000000E+00 0.  1.
</event>
<event>
 4    1  0.8988950E+003  0.6970156E+02  0.7546771E-02  0.1230013E+00
          2   -1    0    0  501    0  0.00000000000E+00  0.00000000000E+00  0.35460303392E+03  0.35460303392E+03  0.00000000000E+00 0.  1.
          2   -1    0    0  502    0 -0.00000000000E+00 -0.00000000000E+00 -0.13850573458E+02  0.13850573458E+02  0.00000000000E+00 0. -1.
          2    1    1    2  501    0 -0.22220268338E+02 -0.66064871385E+02  0.15121204245E+03  0.16650342140E+03  0.00000000000E+00 0. -1.
          2    1    1    2  502    0  0.22220268338E+02  0.66064871385E+02  0.18954041801E+03  0.20195018598E+03  0.00000000000E+00 0.  1.
</event>
<event>
 4    1  0.8988950E+003  0.2839117E+02  0.7546771E-02  0.1434113E+00
          2   -1    0    0  501    0  0.00000000000E+00  0.00000000000E+00  0.24970701616E+02  0.24970701616E+02  0.00000000000E+00 0.  1.
          2   -1    0    0  502    0 -0.00000000000E+00 -0.00000000000E+00 -0.69097459205E+02  0.69097459205E+02  0.00000000000E+00 0.  1.
          2    1    1    2  501    0 -0.26050842061E+02 -0.11287689880E+02 -0.56396047662E+02  0.63139310313E+02  0.00000000000E+00 0.  1.
          2    1    1    2  502    0  0.26050842061E+02  0.11287689880E+02  0.12269290072E+02  0.30928850509E+02  0.00000000000E+00 0.  1.
</event>
<event>
 4    1  0.8988950E+003  0.2907259E+02  0.7546771E-02  0.1427830E+00
          2   -1    0    0  501    0  0.00000000000E+00  0.00000000000E+00  0.65605797647E+03  0.65605797647E+03  0.00000000000E+00 0. -1.
          2   -1    0    0  502    0 -0.00000000000E+00 -0.00000000000E+00 -0.23473110353E+01  0.23473110353E+01  0.00000000000E+00 0. -1.
          2    1    1    2  501    0 -0.94589462562E+01  0.27490792146E+02  0.10573774363E+03  0.10966168768E+03  0.00000000000E+00 0. -1.
          2    1    1    2  502    0  0.94589462562E+01 -0.27490792146E+02  0.54797292181E+03  0.54874359983E+03  0.00000000000E+00 0. -1.
</event>
<event>
 4    1  0.8988950E+003  0.2770947E+02  0.7546771E-02  0.1440609E+00
          2   -1    0    0  501    0  0.00000000000E+00  0.00000000000E+00  0.82785099476E+01  0.82785099476E+01  0.00000000000E+00 0.  1.
          2   -1    0    0  502    0 -0.00000000000E+00 -0.00000000000E+00 -0.24536608318E+03  0.24536608318E+03  0.00000000000E+00 0.  1.
          2    1    1    2  501    0  0.10740391804E+01 -0.27688647542E+02 -0.21856484083E+03  0.22031433092E+03  0.00000000000E+00 0.  1.
          2    1    1    2  502    0 -0.10740391804E+01  0.27688647542E+02 -0.18522732398E+02  0.33330262200E+02  0.00000000000E+00 0.  1.
</event>
<event>
 4    1  0.8988950E+003  0.3002241E+02  0.7546771E-02  0.1419402E+00
          2   -1    0    0  501    0  0.00000000000E+00  0.00000000000E+00  0.12984828717E+04  0.12984828717E+04  0.00000000000E+00 0.  1.
          2   -1    0    0  502    0 -0.00000000000E+00 -0.00000000000E+00 -0.49628580124E+02  0.49628580124E+02  0.00000000000E+00 0. -1.
          2    1    1    2  501    0  0.26221182754E+02  0.14621722633E+02 -0.44897987806E+02  0.54010873968E+02  0.00000000000E+00 0. -1.
          2    1    1    2  502    0 -0.26221182754E+02 -0.14621722633E+02  0.12937522794E+04  0.12941005778E+04  0.00000000000E+00 0.  1.
</event>
<event>
 4    1  0.8988950E+003  0.2578901E+02  0.7546771E-02  0.1460167E+00
          2   -1    0    0  502    0  0.00000000000E+00  0.00000000000E+00  0.74554693547E+01  0.74554693547E+01  0.00000000000E+00 0.  1.
          2   -1    0    0  501    0 -0.00000000000E+00 -0.00000000000E+00 -0.41071970131E+03  0.41071970131E+03  0.00000000000E+00 0. -1.
          2    1    1    2  501    0  0.20446317812E+02 -0.15716900231E+02 -0.16639157477E+02  0.30690950237E+02  0.00000000000E+00 0.  1.
          2    1    1    2  502    0 -0.20446317812E+02  0.15716900231E+02 -0.38662507448E+03  0.38748422043E+03  0.00000000000E+00 0. -1.
</event>
<event>
 4    1  0.8988950E+003  0.3085744E+02  0.7546771E-02  0.1412289E+00
          2   -1    0    0  501    0  0.00000000000E+00  0.00000000000E+00  0.10188957414E+02  0.10188957414E+02  0.00000000000E+00 0. -1.
          2   -1    0    0  502    0 -0.00000000000E+00 -0.00000000000E+00 -0.11050965838E+04  0.11050965838E+04  0.00000000000E+00 0. -1.
          2    1    1    2  501    0  0.78910344038E+01 -0.29831412279E+02 -0.10809973611E+04  0.10814376895E+04  0.00000000000E+00 0. -1.
          2    1    1    2  502    0 -0.78910344038E+01  0.29831412279E+02 -0.13910265229E+02  0.33847851649E+02  0.00000000000E+00 0. -1.
</event>
<event>
 4    1  0.8988950E+003  0.2167843E+02  0.7546771E-02  0.1509795E+00
          2   -1    0    0  502    0  0.00000000000E+00  0.00000000000E+00  0.10820584328E+04  0.10820584328E+04  0.00000000000E+00 0. -1.
          2   -1    0    0  501    0 -0.00000000000E+00 -0.00000000000E+00 -0.10190560600E+01  0.10190560600E+01  0.00000000000E+00 0. -1.
          2    1    1    2  501    0 -0.20691804343E+02  0.64655682525E+01  0.95073535813E+03  0.95098247909E+03  0.00000000000E+00 0. -1.
          2    1    1    2  502    0  0.20691804343E+02 -0.64655682525E+01  0.13030401857E+03  0.13209500973E+03  0.00000000000E+00 0. -1.
</event>
<event>
 4    1  0.8988950E+003  0.2856556E+02  0.7546771E-02  0.1432485E+00
          2   -1    0    0  502    0  0.00000000000E+00  0.00000000000E+00  0.46713703973E+01  0.46713703973E+01  0.00000000000E+00 0.  1.
          2   -1    0    0  501    0 -0.00000000000E+00 -0.00000000000E+00 -0.61972979580E+03  0.61972979580E+03  0.00000000000E+00 0.  1.
          2    1    1    2  501    0 -0.28525944333E+02  0.15039033002E+01 -0.42961272140E+02  0.51591298967E+02  0.00000000000E+00 0.  1.
          2    1    1    2  502    0  0.28525944333E+02 -0.15039033002E+01 -0.57209715327E+03  0.57280986724E+03  0.00000000000E+00 0.  1.
</event>
<event>
 4    1  0.8988950E+003  0.2309758E+02  0.7546771E-02  0.1491276E+00
          2   -1    0    0  502    0  0.00000000000E+00  0.00000000000E+00  0.58083073394E+01  0.58083073394E+01  0.00000000000E+00 0. -1.
          2   -1    0    0  501    0 -0.00000000000E+00 -0.00000000000E+00 -0.32789895082E+03  0.32789895082E+03  0.00000000000E+00 0. -1.
          2    1    1    2  501    0  0.20980214464E+02 -0.96606911382E+01 -0.19477080185E+02  0.30213490443E+02  0.00000000000E+00 0. -1.
          2    1    1    2  502    0 -0.20980214464E+02  0.96606911382E+01 -0.30261356329E+03  0.30349376771E+03  0.00000000000E+00 0. -1.
</event>
<event>
 4    1  0.8988950E+003  0.2940385E+02  0.7546771E-02  0.1424849E+00
          2   -1    0    0  501    0  0.00000000000E+00  0.00000000000E+00  0.83543408115E+03  0.83543408115E+03  0.00000000000E+00 0. -1.
          2   -1    0    0  502    0 -0.00000000000E+00 -0.00000000000E+00 -0.26099755733E+02  0.26099755733E+02  0.00000000000E+00 0. -1.
          2    1    1    2  501    0  0.21844925662E+02 -0.19682109164E+02 -0.17473097662E+02  0.34203732841E+02  0.00000000000E+00 0. -1.
          2    1    1    2  502    0 -0.21844925662E+02  0.19682109164E+02  0.82680742308E+03  0.82733010404E+03  0.00000000000E+00 0. -1.
</event>
<event>
 4    1  0.8988950E+003  0.2855686E+02  0.7546771E-02  0.1432566E+00
          2   -1    0    0  501    0  0.00000000000E+00  0.00000000000E+00  0.22614235391E+02  0.22614235391E+02  0.00000000000E+00 0.  1.
          2   -1    0    0  502    0 -0.00000000000E+00 -0.00000000000E+00 -0.52339253737E+03  0.52339253737E+03  0.00000000000E+00 0.  1.
          2    1    1    2  501    0 -0.15584990855E+02  0.23929107567E+02 -0.51381991213E+03  0.51461286054E+03  0.00000000000E+00 0.  1.
          2    1    1    2  502    0  0.15584990855E+02 -0.23929107567E+02  0.13041610156E+02  0.31393912218E+02  0.00000000000E+00 0.  1.
</event>
<event>
 4    1  0.8988950E+003  0.3628211E+02  0.7546771E-02  0.1371767E+00
          2   -1    0    0  501    0  0.00000000000E+00  0.00000000000E+00  0.96943828189E+00  0.96943828189E+00  0.00000000000E+00 0.  1.
          2   -1    0    0  502    0 -0.00000000000E+00 -0.00000000000E+00 -0.13713107804E+04  0.13713107804E+04  0.00000000000E+00 0.  1.
          2    1    1    2  501    0  0.35117943634E+02 -0.91171114980E+01 -0.75304643715E+03  0.75391997466E+03  0.00000000000E+00 0.  1.
          2    1    1    2  502    0 -0.35117943634E+02  0.91171114980E+01 -0.61729490498E+03  0.61836024403E+03  0.00000000000E+00 0.  1.
</event>
<event>
 4    1  0.8988950E+003  0.2628352E+02  0.7546771E-02  0.1454941E+00
          2   -1    0    0  501    0  0.00000000000E+00  0.00000000000E+00  0.14500043652E+02  0.14500043652E+02  0.00000000000E+00 0.  1.
          2   -1    0    0  502    0 -0.00000000000E+00 -0.00000000000E+00 -0.72094699447E+02  0.72094699447E+02  0.00000000000E+00 0.  1.
          2    1    1    2  501    0 -0.11469526817E+02  0.23648959508E+02 -0.54012722341E+02  0.60068273705E+02  0.00000000000E+00 0.  1.
          2    1    1    2  502    0  0.11469526817E+02 -0.23648959508E+02 -0.35819334547E+01  0.26526469394E+02  0.00000000000E+00 0.  1.
</event>
<event>
 4    1  0.8988950E+003  0.2690525E+02  0.7546771E-02  0.1448562E+00
          2   -1    0    0  502    0  0.00000000000E+00  0.00000000000E+00  0.25973424018E+01  0.25973424018E+01  0.00000000000E+00 0. -1.
          2   -1    0    0  501    0 -0.00000000000E+00 -0.00000000000E+00 -0.52721149334E+03  0.52721149334E+03  0.00000000000E+00 0.  1.
          2    1    1    2  501    0 -0.16662923925E+02 -0.21124384065E+02 -0.80435206913E+02  0.84815771805E+02  0.00000000000E+00 0. -1.
          2    1    1    2  502    0  0.16662923925E+02  0.21124384065E+02 -0.44417894402E+03  0.44499306393E+03  0.00000000000E+00 0.  1.
</event>
<event>
 4    1  0.8988950E+003  0.2635091E+02  0.7546771E-02  0.1454240E+00
          2   -1    0    0  502    0  0.00000000000E+00  0.00000000000E+00  0.18748131131E+01  0.18748131131E+01  0.00000000000E+00 0. -1.
          2   -1    0    0  501    0 -0.00000000000E+00 -0.00000000000E+00 -0.37681417920E+03  0.37681417920E+03  0.00000000000E+00 0. -1.
          2    1    1    2  501    0  0.26242121723E+02  0.23919217854E+01 -0.16270401938E+03  0.16482405215E+03  0.00000000000E+00 0. -1.
          2    1    1    2  502    0 -0.26242121723E+02 -0.23919217854E+01 -0.21223534670E+03  0.21386494016E+03  0.00000000000E+00 0. -1.
</event>
<event>
 4    1  0.8988950E+003  0.2180109E+02  0.7546771E-02  0.1508128E+00
          2   -1    0    0  502    0  0.00000000000E+00  0.00000000000E+00  0.41445587033E+02  0.41445587033E+02  0.00000000000E+00 0. -1.
          2   -1    0    0  501    0 -0.00000000000E+00 -0.00000000000E+00 -0.89270830620E+03  0.89270830620E+03  0.00000000000E+00 0. -1.
          2    1    1    2  501    0 -0.11390734840E+02  0.18588673067E+02  0.38435849932E+02  0.44188258243E+02  0.00000000000E+00 0. -1.
          2    1    1    2  502    0  0.11390734840E+02 -0.18588673067E+02 -0.88969856909E+03  0.88996563499E+03  0.00000000000E+00 0. -1.
</event>
<event>
 4    1  0.8988950E+003  0.2177550E+02  0.7546771E-02  0.1508474E+00
          2   -1    0    0  502    0  0.00000000000E+00  0.00000000000E+00  0.19424182996E+03  0.19424182996E+03  0.00000000000E+00 0. -1.
          2   -1    0    0  501    0 -0.00000000000E+00 -0.00000000000E+00 -0.27083754570E+03  0.27083754570E+03  0.00000000000E+00 0.  1.
          2    1    1    2  501    0  0.21681106532E+02 -0.20253488092E+01  0.19319148083E+03  0.19441481601E+03  0.00000000000E+00 0. -1.
          2    1    1    2  502    0 -0.21681106532E+02  0.20253488092E+01 -0.26978719657E+03  0.27066455965E+03  0.00000000000E+00 0.  1.
</event>
<event>
 4    1  0.8988950E+003  0.2566371E+02  0.7546771E-02  0.1461514E+00
          2   -1    0    0  502    0  0.00000000000E+00  0.00000000000E+00  0.93077997634E+02  0.93077997634E+02  0.00000000000E+00 0. -1.
          2   -1    0    0  501    0 -0.00000000000E+00 -0.00000000000E+00 -0.12870952028E+03  0.12870952028E+03  0.00000000000E+00 0.  1.
          2    1    1    2  501    0 -0.22658573101E+02 -0.12050520253E+02  0.89986604253E+02  0.93574648908E+02  0.00000000000E+00 0. -1.
          2    1    1    2  502    0  0.22658573101E+02  0.12050520253E+02 -0.12561812689E+03  0.12821286900E+03  0.00000000000E+00 0.  1.
</event>
<event>
 4    1  0.8988950E+003  0.2445494E+02  0.7546771E-02  0.1474994E+00
          2   -1    0    0  501    0  0.00000000000E+00  0.00000000000E+00  0.57887378750E+03  0.57887378750E+03  0.00000000000E+00 0.  1.
          2   -1    0    0  502    0 -0.00000000000E+00 -0.00000000000E+00 -0.20916145334E+02  0.20916145334E+02  0.00000000000E+00 0.  1.
          2    1    1    2  501    0  0.20351739219E+02  0.13559155930E+02 -0.13415964477E+02  0.27893226805E+02  0.00000000000E+00 0.  1.
          2    1    1    2  502    0 -0.20351739219E+02 -0.13559155930E+02  0.57137360664E+03  0.57189670603E+03  0.00000000000E+00 0.  1.
</event>
<event>
 4    1  0.8988950E+003  0.2220000E+02  0.7546771E-02  0.1502796E+00
          2   -1    0    0  501    0  0.00000000000E+00  0.00000000000E+00  0.26349644536E+02  0.26349644536E+02  0.00000000000E+00 0. -1.
          2   -1    0    0  502    0 -0.00000000000E+00 -0.00000000000E+00 -0.11638294884E+04  0.11638294884E+04  0.00000000000E+00 0. -1.
          2    1    1    2  501    0 -0.13410528802E+02 -0.17691740523E+02 -0.11590282902E+04  0.11592408798E+04  0.00000000000E+00 0. -1.
          2    1    1    2  502    0  0.13410528802E+02  0.17691740523E+02  0.21548446344E+02  0.30938253107E+02  0.00000000000E+00 0. -1.
</event>
<event>
 4    1  0.8988950E+003  0.2046382E+02  0.7546771E-02  0.1527060E+00
          2   -1    0    0  502    0  0.00000000000E+00  0.00000000000E+00  0.24110025876E+03  0.24110025876E+03  0.00000000000E+00 0. -1.
          2   -1    0    0  501    0 -0.00000000000E+00 -0.00000000000E+00 -0.51589576919E+02  0.51589576919E+02  0.00000000000E+00 0. -1.
          2    1    1    2  501    0 -0.13145872253E+02  0.15682913437E+02  0.23861561760E+03  0.23949150443E+03  0.00000000000E+00 0. -1.
          2    1    1    2  502    0  0.13145872253E+02 -0.15682913437E+02 -0.49104935762E+02  0.53198331246E+02  0.00000000000E+00 0. -1.
</event>
<event>
 4    1  0.8988950E+003  0.2091755E+02  0.7546771E-02  0.1520445E+00
          2   -1    0    0  501    0  0.00000000000E+00  0.00000000000E+00  0.11044130132E+02  0.11044130132E+02  0.00000000000E+00 0. -1.
          2   -1    0    0  502    0 -0.00000000000E+00 -0.00000000000E+00 -0.25504719694E+03  0.25504719694E+03  0.00000000000E+00 0. -1.
          2    1    1    2  501    0  0.15577491948E+02  0.13960146195E+02 -0.24427801891E+03  0.24517196915E+03  0.00000000000E+00 0. -1.
          2    1    1    2  502    0 -0.15577491948E+02 -0.13960146195E+02  0.27495209720E+00  0.20919357922E+02  0.00000000000E+00 0. -1.
</event>
<event>
 4    1  0.8988950E+003  0.2816863E+02  0.7546771E-02  0.1436209E+00
          2   -1    0    0  502    0  0.00000000000E+00  0.00000000000E+00  0.36745541114E+03  0.36745541114E+03  0.00000000000E+00 0. -1.
          2   -1    0    0  501    0 -0.00000000000E+00 -0.00000000000E+00 -0.18427832659E+03  0.18427832659E+03  0.00000000000E+00 0. -1.
          2    1    1    2  501    0  0.11488990550E+02 -0.25719150756E+02  0.36583434800E+03  0.36691721382E+03  0.00000000000E+00 0. -1.
          2    1    1    2  502    0 -0.11488990550E+02  0.25719150756E+02 -0.18265726345E+03  0.18481652391E+03  0.00000000000E+00 0. -1.
</event>
<event>
 4    1  0.8988950E+003  0.2015680E+02  0.7546771E-02  0.1531652E+00
          2   -1    0    0  501    0  0.00000000000E+00  0.00000000000E+00  0.12521689035E+04  0.12521689035E+04  0.00000000000E+00 0. -1.
          2   -1    0    0  502    0 -0.00000000000E+00 -0.00000000000E+00 -0.88533404372E+00  0.88533404372E+00  0.00000000000E+00 0. -1.
          2    1    1    2  501    0  0.19837068086E+02  0.35759172926E+01  0.12697151133E+03  0.12856150724E+03  0.00000000000E+00 0. -1.
          2    1    1    2  502    0 -0.19837068086E+02 -0.35759172926E+01  0.11243120581E+04  0.11244927303E+04  0.00000000000E+00 0. -1.
</event>
<event>
 4    1  0.8988950E+003  0.2270240E+02  0.7546771E-02  0.1496269E+00
          2   -1    0    0  502    0  0.00000000000E+00  0.00000000000E+00  0.57538840134E+00  0.57538840134E+00  0.00000000000E+00 0.  1.
          2   -1    0    0  501    0 -0.00000000000E+00 -0.00000000000E+00 -0.17062512702E+04  0.17062512702E+04  0.00000000000E+00 0.  1.
          2    1    1    2  501    0  0.18859733241E+02  0.12637618588E+02 -0.26464852160E+03  0.26562047912E+03  0.00000000000E+00 0.  1.
          2    1    1    2  502    0 -0.18859733241E+02 -0.12637618588E+02 -0.14410273602E+04  0.14412061795E+04  0.00000000000E+00 0.  1.
</event>
<event>
 4    1  0.8988950E+003  0.2215488E+02  0.7546771E-02  0.1503392E+00
          2   -1    0    0  502    0  0.00000000000E+00  0.00000000000E+00  0.83965971289E+02  0.83965971289E+02  0.00000000000E+00 0.  1.
          2   -1    0    0  501    0 -0.00000000000E+00 -0.00000000000E+00 -0.83732355668E+01  0.83732355668E+01  0.00000000000E+00 0.  1.
          2    1    1    2  501    0  0.63728261186E+01 -0.21218520801E+02  0.63162806554E+02  0.66935630791E+02  0.00000000000E+00 0.  1.
          2    1    1    2  502    0 -0.63728261186E+01  0.21218520801E+02  0.12429929169E+02  0.25403576064E+02  0.00000000000E+00 0.  1.
</event>
<event>
 4    1  0.8988950E+003  0.2810306E+02  0.7546771E-02  0.1436832E+00
          2   -1    0    0  502    0  0.00000000000E+00  0.00000000000E+00  0.87135411331E+03  0.87135411331E+03  0.00000000000E+00 0. -1.
          2   -1    0    0  501    0 -0.00000000000E+00 -0.00000000000E+00 -0.90806640563E+00  0.90806640563E+00  0.00000000000E+00 0.  1.
          2    1    1    2  501    0  0.11636007595E+02 -0.25580950485E+02  0.45399383421E+03  0.45486281800E+03  0.00000000000E+00 0. -1.
          2    1    1    2  502    0 -0.11636007595E+02  0.25580950485E+02  0.41645221270E+03  0.41739936172E+03  0.00000000000E+00 0.  1.
</event>
<event>
 4    1  0.8988950E+003  0.5015440E+02  0.7546771E-02  0.1297504E+00
          2   -1    0    0  502    0  0.00000000000E+00  0.00000000000E+00  0.57185240576E+02  0.57185240576E+02  0.00000000000E+00 0. -1.
          2   -1    0    0  501    0 -0.00000000000E+00 -0.00000000000E+00 -0.16465747250E+03  0.16465747250E+03  0.00000000000E+00 0. -1.
          2    1    1    2  501    0  0.49316979688E+02  0.91268276681E+01  0.41220053130E+02  0.64919613746E+02  0.00000000000E+00 0. -1.
          2    1    1    2  502    0 -0.49316979688E+02 -0.91268276681E+01 -0.14869228505E+03  0.15692309933E+03  0.00000000000E+00 0. -1.
</event>
<event>
 4    1  0.8988950E+003  0.2323082E+02  0.7546771E-02  0.1489620E+00
          2   -1    0    0  501    0  0.00000000000E+00  0.00000000000E+00  0.29747727228E+02  0.29747727228E+02  0.00000000000E+00 0.  1.
          2   -1    0    0  502    0 -0.00000000000E+00 -0.00000000000E+00 -0.36338294407E+02  0.36338294407E+02  0.00000000000E+00 0. -1.
          2    1    1    2  501    0 -0.91097198188E+01 -0.21370171539E+02 -0.26677929364E+02  0.35374894232E+02  0.00000000000E+00 0. -1.
          2    1    1    2  502    0  0.91097198188E+01  0.21370171539E+02  0.20087362185E+02  0.30711127403E+02  0.00000000000E+00 0.  1.
</event>
<event>
 4    1  0.8988950E+003  0.2087696E+02  0.7546771E-02  0.1521029E+00
          2   -1    0    0  501    0  0.00000000000E+00  0.00000000000E+00  0.98909491341E+02  0.98909491341E+02  0.00000000000E+00 0.  1.
          2   -1    0    0  502    0 -0.00000000000E+00 -0.00000000000E+00 -0.48257297510E+01  0.48257297510E+01  0.00000000000E+00 0.  1.
          2    1    1    2  501    0 -0.39237774566E+01 -0.20504908508E+02  0.31754713332E+02  0.38002751496E+02  0.00000000000E+00 0.  1.
          2    1    1    2  502    0  0.39237774566E+01  0.20504908508E+02  0.62329048258E+02  0.65732469596E+02  0.00000000000E+00 0.  1.
</event>
<event>
 4    1  0.8988950E+003  0.1797716E+03  0.7546771E-02  0.1070486E+00
          2   -1    0    0  502    0  0.00000000000E+00  0.00000000000E+00  0.28890641110E+03  0.28890641110E+03  0.00000000000E+00 0. -1.
          2   -1    0    0  501    0 -0.00000000000E+00 -0.00000000000E+00 -0.15865070366E+03  0.15865070366E+03  0.00000000000E+00 0.  1.
          2    1    1    2  501    0  0.31637554740E+02 -0.17696578959E+03  0.18665271609E+03  0.25914679620E+03  0.00000000000E+00 0. -1.
          2    1    1    2  502    0 -0.31637554740E+02  0.17696578959E+03 -0.56397008655E+02  0.18841031857E+03  0.00000000000E+00 0.  1.
</event>
<event>
 4    1  0.8988950E+003  0.2135805E+02  0.7546771E-02  0.1514214E+00
          2   -1    0    0  501    0  0.00000000000E+00  0.00000000000E+00  0.11741124295E+02  0.11741124295E+02  0.00000000000E+00 0. -1.
          2   -1    0    0  502    0 -0.00000000000E+00 -0.00000000000E+00 -0.56407682442E+03  0.56407682442E+03  0.00000000000E+00 0.  1.
          2    1    1    2  501    0 -0.22656048989E+01  0.21237544610E+02 -0.55398477030E+03  0.55439633115E+03  0.00000000000E+00 0.  1.
          2    1    1    2  502    0  0.22656048989E+01 -0.21237544610E+02  0.16490701766E+01  0.21421617564E+02  0.00000000000E+00 0. -1.
</event>
<event>
 4    1  0.8988950E+003  0.2031488E+02  0.7546771E-02  0.1529275E+00
          2   -1    0    0  502    0  0.00000000000E+00  0.00000000000E+00  0.10885671048E+03  0.10885671048E+03  0.00000000000E+00 0.  1.
          2   -1    0    0  501    0 -0.00000000000E+00 -0.00000000000E+00 -0.25038325805E+02  0.25038325805E+02  0.00000000000E+00 0. -1.
          2    1    1    2  501    0 -0.15518851634E-01 -0.20314876925E+02  0.10358036745E+03  0.10555371612E+03  0.00000000000E+00 0.  1.
          2    1    1    2  502    0  0.15518851634E-01  0.20314876925E+02 -0.19761982777E+02  0.28341320164E+02  0.00000000000E+00 0. -1.
</event>
<event>
 4    1  0.8988950E+003  0.2606195E+02  0.7546771E-02  0.1457266E+00
          2   -1    0    0  502    0  0.00000000000E+00  0.00000000000E+00  0.83979213517E+02  0.83979213517E+02  0.00000000000E+00 0.  1.
          2   -1    0    0  501    0 -0.00000000000E+00 -0.00000000000E+00 -0.96434389813E+01  0.96434389813E+01  0.00000000000E+00 0.  1.
          2    1    1    2  501    0  0.14665080285E+02 -0.21544386335E+02  0.18367823035E+02  0.31884198051E+02  0.00000000000E+00 0.  1.
          2    1    1    2  502    0 -0.14665080285E+02  0.21544386335E+02  0.55967951500E+02  0.61738454446E+02  0.00000000000E+00 0.  1.
</event>
<event>
 4    1  0.8988950E+003  0.2095894E+02  0.7546771E-02  0.1519852E+00
          2   -1    0    0  502    0  0.00000000000E+00  0.00000000000E+00  0.51850710911E+03  0.51850710911E+03  0.00000000000E+00 0. -1.
          2   -1    0    0  501    0 -0.00000000000E+00 -0.00000000000E+00 -0.41552207140E+01  0.41552207140E+01  0.00000000000E+00 0.  1.
          2    1    1    2  501    0 -0.17788393723E+02 -0.11083786199E+02  0.49034908006E+03  0.49079679867E+03  0.00000000000E+00 0. -1.
          2    1    1    2  502    0  0.17788393723E+02  0.11083786199E+02  0.24002808334E+02  0.31865531153E+02  0.00000000000E+00 0.  1.
</event>
<event>
 4    1  0.8988950E+003  0.2302356E+02  0.7546771E-02  0.1492202E+00
          2   -1    0    0  502    0  0.00000000000E+00  0.00000000000E+00  0.18567691825E+01  0.18567691825E+01  0.00000000000E+00 0.  1.
          2   -1    0    0  501    0 -0.00000000000E+00 -0.00000000000E+00 -0.16702996363E+04  0.16702996363E+04  0.00000000000E+00 0. -1.
          2    1    1    2  501    0  0.15855367574E+01 -0.22968902259E+02 -0.72940175794E+02  0.76487604503E+02  0.00000000000E+00 0.  1.
          2    1    1    2  502    0 -0.15855367574E+01  0.22968902259E+02 -0.15955026913E+04  0.15956688010E+04  0.00000000000E+00 0. -1.
</event>
<event>
 4    1  0.8988950E+003  0.2234565E+02  0.7546771E-02  0.1500882E+00
          2   -1    0    0  502    0  0.00000000000E+00  0.00000000000E+00  0.23251278029E+03  0.23251278029E+03  0.00000000000E+00 0. -1.
          2   -1    0    0  501    0 -0.00000000000E+00 -0.00000000000E+00 -0.82804443417E+01  0.82804443417E+01  0.00000000000E+00 0. -1.
          2    1    1    2  501    0 -0.38301067391E+01  0.22014959220E+02  0.21573075467E+03  0.21688496181E+03  0.00000000000E+00 0. -1.
          2    1    1    2  502    0  0.38301067391E+01 -0.22014959220E+02  0.85015812770E+01  0.23908262824E+02  0.00000000000E+00 0. -1.
</event>
<event>
 4    1  0.8988950E+003  0.2120421E+02  0.7546771E-02  0.1516369E+00
          2   -1    0    0  502    0  0.00000000000E+00  0.00000000000E+00  0.71297429404E+02  0.71297429404E+02  0.00000000000E+00 0. -1.
          2   -1    0    0  501    0 -0.00000000000E+00 -0.00000000000E+00 -0.85498405706E+02  0.85498405706E+02  0.00000000000E+00 0.  1.
          2    1    1    2  501    0 -0.12557433726E+02  0.17085937874E+02  0.68350796687E+02  0.71564305506E+02  0.00000000000E+00 0. -1.
          2    1    1    2  502    0  0.12557433726E+02 -0.17085937874E+02 -0.82551772989E+02  0.85231529603E+02  0.00000000000E+00 0.  1.
</event>
<event>
 4    1  0.8988950E+003  0.2134352E+02  0.7546771E-02  0.1514416E+00
          2   -1    0    0  502    0  0.00000000000E+00  0.00000000000E+00  0.26544030684E+02  0.26544030684E+02  0.00000000000E+00 0.  1.
          2   -1    0    0  501    0 -0.00000000000E+00 -0.00000000000E+00 -0.20042931382E+02  0.20042931382E+02  0.00000000000E+00 0. -1.
          2    1    1    2  501    0  0.20323612095E+02 -0.65189362760E+01 -0.55808291340E+01  0.22061083214E+02  0.00000000000E+00 0. -1.
          2    1    1    2  502    0 -0.20323612095E+02  0.65189362760E+01  0.12081928435E+02  0.24525878852E+02  0.00000000000E+00 0.  1.
</event>
<event>
 4    1  0.8988950E+003  0.2244056E+02  0.7546771E-02  0.1499645E+00
          2   -1    0    0  502    0  0.00000000000E+00  0.00000000000E+00  0.55691017364E+03  0.55691017364E+03  0.00000000000E+00 0.  1.
          2   -1    0    0  501    0 -0.00000000000E+00 -0.00000000000E+00 -0.26019284543E+01  0.26019284543E+01  0.00000000000E+00 0.  1.
          2    1    1    2  501    0  0.88965242844E+01 -0.20601716578E+02  0.50312952858E+03  0.50362972648E+03  0.00000000000E+00 0.  1.
          2    1    1    2  502    0 -0.88965242844E+01  0.20601716578E+02  0.51178716605E+02  0.55882375609E+02  0.00000000000E+00 0.  1.
</event>
<event>
 4    1  0.8988950E+003  0.2169372E+02  0.7546771E-02  0.1509586E+00
          2   -1    0    0  502    0  0.00000000000E+00  0.00000000000E+00  0.11427246948E+04  0.11427246948E+04  0.00000000000E+00 0.  1.
          2   -1    0    0  501    0 -0.00000000000E+00 -0.00000000000E+00 -0.61062389942E+01  0.61062389942E+01  0.00000000000E+00 0. -1.
          2    1    1    2  501    0 -0.14078368289E+02 -0.16505064730E+02  0.11230157140E+04  0.11232252274E+04  0.00000000000E+00 0.  1.
          2    1    1    2  502    0  0.14078368289E+02  0.16505064730E+02  0.13602741847E+02  0.25605706418E+02  0.00000000000E+00 0. -1.
</event>
<event>
 4    1  0.8988950E+003  0.2831184E+02  0.7546771E-02  0.1434857E+00
          2   -1    0    0  502    0  0.00000000000E+00  0.00000000000E+00  0.96705529873E+03  0.96705529873E+03  0.00000000000E+00 0.  1.
          2   -1    0    0  501    0 -0.00000000000E+00 -0.00000000000E+00 -0.57779427102E+02  0.57779427102E+02  0.00000000000E+00 0. -1.
          2    1    1    2  501    0 -0.24387560253E+02 -0.14380798093E+02  0.96336661384E+03  0.96378254452E+03  0.00000000000E+00 0.  1.
          2    1    1    2  502    0  0.24387560253E+02  0.14380798093E+02 -0.54090742220E+02  0.61052181310E+02  0.00000000000E+00 0. -1.
</event>
<event>
 4    1  0.8988950E+003  0.4177519E+02  0.7546771E-02  0.1338386E+00
          2   -1    0    0  501    0  0.00000000000E+00  0.00000000000E+00  0.98994565957E+03  0.98994565957E+03  0.00000000000E+00 0. -1.
          2   -1    0    0  502    0 -0.00000000000E+00 -0.00000000000E+00 -0.13669302864E+03  0.13669302864E+03  0.00000000000E+00 0. -1.
          2    1    1    2  501    0  0.39044834466E+02 -0.14854879516E+02 -0.13304875575E+03  0.13945299549E+03  0.00000000000E+00 0. -1.
          2    1    1    2  502    0 -0.39044834466E+02  0.14854879516E+02  0.98630138668E+03  0.98718569272E+03  0.00000000000E+00 0. -1.
</event>
<event>
 4    1  0.8988950E+003  0.2468713E+02  0.7546771E-02  0.1472334E+00
          2   -1    0    0  501    0  0.00000000000E+00  0.00000000000E+00  0.27513096109E+03  0.27513096109E+03  0.00000000000E+00 0. -1.
          2   -1    0    0  502    0 -0.00000000000E+00 -0.00000000000E+00 -0.12590632986E+04  0.12590632986E+04  0.00000000000E+00 0.  1.
          2    1    1    2  501    0  0.22136819942E+02  0.10927734872E+02 -0.12583882026E+04  0.12586303360E+04  0.00000000000E+00 0.  1.
          2    1    1    2  502    0 -0.22136819942E+02 -0.10927734872E+02  0.27445586507E+03  0.27556392373E+03  0.00000000000E+00 0. -1.
</event>
<event>
 4    1  0.8988950E+003  0.2958468E+02  0.7546771E-02  0.1423240E+00
          2   -1    0    0  502    0  0.00000000000E+00  0.00000000000E+00  0.27690524488E+02  0.27690524488E+02  0.00000000000E+00 0.  1.
          2   -1    0    0  501    0 -0.00000000000E+00 -0.00000000000E+00 -0.18272040310E+03  0.18272040310E+03  0.00000000000E+00 0.  1.
          2    1    1    2  501    0  0.29212279175E+02  0.46792963802E+01  0.18159132960E+02  0.34713213321E+02  0.00000000000E+00 0.  1.
          2    1    1    2  502    0 -0.29212279175E+02 -0.46792963802E+01 -0.17318901157E+03  0.17569771426E+03  0.00000000000E+00 0.  1.
</event>
<event>
 4    1  0.8988950E+003  0.2994935E+02  0.7546771E-02  0.1420037E+00
          2   -1    0    0  502    0  0.00000000000E+00  0.00000000000E+00  0.44505147182E+01  0.44505147182E+01  0.00000000000E+00 0. -1.
          2   -1    0    0  501    0 -0.00000000000E+00 -0.00000000000E+00 -0.23975607332E+03  0.23975607332E+03  0.00000000000E+00 0. -1.
          2    1    1    2  501    0  0.34089204733E+01  0.29754709004E+02 -0.68904753219E+02  0.75132073463E+02  0.00000000000E+00 0. -1.
          2    1    1    2  502    0 -0.34089204733E+01 -0.29754709004E+02 -0.16640080538E+03  0.16907451457E+03  0.00000000000E+00 0. -1.
</event>
<event>
 4    1  0.8988950E+003  0.2182694E+02  0.7546771E-02  0.1507778E+00
          2   -1    0    0  501    0  0.00000000000E+00  0.00000000000E+00  0.22948528581E+04  0.22948528581E+04  0.00000000000E+00 0. -1.
          2   -1    0    0  502    0 -0.00000000000E+00 -0.00000000000E+00 -0.22896365212E+00  0.22896365212E+00  0.00000000000E+00 0. -1.
          2    1    1    2  501    0  0.10271146032E+02  0.19259258016E+02  0.79679832033E+03  0.79709722039E+03  0.00000000000E+00 0. -1.
          2    1    1    2  502    0 -0.10271146032E+02 -0.19259258016E+02  0.14978255741E+04  0.14979846014E+04  0.00000000000E+00 0. -1.
</event>
<event>
 4    1  0.1228808E+004  0.3478154E+02  0.7546771E-02  0.1382106E+00
          2   -1    0    0  502    0  0.00000000000E+00  0.00000000000E+00  0.13611819401E+04  0.13611819401E+04  0.00000000000E+00 0. -1.
          2   -1    0    0  501    0 -0.00000000000E+00 -0.00000000000E+00 -0.45441440330E+03  0.45441440330E+03  0.00000000000E+00 0. -1.
          2    1    1    2  501    0 -0.33428721754E+02  0.96060487736E+01  0.13602937597E+04  0.13607383541E+04  0.00000000000E+00 0. -1.
          2    1    1    2  502    0  0.33428721754E+02 -0.96060487736E+01 -0.45352622288E+03  0.45485798932E+03  0.00000000000E+00 0. -1.
</event>
<event>
 4    1  0.8988950E+003  0.2210928E+02  0.7546771E-02  0.1503996E+00
          2   -1    0    0  501    0  0.00000000000E+00  0.00000000000E+00  0.80474860197E+03  0.80474860197E+03  0.00000000000E+00 0.  1.
          2   -1    0    0  502    0 -0.00000000000E+00 -0.00000000000E+00 -0.56055626036E+02  0.56055626036E+02  0.00000000000E+00 0.  1.
          2    1    1    2  501    0 -0.19626636213E+02  0.10179169757E+02 -0.53717351222E+02  0.58089363642E+02  0.00000000000E+00 0.  1.
          2    1    1    2  502    0  0.19626636213E+02 -0.10179169757E+02  0.80241032716E+03  0.80271486437E+03  0.00000000000E+00 0.  1.
</event>
<event>
 4    1  0.8988950E+003  0.2487184E+02  0.7546771E-02  0.1470242E+00
          2   -1    0    0  501    0  0.00000000000E+00  0.00000000000E+00  0.14200655020E+02  0.14200655020E+02  0.00000000000E+00 0.  1.
          2   -1    0    0  502    0 -0.00000000000E+00 -0.00000000000E+00 -0.18445291230E+04  0.18445291230E+04  0.00000000000E+00 0.  1.
          2    1    1    2  501    0 -0.75671120269E+01  0.23692764899E+02 -0.18334892192E+04  0.18336579085E+04  0.00000000000E+00 0.  1.
          2    1    1    2  502    0  0.75671120269E+01 -0.23692764899E+02  0.31607512654E+01  0.25071869526E+02  0.00000000000E+00 0.  1.
</event>
<event>
 4    1  0.8988950E+003  0.2098968E+02  0.7546771E-02  0.1519412E+00
          2   -1    0    0  501    0  0.00000000000E+00  0.00000000000E+00  0.12942705268E+03  0.12942705268E+03  0.00000000000E+00 0.  1.
          2   -1    0    0  502    0 -0.00000000000E+00 -0.00000000000E+00 -0.78369225313E+01  0.78369225313E+01  0.00000000000E+00 0.  1.
          2    1    1    2  501    0  0.16143191815E+02 -0.13415067463E+02  0.91772033697E+01  0.22908246085E+02  0.00000000000E+00 0.  1.
          2    1    1    2  502    0 -0.16143191815E+02  0.13415067463E+02  0.11241292678E+03  0.11435572913E+03  0.00000000000E+00 0.  1.
</event>
<event>
 4    1  0.8988950E+003  0.3206783E+02  0.7546771E-02  0.1402439E+00
          2   -1    0    0  501    0  0.00000000000E+00  0.00000000000E+00  0.14519292629E+02  0.14519292629E+02  0.00000000000E+00 0. -1.
          2   -1    0    0  502    0 -0.00000000000E+00 -0.00000000000E+00 -0.17647898453E+04  0.17647898453E+04  0.00000000000E+00 0. -1.
          2    1    1    2  501    0 -0.24661430263E+02 -0.20497798585E+02 -0.17467548250E+04  0.17470491591E+04  0.00000000000E+00 0. -1.
          2    1    1    2  502    0  0.24661430263E+02  0.20497798585E+02 -0.35157276866E+01  0.32259978776E+02  0.00000000000E+00 0. -1.
</event>
<event>
 4    1  0.8988950E+003  0.2316664E+02  0.7546771E-02  0.1490416E+00
          2   -1    0    0  502    0  0.00000000000E+00  0.00000000000E+00  0.55975264290E+03  0.55975264290E+03  0.00000000000E+00 0.  1.
          2   -1    0    0  501    0 -0.00000000000E+00 -0.00000000000E+00 -0.76292229833E+01  0.76292229833E+01  0.00000000000E+00 0. -1.
          2    1    1    2  501    0  0.90733026333E+01 -0.21315914272E+02  0.54132787641E+03  0.54182336863E+03  0.00000000000E+00 0.  1.
          2    1    1    2  502    0 -0.90733026333E+01  0.21315914272E+02  0.10795543506E+02  0.25558497247E+02  0.00000000000E+00 0. -1.
</event>
<event>
 4    1  0.8988950E+003  0.2847608E+02  0.7546771E-02  0.1433319E+00
          2   -1    0    0  501    0  0.00000000000E+00  0.00000000000E+00  0.33894358201E+01  0.33894358201E+01  0.00000000000E+00 0. -1.
          2   -1    0    0  502    0 -0.00000000000E+00 -0.00000000000E+00 -0.24665149116E+03  0.24665149116E+03  0.00000000000E+00 0. -1.
          2    1    1    2  501    0 -0.14841618102E+02  0.24302543031E+02 -0.14330328409E+03  0.14610516232E+03  0.00000000000E+00 0. -1.
          2    1    1    2  502    0  0.14841618102E+02 -0.24302543031E+02 -0.99958771251E+02  0.10393576466E+03  0.00000000000E+00 0. -1.
</event>
<event>
 4    1  0.8988950E+003  0.2048093E+02  0.7546771E-02  0.1526806E+00
          2   -1    0    0  502    0  0.00000000000E+00  0.00000000000E+00  0.73061350881E+02  0.73061350881E+02  0.00000000000E+00 0. -1.
          2   -1    0    0  501    0 -0.00000000000E+00 -0.00000000000E+00 -0.84349322995E+02  0.84349322995E+02  0.00000000000E+00 0.  1.
          2    1    1    2  501    0 -0.91000758002E+01 -0.18348217172E+02  0.70335573016E+02  0.73256817324E+02  0.00000000000E+00 0. -1.
          2    1    1    2  502    0  0.91000758002E+01  0.18348217172E+02 -0.81623545130E+02  0.84153856552E+02  0.00000000000E+00 0.  1.
</event>
<event>
 4    1  0.8988950E+003  0.2293249E+02  0.7546771E-02  0.1493348E+00
          2   -1    0    0  501    0  0.00000000000E+00  0.00000000000E+00  0.11244063295E+04  0.11244063295E+04  0.00000000000E+00 0. -1.
          2   -1    0    0  502    0 -0.00000000000E+00 -0.00000000000E+00 -0.65209649022E+01  0.65209649022E+01  0.00000000000E+00 0. -1.
          2    1    1    2  501    0  0.37779616014E+01  0.22619150896E+02  0.14135094646E+02  0.26938817379E+02  0.00000000000E+00 0. -1.
          2    1    1    2  502    0 -0.37779616014E+01 -0.22619150896E+02  0.11037502699E+04  0.11039884770E+04  0.00000000000E+00 0. -1.
</event>
<event>
 4    1  0.8988950E+003  0.2199402E+02  0.7546771E-02  0.1505532E+00
          2   -1    0    0  502    0  0.00000000000E+00  0.00000000000E+00  0.34779129575E+00  0.34779129575E+00  0.00000000000E+00 0. -1.
          2   -1    0    0  501    0 -0.00000000000E+00 -0.00000000000E+00 -0.17729710004E+04  0.17729710004E+04  0.00000000000E+00 0.  1.
          2    1    1    2  501    0  0.21486487624E+02 -0.46976466089E+01 -0.12979232463E+04  0.12981095833E+04  0.00000000000E+00 0.  1.
          2    1    1    2  502    0 -0.21486487624E+02  0.46976466089E+01 -0.47469996280E+03  0.47520920837E+03  0.00000000000E+00 0. -1.
</event>
<event>
 4    1  0.8988950E+003  0.4660946E+02  0.7546771E-02  0.1313582E+00
          2   -1    0    0  502    0  0.00000000000E+00  0.00000000000E+00  0.31027475208E+04  0.31027475208E+04  0.00000000000E+00 0. -1.
          2   -1    0    0  501    0 -0.00000000000E+00 -0.00000000000E+00 -0.72915848756E+00  0.72915848756E+00  0.00000000000E+00 0. -1.
          2    1    1    2  501    0  0.15640265052E+02 -0.43906986591E+02  0.18604252898E+04  0.18610090543E+04  0.00000000000E+00 0. -1.
          2    1    1    2  502    0 -0.15640265052E+02  0.43906986591E+02  0.12415930725E+04  0.12424676249E+04  0.00000000000E+00 0. -1.
</event>
<event>
 4    1  0.8988950E+003  0.3478023E+02  0.7546771E-02  0.1382115E+00
          2   -1    0    0  501    0  0.00000000000E+00  0.00000000000E+00  0.10469765337E+03  0.10469765337E+03  0.00000000000E+00 0.  1.
          2   -1    0    0  502    0 -0.00000000000E+00 -0.00000000000E+00 -0.22747636960E+03  0.22747636960E+03  0.00000000000E+00 0. -1.
          2    1    1    2  501    0  0.41071928484E+01  0.34536865610E+02 -0.22320349681E+03  0.22589702324E+03  0.00000000000E+00 0. -1.
          2    1    1    2  502    0 -0.41071928484E+01 -0.34536865610E+02  0.10042478058E+03  0.10627699974E+03  0.00000000000E+00 0.  1.
</event>
<event>
 4    1  0.8988950E+003  0.2410603E+02  0.7546771E-02  0.1479058E+00
          2   -1    0    0  502    0  0.00000000000E+00  0.00000000000E+00  0.18712022266E+03  0.18712022266E+03  0.00000000000E+00 0. -1.
          2   -1    0    0  501    0 -0.00000000000E+00 -0.00000000000E+00 -0.14294886799E+03  0.14294886799E+03  0.00000000000E+00 0.  1.
          2    1    1    2  501    0 -0.56546896500E+01 -0.23433416875E+02  0.18531773268E+03  0.18687900521E+03  0.00000000000E+00 0. -1.
          2    1    1    2  502    0  0.56546896500E+01  0.23433416875E+02 -0.14114637801E+03  0.14319008544E+03  0.00000000000E+00 0.  1.
</event>
<event>
 4    1  0.8988950E+003  0.2130314E+02  0.7546771E-02  0.1514981E+00
          2   -1    0    0  501    0  0.00000000000E+00  0.00000000000E+00  0.19753301429E+01  0.19753301429E+01  0.00000000000E+00 0. -1.
          2   -1    0    0  502    0 -0.00000000000E+00 -0.00000000000E+00 -0.29024041317E+03  0.29024041317E+03  0.00000000000E+00 0.  1.
          2    1    1    2  501    0  0.18898621919E+02 -0.98318787081E+01 -0.21083673290E+03  0.21191024442E+03  0.00000000000E+00 0.  1.
          2    1    1    2  502    0 -0.18898621919E+02  0.98318787081E+01 -0.77428350129E+02  0.80305498897E+02  0.00000000000E+00 0. -1.
</event>
<event>
 4    1  0.8988950E+003  0.7763502E+02  0.7546771E-02  0.1209447E+00
          2   -1    0    0  501    0  0.00000000000E+00  0.00000000000E+00  0.52180625682E+02  0.52180625682E+02  0.00000000000E+00 0. -1.
          2   -1    0    0  502    0 -0.00000000000E+00 -0.00000000000E+00 -0.19335533980E+03  0.19335533980E+03  0.00000000000E+00 0. -1.
          2    1    1    2  501    0  0.55866561333E+02 -0.53908470718E+02 -0.14848662989E+03  0.16755737867E+03  0.00000000000E+00 0. -1.
          2    1    1    2  502    0 -0.55866561333E+02  0.53908470718E+02  0.73119157641E+01  0.77978586820E+02  0.00000000000E+00 0. -1.
</event>
<event>
 4    1  0.8988950E+003  0.2043922E+02  0.7546771E-02  0.1527424E+00
          2   -1    0    0  502    0  0.00000000000E+00  0.00000000000E+00  0.97531954707E+02  0.97531954707E+02  0.00000000000E+00 0. -1.
          2   -1    0    0  501    0 -0.00000000000E+00 -0.00000000000E+00 -0.10611227283E+04  0.10611227283E+04  0.00000000000E+00 0. -1.
          2    1    1    2  501    0  0.11884602717E+02 -0.16628825379E+02  0.96361515255E+02  0.98505346239E+02  0.00000000000E+00 0. -1.
          2    1    1    2  502    0 -0.11884602717E+02  0.16628825379E+02 -0.10599522888E+04  0.10601493367E+04  0.00000000000E+00 0. -1.
</event>
<event>
 4    1  0.8988950E+003  0.2002114E+02  0.7546771E-02  0.1533713E+00
          2   -1    0    0  501    0  0.00000000000E+00  0.00000000000E+00  0.28578346370E+02  0.28578346370E+02  0.00000000000E+00 0.  1.
          2   -1    0    0  502    0 -0.00000000000E+00 -0.00000000000E+00 -0.80000963107E+03  0.80000963107E+03  0.00000000000E+00 0. -1.
          2    1    1    2  501    0  0.19865032299E+02  0.24952868150E+01 -0.79636175519E+03  0.79661338873E+03  0.00000000000E+00 0. -1.
          2    1    1    2  502    0 -0.19865032299E+02 -0.24952868150E+01  0.24930470491E+02  0.31974588714E+02  0.00000000000E+00 0.  1.
</event>
<event>
 4    1  0.8988950E+003  0.2002483E+02  0.7546771E-02  0.1533656E+00
          2   -1    0    0  502    0  0.00000000000E+00  0.00000000000E+00  0.21236144599E+03  0.21236144599E+03  0.00000000000E+00 0. -1.
          2   -1    0    0  501    0 -0.00000000000E+00 -0.00000000000E+00 -0.10359427369E+03  0.10359427369E+03  0.00000000000E+00 0. -1.
          2    1    1    2  501    0 -0.42093198819E+01  0.19577416839E+02  0.21091505749E+03  0.21186352942E+03  0.00000000000E+00 0. -1.
          2    1    1    2  502    0  0.42093198819E+01 -0.19577416839E+02 -0.10214788518E+03  0.10409219025E+03  0.00000000000E+00 0. -1.
</event>
<event>
 4    1  0.8988950E+003  0.4746182E+02  0.7546771E-02  0.1309569E+00
          2   -1    0    0  502    0  0.00000000000E+00  0.00000000000E+00  0.22204550652E+04  0.22204550652E+04  0.00000000000E+00 0.  1.
          2   -1    0    0  501    0 -0.00000000000E+00 -0.00000000000E+00 -0.20671097206E+03  0.20671097206E+03  0.00000000000E+00 0.  1.
          2    1    1    2  501    0  0.44809482417E+02 -0.15643997340E+02  0.22174734157E+04  0.22179812835E+04  0.00000000000E+00 0.  1.
          2    1    1    2  502    0 -0.44809482417E+02  0.15643997340E+02 -0.20372932255E+03  0.20918475382E+03  0.00000000000E+00 0.  1.
</event>
<event>
 4    1  0.8988950E+003  0.3066601E+02  0.7546771E-02  0.1413895E+00
          2   -1    0    0  502    0  0.00000000000E+00  0.00000000000E+00  0.18599818469E+04  0.18599818469E+04  0.00000000000E+00 0.  1.
          2   -1    0    0  501    0 -0.00000000000E+00 -0.00000000000E+00 -0.14025015521E+02  0.14025015521E+02  0.00000000000E+00 0. -1.
          2    1    1    2  501    0  0.26950736883E+02 -0.14630860275E+02  0.18429374443E+04  0.18431925640E+04  0.00000000000E+00 0.  1.
          2    1    1    2  502    0 -0.26950736883E+02  0.14630860275E+02  0.30193870889E+01  0.30814298456E+02  0.00000000000E+00 0. -1.
</event>
<event>
 4    1  0.8988950E+003  0.2365943E+02  0.7546771E-02  0.1484380E+00
          2   -1    0    0  502    0  0.00000000000E+00  0.00000000000E+00  0.41037041051E+01  0.41037041051E+01  0.00000000000E+00 0.  1.
          2   -1    0    0  501    0 -0.00000000000E+00 -0.00000000000E+00 -0.91263719335E+03  0.91263719335E+03  0.00000000000E+00 0. -1.
          2    1    1    2  501    0 -0.20692534077E+02 -0.11471164238E+02 -0.31536654600E+02  0.39424981406E+02  0.00000000000E+00 0.  1.
          2    1    1    2  502    0  0.20692534077E+02  0.11471164238E+02 -0.87699683464E+03  0.87731591605E+03  0.00000000000E+00 0. -1.
</event>
<event>
 4    1  0.8988950E+003  0.3663060E+02  0.7546771E-02  0.1369448E+00
          2   -1    0    0  502    0  0.00000000000E+00  0.00000000000E+00  0.30655474404E+03  0.30655474404E+03  0.00000000000E+00 0.  1.
          2   -1    0    0  501    0 -0.00000000000E+00 -0.00000000000E+00 -0.17981591287E+03  0.17981591287E+03  0.00000000000E+00 0. -1.
          2    1    1    2  501    0  0.27388510354E+02 -0.24324272240E+02  0.30357673124E+03  0.30577873123E+03  0.00000000000E+00 0.  1.
          2    1    1    2  502    0 -0.27388510354E+02  0.24324272240E+02 -0.17683790007E+03  0.18059192568E+03  0.00000000000E+00 0. -1.
</event>
<event>
 4    1  0.8988950E+003  0.2001262E+02  0.7546771E-02  0.1533843E+00
          2   -1    0    0  502    0  0.00000000000E+00  0.00000000000E+00  0.30785098034E+02  0.30785098034E+02  0.00000000000E+00 0.  1.
          2   -1    0    0  501    0 -0.00000000000E+00 -0.00000000000E+00 -0.43671374985E+02  0.43671374985E+02  0.00000000000E+00 0.  1.
          2    1    1    2  501    0 -0.48834504332E+01 -0.19407652656E+02  0.24750923302E+02  0.31829440367E+02  0.00000000000E+00 0.  1.
          2    1    1    2  502    0  0.48834504332E+01  0.19407652656E+02 -0.37637200254E+02  0.42627032652E+02  0.00000000000E+00 0.  1.
</event>
<event>
 4    1  0.8988950E+003  0.3012920E+02  0.7546771E-02  0.1418477E+00
          2   -1    0    0  501    0  0.00000000000E+00  0.00000000000E+00  0.32721091966E+01  0.32721091966E+01  0.00000000000E+00 0.  1.
          2   -1    0    0  502    0 -0.00000000000E+00 -0.00000000000E+00 -0.53429759782E+03  0.53429759782E+03  0.00000000000E+00 0.  1.
          2    1    1    2  501    0  0.21701392951E+02  0.20900196073E+02 -0.45188063894E+03  0.45288395920E+03  0.00000000000E+00 0.  1.
          2    1    1    2  502    0 -0.21701392951E+02 -0.20900196073E+02 -0.79144849690E+02  0.84685747823E+02  0.00000000000E+00 0.  1.
</event>
<event>
 4    1  0.8988950E+003  0.3108694E+02  0.7546771E-02  0.1410380E+00
          2   -1    0    0  501    0  0.00000000000E+00  0.00000000000E+00  0.12572721793E+03  0.12572721793E+03  0.00000000000E+00 0.  1.
          2   -1    0    0  502    0 -0.00000000000E+00 -0.00000000000E+00 -0.50120633494E+03  0.50120633494E+03  0.00000000000E+00 0.  1.
          2    1    1    2  501    0 -0.20310923517E+02  0.23534326288E+02 -0.49879339518E+03  0.49976119217E+03  0.00000000000E+00 0.  1.
          2    1    1    2  502    0  0.20310923517E+02 -0.23534326288E+02  0.12331427816E+03  0.12717236070E+03  0.00000000000E+00 0.  1.
</event>
<event>
 4    1  0.8988950E+003  0.2802934E+02  0.7546771E-02  0.1437533E+00
          2   -1    0    0  502    0  0.00000000000E+00  0.00000000000E+00  0.17155124159E+01  0.17155124159E+01  0.00000000000E+00 0. -1.
          2   -1    0    0  501    0 -0.00000000000E+00 -0.00000000000E+00 -0.70439411351E+03  0.70439411351E+03  0.00000000000E+00 0. -1.
          2    1    1    2  501    0 -0.23872778531E+02  0.14687900698E+02 -0.14251519751E+03  0.14524539753E+03  0.00000000000E+00 0. -1.
          2    1    1    2  502    0  0.23872778531E+02 -0.14687900698E+02 -0.56016340358E+03  0.56086422839E+03  0.00000000000E+00 0. -1.
</event>
<event>
 4    1  0.8988950E+003  0.2039686E+02  0.7546771E-02  0.1528053E+00
          2   -1    0    0  501    0  0.00000000000E+00  0.00000000000E+00  0.45392452617E+02  0.45392452617E+02  0.00000000000E+00 0. -1.
          2   -1    0    0  502    0 -0.00000000000E+00 -0.00000000000E+00 -0.21392445775E+03  0.21392445775E+03  0.00000000000E+00 0. -1.
          2    1    1    2  501    0 -0.15468276732E+02  0.13295279621E+02 -0.21111655697E+03  0.21209958197E+03  0.00000000000E+00 0. -1.
          2    1    1    2  502    0  0.15468276732E+02 -0.13295279621E+02  0.42584551839E+02  0.47217328393E+02  0.00000000000E+00 0. -1.
</event>
<event>
 4    1  0.8988950E+003  0.4891527E+02  0.7546771E-02  0.1302945E+00
          2   -1    0    0  501    0  0.00000000000E+00  0.00000000000E+00  0.26882288646E+03  0.26882288646E+03  0.00000000000E+00 0.  1.
          2   -1    0    0  502    0 -0.00000000000E+00 -0.00000000000E+00 -0.17062547439E+02  0.17062547439E+02  0.00000000000E+00 0.  1.
          2    1    1    2  501    0 -0.38556260521E+02  0.30101798481E+02  0.27016856225E+02  0.55880354485E+02  0.00000000000E+00 0.  1.
          2    1    1    2  502    0  0.38556260521E+02 -0.30101798481E+02  0.22474348279E+03  0.23000507941E+03  0.00000000000E+00 0.  1.
</event>
<event>
 4    1  0.8988950E+003  0.8621874E+02  0.7546771E-02  0.1190102E+00
          2   -1    0    0  502    0  0.00000000000E+00  0.00000000000E+00  0.14327707024E+03  0.14327707024E+03  0.00000000000E+00 0.  1.
          2   -1    0    0  501    0 -0.00000000000E+00 -0.00000000000E+00 -0.94380984999E+02  0.94380984999E+02  0.00000000000E+00 0. -1.
          2    1    1    2  501    0 -0.14986938209E+02  0.84906204547E+02  0.10418570028E+03  0.13523435965E+03  0.00000000000E+00 0.  1.
          2    1    1    2  502    0  0.14986938209E+02 -0.84906204547E+02 -0.55289615036E+02  0.10242369559E+03  0.00000000000E+00 0. -1.
</event>
<event>
 4    1  0.8988950E+003  0.2236025E+02  0.7546771E-02  0.1500692E+00
          2   -1    0    0  502    0  0.00000000000E+00  0.00000000000E+00  0.58830191759E+03  0.58830191759E+03  0.00000000000E+00 0.  1.
          2   -1    0    0  501    0 -0.00000000000E+00 -0.00000000000E+00 -0.15373777041E+02  0.15373777041E+02  0.00000000000E+00 0. -1.
          2    1    1    2  501    0  0.74638627566E+01 -0.21077746009E+02  0.57984043571E+03  0.58027141193E+03  0.00000000000E+00 0.  1.
          2    1    1    2  502    0 -0.74638627566E+01  0.21077746009E+02 -0.69122951630E+01  0.23404282695E+02  0.00000000000E+00 0. -1.
</event>
<event>
 4    1  0.8988950E+003  0.2840491E+02  0.7546771E-02  0.1433984E+00
          2   -1    0    0  501    0  0.00000000000E+00  0.00000000000E+00  0.80173222157E+02  0.80173222157E+02  0.00000000000E+00 0. -1.
          2   -1    0    0  502    0 -0.00000000000E+00 -0.00000000000E+00 -0.18879481643E+02  0.18879481643E+02  0.00000000000E+00 0.  1.
          2    1    1    2  501    0  0.18601684653E+02 -0.21466627604E+02 -0.31963645298E+01  0.28584183018E+02  0.00000000000E+00 0.  1.
          2    1    1    2  502    0 -0.18601684653E+02  0.21466627604E+02  0.64490105044E+02  0.70468520782E+02  0.00000000000E+00 0. -1.
</event>
<event>
 4    1  0.8988950E+003  0.2008093E+02  0.7546771E-02  0.1532802E+00
          2   -1    0    0  501    0  0.00000000000E+00  0.00000000000E+00  0.64442740248E+03  0.64442740248E+03  0.00000000000E+00 0. -1.
          2   -1    0    0  502    0 -0.00000000000E+00 -0.00000000000E+00 -0.57431765575E+01  0.57431765575E+01  0.00000000000E+00 0.  1.
          2    1    1    2  501    0  0.20063037106E+02 -0.84750185702E+00  0.12477021690E+02  0.23641484462E+02  0.00000000000E+00 0.  1.
          2    1    1    2  502    0 -0.20063037106E+02  0.84750185702E+00  0.62620720423E+03  0.62652909457E+03  0.00000000000E+00 0. -1.
</event>
<event>
 4    1  0.8988950E+003  0.2072542E+02  0.7546771E-02  0.1523221E+00
          2   -1    0    0  501    0  0.00000000000E+00  0.00000000000E+00  0.19352265660E+01  0.19352265660E+01  0.00000000000E+00 0. -1.
          2   -1    0    0  502    0 -0.00000000000E+00 -0.00000000000E+00 -0.10279534478E+04  0.10279534478E+04  0.00000000000E+00 0.  1.
          2    1    1    2  501    0  0.19114870269E+02 -0.80102958227E+01 -0.96898227996E+03  0.96920390114E+03  0.00000000000E+00 0.  1.
          2    1    1    2  502    0 -0.19114870269E+02  0.80102958227E+01 -0.57035941251E+02  0.60684773205E+02  0.00000000000E+00 0. -1.
</event>
<event>
 4    1  0.8988950E+003  0.2133401E+02  0.7546771E-02  0.1514549E+00
          2   -1    0    0  502    0  0.00000000000E+00  0.00000000000E+00  0.10742032657E+04  0.10742032657E+04  0.00000000000E+00 0. -1.
          2   -1    0    0  501    0 -0.00000000000E+00 -0.00000000000E+00 -0.28836380539E+01  0.28836380539E+01  0.00000000000E+00 0. -1.
          2    1    1    2  501    0 -0.14328612417E+02 -0.15806042010E+02  0.10330674484E+04  0.10332877106E+04  0.00000000000E+00 0. -1.
          2    1    1    2  502    0  0.14328612417E+02  0.15806042010E+02  0.38252179333E+02  0.43799193161E+02  0.00000000000E+00 0. -1.
</event>
<event>
 4    1  0.8988950E+003  0.2284096E+02  0.7546771E-02  0.1494505E+00
          2   -1    0    0  501    0  0.00000000000E+00  0.00000000000E+00  0.31940602473E+03  0.31940602473E+03  0.00000000000E+00 0. -1.
          2   -1    0    0  502    0 -0.00000000000E+00 -0.00000000000E+00 -0.13765945955E+02  0.13765945955E+02  0.00000000000E+00 0.  1.
          2    1    1    2  501    0  0.40189229361E+01  0.22484609533E+02 -0.35710031332E+01  0.23118422757E+02  0.00000000000E+00 0.  1.
          2    1    1    2  502    0 -0.40189229361E+01 -0.22484609533E+02  0.30921108190E+03  0.31005354792E+03  0.00000000000E+00 0. -1.
</event>
<event>
 4    1  0.8988950E+003  0.2206736E+02  0.7546771E-02  0.1504554E+00
          2   -1    0    0  502    0  0.00000000000E+00  0.00000000000E+00  0.10052582117E+02  0.10052582117E+02  0.00000000000E+00 0.  1.
          2   -1    0    0  501    0 -0.00000000000E+00 -0.00000000000E+00 -0.72899147673E+03  0.72899147673E+03  0.00000000000E+00 0.  1.
          2    1    1    2  501    0  0.27814256001E+00 -0.22065610823E+02 -0.24359877984E+01  0.22201409434E+02  0.00000000000E+00 0.  1.
          2    1    1    2  502    0 -0.27814256001E+00  0.22065610823E+02 -0.71650290681E+03  0.71684264941E+03  0.00000000000E+00 0.  1.
</event>
<event>
 4    1  0.8988950E+003  0.2469969E+02  0.7546771E-02  0.1472191E+00
          2   -1    0    0  502    0  0.00000000000E+00  0.00000000000E+00  0.30768501406E+02  0.30768501406E+02  0.00000000000E+00 0.  1.
          2   -1    0    0  501    0 -0.00000000000E+00 -0.00000000000E+00 -0.26952369310E+02  0.26952369310E+02  0.00000000000E+00 0.  1.
          2    1    1    2  501    0 -0.88985043810E+01  0.23041077262E+02  0.16746252012E+02  0.29841440616E+02  0.00000000000E+00 0.  1.
          2    1    1    2  502    0  0.88985043810E+01 -0.23041077262E+02 -0.12930119916E+02  0.27879430099E+02  0.00000000000E+00 0.  1.
</event>
<event>
 4    1  0.8988950E+003  0.2802130E+02  0.7546771E-02  0.1437610E+00
          2   -1    0    0  501    0  0.00000000000E+00  0.00000000000E+00  0.17548434423E+03  0.17548434423E+03  0.00000000000E+00 0.  1.
          2   -1    0    0  502    0 -0.00000000000E+00 -0.00000000000E+00 -0.40360932749E+02  0.40360932749E+02  0.00000000000E+00 0.  1.
          2    1    1    2  501    0 -0.13722766052E+02 -0.24431103594E+02 -0.34203074966E+02  0.44215873485E+02  0.00000000000E+00 0.  1.
          2    1    1    2  502    0  0.13722766052E+02  0.24431103594E+02  0.16932648644E+03  0.17162940349E+03  0.00000000000E+00 0.  1.
</event>
<event>
 4    1  0.8988950E+003  0.2061602E+02  0.7546771E-02  0.1524818E+00
          2   -1    0    0  502    0  0.00000000000E+00  0.00000000000E+00  0.25768720734E+02  0.25768720734E+02  0.00000000000E+00 0.  1.
          2   -1    0    0  501    0 -0.00000000000E+00 -0.00000000000E+00 -0.26794046179E+02  0.26794046179E+02  0.00000000000E+00 0.  1.
          2    1    1    2  501    0  0.40045410415E+01 -0.20223355414E+02  0.15782394098E+02  0.25963520883E+02  0.00000000000E+00 0.  1.
          2    1    1    2  502    0 -0.40045410415E+01  0.20223355414E+02 -0.16807719543E+02  0.26599246030E+02  0.00000000000E+00 0.  1.
</event>
<event>
 4    1  0.8988950E+003  0.2700580E+02  0.7546771E-02  0.1447550E+00
          2   -1    0    0  501    0  0.00000000000E+00  0.00000000000E+00  0.19302247208E+02  0.19302247208E+02  0.00000000000E+00 0. -1.
          2   -1    0    0  502    0 -0.00000000000E+00 -0.00000000000E+00 -0.11275380059E+04  0.11275380059E+04  0.00000000000E+00 0. -1.
          2    1    1    2  501    0 -0.40394016898E+00  0.27002778400E+02 -0.11178484728E+04  0.11181746381E+04  0.00000000000E+00 0. -1.
          2    1    1    2  502    0  0.40394016898E+00 -0.27002778400E+02  0.96127141184E+01  0.28665614972E+02  0.00000000000E+00 0. -1.
</event>
<event>
 4    1  0.8988950E+003  0.2269787E+02  0.7546771E-02  0.1496327E+00
          2   -1    0    0  502    0  0.00000000000E+00  0.00000000000E+00  0.15882882635E+02  0.15882882635E+02  0.00000000000E+00 0.  1.
          2   -1    0    0  501    0 -0.00000000000E+00 -0.00000000000E+00 -0.32437025026E+02  0.32437025026E+02  0.00000000000E+00 0.  1.
          2    1    1    2  501    0 -0.22628426943E+02  0.17741350311E+01 -0.82921429999E+01  0.24165117351E+02  0.00000000000E+00 0.  1.
          2    1    1    2  502    0  0.22628426943E+02 -0.17741350311E+01 -0.82619993911E+01  0.24154790311E+02  0.00000000000E+00 0.  1.
</event>
<event>
 4    1  0.8988950E+003  0.4535069E+02  0.7546771E-02  0.1319695E+00
          2   -1    0    0  501    0  0.00000000000E+00  0.00000000000E+00  0.48871424378E+03  0.48871424378E+03  0.00000000000E+00 0.  1.
          2   -1    0    0  502    0 -0.00000000000E+00 -0.00000000000E+00 -0.50483011388E+02  0.50483011388E+02  0.00000000000E+00 0. -1.
          2    1    1    2  501    0 -0.24327647871E+02 -0.38273368027E+02 -0.39001397184E+02  0.59814664869E+02  0.00000000000E+00 0. -1.
          2    1    1    2  502    0  0.24327647871E+02  0.38273368027E+02  0.47723262957E+03  0.47938259030E+03  0.00000000000E+00 0.  1.
</event>
<event>
 4    1  0.8988950E+003  0.3151938E+02  0.7546771E-02  0.1406837E+00
          2   -1    0    0  501    0  0.00000000000E+00  0.00000000000E+00  0.89579786421E+03  0.89579786421E+03  0.00000000000E+00 0.  1.
          2   -1    0    0  502    0 -0.00000000000E+00 -0.00000000000E+00 -0.29654802379E+01  0.29654802379E+01  0.00000000000E+00 0.  1.
          2    1    1    2  501    0 -0.31437482933E+02 -0.22706178321E+01  0.90859440779E+02  0.96171248391E+02  0.00000000000E+00 0.  1.
          2    1    1    2  502    0  0.31437482933E+02  0.22706178321E+01  0.80197294319E+03  0.80259209605E+03  0.00000000000E+00 0.  1.
</event>
<event>
 4    1  0.8988950E+003  0.3684374E+02  0.7546771E-02  0.1368045E+00
          2   -1    0    0  501    0  0.00000000000E+00  0.00000000000E+00  0.65883175622E+01  0.65883175622E+01  0.00000000000E+00 0. -1.
          2   -1    0    0  502    0 -0.00000000000E+00 -0.00000000000E+00 -0.39603089370E+03  0.39603089370E+03  0.00000000000E+00 0. -1.
          2    1    1    2  501    0  0.31817415295E+02  0.18577215487E+02 -0.33415432326E+03  0.33617937564E+03  0.00000000000E+00 0. -1.
          2    1    1    2  502    0 -0.31817415295E+02 -0.18577215487E+02 -0.55288252872E+02  0.66439835618E+02  0.00000000000E+00 0. -1.
</event>
<event>
 4    1  0.8988950E+003  0.5415163E+02  0.7546771E-02  0.1281111E+00
          2   -1    0    0  502    0  0.00000000000E+00  0.00000000000E+00  0.11605705920E+02  0.11605705920E+02  0.00000000000E+00 0.  1.
          2   -1    0    0  501    0 -0.00000000000E+00 -0.00000000000E+00 -0.18708076637E+04  0.18708076637E+04  0.00000000000E+00 0.  1.
          2    1    1    2  501    0 -0.47126753653E+02 -0.26673356527E+02 -0.54257827966E+02  0.76657098522E+02  0.00000000000E+00 0.  1.
          2    1    1    2  502    0  0.47126753653E+02  0.26673356527E+02 -0.18049441298E+04  0.18057562711E+04  0.00000000000E+00 0.  1.
</event>
<event>
 4    1  0.8988950E+003  0.2502272E+02  0.7546771E-02  0.1468549E+00
          2   -1    0    0  502    0  0.00000000000E+00  0.00000000000E+00  0.18632098142E+01  0.18632098142E+01  0.00000000000E+00 0.  1.
          2   -1    0    0  501    0 -0.00000000000E+00 -0.00000000000E+00 -0.18906690956E+04  0.18906690956E+04  0.00000000000E+00 0.  1.
          2    1    1    2  501    0 -0.10985294942E+02  0.22482434060E+02 -0.86343893773E+02  0.89896632518E+02  0.00000000000E+00 0.  1.
          2    1    1    2  502    0  0.10985294942E+02 -0.22482434060E+02 -0.18024619920E+04  0.18026356729E+04  0.00000000000E+00 0.  1.
</event>
<event>
 4    1  0.8988950E+003  0.3132696E+02  0.7546771E-02  0.1408405E+00
          2   -1    0    0  501    0  0.00000000000E+00  0.00000000000E+00  0.24202935532E+02  0.24202935532E+02  0.00000000000E+00 0. -1.
          2   -1    0    0  502    0 -0.00000000000E+00 -0.00000000000E+00 -0.10841092769E+03  0.10841092769E+03  0.00000000000E+00 0.  1.
          2    1    1    2  501    0  0.28798958766E+02 -0.12328750676E+02 -0.94565293700E+02  0.99619139184E+02  0.00000000000E+00 0.  1.
          2    1    1    2  502    0 -0.28798958766E+02  0.12328750676E+02  0.10357301541E+02  0.32994724040E+02  0.00000000000E+00 0. -1.
</event>
<event>
 4    1  0.8988950E+003  0.2297700E+02  0.7546771E-02  0.1492787E+00
          2   -1    0    0  502    0  0.00000000000E+00  0.00000000000E+00  0.13117431197E+04  0.13117431197E+04  0.00000000000E+00 0.  1.
          2   -1    0    0  501    0 -0.00000000000E+00 -0.00000000000E+00 -0.44228013884E+00  0.44228013884E+00  0.00000000000E+00 0. -1.
          2    1    1    2  501    0 -0.21535050854E+02 -0.80114902591E+01  0.45882011427E+03  0.45939508013E+03  0.00000000000E+00 0. -1.
          2    1    1    2  502    0  0.21535050854E+02  0.80114902591E+01  0.85248072529E+03  0.85279031971E+03  0.00000000000E+00 0.  1.
</event>
<event>
 4    1  0.8988950E+003  0.2629915E+02  0.7546771E-02  0.1454778E+00
          2   -1    0    0  501    0  0.00000000000E+00  0.00000000000E+00  0.34123958021E+01  0.34123958021E+01  0.00000000000E+00 0. -1.
          2   -1    0    0  502    0 -0.00000000000E+00 -0.00000000000E+00 -0.14666417002E+04  0.14666417002E+04  0.00000000000E+00 0. -1.
          2    1    1    2  501    0 -0.30399250355E+01 -0.26122866412E+02 -0.14139646755E+04  0.14142092309E+04  0.00000000000E+00 0. -1.
          2    1    1    2  502    0  0.30399250355E+01  0.26122866412E+02 -0.49264628871E+02  0.55844865043E+02  0.00000000000E+00 0. -1.
</event>
<event>
 4    1  0.8988950E+003  0.2889818E+02  0.7546771E-02  0.1429419E+00
          2   -1    0    0  501    0  0.00000000000E+00  0.00000000000E+00  0.30397302125E+02  0.30397302125E+02  0.00000000000E+00 0. -1.
          2   -1    0    0  502    0 -0.00000000000E+00 -0.00000000000E+00 -0.20680337732E+03  0.20680337732E+03  0.00000000000E+00 0.  1.
          2    1    1    2  501    0  0.24473957799E+02 -0.15366533949E+02 -0.19864498475E+03  0.20073598318E+03  0.00000000000E+00 0.  1.
          2    1    1    2  502    0 -0.24473957799E+02  0.15366533949E+02  0.22238909553E+02  0.36464696270E+02  0.00000000000E+00 0. -1.
</event>
<event>
 4    1  0.8988950E+003  0.2440597E+02  0.7546771E-02  0.1475560E+00
          2   -1    0    0  501    0  0.00000000000E+00  0.00000000000E+00  0.97600312160E+01  0.97600312160E+01  0.00000000000E+00 0. -1.
          2   -1    0    0  502    0 -0.00000000000E+00 -0.00000000000E+00 -0.49859315842E+03  0.49859315842E+03  0.00000000000E+00 0.  1.
          2    1    1    2  501    0 -0.12078649378E+02  0.21207490082E+02 -0.48252947311E+03  0.48314629651E+03  0.00000000000E+00 0.  1.
          2    1    1    2  502    0  0.12078649378E+02 -0.21207490082E+02 -0.63036540936E+01  0.25206893131E+02  0.00000000000E+00 0. -1.
</event>
<event>
 4    1  0.8988950E+003  0.2587418E+02  0.7546771E-02  0.1459257E+00
          2   -1    0    0  502    0  0.00000000000E+00  0.00000000000E+00  0.42475855353E+03  0.42475855353E+03  0.00000000000E+00 0. -1.
          2   -1    0    0  501    0 -0.00000000000E+00 -0.00000000000E+00 -0.65824170349E+02  0.65824170349E+02  0.00000000000E+00 0. -1.
          2    1    1    2  501    0  0.21499948477E+02  0.14395330062E+02  0.42180407118E+03  0.42259690933E+03  0.00000000000E+00 0. -1.
          2    1    1    2  502    0 -0.21499948477E+02 -0.14395330062E+02 -0.62869687994E+02  0.67985814554E+02  0.00000000000E+00 0. -1.
</event>
<event>
 4    1  0.8988950E+003  0.2226561E+02  0.7546771E-02  0.1501932E+00
          2   -1    0    0  501    0  0.00000000000E+00  0.00000000000E+00  0.29978569077E+03  0.29978569077E+03  0.00000000000E+00 0. -1.
          2   -1    0    0  502    0 -0.00000000000E+00 -0.00000000000E+00 -0.19966759875E+01  0.19966759875E+01  0.00000000000E+00 0.  1.
          2    1    1    2  501    0  0.18268005235E+02 -0.12729391303E+02  0.86357358445E+02  0.89181560739E+02  0.00000000000E+00 0.  1.
          2    1    1    2  502    0 -0.18268005235E+02  0.12729391303E+02  0.21143165634E+03  0.21260080602E+03  0.00000000000E+00 0. -1.
</event>
<event>
 4    1  0.8988950E+003  0.7754054E+02  0.7546771E-02  0.1209675E+00
          2   -1    0    0  501    0  0.00000000000E+00  0.00000000000E+00  0.80196411875E+02  0.80196411875E+02  0.00000000000E+00 0.  1.
          2   -1    0    0  502    0 -0.00000000000E+00 -0.00000000000E+00 -0.14294518367E+03  0.14294518367E+03  0.00000000000E+00 0. -1.
          2    1    1    2  501    0 -0.56374219118E+02  0.53239865844E+02 -0.10831091130E+03  0.13320581595E+03  0.00000000000E+00 0. -1.
          2    1    1    2  502    0  0.56374219118E+02 -0.53239865844E+02  0.45562139500E+02  0.89935779599E+02  0.00000000000E+00 0.  1.
</event>
<event>
 4    1  0.8988950E+003  0.2148028E+02  0.7546771E-02  0.1512517E+00
          2   -1    0    0  501    0  0.00000000000E+00  0.00000000000E+00  0.23061958860E+03  0.23061958860E+03  0.00000000000E+00 0. -1.
          2   -1    0    0  502    0 -0.00000000000E+00 -0.00000000000E+00 -0.62413985328E+03  0.62413985328E+03  0.00000000000E+00 0.  1.
          2    1    1    2  501    0  0.53523224606E+01  0.20802766464E+02 -0.62345431114E+03  0.62382423849E+03  0.00000000000E+00 0.  1.
          2    1    1    2  502    0 -0.53523224606E+01 -0.20802766464E+02  0.22993404645E+03  0.23093520339E+03  0.00000000000E+00 0. -1.
</event>
<event>
 4    1  0.8988950E+003  0.3512764E+02  0.7546771E-02  0.1379668E+00
          2   -1    0    0  502    0  0.00000000000E+00  0.00000000000E+00  0.56226834901E+02  0.56226834901E+02  0.00000000000E+00 0. -1.
          2   -1    0    0  501    0 -0.00000000000E+00 -0.00000000000E+00 -0.74918312103E+03  0.74918312103E+03  0.00000000000E+00 0.  1.
          2    1    1    2  501    0  0.59211090073E+01 -0.34625016393E+02  0.50284742774E+02  0.61339274922E+02  0.00000000000E+00 0. -1.
          2    1    1    2  502    0 -0.59211090073E+01  0.34625016393E+02 -0.74324102890E+03  0.74407068101E+03  0.00000000000E+00 0.  1.
</event>
<event>
 4    1  0.8988950E+003  0.4704101E+02  0.7546771E-02  0.1311538E+00
          2   -1    0    0  502    0  0.00000000000E+00  0.00000000000E+00  0.75462210751E+02  0.75462210751E+02  0.00000000000E+00 0. -1.
          2   -1    0    0  501    0 -0.00000000000E+00 -0.00000000000E+00 -0.18107164304E+04  0.18107164304E+04  0.00000000000E+00 0. -1.
          2    1    1    2  501    0  0.45152484479E+02  0.13195052929E+02  0.67794509803E+02  0.82516373138E+02  0.00000000000E+00 0. -1.
          2    1    1    2  502    0 -0.45152484479E+02 -0.13195052929E+02 -0.18030487294E+04  0.18036622680E+04  0.00000000000E+00 0. -1.
</event>
<event>
 4    1  0.8988950E+003  0.2108894E+02  0.7546771E-02  0.1517999E+00
          2   -1    0    0  501    0  0.00000000000E+00  0.00000000000E+00  0.14746290722E+04  0.14746290722E+04  0.00000000000E+00 0. -1.
          2   -1    0    0  502    0 -0.00000000000E+00 -0.00000000000E+00 -0.18233766573E+03  0.18233766573E+03  0.00000000000E+00 0.  1.
          2    1    1    2  501    0  0.13376615641E+02 -0.16303669835E+02 -0.18165220288E+03  0.18287226774E+03  0.00000000000E+00 0.  1.
          2    1    1    2  502    0 -0.13376615641E+02  0.16303669835E+02  0.14739436093E+04  0.14740944702E+04  0.00000000000E+00 0. -1.
</event>
<event>
 4    1  0.8988950E+003  0.2328673E+02  0.7546771E-02  0.1488929E+00
          2   -1    0    0  501    0  0.00000000000E+00  0.00000000000E+00  0.17281466274E+02  0.17281466274E+02  0.00000000000E+00 0. -1.
          2   -1    0    0  502    0 -0.00000000000E+00 -0.00000000000E+00 -0.31605293411E+02  0.31605293411E+02  0.00000000000E+00 0. -1.
          2    1    1    2  501    0  0.23282851307E+02  0.42496652569E+00 -0.92311221448E+01  0.25049658233E+02  0.00000000000E+00 0. -1.
          2    1    1    2  502    0 -0.23282851307E+02 -0.42496652569E+00 -0.50927049920E+01  0.23837101453E+02  0.00000000000E+00 0. -1.
</event>
<event>
 4    1  0.8988950E+003  0.2807980E+02  0.7546771E-02  0.1437053E+00
          2   -1    0    0  502    0  0.00000000000E+00  0.00000000000E+00  0.53318611135E+03  0.53318611135E+03  0.00000000000E+00 0. -1.
          2   -1    0    0  501    0 -0.00000000000E+00 -0.00000000000E+00 -0.23544308442E+01  0.23544308442E+01  0.00000000000E+00 0. -1.
          2    1    1    2  501    0  0.27327847980E+02 -0.64547454030E+01  0.42871358896E+03  0.42963218731E+03  0.00000000000E+00 0. -1.
          2    1    1    2  502    0 -0.27327847980E+02  0.64547454030E+01  0.10211809155E+03  0.10590835489E+03  0.00000000000E+00 0. -1.
</event>
<event>
 4    1  0.8988950E+003  0.2809299E+02  0.7546771E-02  0.1436927E+00
          2   -1    0    0  502    0  0.00000000000E+00  0.00000000000E+00  0.66188499137E+02  0.66188499137E+02  0.00000000000E+00 0.  1.
          2   -1    0    0  501    0 -0.00000000000E+00 -0.00000000000E+00 -0.17745267313E+04  0.17745267313E+04  0.00000000000E+00 0. -1.
          2    1    1    2  501    0  0.27534937621E+02  0.55716534461E+01  0.63091159192E+02  0.69063090577E+02  0.00000000000E+00 0.  1.
          2    1    1    2  502    0 -0.27534937621E+02 -0.55716534461E+01 -0.17714293914E+04  0.17716521399E+04  0.00000000000E+00 0. -1.
</event>
<event>
 4    1  0.8988950E+003  0.3113849E+02  0.7546771E-02  0.1409954E+00
          2   -1    0    0  501    0  0.00000000000E+00  0.00000000000E+00  0.44312354541E+02  0.44312354541E+02  0.00000000000E+00 0.  1.
          2   -1    0    0  502    0 -0.00000000000E+00 -0.00000000000E+00 -0.25687290294E+02  0.25687290294E+02  0.00000000000E+00 0.  1.
          2    1    1    2  501    0  0.23544163306E+02 -0.20378372605E+02 -0.41599789848E+01  0.31415141587E+02  0.00000000000E+00 0.  1.
          2    1    1    2  502    0 -0.23544163306E+02  0.20378372605E+02  0.22785043231E+02  0.38584503247E+02  0.00000000000E+00 0.  1.
</event>
<event>
 4    1  0.8988950E+003  0.2097095E+02  0.7546771E-02  0.1519680E+00
          2   -1    0    0  501    0  0.00000000000E+00  0.00000000000E+00  0.14397350800E+03  0.14397350800E+03  0.00000000000E+00 0. -1.
          2   -1    0    0  502    0 -0.00000000000E+00 -0.00000000000E+00 -0.13598370658E+03  0.13598370658E+03  0.00000000000E+00 0.  1.
          2    1    1    2  501    0  0.17563342368E+02  0.11459053497E+02 -0.13440261048E+03  0.13602883006E+03  0.00000000000E+00 0.  1.
          2    1    1    2  502    0 -0.17563342368E+02 -0.11459053497E+02  0.14239241190E+03  0.14392838452E+03  0.00000000000E+00 0. -1.
</event>
<event>
 4    1  0.8988950E+003  0.3418822E+02  0.7546771E-02  0.1386362E+00
          2   -1    0    0  501    0  0.00000000000E+00  0.00000000000E+00  0.16478165498E+04  0.16478165498E+04  0.00000000000E+00 0. -1.
          2   -1    0    0  502    0 -0.00000000000E+00 -0.00000000000E+00 -0.14476043785E+02  0.14476043785E+02  0.00000000000E+00 0. -1.
          2    1    1    2  501    0  0.26549940799E+02  0.21539147672E+02  0.61427020501E+01  0.34735673699E+02  0.00000000000E+00 0. -1.
          2    1    1    2  502    0 -0.26549940799E+02 -0.21539147672E+02  0.16271978040E+04  0.16275569199E+04  0.00000000000E+00 0. -1.
</event>
<event>
 4    1  0.8988950E+003  0.2667119E+02  0.7546771E-02  0.1450939E+00
          2   -1    0    0  501    0  0.00000000000E+00  0.00000000000E+00  0.25767150184E+00  0.25767150184E+00  0.00000000000E+00 0.  1.
          2   -1    0    0  502    0 -0.00000000000E+00 -0.00000000000E+00 -0.29413290859E+04  0.29413290859E+04  0.00000000000E+00 0. -1.
          2    1    1    2  501    0  0.93458134288E+01 -0.24980159104E+02 -0.18350201591E+04  0.18352139758E+04  0.00000000000E+00 0. -1.
          2    1    1    2  502    0 -0.93458134288E+01  0.24980159104E+02 -0.11060512553E+04  0.11063727816E+04  0.00000000000E+00 0.  1.
</event>
<event>
 4    1  0.8988950E+003  0.3301441E+02  0.7546771E-02  0.1395087E+00
          2   -1    0    0  501    0  0.00000000000E+00  0.00000000000E+00  0.20241961663E+03  0.20241961663E+03  0.00000000000E+00 0.  1.
          2   -1    0    0  502    0 -0.00000000000E+00 -0.00000000000E+00 -0.13573853074E+02  0.13573853074E+02  0.00000000000E+00 0. -1.
          2    1    1    2  501    0 -0.27349952861E+02  0.18491385982E+02  0.10538548372E+02  0.34655624058E+02  0.00000000000E+00 0. -1.
          2    1    1    2  502    0  0.27349952861E+02 -0.18491385982E+02  0.17830721518E+03  0.18133784565E+03  0.00000000000E+00 0.  1.
</event>
<event>
 4    1  0.8988950E+003  0.2893015E+02  0.7546771E-02  0.1429127E+00
          2   -1    0    0  501    0  0.00000000000E+00  0.00000000000E+00  0.36204454882E+01  0.36204454882E+01  0.00000000000E+00 0.  1.
          2   -1    0    0  502    0 -0.00000000000E+00 -0.00000000000E+00 -0.53345167988E+03  0.53345167988E+03  0.00000000000E+00 0. -1.
          2    1    1    2  501    0  0.35475586727E+01 -0.28711818100E+02 -0.46705826662E+03  0.46795339308E+03  0.00000000000E+00 0. -1.
          2    1    1    2  502    0 -0.35475586727E+01  0.28711818100E+02 -0.62772967772E+02  0.69118732295E+02  0.00000000000E+00 0.  1.
</event>
<event>
 4    1  0.8988950E+003  0.2183353E+02  0.7546771E-02  0.1507689E+00
          2   -1    0    0  501    0  0.00000000000E+00  0.00000000000E+00  0.12051047623E+02  0.12051047623E+02  0.00000000000E+00 0. -1.
          2   -1    0    0  502    0 -0.00000000000E+00 -0.00000000000E+00 -0.70692662227E+02  0.70692662227E+02  0.00000000000E+00 0.  1.
          2    1    1    2  501    0 -0.21543926603E+02 -0.35443176582E+01 -0.56777427038E+02  0.60830742082E+02  0.00000000000E+00 0.  1.
          2    1    1    2  502    0  0.21543926603E+02  0.35443176582E+01 -0.18641875662E+01  0.21912967768E+02  0.00000000000E+00 0. -1.
</event>
<event>
 4    1  0.8988950E+003  0.2229430E+02  0.7546771E-02  0.1501555E+00
          2   -1    0    0  501    0  0.00000000000E+00  0.00000000000E+00  0.10958135311E+04  0.10958135311E+04  0.00000000000E+00 0. -1.
          2   -1    0    0  502    0 -0.00000000000E+00 -0.00000000000E+00 -0.17445395246E+02  0.17445395246E+02  0.00000000000E+00 0. -1.
          2    1    1    2  501    0 -0.47238415066E+00 -0.22289296316E+02 -0.10161607490E+02  0.24500900878E+02  0.00000000000E+00 0. -1.
          2    1    1    2  502    0  0.47238415066E+00  0.22289296316E+02  0.10885297434E+04  0.10887580255E+04  0.00000000000E+00 0. -1.
</event>
<event>
 4    1  0.8988950E+003  0.3726237E+02  0.7546771E-02  0.1365321E+00
          2   -1    0    0  501    0  0.00000000000E+00  0.00000000000E+00  0.12687311912E+02  0.12687311912E+02  0.00000000000E+00 0. -1.
          2   -1    0    0  502    0 -0.00000000000E+00 -0.00000000000E+00 -0.39677081671E+03  0.39677081671E+03  0.00000000000E+00 0.  1.
          2    1    1    2  501    0  0.11635710714E+02 -0.35399073270E+02 -0.36626321433E+03  0.36815380797E+03  0.00000000000E+00 0.  1.
          2    1    1    2  502    0 -0.11635710714E+02  0.35399073270E+02 -0.17820290472E+02  0.41304320654E+02  0.00000000000E+00 0. -1.
</event>
<event>
 4    1  0.8988950E+003  0.2011606E+02  0.7546771E-02  0.1532269E+00
          2   -1    0    0  501    0  0.00000000000E+00  0.00000000000E+00  0.49102459561E+00  0.49102459561E+00  0.00000000000E+00 0.  1.
          2   -1    0    0  502    0 -0.00000000000E+00 -0.00000000000E+00 -0.82415167299E+03  0.82415167299E+03  0.00000000000E+00 0.  1.
          2    1    1    2  501    0  0.20055015014E+02  0.15659226093E+01 -0.40872179437E+03  0.40921652085E+03  0.00000000000E+00 0.  1.
          2    1    1    2  502    0 -0.20055015014E+02 -0.15659226093E+01 -0.41493885402E+03  0.41542617673E+03  0.00000000000E+00 0.  1.
</event>
<event>
 4    1  0.1098352E+004  0.2229870E+02  0.7546771E-02  0.1501497E+00
          2   -1    0    0  501    0  0.00000000000E+00  0.00000000000E+00  0.52716934330E+03  0.52716934330E+03  0.00000000000E+00 0. -1.
          2   -1    0    0  502    0 -0.00000000000E+00 -0.00000000000E+00 -0.12353750122E+04  0.12353750122E+04  0.00000000000E+00 0. -1.
          2    1    1    2  501    0  0.17078743200E+02  0.14336968065E+02 -0.12350385214E+04  0.12352398073E+04  0.00000000000E+00 0. -1.
          2    1    1    2  502    0 -0.17078743200E+02 -0.14336968065E+02  0.52683285250E+03  0.52730454824E+03  0.00000000000E+00 0. -1.
</event>
<event>
 4    1  0.8988950E+003  0.2104721E+02  0.7546771E-02  0.1518592E+00
          2   -1    0    0  502    0  0.00000000000E+00  0.00000000000E+00  0.66143295737E+02  0.66143295737E+02  0.00000000000E+00 0. -1.
          2   -1    0    0  501    0 -0.00000000000E+00 -0.00000000000E+00 -0.76278753359E+01  0.76278753359E+01  0.00000000000E+00 0. -1.
          2    1    1    2  501    0 -0.20611130690E+02  0.42621930428E+01  0.42140748500E+02  0.47104433782E+02  0.00000000000E+00 0. -1.
          2    1    1    2  502    0  0.20611130690E+02 -0.42621930428E+01  0.16374671902E+02  0.26666737291E+02  0.00000000000E+00 0. -1.
</event>
<event>
 4    1  0.8988950E+003  0.2046288E+02  0.7546771E-02  0.1527073E+00
          2   -1    0    0  501    0  0.00000000000E+00  0.00000000000E+00  0.89491968057E+02  0.89491968057E+02  0.00000000000E+00 0. -1.
          2   -1    0    0  502    0 -0.00000000000E+00 -0.00000000000E+00 -0.95959633778E+03  0.95959633778E+03  0.00000000000E+00 0.  1.
          2    1    1    2  501    0  0.19944773844E+02 -0.45755329522E+01 -0.95831594461E+03  0.95853439124E+03  0.00000000000E+00 0.  1.
          2    1    1    2  502    0 -0.19944773844E+02  0.45755329522E+01  0.88211574883E+02  0.90553914596E+02  0.00000000000E+00 0. -1.
</event>
<event>
 4    1  0.8988950E+003  0.2210901E+02  0.7546771E-02  0.1504000E+00
          2   -1    0    0  501    0  0.00000000000E+00  0.00000000000E+00  0.11874229357E+03  0.11874229357E+03  0.00000000000E+00 0. -1.
          2   -1    0    0  502    0 -0.00000000000E+00 -0.00000000000E+00 -0.48107194281E+02  0.48107194281E+02  0.00000000000E+00 0. -1.
          2    1    1    2  501    0 -0.21765614209E+02  0.38815202689E+01 -0.44458044435E+02  0.49652048060E+02  0.00000000000E+00 0. -1.
          2    1    1    2  502    0  0.21765614209E+02 -0.38815202689E+01  0.11509314373E+03  0.11719743980E+03  0.00000000000E+00 0. -1.
</event>
<event>
 4    1  0.8988950E+003  0.2084630E+02  0.7546771E-02  0.1521471E+00
          2   -1    0    0  501    0  0.00000000000E+00  0.00000000000E+00  0.38056329079E+03  0.38056329079E+03  0.00000000000E+00 0.  1.
          2   -1    0    0  502    0 -0.00000000000E+00 -0.00000000000E+00 -0.19267355547E+01  0.19267355547E+01  0.00000000000E+00 0.  1.
          2    1    1    2  501    0 -0.13668683820E+02  0.15739608371E+02  0.67260280004E+02  0.70416712898E+02  0.00000000000E+00 0.  1.
          2    1    1    2  502    0  0.13668683820E+02 -0.15739608371E+02  0.31137627523E+03  0.31207331345E+03  0.00000000000E+00 0.  1.
</event>
<event>
 4    1  0.8988950E+003  0.2245843E+02  0.7546771E-02  0.1499413E+00
          2   -1    0    0  502    0  0.00000000000E+00  0.00000000000E+00  0.10128386975E+01  0.10128386975E+01  0.00000000000E+00 0.  1.
          2   -1    0    0  501    0 -0.00000000000E+00 -0.00000000000E+00 -0.74740231170E+03  0.74740231170E+03  0.00000000000E+00 0.  1.
          2    1    1    2  501    0  0.18950411233E+02 -0.12052509008E+02 -0.15702423245E+03  0.15862216313E+03  0.00000000000E+00 0.  1.
          2    1    1    2  502    0 -0.18950411233E+02  0.12052509008E+02 -0.58936524055E+03  0.58979298726E+03  0.00000000000E+00 0.  1.
</event>
<event>
 4    1  0.8988950E+003  0.2649913E+02  0.7546771E-02  0.1452705E+00
          2   -1    0    0  501    0  0.00000000000E+00  0.00000000000E+00  0.79630652767E+02  0.79630652767E+02  0.00000000000E+00 0. -1.
          2   -1    0    0  502    0 -0.00000000000E+00 -0.00000000000E+00 -0.89928908265E+03  0.89928908265E+03  0.00000000000E+00 0. -1.
          2    1    1    2  501    0  0.10906660861E+02  0.24150540131E+02 -0.89688339474E+03  0.89727477821E+03  0.00000000000E+00 0. -1.
          2    1    1    2  502    0 -0.10906660861E+02 -0.24150540131E+02  0.77224964862E+02  0.81644957209E+02  0.00000000000E+00 0. -1.
</event>
<event>
 4    1  0.8988950E+003  0.2617321E+02  0.7546771E-02  0.1456095E+00
          2   -1    0    0  502    0  0.00000000000E+00  0.00000000000E+00  0.31184259644E+04  0.31184259644E+04  0.00000000000E+00 0.  1.
          2   -1    0    0  501    0 -0.00000000000E+00 -0.00000000000E+00 -0.22071630654E+00  0.22071630654E+00  0.00000000000E+00 0. -1.
          2    1    1    2  501    0  0.15946326178E+02  0.20754553034E+02  0.16662638691E+04  0.16664694172E+04  0.00000000000E+00 0. -1.
          2    1    1    2  502    0 -0.15946326178E+02 -0.20754553034E+02  0.14519413790E+04  0.14521772636E+04  0.00000000000E+00 0.  1.
</event>
<event>
 4    1  0.8988950E+003  0.2001135E+02  0.7546771E-02  0.1533862E+00
          2   -1    0    0  502    0  0.00000000000E+00  0.00000000000E+00  0.58351524851E+03  0.58351524851E+03  0.00000000000E+00 0.  1.
          2   -1    0    0  501    0 -0.00000000000E+00 -0.00000000000E+00 -0.82592796743E+00  0.82592796743E+00  0.00000000000E+00 0.  1.
          2    1    1    2  501    0  0.89282408044E+01 -0.17909229518E+02  0.41148393536E+03  0.41197024534E+03  0.00000000000E+00 0.  1.
          2    1    1    2  502    0 -0.89282408044E+01  0.17909229518E+02  0.17120538518E+03  0.17237093113E+03  0.00000000000E+00 0.  1.
</event>
<event>
 4    1  0.8988950E+003  0.2454166E+02  0.7546771E-02  0.1473997E+00
          2   -1    0    0  502    0  0.00000000000E+00  0.00000000000E+00  0.13511267266E+01  0.13511267266E+01  0.00000000000E+00 0. -1.
          2   -1    0    0  501    0 -0.00000000000E+00 -0.00000000000E+00 -0.55813611871E+03  0.55813611871E+03  0.00000000000E+00 0. -1.
          2    1    1    2  501    0  0.24528022546E+02  0.81794279005E+00 -0.15287445215E+03  0.15483181534E+03  0.00000000000E+00 0. -1.
          2    1    1    2  502    0 -0.24528022546E+02 -0.81794279005E+00 -0.40391053984E+03  0.40465543010E+03  0.00000000000E+00 0. -1.
</event>
<event>
 4    1  0.8988950E+003  0.2470673E+02  0.7546771E-02  0.1472111E+00
          2   -1    0    0  502    0  0.00000000000E+00  0.00000000000E+00  0.18108622061E+01  0.18108622061E+01  0.00000000000E+00 0.  1.
          2   -1    0    0  501    0 -0.00000000000E+00 -0.00000000000E+00 -0.61699811212E+03  0.61699811212E+03  0.00000000000E+00 0. -1.
          2    1    1    2  501    0 -0.49965863941E+01  0.24196212241E+02 -0.99195958315E+02  0.10222651666E+03  0.00000000000E+00 0.  1.
          2    1    1    2  502    0  0.49965863941E+01 -0.24196212241E+02 -0.51599129160E+03  0.51658245766E+03  0.00000000000E+00 0. -1.
</event>
<event>
 4    1  0.8988950E+003  0.2828490E+02  0.7546771E-02  0.1435111E+00
          2   -1    0    0  501    0  0.00000000000E+00  0.00000000000E+00  0.11334406618E+03  0.11334406618E+03  0.00000000000E+00 0. -1.
          2   -1    0    0  502    0 -0.00000000000E+00 -0.00000000000E+00 -0.15315451383E+02  0.15315451383E+02  0.00000000000E+00 0. -1.
          2    1    1    2  501    0  0.25490744310E+02 -0.12257951586E+02  0.17799798034E+01  0.28340849505E+02  0.00000000000E+00 0. -1.
          2    1    1    2  502    0 -0.25490744310E+02  0.12257951586E+02  0.96248634994E+02  0.10031866806E+03  0.00000000000E+00 0. -1.
</event>
<event>
 4    1  0.8988950E+003  0.2476466E+02  0.7546771E-02  0.1471453E+00
          2   -1    0    0  502    0  0.00000000000E+00  0.00000000000E+00  0.43099844247E+02  0.43099844247E+02  0.00000000000E+00 0.  1.
          2   -1    0    0  501    0 -0.00000000000E+00 -0.00000000000E+00 -0.82960880454E+02  0.82960880454E+02  0.00000000000E+00 0. -1.
          2    1    1    2  501    0  0.14892443527E+02  0.19786446260E+02  0.37440258287E+02  0.44889433839E+02  0.00000000000E+00 0.  1.
          2    1    1    2  502    0 -0.14892443527E+02 -0.19786446260E+02 -0.77301294494E+02  0.81171290862E+02  0.00000000000E+00 0. -1.
</event>
<event>
 4    1  0.8988950E+003  0.2022634E+02  0.7546771E-02  0.1530603E+00
          2   -1    0    0  502    0  0.00000000000E+00  0.00000000000E+00  0.34296492335E+03  0.34296492335E+03  0.00000000000E+00 0. -1.
          2   -1    0    0  501    0 -0.00000000000E+00 -0.00000000000E+00 -0.28032465804E+03  0.28032465804E+03  0.00000000000E+00 0.  1.
          2    1    1    2  501    0 -0.18746326692E+02  0.75947491918E+01  0.34230115524E+03  0.34289821501E+03  0.00000000000E+00 0. -1.
          2    1    1    2  502    0  0.18746326692E+02 -0.75947491918E+01 -0.27966088993E+03  0.28039136637E+03  0.00000000000E+00 0.  1.
</event>
<event>
 4    1  0.8988950E+003  0.2000975E+02  0.7546771E-02  0.1533887E+00
          2   -1    0    0  501    0  0.00000000000E+00  0.00000000000E+00  0.46808961879E+02  0.46808961879E+02  0.00000000000E+00 0. -1.
          2   -1    0    0  502    0 -0.00000000000E+00 -0.00000000000E+00 -0.82331525295E+03  0.82331525295E+03  0.00000000000E+00 0.  1.
          2    1    1    2  501    0  0.19542005553E+02  0.43011789997E+01 -0.82104934702E+03  0.82129313912E+03  0.00000000000E+00 0.  1.
          2    1    1    2  502    0 -0.19542005553E+02 -0.43011789997E+01  0.44543055949E+02  0.48831075711E+02  0.00000000000E+00 0. -1.
</event>
<event>
 4    1  0.8988950E+003  0.2298998E+02  0.7546771E-02  0.1492624E+00
          2   -1    0    0  502    0  0.00000000000E+00  0.00000000000E+00  0.57558806435E+01  0.57558806435E+01  0.00000000000E+00 0. -1.
          2   -1    0    0  501    0 -0.00000000000E+00 -0.00000000000E+00 -0.13643806688E+03  0.13643806688E+03  0.00000000000E+00 0. -1.
          2    1    1    2  501    0 -0.18241250597E+02 -0.13992718775E+02 -0.24686502855E+02  0.33733704588E+02  0.00000000000E+00 0. -1.
          2    1    1    2  502    0  0.18241250597E+02  0.13992718775E+02 -0.10599568339E+03  0.10846024294E+03  0.00000000000E+00 0. -1.
</event>
<event>
 4    1  0.8988950E+003  0.2215062E+02  0.7546771E-02  0.1503448E+00
          2   -1    0    0  501    0  0.00000000000E+00  0.00000000000E+00  0.31430425331E+03  0.31430425331E+03  0.00000000000E+00 0.  1.
          2   -1    0    0  502    0 -0.00000000000E+00 -0.00000000000E+00 -0.19675519463E+03  0.19675519463E+03  0.00000000000E+00 0.  1.
          2    1    1    2  501    0 -0.82500184198E+01  0.20556926952E+02 -0.19573948209E+03  0.19698881922E+03  0.00000000000E+00 0.  1.
          2    1    1    2  502    0  0.82500184198E+01 -0.20556926952E+02  0.31328854077E+03  0.31407062872E+03  0.00000000000E+00 0.  1.
</event>
<event>
 4    1  0.8988950E+003  0.2745037E+02  0.7546771E-02  0.1443136E+00
          2   -1    0    0  501    0  0.00000000000E+00  0.00000000000E+00  0.32289454287E+02  0.32289454287E+02  0.00000000000E+00 0.  1.
          2   -1    0    0  502    0 -0.00000000000E+00 -0.00000000000E+00 -0.12781441934E+04  0.12781441934E+04  0.00000000000E+00 0. -1.
          2    1    1    2  501    0  0.12320664023E+02 -0.24530061028E+02 -0.12721351290E+04  0.12724312591E+04  0.00000000000E+00 0. -1.
          2    1    1    2  502    0 -0.12320664023E+02  0.24530061028E+02  0.26280389817E+02  0.38002388674E+02  0.00000000000E+00 0.  1.
</event>
<event>
 4    1  0.8988950E+003  0.3118887E+02  0.7546771E-02  0.1409539E+00
          2   -1    0    0  501    0  0.00000000000E+00  0.00000000000E+00  0.23439626263E+02  0.23439626263E+02  0.00000000000E+00 0. -1.
          2   -1    0    0  502    0 -0.00000000000E+00 -0.00000000000E+00 -0.71260842584E+03  0.71260842584E+03  0.00000000000E+00 0.  1.
          2    1    1    2  501    0  0.30213077208E+02 -0.77405305884E+01 -0.70173141297E+03  0.70242417512E+03  0.00000000000E+00 0.  1.
          2    1    1    2  502    0 -0.30213077208E+02  0.77405305884E+01  0.12562613391E+02  0.33623876983E+02  0.00000000000E+00 0. -1.
</event>
<event>
 4    1  0.8988950E+003  0.5123481E+02  0.7546771E-02  0.1292906E+00
          2   -1    0    0  501    0  0.00000000000E+00  0.00000000000E+00  0.30998030120E+02  0.30998030120E+02  0.00000000000E+00 0.  1.
          2   -1    0    0  502    0 -0.00000000000E+00 -0.00000000000E+00 -0.38642525152E+03  0.38642525152E+03  0.00000000000E+00 0.  1.
          2    1    1    2  501    0 -0.24340021356E+02 -0.45084025372E+02 -0.36214379116E+03  0.36575009427E+03  0.00000000000E+00 0.  1.
          2    1    1    2  502    0  0.24340021356E+02  0.45084025372E+02  0.67165697624E+01  0.51673187367E+02  0.00000000000E+00 0.  1.
</event>
<event>
 4    1  0.8988950E+003  0.4331947E+02  0.7546771E-02  0.1330060E+00
          2   -1    0    0  502    0  0.00000000000E+00  0.00000000000E+00  0.12409805808E+02  0.12409805808E+02  0.00000000000E+00 0. -1.
          2   -1    0    0  501    0 -0.00000000000E+00 -0.00000000000E+00 -0.89088607720E+03  0.89088607720E+03  0.00000000000E+00 0. -1.
          2    1    1    2  501    0  0.39456584843E+02 -0.17881667358E+02 -0.27702335404E+02  0.51419796789E+02  0.00000000000E+00 0. -1.
          2    1    1    2  502    0 -0.39456584843E+02  0.17881667358E+02 -0.85077393599E+03  0.85187608622E+03  0.00000000000E+00 0. -1.
</event>
<event>
 4    1  0.8988950E+003  0.2686882E+02  0.7546771E-02  0.1448930E+00
          2   -1    0    0  502    0  0.00000000000E+00  0.00000000000E+00  0.98200570779E+01  0.98200570779E+01  0.00000000000E+00 0. -1.
          2   -1    0    0  501    0 -0.00000000000E+00 -0.00000000000E+00 -0.73738733431E+03  0.73738733431E+03  0.00000000000E+00 0.  1.
          2    1    1    2  501    0 -0.64261174282E+01 -0.26089045954E+02 -0.92926343752E+01  0.28430377374E+02  0.00000000000E+00 0. -1.
          2    1    1    2  502    0  0.64261174282E+01  0.26089045954E+02 -0.71827464286E+03  0.71877701402E+03  0.00000000000E+00 0.  1.
</event>
<event>
 4    1  0.8988950E+003  0.2046642E+02  0.7546771E-02  0.1527021E+00
          2   -1    0    0  502    0  0.00000000000E+00  0.00000000000E+00  0.48240982327E+03  0.48240982327E+03  0.00000000000E+00 0. -1.
          2   -1    0    0  501    0 -0.00000000000E+00 -0.00000000000E+00 -0.99231272785E+02  0.99231272785E+02  0.00000000000E+00 0.  1.
          2    1    1    2  501    0  0.67278143167E+01 -0.19329019133E+02  0.48113465514E+03  0.48156975698E+03  0.00000000000E+00 0. -1.
          2    1    1    2  502    0 -0.67278143167E+01  0.19329019133E+02 -0.97956104649E+02  0.10007133907E+03  0.00000000000E+00 0.  1.
</event>
<event>
 4    1  0.8988950E+003  0.2026297E+02  0.7546771E-02  0.1530053E+00
          2   -1    0    0  502    0  0.00000000000E+00  0.00000000000E+00  0.20061691761E+03  0.20061691761E+03  0.00000000000E+00 0.  1.
          2   -1    0    0  501    0 -0.00000000000E+00 -0.00000000000E+00 -0.76754146360E+02  0.76754146360E+02  0.00000000000E+00 0. -1.
          2    1    1    2  501    0  0.12273808076E+02  0.16122700985E+02  0.19875542067E+03  0.19978564788E+03  0.00000000000E+00 0.  1.
          2    1    1    2  502    0 -0.12273808076E+02 -0.16122700985E+02 -0.74892649425E+02  0.77585416089E+02  0.00000000000E+00 0. -1.
</event>
<event>
 4    1  0.8988950E+003  0.2900901E+02  0.7546771E-02  0.1428408E+00
          2   -1    0    0  501    0  0.00000000000E+00  0.00000000000E+00  0.13112451382E+03  0.13112451382E+03  0.00000000000E+00 0.  1.
          2   -1    0    0  502    0 -0.00000000000E+00 -0.00000000000E+00 -0.18413695381E+02  0.18413695381E+02  0.00000000000E+00 0.  1.
          2    1    1    2  501    0  0.17989308421E+02 -0.22757582877E+02 -0.39934627581E+01  0.29282597915E+02  0.00000000000E+00 0.  1.
          2    1    1    2  502    0 -0.17989308421E+02  0.22757582877E+02  0.11670428120E+03  0.12025561128E+03  0.00000000000E+00 0.  1.
</event>
<event>
 4    1  0.1133297E+004  0.2567181E+02  0.7546771E-02  0.1461426E+00
          2   -1    0    0  502    0  0.00000000000E+00  0.00000000000E+00  0.17500139957E+04  0.17500139957E+04  0.00000000000E+00 0.  1.
          2   -1    0    0  501    0 -0.00000000000E+00 -0.00000000000E+00 -0.37042071756E+03  0.37042071756E+03  0.00000000000E+00 0.  1.
          2    1    1    2  501    0 -0.51133920193E+01  0.25157406884E+02  0.17494749178E+04  0.17496632618E+04  0.00000000000E+00 0.  1.
          2    1    1    2  502    0  0.51133920193E+01 -0.25157406884E+02 -0.36988163960E+03  0.37077145146E+03  0.00000000000E+00 0.  1.
</event>
<event>
 4    1  0.8988950E+003  0.2532245E+02  0.7546771E-02  0.1465228E+00
          2   -1    0    0  502    0  0.00000000000E+00  0.00000000000E+00  0.74322145648E+02  0.74322145648E+02  0.00000000000E+00 0.  1.
          2   -1    0    0  501    0 -0.00000000000E+00 -0.00000000000E+00 -0.17800434587E+04  0.17800434587E+04  0.00000000000E+00 0. -1.
          2    1    1    2  501    0  0.11586736318E+02  0.22516088189E+02  0.72072441970E+02  0.76391515088E+02  0.00000000000E+00 0.  1.
          2    1    1    2  502    0 -0.11586736318E+02 -0.22516088189E+02 -0.17777937550E+04  0.17779740893E+04  0.00000000000E+00 0. -1.
</event>
<event>
 4    1  0.8988950E+003  0.2009202E+02  0.7546771E-02  0.1532634E+00
          2   -1    0    0  501    0  0.00000000000E+00  0.00000000000E+00  0.35054158023E+03  0.35054158023E+03  0.00000000000E+00 0.  1.
          2   -1    0    0  502    0 -0.00000000000E+00 -0.00000000000E+00 -0.18821249429E+01  0.18821249429E+01  0.00000000000E+00 0.  1.
          2    1    1    2  501    0  0.16862244739E+02 -0.10924933143E+02  0.64549654235E+02  0.67604343970E+02  0.00000000000E+00 0.  1.
          2    1    1    2  502    0 -0.16862244739E+02  0.10924933143E+02  0.28410980105E+03  0.28481936120E+03  0.00000000000E+00 0.  1.
</event>
<event>
 4    1  0.8988950E+003  0.2213269E+02  0.7546771E-02  0.1503686E+00
          2   -1    0    0  502    0  0.00000000000E+00  0.00000000000E+00  0.10190135087E+03  0.10190135087E+03  0.00000000000E+00 0. -1.
          2   -1    0    0  501    0 -0.00000000000E+00 -0.00000000000E+00 -0.97753330653E+01  0.97753330653E+01  0.00000000000E+00 0. -1.
          2    1    1    2  501    0 -0.10482920295E+02 -0.19492678416E+02  0.85870524750E+02  0.88676959525E+02  0.00000000000E+00 0. -1.
          2    1    1    2  502    0  0.10482920295E+02  0.19492678416E+02  0.62554930594E+01  0.22999724415E+02  0.00000000000E+00 0. -1.
</event>
<event>
 4    1  0.8988950E+003  0.3411541E+02  0.7546771E-02  0.1386891E+00
          2   -1    0    0  501    0  0.00000000000E+00  0.00000000000E+00  0.38379462985E+01  0.38379462985E+01  0.00000000000E+00 0.  1.
          2   -1    0    0  502    0 -0.00000000000E+00 -0.00000000000E+00 -0.81821598738E+03  0.81821598738E+03  0.00000000000E+00 0.  1.
          2    1    1    2  501    0 -0.33059155723E+02  0.84233762596E+01 -0.73326979041E+03  0.73406297181E+03  0.00000000000E+00 0.  1.
          2    1    1    2  502    0  0.33059155723E+02 -0.84233762596E+01 -0.81108250671E+02  0.87990961875E+02  0.00000000000E+00 0.  1.
</event>
<event>
 4    1  0.8988950E+003  0.2076472E+02  0.7546771E-02  0.1522651E+00
          2   -1    0    0  502    0  0.00000000000E+00  0.00000000000E+00  0.44695831033E+00  0.44695831033E+00  0.00000000000E+00 0. -1.
          2   -1    0    0  501    0 -0.00000000000E+00 -0.00000000000E+00 -0.13337678466E+04  0.13337678466E+04  0.00000000000E+00 0.  1.
          2    1    1    2  501    0 -0.85618582600E+00  0.20747057738E+02 -0.31573225819E+03  0.31641433647E+03  0.00000000000E+00 0. -1.
          2    1    1    2  502    0  0.85618582600E+00 -0.20747057738E+02 -0.10175886301E+04  0.10178004685E+04  0.00000000000E+00 0.  1.
</event>
<event>
 4    1  0.8988950E+003  0.2159446E+02  0.7546771E-02  0.1510944E+00
          2   -1    0    0  502    0  0.00000000000E+00  0.00000000000E+00  0.56662794044E+02  0.56662794044E+02  0.00000000000E+00 0.  1.
          2   -1    0    0  501    0 -0.00000000000E+00 -0.00000000000E+00 -0.11822064258E+02  0.11822064258E+02  0.00000000000E+00 0. -1.
          2    1    1    2  501    0  0.28330089401E+01  0.21407823746E+02  0.41296141372E+02  0.46601417891E+02  0.00000000000E+00 0.  1.
          2    1    1    2  502    0 -0.28330089401E+01 -0.21407823746E+02  0.35445884135E+01  0.21883440411E+02  0.00000000000E+00 0. -1.
</event>
<event>
 4    1  0.8988950E+003  0.2721089E+02  0.7546771E-02  0.1445501E+00
          2   -1    0    0  502    0  0.00000000000E+00  0.00000000000E+00  0.27354168611E+01  0.27354168611E+01  0.00000000000E+00 0.  1.
          2   -1    0    0  501    0 -0.00000000000E+00 -0.00000000000E+00 -0.27126899136E+03  0.27126899136E+03  0.00000000000E+00 0.  1.
          2    1    1    2  501    0 -0.27179475180E+02  0.13072206433E+01 -0.14063066296E+03  0.14323901724E+03  0.00000000000E+00 0.  1.
          2    1    1    2  502    0  0.27179475180E+02 -0.13072206433E+01 -0.12790291154E+03  0.13076539098E+03  0.00000000000E+00 0.  1.
</event>
<event>
 4    1  0.8988950E+003  0.3254072E+02  0.7546771E-02  0.1398729E+00
          2   -1    0    0  502    0  0.00000000000E+00  0.00000000000E+00  0.74961921583E+03  0.74961921583E+03  0.00000000000E+00 0.  1.
          2   -1    0    0  501    0 -0.00000000000E+00 -0.00000000000E+00 -0.26194799860E+02  0.26194799860E+02  0.00000000000E+00 0.  1.
          2    1    1    2  501    0  0.23740296772E+02  0.22255258602E+02  0.73901513383E+03  0.73973121217E+03  0.00000000000E+00 0.  1.
          2    1    1    2  502    0 -0.23740296772E+02 -0.22255258602E+02 -0.15590717863E+02  0.36082803518E+02  0.00000000000E+00 0.  1.
</event>
<event>
 4    1  0.8988950E+003  0.2543575E+02  0.7546771E-02  0.1463987E+00
          2   -1    0    0  501    0  0.00000000000E+00  0.00000000000E+00  0.16946838672E+03  0.16946838672E+03  0.00000000000E+00 0.  1.
          2   -1    0    0  502    0 -0.00000000000E+00 -0.00000000000E+00 -0.50796587255E+01  0.50796587255E+01  0.00000000000E+00 0. -1.
          2    1    1    2  501    0  0.25324684096E+02 -0.23744010103E+01  0.38694050291E+02  0.46305582090E+02  0.00000000000E+00 0. -1.
          2    1    1    2  502    0 -0.25324684096E+02  0.23744010103E+01  0.12569467770E+03  0.12824246336E+03  0.00000000000E+00 0.  1.
</event>
<event>
 4    1  0.8988950E+003  0.2071752E+02  0.7546771E-02  0.1523336E+00
          2   -1    0    0  501    0  0.00000000000E+00  0.00000000000E+00  0.72607836863E+00  0.72607836863E+00  0.00000000000E+00 0.  1.
          2   -1    0    0  502    0 -0.00000000000E+00 -0.00000000000E+00 -0.98491732872E+03  0.98491732872E+03  0.00000000000E+00 0. -1.
          2    1    1    2  501    0 -0.14058330485E+02  0.15217719025E+02 -0.80370752110E+03  0.80397449904E+03  0.00000000000E+00 0. -1.
          2    1    1    2  502    0  0.14058330485E+02 -0.15217719025E+02 -0.18048372925E+03  0.18166890805E+03  0.00000000000E+00 0.  1.
</event>
<event>
 4    1  0.8988950E+003  0.2036640E+02  0.7546771E-02  0.1528506E+00
          2   -1    0    0  502    0  0.00000000000E+00  0.00000000000E+00  0.81175137386E+03  0.81175137386E+03  0.00000000000E+00 0. -1.
          2   -1    0    0  501    0 -0.00000000000E+00 -0.00000000000E+00 -0.36397900426E+03  0.36397900426E+03  0.00000000000E+00 0. -1.
          2    1    1    2  501    0 -0.31801146140E+01 -0.20116584630E+02  0.81133858375E+03  0.81159416434E+03  0.00000000000E+00 0. -1.
          2    1    1    2  502    0  0.31801146140E+01  0.20116584630E+02 -0.36356621416E+03  0.36413621378E+03  0.00000000000E+00 0. -1.
</event>
<event>
 4    1  0.8988950E+003  0.2209121E+02  0.7546771E-02  0.1504236E+00
          2   -1    0    0  502    0  0.00000000000E+00  0.00000000000E+00  0.31329246541E+01  0.31329246541E+01  0.00000000000E+00 0. -1.
          2   -1    0    0  501    0 -0.00000000000E+00 -0.00000000000E+00 -0.71518935292E+03  0.71518935292E+03  0.00000000000E+00 0. -1.
          2    1    1    2  501    0  0.12632507314E+01 -0.22055062406E+02 -0.38379697853E+02  0.44283436942E+02  0.00000000000E+00 0. -1.
          2    1    1    2  502    0 -0.12632507314E+01  0.22055062406E+02 -0.67367673041E+03  0.67403884063E+03  0.00000000000E+00 0. -1.
</event>
<event>
 4    1  0.8988950E+003  0.2197872E+02  0.7546771E-02  0.1505737E+00
          2   -1    0    0  501    0  0.00000000000E+00  0.00000000000E+00  0.44987889557E+01  0.44987889557E+01  0.00000000000E+00 0. -1.
          2   -1    0    0  502    0 -0.00000000000E+00 -0.00000000000E+00 -0.65985518599E+03  0.65985518599E+03  0.00000000000E+00 0.  1.
          2    1    1    2  501    0 -0.25003444425E+01  0.21836038654E+02 -0.63162878157E+03  0.63201106163E+03  0.00000000000E+00 0.  1.
          2    1    1    2  502    0  0.25003444425E+01 -0.21836038654E+02 -0.23727615457E+02  0.32342913315E+02  0.00000000000E+00 0. -1.
</event>
<event>
 4    1  0.8988950E+003  0.2688010E+02  0.7546771E-02  0.1448816E+00
          2   -1    0    0  502    0  0.00000000000E+00  0.00000000000E+00  0.23901770456E+03  0.23901770456E+03  0.00000000000E+00 0. -1.
          2   -1    0    0  501    0 -0.00000000000E+00 -0.00000000000E+00 -0.31446951732E+01  0.31446951732E+01  0.00000000000E+00 0. -1.
          2    1    1    2  501    0  0.26861712188E+02 -0.99412541913E+00  0.14175989884E+03  0.14428585789E+03  0.00000000000E+00 0. -1.
          2    1    1    2  502    0 -0.26861712188E+02  0.99412541913E+00  0.94113110545E+02  0.97876541844E+02  0.00000000000E+00 0. -1.
</event>
<event>
 4    1  0.8988950E+003  0.2115099E+02  0.7546771E-02  0.1517120E+00
          2   -1    0    0  502    0  0.00000000000E+00  0.00000000000E+00  0.60958057181E+03  0.60958057181E+03  0.00000000000E+00 0.  1.
          2   -1    0    0  501    0 -0.00000000000E+00 -0.00000000000E+00 -0.30101409579E+02  0.30101409579E+02  0.00000000000E+00 0. -1.
          2    1    1    2  501    0 -0.99354521299E+01  0.18672206717E+02  0.60565756261E+03  0.60602677140E+03  0.00000000000E+00 0.  1.
          2    1    1    2  502    0  0.99354521299E+01 -0.18672206717E+02 -0.26178400378E+02  0.33655209984E+02  0.00000000000E+00 0. -1.
</event>
<event>
 4    1  0.8988950E+003  0.2256120E+02  0.7546771E-02  0.1498083E+00
          2   -1    0    0  502    0  0.00000000000E+00  0.00000000000E+00  0.21398606763E+00  0.21398606763E+00  0.00000000000E+00 0. -1.
          2   -1    0    0  501    0 -0.00000000000E+00 -0.00000000000E+00 -0.25487618791E+04  0.25487618791E+04  0.00000000000E+00 0. -1.
          2    1    1    2  501    0 -0.22173640442E+02 -0.41638252381E+01 -0.94505874401E+03  0.94532800520E+03  0.00000000000E+00 0. -1.
          2    1    1    2  502    0  0.22173640442E+02  0.41638252381E+01 -0.16034891491E+04  0.16036478600E+04  0.00000000000E+00 0. -1.
</event>
<event>
 4    1  0.8988950E+003  0.4459170E+02  0.7546771E-02  0.1323494E+00
          2   -1    0    0  502    0  0.00000000000E+00  0.00000000000E+00  0.44618197001E+03  0.44618197001E+03  0.00000000000E+00 0. -1.
          2   -1    0    0  501    0 -0.00000000000E+00 -0.00000000000E+00 -0.17651790917E+03  0.17651790917E+03  0.00000000000E+00 0.  1.
          2    1    1    2  501    0  0.10936931549E+02 -0.43229656573E+02  0.44222654172E+03  0.44446904716E+03  0.00000000000E+00 0. -1.
          2    1    1    2  502    0 -0.10936931549E+02  0.43229656573E+02 -0.17256248088E+03  0.17823083203E+03  0.00000000000E+00 0.  1.
</event>
<event>
 4    1  0.8988950E+003  0.2023544E+02  0.7546771E-02  0.1530466E+00
          2   -1    0    0  502    0  0.00000000000E+00  0.00000000000E+00  0.57295754186E+02  0.57295754186E+02  0.00000000000E+00 0.  1.
          2   -1    0    0  501    0 -0.00000000000E+00 -0.00000000000E+00 -0.60964442534E+03  0.60964442534E+03  0.00000000000E+00 0.  1.
          2    1    1    2  501    0  0.80506716430E+01 -0.18565017004E+02  0.55335412846E+02  0.58919276006E+02  0.00000000000E+00 0.  1.
          2    1    1    2  502    0 -0.80506716430E+01  0.18565017004E+02 -0.60768408400E+03  0.60802090352E+03  0.00000000000E+00 0.  1.
</event>
<event>
 4    1  0.8988950E+003  0.2225902E+02  0.7546771E-02  0.1502018E+00
          2   -1    0    0  502    0  0.00000000000E+00  0.00000000000E+00  0.91118468904E+02  0.91118468904E+02  0.00000000000E+00 0. -1.
          2   -1    0    0  501    0 -0.00000000000E+00 -0.00000000000E+00 -0.21971404129E+02  0.21971404129E+02  0.00000000000E+00 0.  1.
          2    1    1    2  501    0 -0.86621531172E+01  0.20504412623E+02  0.83624941765E+02  0.86536666904E+02  0.00000000000E+00 0. -1.
          2    1    1    2  502    0  0.86621531172E+01 -0.20504412623E+02 -0.14477876989E+02  0.26553206130E+02  0.00000000000E+00 0.  1.
</event>
<event>
 4    1  0.8988950E+003  0.2256808E+02  0.7546771E-02  0.1497994E+00
          2   -1    0    0  501    0  0.00000000000E+00  0.00000000000E+00  0.14814859435E+04  0.14814859435E+04  0.00000000000E+00 0. -1.
          2   -1    0    0  502    0 -0.00000000000E+00 -0.00000000000E+00 -0.51417256812E+00  0.51417256812E+00  0.00000000000E+00 0. -1.
          2    1    1    2  501    0 -0.19774102389E+02  0.10876727547E+02  0.31392811805E+03  0.31473827481E+03  0.00000000000E+00 0. -1.
          2    1    1    2  502    0  0.19774102389E+02 -0.10876727547E+02  0.11670436529E+04  0.11672618413E+04  0.00000000000E+00 0. -1.
</event>
<event>
 4    1  0.8988950E+003  0.2324969E+02  0.7546771E-02  0.1489386E+00
          2   -1    0    0  502    0  0.00000000000E+00  0.00000000000E+00  0.33634071300E+03  0.33634071300E+03  0.00000000000E+00 0.  1.
          2   -1    0    0  501    0 -0.00000000000E+00 -0.00000000000E+00 -0.90042385012E+01  0.90042385012E+01  0.00000000000E+00 0. -1.
          2    1    1    2  501    0 -0.16372105987E+01 -0.23191975455E+02  0.32017394642E+03  0.32101698421E+03  0.00000000000E+00 0.  1.
          2    1    1    2  502    0  0.16372105987E+01  0.23191975455E+02  0.71625280761E+01  0.24327967290E+02  0.00000000000E+00 0. -1.
</event>
<event>
 4    1  0.8988950E+003  0.3002113E+02  0.7546771E-02  0.1419413E+00
          2   -1    0    0  501    0  0.00000000000E+00  0.00000000000E+00  0.21879541360E+03  0.21879541360E+03  0.00000000000E+00 0.  1.
          2   -1    0    0  502    0 -0.00000000000E+00 -0.00000000000E+00 -0.78409714979E+03  0.78409714979E+03  0.00000000000E+00 0. -1.
          2    1    1    2  501    0  0.13411639993E+02  0.26858819989E+02 -0.78277824957E+03  0.78335372361E+03  0.00000000000E+00 0. -1.
          2    1    1    2  502    0 -0.13411639993E+02 -0.26858819989E+02  0.21747651338E+03  0.21953883977E+03  0.00000000000E+00 0.  1.
</event>
<event>
 4    1  0.8988950E+003  0.3825148E+02  0.7546771E-02  0.1359048E+00
          2   -1    0    0  502    0  0.00000000000E+00  0.00000000000E+00  0.17609904472E+02  0.17609904472E+02  0.00000000000E+00 0. -1.
          2   -1    0    0  501    0 -0.00000000000E+00 -0.00000000000E+00 -0.86596569380E+03  0.86596569380E+03  0.00000000000E+00 0.  1.
          2    1    1    2  501    0  0.21849773024E+02 -0.31396869837E+02 -0.41189215512E+01  0.38472607548E+02  0.00000000000E+00 0. -1.
          2    1    1    2  502    0 -0.21849773024E+02  0.31396869837E+02 -0.84423686778E+03  0.84510299073E+03  0.00000000000E+00 0.  1.
</event>
<event>
 4    1  0.8988950E+003  0.2184144E+02  0.7546771E-02  0.1507582E+00
          2   -1    0    0  501    0  0.00000000000E+00  0.00000000000E+00  0.39329789677E+03  0.39329789677E+03  0.00000000000E+00 0.  1.
          2   -1    0    0  502    0 -0.00000000000E+00 -0.00000000000E+00 -0.48866906058E+01  0.48866906058E+01  0.00000000000E+00 0.  1.
          2    1    1    2  501    0  0.13062981924E+02 -0.17504485228E+02  0.21581434074E+02  0.30705159119E+02  0.00000000000E+00 0.  1.
          2    1    1    2  502    0 -0.13062981924E+02  0.17504485228E+02  0.36682977209E+03  0.36747942825E+03  0.00000000000E+00 0.  1.
</event>
<event>
 4    1  0.8988950E+003  0.2102682E+02  0.7546771E-02  0.1518882E+00
          2   -1    0    0  502    0  0.00000000000E+00  0.00000000000E+00  0.28954915887E+01  0.28954915887E+01  0.00000000000E+00 0.  1.
          2   -1    0    0  501    0 -0.00000000000E+00 -0.00000000000E+00 -0.10376803231E+04  0.10376803231E+04  0.00000000000E+00 0.  1.
          2    1    1    2  501    0  0.79614873275E+01  0.19461293336E+02 -0.36907271802E+02  0.42476745763E+02  0.00000000000E+00 0.  1.
          2    1    1    2  502    0 -0.79614873275E+01 -0.19461293336E+02 -0.99787755967E+03  0.99809906888E+03  0.00000000000E+00 0.  1.
</event>
<event>
 4    1  0.8988950E+003  0.2053828E+02  0.7546771E-02  0.1525960E+00
          2   -1    0    0  501    0  0.00000000000E+00  0.00000000000E+00  0.19717615221E+02  0.19717615221E+02  0.00000000000E+00 0. -1.
          2   -1    0    0  502    0 -0.00000000000E+00 -0.00000000000E+00 -0.35144383650E+02  0.35144383650E+02  0.00000000000E+00 0. -1.
          2    1    1    2  501    0  0.94617710676E+01  0.18228988486E+02 -0.24872113034E+02  0.32255900851E+02  0.00000000000E+00 0. -1.
          2    1    1    2  502    0 -0.94617710676E+01 -0.18228988486E+02  0.94453446044E+01  0.22606098019E+02  0.00000000000E+00 0. -1.
</event>
<event>
 4    1  0.8988950E+003  0.2704621E+02  0.7546771E-02  0.1447145E+00
          2   -1    0    0  502    0  0.00000000000E+00  0.00000000000E+00  0.19604944787E+02  0.19604944787E+02  0.00000000000E+00 0.  1.
          2   -1    0    0  501    0 -0.00000000000E+00 -0.00000000000E+00 -0.25529142203E+03  0.25529142203E+03  0.00000000000E+00 0. -1.
          2    1    1    2  501    0  0.24493909437E+02  0.11469338420E+02  0.91640843686E+01  0.28556571322E+02  0.00000000000E+00 0.  1.
          2    1    1    2  502    0 -0.24493909437E+02 -0.11469338420E+02 -0.24485056161E+03  0.24633979550E+03  0.00000000000E+00 0. -1.
</event>
<event>
 4    1  0.8988950E+003  0.2603199E+02  0.7546771E-02  0.1457582E+00
          2   -1    0    0  502    0  0.00000000000E+00  0.00000000000E+00  0.14863302845E+02  0.14863302845E+02  0.00000000000E+00 0.  1.
          2   -1    0    0  501    0 -0.00000000000E+00 -0.00000000000E+00 -0.56722000040E+02  0.56722000040E+02  0.00000000000E+00 0. -1.
          2    1    1    2  501    0 -0.11432951543E+02  0.23387005403E+02 -0.50751693178E+01  0.26522099207E+02  0.00000000000E+00 0.  1.
          2    1    1    2  502    0  0.11432951543E+02 -0.23387005403E+02 -0.36783527877E+02  0.45063203679E+02  0.00000000000E+00 0. -1.
</event>
<event>
 4    1  0.8988950E+003  0.3972078E+02  0.7546771E-02  0.1350130E+00
          2   -1    0    0  502    0  0.00000000000E+00  0.00000000000E+00  0.54211380310E+01  0.54211380310E+01  0.00000000000E+00 0.  1.
          2   -1    0    0  501    0 -0.00000000000E+00 -0.00000000000E+00 -0.12201577795E+04  0.12201577795E+04  0.00000000000E+00 0.  1.
          2    1    1    2  501    0 -0.26747818805E+02  0.29364857628E+02 -0.72631791020E+02  0.82783559607E+02  0.00000000000E+00 0.  1.
          2    1    1    2  502    0  0.26747818805E+02 -0.29364857628E+02 -0.11421048504E+04  0.11427953579E+04  0.00000000000E+00 0.  1.
</event>
<event>
 4    1  0.8988950E+003  0.2120519E+02  0.7546771E-02  0.1516355E+00
          2   -1    0    0  502    0  0.00000000000E+00  0.00000000000E+00  0.67178509055E+02  0.67178509055E+02  0.00000000000E+00 0. -1.
          2   -1    0    0  501    0 -0.00000000000E+00 -0.00000000000E+00 -0.54673077745E+02  0.54673077745E+02  0.00000000000E+00 0. -1.
          2    1    1    2  501    0  0.84034574823E+00  0.21188529268E+02  0.63327279623E+02  0.66783263606E+02  0.00000000000E+00 0. -1.
          2    1    1    2  502    0 -0.84034574823E+00 -0.21188529268E+02 -0.50821848312E+02  0.55068323194E+02  0.00000000000E+00 0. -1.
</event>
<event>
 4    1  0.1482717E+004  0.2668689E+02  0.7546771E-02  0.1450779E+00
          2   -1    0    0  501    0  0.00000000000E+00  0.00000000000E+00  0.59733774444E+03  0.59733774444E+03  0.00000000000E+00 0.  1.
          2   -1    0    0  502    0 -0.00000000000E+00 -0.00000000000E+00 -0.18042362845E+04  0.18042362845E+04  0.00000000000E+00 0. -1.
          2    1    1    2  501    0 -0.16898694726E+02  0.20654880882E+02 -0.18038394675E+04  0.18040368661E+04  0.00000000000E+00 0. -1.
          2    1    1    2  502    0  0.16898694726E+02 -0.20654880882E+02  0.59694092746E+03  0.59753716275E+03  0.00000000000E+00 0.  1.
</event>
<event>
 4    1  0.8988950E+003  0.2652099E+02  0.7546771E-02  0.1452480E+00
          2   -1    0    0  502    0  0.00000000000E+00  0.00000000000E+00  0.52092073337E+02  0.52092073337E+02  0.00000000000E+00 0. -1.
          2   -1    0    0  501    0 -0.00000000000E+00 -0.00000000000E+00 -0.21834215343E+02  0.21834215343E+02  0.00000000000E+00 0.  1.
          2    1    1    2  501    0  0.26519683337E+02  0.26327876559E+00  0.37962428573E+02  0.46308842603E+02  0.00000000000E+00 0. -1.
          2    1    1    2  502    0 -0.26519683337E+02 -0.26327876559E+00 -0.77045705796E+01  0.27617446077E+02  0.00000000000E+00 0.  1.
</event>
<event>
 4    1  0.8988950E+003  0.2624457E+02  0.7546771E-02  0.1455348E+00
          2   -1    0    0  502    0  0.00000000000E+00  0.00000000000E+00  0.85848412516E+02  0.85848412516E+02  0.00000000000E+00 0.  1.
          2   -1    0    0  501    0 -0.00000000000E+00 -0.00000000000E+00 -0.33443881634E+03  0.33443881634E+03  0.00000000000E+00 0.  1.
          2    1    1    2  501    0 -0.23330083590E+02  0.12020184617E+02  0.83312438936E+02  0.87348383615E+02  0.00000000000E+00 0.  1.
          2    1    1    2  502    0  0.23330083590E+02 -0.12020184617E+02 -0.33190284276E+03  0.33293884524E+03  0.00000000000E+00 0.  1.
</event>
<event>
 4    1  0.8988950E+003  0.2862010E+02  0.7546771E-02  0.1431979E+00
          2   -1    0    0  501    0  0.00000000000E+00  0.00000000000E+00  0.10116065902E+02  0.10116065902E+02  0.00000000000E+00 0. -1.
          2   -1    0    0  502    0 -0.00000000000E+00 -0.00000000000E+00 -0.12353557482E+04  0.12353557482E+04  0.00000000000E+00 0. -1.
          2    1    1    2  501    0 -0.23572559654E+02  0.16230976865E+02 -0.12146013300E+04  0.12149384763E+04  0.00000000000E+00 0. -1.
          2    1    1    2  502    0  0.23572559654E+02 -0.16230976865E+02 -0.10638352209E+02  0.30533337786E+02  0.00000000000E+00 0. -1.
</event>
<event>
 4    1  0.8988950E+003  0.2106048E+02  0.7546771E-02  0.1518403E+00
          2   -1    0    0  502    0  0.00000000000E+00  0.00000000000E+00  0.14630283291E+03  0.14630283291E+03  0.00000000000E+00 0. -1.
          2   -1    0    0  501    0 -0.00000000000E+00 -0.00000000000E+00 -0.21442342233E+02  0.21442342233E+02  0.00000000000E+00 0. -1.
          2    1    1    2  501    0  0.21058310698E+02 -0.30240245075E+00  0.14014770438E+03  0.14172128612E+03  0.00000000000E+00 0. -1.
          2    1    1    2  502    0 -0.21058310698E+02  0.30240245075E+00 -0.15287213707E+02  0.26023889019E+02  0.00000000000E+00 0. -1.
</event>
<event>
 4    1  0.8988950E+003  0.7216483E+02  0.7546771E-02  0.1223307E+00
          2   -1    0    0  502    0  0.00000000000E+00  0.00000000000E+00  0.42146540904E+02  0.42146540904E+02  0.00000000000E+00 0.  1.
          2   -1    0    0  501    0 -0.00000000000E+00 -0.00000000000E+00 -0.45097943069E+03  0.45097943069E+03  0.00000000000E+00 0. -1.
          2    1    1    2  501    0  0.97449174186E+01 -0.71503842628E+02  0.56707550367E+01  0.72387294387E+02  0.00000000000E+00 0.  1.
          2    1    1    2  502    0 -0.97449174186E+01  0.71503842628E+02 -0.41450364483E+03  0.42073867721E+03  0.00000000000E+00 0. -1.
</event>
<event>
 4    1  0.8988950E+003  0.2250991E+02  0.7546771E-02  0.1498746E+00
          2   -1    0    0  501    0  0.00000000000E+00  0.00000000000E+00  0.11784641169E+04  0.11784641169E+04  0.00000000000E+00 0. -1.
          2   -1    0    0  502    0 -0.00000000000E+00 -0.00000000000E+00 -0.12570314736E+03  0.12570314736E+03  0.00000000000E+00 0. -1.
          2    1    1    2  501    0  0.19393809459E+02  0.11426994836E+02 -0.12458697783E+03  0.12660415120E+03  0.00000000000E+00 0. -1.
          2    1    1    2  502    0 -0.19393809459E+02 -0.11426994836E+02  0.11773479474E+04  0.11775631131E+04  0.00000000000E+00 0. -1.
</event>
<event>
 4    1  0.8988950E+003  0.2161780E+02  0.7546771E-02  0.1510624E+00
          2   -1    0    0  501    0  0.00000000000E+00  0.00000000000E+00  0.22230485904E+03  0.22230485904E+03  0.00000000000E+00 0. -1.
          2   -1    0    0  502    0 -0.00000000000E+00 -0.00000000000E+00 -0.50655292340E+03  0.50655292340E+03  0.00000000000E+00 0. -1.
          2    1    1    2  501    0 -0.17573214343E+02 -0.12590128728E+02 -0.50579594545E+03  0.50625770872E+03  0.00000000000E+00 0. -1.
          2    1    1    2  502    0  0.17573214343E+02  0.12590128728E+02  0.22154788109E+03  0.22260007372E+03  0.00000000000E+00 0. -1.
</event>
<event>
 4    1  0.8988950E+003  0.2307786E+02  0.7546771E-02  0.1491523E+00
          2   -1    0    0  502    0  0.00000000000E+00  0.00000000000E+00  0.60476130020E+02  0.60476130020E+02  0.00000000000E+00 0.  1.
          2   -1    0    0  501    0 -0.00000000000E+00 -0.00000000000E+00 -0.71605151847E+02  0.71605151847E+02  0.00000000000E+00 0.  1.
          2    1    1    2  501    0  0.31686790363E+01  0.22859286189E+02  0.56281835703E+02  0.60829536592E+02  0.00000000000E+00 0.  1.
          2    1    1    2  502    0 -0.31686790363E+01 -0.22859286189E+02 -0.67410857530E+02  0.71251745276E+02  0.00000000000E+00 0.  1.
</event>
<event>
 4    1  0.8988950E+003  0.2629238E+02  0.7546771E-02  0.1454849E+00
          2   -1    0    0  501    0  0.00000000000E+00  0.00000000000E+00  0.22040212181E+03  0.22040212181E+03  0.00000000000E+00 0.  1.
          2   -1    0    0  502    0 -0.00000000000E+00 -0.00000000000E+00 -0.17631958574E+03  0.17631958574E+03  0.00000000000E+00 0.  1.
          2    1    1    2  501    0 -0.10389951394E+02 -0.24152395590E+02 -0.17454738108E+03  0.17651650785E+03  0.00000000000E+00 0.  1.
          2    1    1    2  502    0  0.10389951394E+02  0.24152395590E+02  0.21862991714E+03  0.22020519969E+03  0.00000000000E+00 0.  1.
</event>
<event>
 4    1  0.8988950E+003  0.2298847E+02  0.7546771E-02  0.1492643E+00
          2   -1    0    0  502    0  0.00000000000E+00  0.00000000000E+00  0.17049767950E+03  0.17049767950E+03  0.00000000000E+00 0.  1.
          2   -1    0    0  501    0 -0.00000000000E+00 -0.00000000000E+00 -0.66633719530E+01  0.66633719530E+01  0.00000000000E+00 0. -1.
          2    1    1    2  501    0 -0.16033508176E+02 -0.16474111451E+02  0.14669819442E+03  0.14848848433E+03  0.00000000000E+00 0.  1.
          2    1    1    2  502    0  0.16033508176E+02  0.16474111451E+02  0.17136113135E+02  0.28672567131E+02  0.00000000000E+00 0. -1.
</event>
<event>
 4    1  0.8988950E+003  0.2191519E+02  0.7546771E-02  0.1506589E+00
          2   -1    0    0  502    0  0.00000000000E+00  0.00000000000E+00  0.12831538710E+02  0.12831538710E+02  0.00000000000E+00 0. -1.
          2   -1    0    0  501    0 -0.00000000000E+00 -0.00000000000E+00 -0.35649886877E+03  0.35649886877E+03  0.00000000000E+00 0.  1.
          2    1    1    2  501    0  0.21891979454E+02 -0.10083240090E+01  0.28686603673E+01  0.22102142295E+02  0.00000000000E+00 0. -1.
          2    1    1    2  502    0 -0.21891979454E+02  0.10083240090E+01 -0.34653599043E+03  0.34722826518E+03  0.00000000000E+00 0.  1.
</event>
<event>
 4    1  0.8988950E+003  0.2381507E+02  0.7546771E-02  0.1482509E+00
          2   -1    0    0  502    0  0.00000000000E+00  0.00000000000E+00  0.32699944874E+03  0.32699944874E+03  0.00000000000E+00 0. -1.
          2   -1    0    0  501    0 -0.00000000000E+00 -0.00000000000E+00 -0.16208387901E+02  0.16208387901E+02  0.00000000000E+00 0.  1.
          2    1    1    2  501    0  0.49650296598E+01  0.23291757603E+02  0.31755822388E+03  0.31844996946E+03  0.00000000000E+00 0. -1.
          2    1    1    2  502    0 -0.49650296598E+01 -0.23291757603E+02 -0.67671630453E+01  0.24757867183E+02  0.00000000000E+00 0.  1.
</event>
<event>
 4    1  0.8988950E+003  0.2479586E+02  0.7546771E-02  0.1471100E+00
          2   -1    0    0  502    0  0.00000000000E+00  0.00000000000E+00  0.22999530277E+01  0.22999530277E+01  0.00000000000E+00 0. -1.
          2   -1    0    0  501    0 -0.00000000000E+00 -0.00000000000E+00 -0.40576940786E+03  0.40576940786E+03  0.00000000000E+00 0. -1.
          2    1    1    2  501    0 -0.13060921398E+02 -0.21077171006E+02 -0.82555066748E+02  0.86198456200E+02  0.00000000000E+00 0. -1.
          2    1    1    2  502    0  0.13060921398E+02  0.21077171006E+02 -0.32091438808E+03  0.32187090469E+03  0.00000000000E+00 0. -1.
</event>
<event>
 4    1  0.8988950E+003  0.2754464E+02  0.7546771E-02  0.1442213E+00
          2   -1    0    0  501    0  0.00000000000E+00  0.00000000000E+00  0.12146209387E+01  0.12146209387E+01  0.00000000000E+00 0. -1.
          2   -1    0    0  502    0 -0.00000000000E+00 -0.00000000000E+00 -0.13662581147E+04  0.13662581147E+04  0.00000000000E+00 0. -1.
          2    1    1    2  501    0 -0.90066204222E+01 -0.26030519150E+02 -0.11862669754E+04  0.11865867200E+04  0.00000000000E+00 0. -1.
          2    1    1    2  502    0  0.90066204222E+01  0.26030519150E+02 -0.17877651833E+03  0.18088601561E+03  0.00000000000E+00 0. -1.
</event>
<event>
 4    1  0.8988950E+003  0.2124712E+02  0.7546771E-02  0.1515766E+00
          2   -1    0    0  502    0  0.00000000000E+00  0.00000000000E+00  0.21465996759E+03  0.21465996759E+03  0.00000000000E+00 0. -1.
          2   -1    0    0  501    0 -0.00000000000E+00 -0.00000000000E+00 -0.42852260702E+01  0.42852260702E+01  0.00000000000E+00 0. -1.
          2    1    1    2  501    0 -0.12673712732E+02 -0.17053364902E+02  0.18330762159E+03  0.18453488663E+03  0.00000000000E+00 0. -1.
          2    1    1    2  502    0  0.12673712732E+02  0.17053364902E+02  0.27067119927E+02  0.34410307032E+02  0.00000000000E+00 0. -1.
</event>
<event>
 4    1  0.8988950E+003  0.3925679E+02  0.7546771E-02  0.1352897E+00
          2   -1    0    0  501    0  0.00000000000E+00  0.00000000000E+00  0.28170160601E+01  0.28170160601E+01  0.00000000000E+00 0.  1.
          2   -1    0    0  502    0 -0.00000000000E+00 -0.00000000000E+00 -0.12603622619E+04  0.12603622619E+04  0.00000000000E+00 0.  1.
          2    1    1    2  501    0  0.35459940318E+02  0.16843037243E+02 -0.11039131845E+04  0.11046109786E+04  0.00000000000E+00 0.  1.
          2    1    1    2  502    0 -0.35459940318E+02 -0.16843037243E+02 -0.15363206140E+03  0.15856829936E+03  0.00000000000E+00 0.  1.
</event>
<event>
 4    1  0.8988950E+003  0.2521853E+02  0.7546771E-02  0.1466373E+00
          2   -1    0    0  501    0  0.00000000000E+00  0.00000000000E+00  0.23515372899E+03  0.23515372899E+03  0.00000000000E+00 0.  1.
          2   -1    0    0  502    0 -0.00000000000E+00 -0.00000000000E+00 -0.23139853885E+03  0.23139853885E+03  0.00000000000E+00 0. -1.
          2    1    1    2  501    0 -0.86323765545E+01  0.23695073492E+02 -0.23003130734E+03  0.23140954343E+03  0.00000000000E+00 0. -1.
          2    1    1    2  502    0  0.86323765545E+01 -0.23695073492E+02  0.23378649749E+03  0.23514272441E+03  0.00000000000E+00 0.  1.
</event>
<event>
 4    1  0.8988950E+003  0.2738982E+02  0.7546771E-02  0.1443731E+00
          2   -1    0    0  502    0  0.00000000000E+00  0.00000000000E+00  0.61049852190E+02  0.61049852190E+02  0.00000000000E+00 0. -1.
          2   -1    0    0  501    0 -0.00000000000E+00 -0.00000000000E+00 -0.18735564265E+03  0.18735564265E+03  0.00000000000E+00 0.  1.
          2    1    1    2  501    0 -0.91714439036E+01 -0.25808658207E+02  0.56907651395E+02  0.63156021162E+02  0.00000000000E+00 0. -1.
          2    1    1    2  502    0  0.91714439036E+01  0.25808658207E+02 -0.18321344185E+03  0.18524947367E+03  0.00000000000E+00 0.  1.
</event>
<event>
 4    1  0.8988950E+003  0.2071716E+02  0.7546771E-02  0.1523342E+00
          2   -1    0    0  502    0  0.00000000000E+00  0.00000000000E+00  0.82718349093E+03  0.82718349093E+03  0.00000000000E+00 0. -1.
          2   -1    0    0  501    0 -0.00000000000E+00 -0.00000000000E+00 -0.91518556140E+00  0.91518556140E+00  0.00000000000E+00 0.  1.
          2    1    1    2  501    0  0.19625974012E+02  0.66349089269E+01  0.68560369491E+03  0.68591663294E+03  0.00000000000E+00 0. -1.
          2    1    1    2  502    0 -0.19625974012E+02 -0.66349089269E+01  0.14066461046E+03  0.14218204356E+03  0.00000000000E+00 0.  1.
</event>
<event>
 4    1  0.8988950E+003  0.2163119E+02  0.7546771E-02  0.1510441E+00
          2   -1    0    0  502    0  0.00000000000E+00  0.00000000000E+00  0.99972424993E+02  0.99972424993E+02  0.00000000000E+00 0.  1.
          2   -1    0    0  501    0 -0.00000000000E+00 -0.00000000000E+00 -0.13865466672E+03  0.13865466672E+03  0.00000000000E+00 0. -1.
          2    1    1    2  501    0  0.17601210776E+02  0.12574006488E+02  0.97941387213E+02  0.10030166294E+03  0.00000000000E+00 0.  1.
          2    1    1    2  502    0 -0.17601210776E+02 -0.12574006488E+02 -0.13662362894E+03  0.13832542877E+03  0.00000000000E+00 0. -1.
</event>
<event>
 4    1  0.8988950E+003  0.2158526E+02  0.7546771E-02  0.1511071E+00
          2   -1    0    0  501    0  0.00000000000E+00  0.00000000000E+00  0.39545938751E+01  0.39545938751E+01  0.00000000000E+00 0. -1.
          2   -1    0    0  502    0 -0.00000000000E+00 -0.00000000000E+00 -0.90365954447E+03  0.90365954447E+03  0.00000000000E+00 0. -1.
          2    1    1    2  501    0  0.14405625818E+02  0.16074863227E+02 -0.87304331971E+03  0.87331011753E+03  0.00000000000E+00 0. -1.
          2    1    1    2  502    0 -0.14405625818E+02 -0.16074863227E+02 -0.26661630889E+02  0.34304020823E+02  0.00000000000E+00 0. -1.
</event>
<event>
 4    1  0.8988950E+003  0.2350040E+02  0.7546771E-02  0.1486308E+00
          2   -1    0    0  501    0  0.00000000000E+00  0.00000000000E+00  0.89269801605E+02  0.89269801605E+02  0.00000000000E+00 0.  1.
          2   -1    0    0  502    0 -0.00000000000E+00 -0.00000000000E+00 -0.36028969334E+03  0.36028969334E+03  0.00000000000E+00 0.  1.
          2    1    1    2  501    0 -0.85370438168E+01  0.21894926459E+02 -0.35835149681E+03  0.35912123884E+03  0.00000000000E+00 0.  1.
          2    1    1    2  502    0  0.85370438168E+01 -0.21894926459E+02  0.87331605075E+02  0.90438256102E+02  0.00000000000E+00 0.  1.
</event>
<event>
 4    1  0.8988950E+003  0.2052220E+02  0.7546771E-02  0.1526197E+00
          2   -1    0    0  501    0  0.00000000000E+00  0.00000000000E+00  0.13332305837E+03  0.13332305837E+03  0.00000000000E+00 0.  1.
          2   -1    0    0  502    0 -0.00000000000E+00 -0.00000000000E+00 -0.23147643944E+02  0.23147643944E+02  0.00000000000E+00 0. -1.
          2    1    1    2  501    0  0.14082521305E+02 -0.14927941284E+02 -0.17613538391E+02  0.27044363034E+02  0.00000000000E+00 0. -1.
          2    1    1    2  502    0 -0.14082521305E+02  0.14927941284E+02  0.12778895281E+03  0.12942633927E+03  0.00000000000E+00 0.  1.
</event>
<event>
 4    1  0.8988950E+003  0.2714297E+02  0.7546771E-02  0.1446177E+00
          2   -1    0    0  502    0  0.00000000000E+00  0.00000000000E+00  0.24547960266E+02  0.24547960266E+02  0.00000000000E+00 0. -1.
          2   -1    0    0  501    0 -0.00000000000E+00 -0.00000000000E+00 -0.21067383513E+03  0.21067383513E+03  0.00000000000E+00 0.  1.
          2    1    1    2  501    0 -0.11528620155E+02 -0.24572987236E+02  0.15848906406E+02  0.31431331799E+02  0.00000000000E+00 0. -1.
          2    1    1    2  502    0  0.11528620155E+02  0.24572987236E+02 -0.20197478127E+03  0.20379046360E+03  0.00000000000E+00 0.  1.
</event>
<event>
 4    1  0.8988950E+003  0.5252572E+02  0.7546771E-02  0.1287578E+00
          2   -1    0    0  501    0  0.00000000000E+00  0.00000000000E+00  0.17921997812E+02  0.17921997812E+02  0.00000000000E+00 0. -1.
          2   -1    0    0  502    0 -0.00000000000E+00 -0.00000000000E+00 -0.17379466577E+03  0.17379466577E+03  0.00000000000E+00 0. -1.
          2    1    1    2  501    0 -0.31980556452E+02 -0.41667677681E+02 -0.45538264828E+02  0.69517515188E+02  0.00000000000E+00 0. -1.
          2    1    1    2  502    0  0.31980556452E+02  0.41667677681E+02 -0.11033440313E+03  0.12219914839E+03  0.00000000000E+00 0. -1.
</event>
<event>
 4    1  0.8988950E+003  0.2050461E+02  0.7546771E-02  0.1526457E+00
          2   -1    0    0  501    0  0.00000000000E+00  0.00000000000E+00  0.97987316979E+03  0.97987316979E+03  0.00000000000E+00 0. -1.
          2   -1    0    0  502    0 -0.00000000000E+00 -0.00000000000E+00 -0.27450958979E+01  0.27450958979E+01  0.00000000000E+00 0. -1.
          2    1    1    2  501    0  0.93954228784E+01 -0.18225396526E+02  0.37282758904E+02  0.42549302710E+02  0.00000000000E+00 0. -1.
          2    1    1    2  502    0 -0.93954228784E+01  0.18225396526E+02  0.93984531499E+03  0.94006896298E+03  0.00000000000E+00 0. -1.
</event>
<event>
 4    1  0.8988950E+003  0.2295158E+02  0.7546771E-02  0.1493107E+00
          2   -1    0    0  501    0  0.00000000000E+00  0.00000000000E+00  0.50587970708E+02  0.50587970708E+02  0.00000000000E+00 0.  1.
          2   -1    0    0  502    0 -0.00000000000E+00 -0.00000000000E+00 -0.12775005441E+04  0.12775005441E+04  0.00000000000E+00 0. -1.
          2    1    1    2  501    0 -0.20907763463E+02  0.94678621657E+01 -0.12747886574E+04  0.12749952533E+04  0.00000000000E+00 0. -1.
          2    1    1    2  502    0  0.20907763463E+02 -0.94678621657E+01  0.47876084043E+02  0.53093261440E+02  0.00000000000E+00 0.  1.
</event>
<event>
 4    1  0.8988950E+003  0.3458552E+02  0.7546771E-02  0.1383501E+00
          2   -1    0    0  502    0  0.00000000000E+00  0.00000000000E+00  0.45588654990E+03  0.45588654990E+03  0.00000000000E+00 0. -1.
          2   -1    0    0  501    0 -0.00000000000E+00 -0.00000000000E+00 -0.26309929540E+01  0.26309929540E+01  0.00000000000E+00 0. -1.
          2    1    1    2  501    0 -0.15084137786E+02  0.31122774849E+02  0.21464636866E+03  0.21741486128E+03  0.00000000000E+00 0. -1.
          2    1    1    2  502    0  0.15084137786E+02 -0.31122774849E+02  0.23860918829E+03  0.24110268157E+03  0.00000000000E+00 0. -1.
</event>
<event>
 4    1  0.8988950E+003  0.2621127E+02  0.7546771E-02  0.1455696E+00
          2   -1    0    0  502    0  0.00000000000E+00  0.00000000000E+00  0.54568406108E+01  0.54568406108E+01  0.00000000000E+00 0. -1.
          2   -1    0    0  501    0 -0.00000000000E+00 -0.00000000000E+00 -0.16236050589E+03  0.16236050589E+03  0.00000000000E+00 0. -1.
          2    1    1    2  501    0 -0.26126918398E+02 -0.21010861525E+01 -0.38690355687E+02  0.46733008155E+02  0.00000000000E+00 0. -1.
          2    1    1    2  502    0  0.26126918398E+02  0.21010861525E+01 -0.11821330959E+03  0.12108433834E+03  0.00000000000E+00 0. -1.
</event>
<event>
 4    1  0.8988950E+003  0.2166158E+02  0.7546771E-02  0.1510025E+00
          2   -1    0    0  502    0  0.00000000000E+00  0.00000000000E+00  0.12538986325E+03  0.12538986325E+03  0.00000000000E+00 0. -1.
          2   -1    0    0  501    0 -0.00000000000E+00 -0.00000000000E+00 -0.26147768743E+03  0.26147768743E+03  0.00000000000E+00 0.  1.
          2    1    1    2  501    0 -0.14928455651E+02 -0.15696029907E+02  0.12400071739E+03  0.12587852102E+03  0.00000000000E+00 0. -1.
          2    1    1    2  502    0  0.14928455651E+02  0.15696029907E+02 -0.26008854157E+03  0.26098902966E+03  0.00000000000E+00 0.  1.
</event>
<event>
 4    1  0.8988950E+003  0.2282733E+02  0.7546771E-02  0.1494678E+00
          2   -1    0    0  501    0  0.00000000000E+00  0.00000000000E+00  0.13967930843E+03  0.13967930843E+03  0.00000000000E+00 0. -1.
          2   -1    0    0  502    0 -0.00000000000E+00 -0.00000000000E+00 -0.60348772910E+02  0.60348772910E+02  0.00000000000E+00 0. -1.
          2    1    1    2  501    0  0.96903417322E+01 -0.20668437804E+02 -0.57208165761E+02  0.61594328261E+02  0.00000000000E+00 0. -1.
          2    1    1    2  502    0 -0.96903417322E+01  0.20668437804E+02  0.13653870128E+03  0.13843375308E+03  0.00000000000E+00 0. -1.
</event>
<event>
 4    1  0.8988950E+003  0.2475607E+02  0.7546771E-02  0.1471551E+00
          2   -1    0    0  502    0  0.00000000000E+00  0.00000000000E+00  0.95121141234E+02  0.95121141234E+02  0.00000000000E+00 0. -1.
          2   -1    0    0  501    0 -0.00000000000E+00 -0.00000000000E+00 -0.17046087788E+04  0.17046087788E+04  0.00000000000E+00 0.  1.
          2    1    1    2  501    0  0.38508805599E+01  0.24454729817E+02  0.93418904325E+02  0.96643441458E+02  0.00000000000E+00 0. -1.
          2    1    1    2  502    0 -0.38508805599E+01 -0.24454729817E+02 -0.17029065419E+04  0.17030864786E+04  0.00000000000E+00 0.  1.
</event>
<event>
 4    1  0.8988950E+003  0.2754121E+02  0.7546771E-02  0.1442246E+00
          2   -1    0    0  502    0  0.00000000000E+00  0.00000000000E+00  0.93678216136E+03  0.93678216136E+03  0.00000000000E+00 0.  1.
          2   -1    0    0  501    0 -0.00000000000E+00 -0.00000000000E+00 -0.95343068200E+00  0.95343068200E+00  0.00000000000E+00 0.  1.
          2    1    1    2  501    0  0.19800551433E+02  0.19143055414E+02  0.64995614977E+03  0.65053940314E+03  0.00000000000E+00 0.  1.
          2    1    1    2  502    0 -0.19800551433E+02 -0.19143055414E+02  0.28587258090E+03  0.28719618890E+03  0.00000000000E+00 0.  1.
</event>
<event>
 4    1  0.8988950E+003  0.2025895E+02  0.7546771E-02  0.1530113E+00
          2   -1    0    0  501    0  0.00000000000E+00  0.00000000000E+00  0.66909799599E+02  0.66909799599E+02  0.00000000000E+00 0.  1.
          2   -1    0    0  502    0 -0.00000000000E+00 -0.00000000000E+00 -0.28586161361E+02  0.28586161361E+02  0.00000000000E+00 0.  1.
          2    1    1    2  501    0 -0.28894391596E+01  0.20051841718E+02 -0.23154325405E+02  0.30766020216E+02  0.00000000000E+00 0.  1.
          2    1    1    2  502    0  0.28894391596E+01 -0.20051841718E+02  0.61477963643E+02  0.64729940743E+02  0.00000000000E+00 0.  1.
</event>
<event>
 4    1  0.8988950E+003  0.2202455E+02  0.7546771E-02  0.1505124E+00
          2   -1    0    0  501    0  0.00000000000E+00  0.00000000000E+00  0.40955972377E+01  0.40955972377E+01  0.00000000000E+00 0.  1.
          2   -1    0    0  502    0 -0.00000000000E+00 -0.00000000000E+00 -0.13053083389E+03  0.13053083389E+03  0.00000000000E+00 0.  1.
          2    1    1    2  501    0 -0.11606222018E+02 -0.18718341046E+02 -0.83704697522E+02  0.86553781363E+02  0.00000000000E+00 0.  1.
          2    1    1    2  502    0  0.11606222018E+02  0.18718341046E+02 -0.42730539134E+02  0.48072649768E+02  0.00000000000E+00 0.  1.
</event>
<event>
 4    1  0.8988950E+003  0.2167756E+02  0.7546771E-02  0.1509807E+00
          2   -1    0    0  501    0  0.00000000000E+00  0.00000000000E+00  0.63841075567E+02  0.63841075567E+02  0.00000000000E+00 0. -1.
          2   -1    0    0  502    0 -0.00000000000E+00 -0.00000000000E+00 -0.14137088282E+02  0.14137088282E+02  0.00000000000E+00 0. -1.
          2    1    1    2  501    0 -0.15600833091E+02 -0.15050935194E+02 -0.21416396028E+01  0.21783095821E+02  0.00000000000E+00 0. -1.
          2    1    1    2  502    0  0.15600833091E+02  0.15050935194E+02  0.51845626888E+02  0.56195068029E+02  0.00000000000E+00 0. -1.
</event>
<event>
 4    1  0.8988950E+003  0.2030474E+02  0.7546771E-02  0.1529427E+00
          2   -1    0    0  501    0  0.00000000000E+00  0.00000000000E+00  0.28897241489E+03  0.28897241489E+03  0.00000000000E+00 0. -1.
          2   -1    0    0  502    0 -0.00000000000E+00 -0.00000000000E+00 -0.27799594723E+01  0.27799594723E+01  0.00000000000E+00 0. -1.
          2    1    1    2  501    0  0.18247953247E+02 -0.89047458317E+01  0.41318503118E+02  0.46038038576E+02  0.00000000000E+00 0. -1.
          2    1    1    2  502    0 -0.18247953247E+02  0.89047458317E+01  0.24487395230E+03  0.24571433579E+03  0.00000000000E+00 0. -1.
</event>
<event>
 4    1  0.8988950E+003  0.3145984E+02  0.7546771E-02  0.1407321E+00
          2   -1    0    0  502    0  0.00000000000E+00  0.00000000000E+00  0.81907814606E+02  0.81907814606E+02  0.00000000000E+00 0.  1.
          2   -1    0    0  501    0 -0.00000000000E+00 -0.00000000000E+00 -0.64070889053E+02  0.64070889053E+02  0.00000000000E+00 0.  1.
          2    1    1    2  501    0 -0.27422640660E+02 -0.15418190056E+02  0.74665881961E+02  0.81022933386E+02  0.00000000000E+00 0.  1.
          2    1    1    2  502    0  0.27422640660E+02  0.15418190056E+02 -0.56828956409E+02  0.64955770274E+02  0.00000000000E+00 0.  1.
</event>
<event>
 4    1  0.8988950E+003  0.2492793E+02  0.7546771E-02  0.1469611E+00
          2   -1    0    0  501    0  0.00000000000E+00  0.00000000000E+00  0.22012761295E+03  0.22012761295E+03  0.00000000000E+00 0. -1.
          2   -1    0    0  502    0 -0.00000000000E+00 -0.00000000000E+00 -0.10044056140E+02  0.10044056140E+02  0.00000000000E+00 0. -1.
          2    1    1    2  501    0  0.23202380982E+02 -0.91132397538E+01  0.74596669004E+01  0.26020150889E+02  0.00000000000E+00 0. -1.
          2    1    1    2  502    0 -0.23202380982E+02  0.91132397538E+01  0.20262388991E+03  0.20415151820E+03  0.00000000000E+00 0. -1.
</event>
<event>
 4    1  0.8988950E+003  0.2538597E+02  0.7546771E-02  0.1464532E+00
          2   -1    0    0  501    0  0.00000000000E+00  0.00000000000E+00  0.60753231392E+03  0.60753231392E+03  0.00000000000E+00 0. -1.
          2   -1    0    0  502    0 -0.00000000000E+00 -0.00000000000E+00 -0.10740884805E+01  0.10740884805E+01  0.00000000000E+00 0. -1.
          2    1    1    2  501    0  0.13046765740E+01 -0.25352418202E+02  0.26933364611E+03  0.27052737425E+03  0.00000000000E+00 0. -1.
          2    1    1    2  502    0 -0.13046765740E+01  0.25352418202E+02  0.33712457933E+03  0.33807902815E+03  0.00000000000E+00 0. -1.
</event>
<event>
 4    1  0.8988950E+003  0.6356658E+02  0.7546771E-02  0.1248173E+00
          2   -1    0    0  501    0  0.00000000000E+00  0.00000000000E+00  0.26990841318E+03  0.26990841318E+03  0.00000000000E+00 0. -1.
          2   -1    0    0  502    0 -0.00000000000E+00 -0.00000000000E+00 -0.27502960648E+02  0.27502960648E+02  0.00000000000E+00 0.  1.
          2    1    1    2  501    0 -0.48763957813E+02  0.40777272634E+02  0.20821360962E+02  0.66889749718E+02  0.00000000000E+00 0.  1.
          2    1    1    2  502    0  0.48763957813E+02 -0.40777272634E+02  0.22158409157E+03  0.23052162411E+03  0.00000000000E+00 0. -1.
</event>
<event>
 4    1  0.8988950E+003  0.4348344E+02  0.7546771E-02  0.1329199E+00
          2   -1    0    0  501    0  0.00000000000E+00  0.00000000000E+00  0.27210660860E+01  0.27210660860E+01  0.00000000000E+00 0. -1.
          2   -1    0    0  502    0 -0.00000000000E+00 -0.00000000000E+00 -0.70968296908E+03  0.70968296908E+03  0.00000000000E+00 0. -1.
          2    1    1    2  501    0 -0.43475132776E+02  0.85016088405E+00 -0.40492825690E+03  0.40725631141E+03  0.00000000000E+00 0. -1.
          2    1    1    2  502    0  0.43475132776E+02 -0.85016088405E+00 -0.30203364609E+03  0.30514772375E+03  0.00000000000E+00 0. -1.
</event>
<event>
 4    1  0.8988950E+003  0.2641547E+02  0.7546771E-02  0.1453570E+00
          2   -1    0    0  501    0  0.00000000000E+00  0.00000000000E+00  0.95203020783E+03  0.95203020783E+03  0.00000000000E+00 0.  1.
          2   -1    0    0  502    0 -0.00000000000E+00 -0.00000000000E+00 -0.62515162850E+01  0.62515162850E+01  0.00000000000E+00 0. -1.
          2    1    1    2  501    0  0.13059902980E+02 -0.22961178814E+02  0.22711388531E+02  0.34836532080E+02  0.00000000000E+00 0. -1.
          2    1    1    2  502    0 -0.13059902980E+02  0.22961178814E+02  0.92306730302E+03  0.92344519204E+03  0.00000000000E+00 0.  1.
</event>
<event>
 4    1  0.8988950E+003  0.4373388E+02  0.7546771E-02  0.1327893E+00
          2   -1    0    0  502    0  0.00000000000E+00  0.00000000000E+00  0.36621767022E+01  0.36621767022E+01  0.00000000000E+00 0.  1.
          2   -1    0    0  501    0 -0.00000000000E+00 -0.00000000000E+00 -0.10972632760E+04  0.10972632760E+04  0.00000000000E+00 0.  1.
          2    1    1    2  501    0  0.41585417887E+02 -0.13539028571E+02 -0.14832366791E+03  0.15463687380E+03  0.00000000000E+00 0.  1.
          2    1    1    2  502    0 -0.41585417887E+02  0.13539028571E+02 -0.94527743135E+03  0.94628857887E+03  0.00000000000E+00 0.  1.
</event>
<event>
 4    1  0.8988950E+003  0.5897299E+02  0.7546771E-02  0.1263363E+00
          2   -1    0    0  501    0  0.00000000000E+00  0.00000000000E+00  0.12759278050E+03  0.12759278050E+03  0.00000000000E+00 0. -1.
          2   -1    0    0  502    0 -0.00000000000E+00 -0.00000000000E+00 -0.11569220786E+04  0.11569220786E+04  0.00000000000E+00 0. -1.
          2    1    1    2  501    0 -0.31497684267E+02 -0.49856884946E+02 -0.11493111777E+04  0.11508231821E+04  0.00000000000E+00 0. -1.
          2    1    1    2  502    0  0.31497684267E+02  0.49856884946E+02  0.11998187960E+03  0.13369167709E+03  0.00000000000E+00 0. -1.
</event>
<event>
 4    1  0.8988950E+003  0.2375036E+02  0.7546771E-02  0.1483285E+00
          2   -1    0    0  501    0  0.00000000000E+00  0.00000000000E+00  0.42678807457E+01  0.42678807457E+01  0.00000000000E+00 0. -1.
          2   -1    0    0  502    0 -0.00000000000E+00 -0.00000000000E+00 -0.14034275778E+03  0.14034275778E+03  0.00000000000E+00 0.  1.
          2    1    1    2  501    0  0.22343399536E+02  0.80530866164E+01 -0.85487520692E+02  0.88725396032E+02  0.00000000000E+00 0.  1.
          2    1    1    2  502    0 -0.22343399536E+02 -0.80530866164E+01 -0.50587356339E+02  0.55885242491E+02  0.00000000000E+00 0. -1.
</event>
<event>
 4    1  0.8988950E+003  0.4523536E+02  0.7546771E-02  0.1320267E+00
          2   -1    0    0  501    0  0.00000000000E+00  0.00000000000E+00  0.32317145850E+03  0.32317145850E+03  0.00000000000E+00 0. -1.
          2   -1    0    0  502    0 -0.00000000000E+00 -0.00000000000E+00 -0.52237397622E+03  0.52237397622E+03  0.00000000000E+00 0.  1.
          2    1    1    2  501    0 -0.44736038445E+02 -0.67026017377E+01 -0.51980393182E+03  0.52176849803E+03  0.00000000000E+00 0.  1.
          2    1    1    2  502    0  0.44736038445E+02  0.67026017377E+01  0.32060141410E+03  0.32377693669E+03  0.00000000000E+00 0. -1.
</event>
<event>
 4    1  0.8988950E+003  0.2127633E+02  0.7546771E-02  0.1515356E+00
          2   -1    0    0  501    0  0.00000000000E+00  0.00000000000E+00  0.80773557326E+03  0.80773557326E+03  0.00000000000E+00 0.  1.
          2   -1    0    0  502    0 -0.00000000000E+00 -0.00000000000E+00 -0.58015086305E+01  0.58015086305E+01  0.00000000000E+00 0.  1.
          2    1    1    2  501    0 -0.18545732514E+00  0.21275522289E+02  0.14344580747E+02  0.25660265780E+02  0.00000000000E+00 0.  1.
          2    1    1    2  502    0  0.18545732514E+00 -0.21275522289E+02  0.78758948388E+03  0.78787681611E+03  0.00000000000E+00 0.  1.
</event>
<event>
 4    1  0.8988950E+003  0.2526957E+02  0.7546771E-02  0.1465810E+00
          2   -1    0    0  502    0  0.00000000000E+00  0.00000000000E+00  0.70686342131E+02  0.70686342131E+02  0.00000000000E+00 0. -1.
          2   -1    0    0  501    0 -0.00000000000E+00 -0.00000000000E+00 -0.12256041345E+02  0.12256041345E+02  0.00000000000E+00 0. -1.
          2    1    1    2  501    0 -0.21889857380E+02 -0.12624795877E+02  0.50480116398E+02  0.56451691547E+02  0.00000000000E+00 0. -1.
          2    1    1    2  502    0  0.21889857380E+02  0.12624795877E+02  0.79501843885E+01  0.26490691929E+02  0.00000000000E+00 0. -1.
</event>
<event>
 4    1  0.1799940E+004  0.2400773E+02  0.7546771E-02  0.1480217E+00
          2   -1    0    0  501    0  0.00000000000E+00  0.00000000000E+00  0.93202131431E+03  0.93202131431E+03  0.00000000000E+00 0. -1.
          2   -1    0    0  502    0 -0.00000000000E+00 -0.00000000000E+00 -0.63163275273E+03  0.63163275273E+03  0.00000000000E+00 0.  1.
          2    1    1    2  501    0  0.13098790700E+02  0.20119463882E+02 -0.63124992907E+03  0.63170629575E+03  0.00000000000E+00 0.  1.
          2    1    1    2  502    0 -0.13098790700E+02 -0.20119463882E+02  0.93163849065E+03  0.93194777129E+03  0.00000000000E+00 0. -1.
</event>
<event>
 4    1  0.8988950E+003  0.2379954E+02  0.7546771E-02  0.1482695E+00
          2   -1    0    0  501    0  0.00000000000E+00  0.00000000000E+00  0.53042420788E+03  0.53042420788E+03  0.00000000000E+00 0. -1.
          2   -1    0    0  502    0 -0.00000000000E+00 -0.00000000000E+00 -0.13382290017E+02  0.13382290017E+02  0.00000000000E+00 0.  1.
          2    1    1    2  501    0 -0.99872152784E+01  0.21602632256E+02 -0.23083290362E+01  0.23911222728E+02  0.00000000000E+00 0.  1.
          2    1    1    2  502    0  0.99872152784E+01 -0.21602632256E+02  0.51935024690E+03  0.51989527517E+03  0.00000000000E+00 0. -1.
</event>
<event>
 4    1  0.8988950E+003  0.2530613E+02  0.7546771E-02  0.1465408E+00
          2   -1    0    0  501    0  0.00000000000E+00  0.00000000000E+00  0.10994037942E+02  0.10994037942E+02  0.00000000000E+00 0. -1.
          2   -1    0    0  502    0 -0.00000000000E+00 -0.00000000000E+00 -0.12825369055E+03  0.12825369055E+03  0.00000000000E+00 0. -1.
          2    1    1    2  501    0 -0.12052123005E+02  0.22251886483E+02 -0.11006786335E+03  0.11293951773E+03  0.00000000000E+00 0. -1.
          2    1    1    2  502    0  0.12052123005E+02 -0.22251886483E+02 -0.71917892547E+01  0.26308210765E+02  0.00000000000E+00 0. -1.
</event>
<event>
 4    1  0.8988950E+003  0.2121142E+02  0.7546771E-02  0.1516268E+00
          2   -1    0    0  501    0  0.00000000000E+00  0.00000000000E+00  0.38457087914E+02  0.38457087914E+02  0.00000000000E+00 0. -1.
          2   -1    0    0  502    0 -0.00000000000E+00 -0.00000000000E+00 -0.51587621553E+02  0.51587621553E+02  0.00000000000E+00 0. -1.
          2    1    1    2  501    0 -0.20548908662E+02 -0.52598980058E+01 -0.46154572565E+02  0.50795361431E+02  0.00000000000E+00 0. -1.
          2    1    1    2  502    0  0.20548908662E+02  0.52598980058E+01  0.33024038926E+02  0.39249348035E+02  0.00000000000E+00 0. -1.
</event>
<event>
 4    1  0.8988950E+003  0.2565213E+02  0.7546771E-02  0.1461639E+00
          2   -1    0    0  501    0  0.00000000000E+00  0.00000000000E+00  0.45136092728E+03  0.45136092728E+03  0.00000000000E+00 0.  1.
          2   -1    0    0  502    0 -0.00000000000E+00 -0.00000000000E+00 -0.28401138149E+01  0.28401138149E+01  0.00000000000E+00 0.  1.
          2    1    1    2  501    0 -0.24072018078E+02  0.88639589751E+01  0.65829319141E+02  0.70650768443E+02  0.00000000000E+00 0.  1.
          2    1    1    2  502    0  0.24072018078E+02 -0.88639589751E+01  0.38269149433E+03  0.38355027266E+03  0.00000000000E+00 0.  1.
</event>
<event>
 4    1  0.8988950E+003  0.3086919E+02  0.7546771E-02  0.1412190E+00
          2   -1    0    0  502    0  0.00000000000E+00  0.00000000000E+00  0.12197487401E+04  0.12197487401E+04  0.00000000000E+00 0. -1.
          2   -1    0    0  501    0 -0.00000000000E+00 -0.00000000000E+00 -0.12864097334E+01  0.12864097334E+01  0.00000000000E+00 0.  1.
          2    1    1    2  501    0 -0.26772422288E+02 -0.15366986300E+02  0.99181848421E+03  0.99229875163E+03  0.00000000000E+00 0. -1.
          2    1    1    2  502    0  0.26772422288E+02  0.15366986300E+02  0.22664384617E+03  0.22873639822E+03  0.00000000000E+00 0.  1.
</event>
<event>
 4    1  0.8988950E+003  0.2628421E+02  0.7546771E-02  0.1454934E+00
          2   -1    0    0  501    0  0.00000000000E+00  0.00000000000E+00  0.62363329023E+01  0.62363329023E+01  0.00000000000E+00 0.  1.
          2   -1    0    0  502    0 -0.00000000000E+00 -0.00000000000E+00 -0.86434624640E+03  0.86434624640E+03  0.00000000000E+00 0. -1.
          2    1    1    2  501    0  0.10376050545E+02  0.24149472648E+02 -0.83549537527E+03  0.83590871604E+03  0.00000000000E+00 0. -1.
          2    1    1    2  502    0 -0.10376050545E+02 -0.24149472648E+02 -0.22614538219E+02  0.34673863254E+02  0.00000000000E+00 0.  1.
</event>
<event>
 4    1  0.8988950E+003  0.3089278E+02  0.7546771E-02  0.1411993E+00
          2   -1    0    0  502    0  0.00000000000E+00  0.00000000000E+00  0.10693567664E+03  0.10693567664E+03  0.00000000000E+00 0. -1.
          2   -1    0    0  501    0 -0.00000000000E+00 -0.00000000000E+00 -0.32754217635E+03  0.32754217635E+03  0.00000000000E+00 0. -1.
          2    1    1    2  501    0  0.23447842115E+02 -0.20113740683E+02  0.10395564535E+03  0.10844879006E+03  0.00000000000E+00 0. -1.
          2    1    1    2  502    0 -0.23447842115E+02  0.20113740683E+02 -0.32456214507E+03  0.32602906293E+03  0.00000000000E+00 0. -1.
</event>
<event>
 4    1  0.8988950E+003  0.2303972E+02  0.7546771E-02  0.1492000E+00
          2   -1    0    0  502    0  0.00000000000E+00  0.00000000000E+00  0.30348124076E+03  0.30348124076E+03  0.00000000000E+00 0. -1.
          2   -1    0    0  501    0 -0.00000000000E+00 -0.00000000000E+00 -0.66684115873E+01  0.66684115873E+01  0.00000000000E+00 0.  1.
          2    1    1    2  501    0 -0.22831567778E+02  0.30900407170E+01  0.28159924393E+03  0.28254019717E+03  0.00000000000E+00 0. -1.
          2    1    1    2  502    0  0.22831567778E+02 -0.30900407170E+01  0.15213585242E+02  0.27609455170E+02  0.00000000000E+00 0.  1.
</event>
<event>
 4    1  0.8988950E+003  0.4065720E+02  0.7546771E-02  0.1344677E+00
          2   -1    0    0  502    0  0.00000000000E+00  0.00000000000E+00  0.14955168396E+04  0.14955168396E+04  0.00000000000E+00 0. -1.
          2   -1    0    0  501    0 -0.00000000000E+00 -0.00000000000E+00 -0.36112263621E+02  0.36112263621E+02  0.00000000000E+00 0.  1.
          2    1    1    2  501    0  0.14981645208E+02 -0.37796273376E+02  0.14837058978E+04  0.14842628471E+04  0.00000000000E+00 0. -1.
          2    1    1    2  502    0 -0.14981645208E+02  0.37796273376E+02 -0.24301321869E+02  0.47366256120E+02  0.00000000000E+00 0.  1.
</event>
<event>
 4    1  0.8988950E+003  0.2086502E+02  0.7546771E-02  0.1521201E+00
          2   -1    0    0  501    0  0.00000000000E+00  0.00000000000E+00  0.15458947108E+03  0.15458947108E+03  0.00000000000E+00 0. -1.
          2   -1    0    0  502    0 -0.00000000000E+00 -0.00000000000E+00 -0.21032387893E+02  0.21032387893E+02  0.00000000000E+00 0. -1.
          2    1    1    2  501    0 -0.20780332694E+02  0.18779462791E+01 -0.14942424282E+02  0.25663689379E+02  0.00000000000E+00 0. -1.
          2    1    1    2  502    0  0.20780332694E+02 -0.18779462791E+01  0.14849950747E+03  0.14995816959E+03  0.00000000000E+00 0. -1.
</event>
<event>
 4    1  0.8988950E+003  0.4026614E+02  0.7546771E-02  0.1346933E+00
          2   -1    0    0  502    0  0.00000000000E+00  0.00000000000E+00  0.15314703181E+01  0.15314703181E+01  0.00000000000E+00 0. -1.
          2   -1    0    0  501    0 -0.00000000000E+00 -0.00000000000E+00 -0.11589361590E+04  0.11589361590E+04  0.00000000000E+00 0. -1.
          2    1    1    2  501    0  0.19205376677E+02  0.35390899622E+02 -0.40805754251E+03  0.41003941307E+03  0.00000000000E+00 0. -1.
          2    1    1    2  502    0 -0.19205376677E+02 -0.35390899622E+02 -0.74934714618E+03  0.75042821626E+03  0.00000000000E+00 0. -1.
</event>
<event>
 4    1  0.8988950E+003  0.3033050E+02  0.7546771E-02  0.1416746E+00
          2   -1    0    0  502    0  0.00000000000E+00  0.00000000000E+00  0.25980798334E+03  0.25980798334E+03  0.00000000000E+00 0.  1.
          2   -1    0    0  501    0 -0.00000000000E+00 -0.00000000000E+00 -0.37526257797E+03  0.37526257797E+03  0.00000000000E+00 0.  1.
          2    1    1    2  501    0 -0.88549779212E+01 -0.29009114091E+02  0.25830635818E+03  0.26008097587E+03  0.00000000000E+00 0.  1.
          2    1    1    2  502    0  0.88549779212E+01  0.29009114091E+02 -0.37376095281E+03  0.37498958543E+03  0.00000000000E+00 0.  1.
</event>
<event>
 4    1  0.8988950E+003  0.2312890E+02  0.7546771E-02  0.1490886E+00
          2   -1    0    0  501    0  0.00000000000E+00  0.00000000000E+00  0.45564157214E+03  0.45564157214E+03  0.00000000000E+00 0.  1.
          2   -1    0    0  502    0 -0.00000000000E+00 -0.00000000000E+00 -0.24711940158E+01  0.24711940158E+01  0.00000000000E+00 0.  1.
          2    1    1    2  501    0  0.14651880881E+02  0.17896049194E+02  0.60632994171E+02  0.64894577372E+02  0.00000000000E+00 0.  1.
          2    1    1    2  502    0 -0.14651880881E+02 -0.17896049194E+02  0.39253738395E+03  0.39321818879E+03  0.00000000000E+00 0.  1.
</event>
<event>
 4    1  0.8988950E+003  0.5370546E+02  0.7546771E-02  0.1282859E+00
          2   -1    0    0  501    0  0.00000000000E+00  0.00000000000E+00  0.11500334441E+03  0.11500334441E+03  0.00000000000E+00 0.  1.
          2   -1    0    0  502    0 -0.00000000000E+00 -0.00000000000E+00 -0.44970952225E+03  0.44970952225E+03  0.00000000000E+00 0.  1.
          2    1    1    2  501    0 -0.53271463716E+01 -0.53440606180E+02 -0.44172318115E+03  0.44497600569E+03  0.00000000000E+00 0.  1.
          2    1    1    2  502    0  0.53271463716E+01  0.53440606180E+02  0.10701700330E+03  0.11973686096E+03  0.00000000000E+00 0.  1.
</event>
<event>
 4    1  0.8988950E+003  0.2317464E+02  0.7546771E-02  0.1490317E+00
          2   -1    0    0  501    0  0.00000000000E+00  0.00000000000E+00  0.10031752204E+04  0.10031752204E+04  0.00000000000E+00 0. -1.
          2   -1    0    0  502    0 -0.00000000000E+00 -0.00000000000E+00 -0.56348336439E+00  0.56348336439E+00  0.00000000000E+00 0. -1.
          2    1    1    2  501    0 -0.16498157727E+02  0.16274967099E+02  0.38919339766E+03  0.38988275743E+03  0.00000000000E+00 0. -1.
          2    1    1    2  502    0  0.16498157727E+02 -0.16274967099E+02  0.61341833938E+03  0.61385594633E+03  0.00000000000E+00 0. -1.
</event>
<event>
 4    1  0.8988950E+003  0.2975920E+02  0.7546771E-02  0.1421701E+00
          2   -1    0    0  501    0  0.00000000000E+00  0.00000000000E+00  0.17400973161E+02  0.17400973161E+02  0.00000000000E+00 0. -1.
          2   -1    0    0  502    0 -0.00000000000E+00 -0.00000000000E+00 -0.87699239521E+03  0.87699239521E+03  0.00000000000E+00 0. -1.
          2    1    1    2  501    0  0.23819901688E+01  0.29663717286E+02 -0.86382244088E+03  0.86433490001E+03  0.00000000000E+00 0. -1.
          2    1    1    2  502    0 -0.23819901688E+01 -0.29663717286E+02  0.42310188264E+01  0.30058468369E+02  0.00000000000E+00 0. -1.
</event>
<event>
 4    1  0.8988950E+003  0.2644387E+02  0.7546771E-02  0.1453276E+00
          2   -1    0    0  501    0  0.00000000000E+00  0.00000000000E+00  0.61283593336E+02  0.61283593336E+02  0.00000000000E+00 0.  1.
          2   -1    0    0  502    0 -0.00000000000E+00 -0.00000000000E+00 -0.15991079963E+03  0.15991079963E+03  0.00000000000E+00 0. -1.
          2    1    1    2  501    0 -0.25716298884E+02 -0.61603802222E+01 -0.15589191601E+03  0.15811884071E+03  0.00000000000E+00 0. -1.
          2    1    1    2  502    0  0.25716298884E+02  0.61603802222E+01  0.57264709715E+02  0.63075552249E+02  0.00000000000E+00 0.  1.
</event>
<event>
 4    1  0.8988950E+003  0.2384754E+02  0.7546771E-02  0.1482121E+00
          2   -1    0    0  502    0  0.00000000000E+00  0.00000000000E+00  0.15657046848E+01  0.15657046848E+01  0.00000000000E+00 0.  1.
          2   -1    0    0  501    0 -0.00000000000E+00 -0.00000000000E+00 -0.10677695777E+04  0.10677695777E+04  0.00000000000E+00 0. -1.
          2    1    1    2  501    0 -0.23827831945E+02 -0.96920830970E+00 -0.98792763247E+02  0.10163028589E+03  0.00000000000E+00 0.  1.
          2    1    1    2  502    0  0.23827831945E+02  0.96920830970E+00 -0.96741110981E+03  0.96770499654E+03  0.00000000000E+00 0. -1.
</event>
<event>
 4    1  0.8988950E+003  0.2867000E+02  0.7546771E-02  0.1431517E+00
          2   -1    0    0  502    0  0.00000000000E+00  0.00000000000E+00  0.11317023487E+03  0.11317023487E+03  0.00000000000E+00 0. -1.
          2   -1    0    0  501    0 -0.00000000000E+00 -0.00000000000E+00 -0.92391190456E+01  0.92391190456E+01  0.00000000000E+00 0. -1.
          2    1    1    2  501    0  0.28658662698E+02  0.80612302323E+00  0.80270541145E+02  0.85236896691E+02  0.00000000000E+00 0. -1.
          2    1    1    2  502    0 -0.28658662698E+02 -0.80612302323E+00  0.23660574681E+02  0.37172457226E+02  0.00000000000E+00 0. -1.
</event>
<event>
 4    1  0.8988950E+003  0.2395895E+02  0.7546771E-02  0.1480795E+00
          2   -1    0    0  502    0  0.00000000000E+00  0.00000000000E+00  0.29055772374E+02  0.29055772374E+02  0.00000000000E+00 0.  1.
          2   -1    0    0  501    0 -0.00000000000E+00 -0.00000000000E+00 -0.82823797356E+02  0.82823797356E+02  0.00000000000E+00 0.  1.
          2    1    1    2  501    0 -0.20871708401E+02  0.11764477396E+02  0.21930215610E+02  0.32480232398E+02  0.00000000000E+00 0.  1.
          2    1    1    2  502    0  0.20871708401E+02 -0.11764477396E+02 -0.75698240592E+02  0.79399337332E+02  0.00000000000E+00 0.  1.
</event>
<event>
 4    1  0.8988950E+003  0.2166033E+02  0.7546771E-02  0.1510042E+00
          2   -1    0    0  502    0  0.00000000000E+00  0.00000000000E+00  0.24765903676E+02  0.24765903676E+02  0.00000000000E+00 0.  1.
          2   -1    0    0  501    0 -0.00000000000E+00 -0.00000000000E+00 -0.51800293263E+03  0.51800293263E+03  0.00000000000E+00 0.  1.
          2    1    1    2  501    0 -0.54887478297E+01 -0.20953360885E+02  0.19757206741E+02  0.29317518710E+02  0.00000000000E+00 0.  1.
          2    1    1    2  502    0  0.54887478297E+01  0.20953360885E+02 -0.51299423569E+03  0.51345131759E+03  0.00000000000E+00 0.  1.
</event>
<event>
 4    1  0.8988950E+003  0.6731544E+02  0.7546771E-02  0.1236817E+00
          2   -1    0    0  501    0  0.00000000000E+00  0.00000000000E+00  0.91252995484E+01  0.91252995484E+01  0.00000000000E+00 0. -1.
          2   -1    0    0  502    0 -0.00000000000E+00 -0.00000000000E+00 -0.53193715643E+03  0.53193715643E+03  0.00000000000E+00 0. -1.
          2    1    1    2  501    0  0.22358377278E+02  0.63493869638E+02 -0.19165100746E+03  0.20312921301E+03  0.00000000000E+00 0. -1.
          2    1    1    2  502    0 -0.22358377278E+02 -0.63493869638E+02 -0.33116084942E+03  0.33793324297E+03  0.00000000000E+00 0. -1.
</event>
<event>
 4    1  0.8988950E+003  0.2940226E+02  0.7546771E-02  0.1424863E+00
          2   -1    0    0  501    0  0.00000000000E+00  0.00000000000E+00  0.18470277427E+04  0.18470277427E+04  0.00000000000E+00 0. -1.
          2   -1    0    0  502    0 -0.00000000000E+00 -0.00000000000E+00 -0.15186620859E+01  0.15186620859E+01  0.00000000000E+00 0.  1.
          2    1    1    2  501    0 -0.24078326449E+02 -0.16873858237E+02  0.15399250692E+03  0.15677431258E+03  0.00000000000E+00 0.  1.
          2    1    1    2  502    0  0.24078326449E+02  0.16873858237E+02  0.16915165737E+04  0.16917720922E+04  0.00000000000E+00 0. -1.
</event>
<event>
 4    1  0.8988950E+003  0.3904525E+02  0.7546771E-02  0.1354173E+00
          2   -1    0    0  502    0  0.00000000000E+00  0.00000000000E+00  0.34039100579E+03  0.34039100579E+03  0.00000000000E+00 0.  1.
          2   -1    0    0  501    0 -0.00000000000E+00 -0.00000000000E+00 -0.48403643337E+01  0.48403643337E+01  0.00000000000E+00 0.  1.
          2    1    1    2  501    0  0.25212863516E+02 -0.29813468900E+02  0.21495498862E+03  0.21847237479E+03  0.00000000000E+00 0.  1.
          2    1    1    2  502    0 -0.25212863516E+02  0.29813468900E+02  0.12059565284E+03  0.12675899533E+03  0.00000000000E+00 0.  1.
</event>
<event>
 4    1  0.8988950E+003  0.7441649E+02  0.7546771E-02  0.1217439E+00
          2   -1    0    0  502    0  0.00000000000E+00  0.00000000000E+00  0.26779171877E+01  0.26779171877E+01  0.00000000000E+00 0.  1.
          2   -1    0    0  501    0 -0.00000000000E+00 -0.00000000000E+00 -0.26303307699E+04  0.26303307699E+04  0.00000000000E+00 0.  1.
          2    1    1    2  501    0  0.70468409725E+02 -0.23916877503E+02 -0.70508874056E+03  0.70900489834E+03  0.00000000000E+00 0.  1.
          2    1    1    2  502    0 -0.70468409725E+02  0.23916877503E+02 -0.19225641121E+04  0.19240037887E+04  0.00000000000E+00 0.  1.
</event>
<event>
 4    1  0.8988950E+003  0.2177703E+02  0.7546771E-02  0.1508454E+00
          2   -1    0    0  502    0  0.00000000000E+00  0.00000000000E+00  0.12057088744E+03  0.12057088744E+03  0.00000000000E+00 0. -1.
          2   -1    0    0  501    0 -0.00000000000E+00 -0.00000000000E+00 -0.12299990813E+02  0.12299990813E+02  0.00000000000E+00 0.  1.
          2    1    1    2  501    0 -0.21615185261E+02 -0.26500391887E+01  0.10892841573E+03  0.11108392635E+03  0.00000000000E+00 0. -1.
          2    1    1    2  502    0  0.21615185261E+02  0.26500391887E+01 -0.65751910067E+00  0.21786951897E+02  0.00000000000E+00 0.  1.
</event>
<event>
 4    1  0.8988950E+003  0.4557237E+02  0.7546771E-02  0.1318602E+00
          2   -1    0    0  501    0  0.00000000000E+00  0.00000000000E+00  0.66154415062E+03  0.66154415062E+03  0.00000000000E+00 0. -1.
          2   -1    0    0  502    0 -0.00000000000E+00 -0.00000000000E+00 -0.41585988214E+01  0.41585988214E+01  0.00000000000E+00 0. -1.
          2    1    1    2  501    0 -0.43100496002E+02 -0.14804999057E+02  0.16391075452E+03  0.17012811702E+03  0.00000000000E+00 0. -1.
          2    1    1    2  502    0  0.43100496002E+02  0.14804999057E+02  0.49347479728E+03  0.49557463242E+03  0.00000000000E+00 0. -1.
</event>
<event>
 4    1  0.8988950E+003  0.2098328E+02  0.7546771E-02  0.1519504E+00
          2   -1    0    0  501    0  0.00000000000E+00  0.00000000000E+00  0.23449479159E+01  0.23449479159E+01  0.00000000000E+00 0. -1.
          2   -1    0    0  502    0 -0.00000000000E+00 -0.00000000000E+00 -0.38424905252E+03  0.38424905252E+03  0.00000000000E+00 0.  1.
          2    1    1    2  501    0  0.11176480014E+02  0.17759066778E+02 -0.32917585295E+03  0.32984396360E+03  0.00000000000E+00 0.  1.
          2    1    1    2  502    0 -0.11176480014E+02 -0.17759066778E+02 -0.52728251656E+02  0.56750036838E+02  0.00000000000E+00 0. -1.
</event>
<event>
 4    1  0.8988950E+003  0.2437259E+02  0.7546771E-02  0.1475946E+00
          2   -1    0    0  502    0  0.00000000000E+00  0.00000000000E+00  0.84320195433E+00  0.84320195433E+00  0.00000000000E+00 0.  1.
          2   -1    0    0  501    0 -0.00000000000E+00 -0.00000000000E+00 -0.72675420215E+03  0.72675420215E+03  0.00000000000E+00 0.  1.
          2    1    1    2  501    0 -0.23654205175E+02 -0.58738070462E+01 -0.42663810528E+03  0.42733370556E+03  0.00000000000E+00 0.  1.
          2    1    1    2  502    0  0.23654205175E+02  0.58738070462E+01 -0.29927289492E+03  0.30026369854E+03  0.00000000000E+00 0.  1.
</event>
<event>
 4    1  0.8988950E+003  0.2208044E+02  0.7546771E-02  0.1504380E+00
          2   -1    0    0  502    0  0.00000000000E+00  0.00000000000E+00  0.92975048419E+02  0.92975048419E+02  0.00000000000E+00 0.  1.
          2   -1    0    0  501    0 -0.00000000000E+00 -0.00000000000E+00 -0.53818239508E+01  0.53818239508E+01  0.00000000000E+00 0.  1.
          2    1    1    2  501    0 -0.14006189625E+02 -0.17069636332E+02  0.51671272037E+02  0.56191335509E+02  0.00000000000E+00 0.  1.
          2    1    1    2  502    0  0.14006189625E+02  0.17069636332E+02  0.35921952431E+02  0.42165536861E+02  0.00000000000E+00 0.  1.
</event>
<event>
 4    1  0.8988950E+003  0.3257657E+02  0.7546771E-02  0.1398451E+00
          2   -1    0    0  502    0  0.00000000000E+00  0.00000000000E+00  0.97338633502E+01  0.97338633502E+01  0.00000000000E+00 0.  1.
          2   -1    0    0  501    0 -0.00000000000E+00 -0.00000000000E+00 -0.11209468738E+03  0.11209468738E+03  0.00000000000E+00 0.  1.
          2    1    1    2  501    0 -0.31990159486E+02 -0.61532790358E+01 -0.61260936407E+02  0.69383971321E+02  0.00000000000E+00 0.  1.
          2    1    1    2  502    0  0.31990159486E+02  0.61532790358E+01 -0.41099887625E+02  0.52444579412E+02  0.00000000000E+00 0.  1.
</event>
<event>
 4    1  0.8988950E+003  0.3834826E+02  0.7546771E-02  0.1358447E+00
          2   -1    0    0  502    0  0.00000000000E+00  0.00000000000E+00  0.19105356953E+04  0.19105356953E+04  0.00000000000E+00 0.  1.
          2   -1    0    0  501    0 -0.00000000000E+00 -0.00000000000E+00 -0.26686818231E+03  0.26686818231E+03  0.00000000000E+00 0.  1.
          2    1    1    2  501    0 -0.15171143790E+01  0.38318238114E+02  0.19089644939E+04  0.19093496349E+04  0.00000000000E+00 0.  1.
          2    1    1    2  502    0  0.15171143790E+01 -0.38318238114E+02 -0.26529698090E+03  0.26805424280E+03  0.00000000000E+00 0.  1.
</event>
<event>
 4    1  0.8988950E+003  0.3238553E+02  0.7546771E-02  0.1399938E+00
          2   -1    0    0  502    0  0.00000000000E+00  0.00000000000E+00  0.61964325705E+02  0.61964325705E+02  0.00000000000E+00 0. -1.
          2   -1    0    0  501    0 -0.00000000000E+00 -0.00000000000E+00 -0.28695899566E+03  0.28695899566E+03  0.00000000000E+00 0.  1.
          2    1    1    2  501    0 -0.17130711829E+01  0.32340193029E+02  0.56740830534E+02  0.65332568813E+02  0.00000000000E+00 0. -1.
          2    1    1    2  502    0  0.17130711829E+01 -0.32340193029E+02 -0.28173550049E+03  0.28359075256E+03  0.00000000000E+00 0.  1.
</event>
<event>
 4    1  0.8988950E+003  0.2039760E+02  0.7546771E-02  0.1528042E+00
          2   -1    0    0  502    0  0.00000000000E+00  0.00000000000E+00  0.28919640431E+02  0.28919640431E+02  0.00000000000E+00 0. -1.
          2   -1    0    0  501    0 -0.00000000000E+00 -0.00000000000E+00 -0.22529188156E+03  0.22529188156E+03  0.00000000000E+00 0. -1.
          2    1    1    2  501    0  0.13453844951E+02  0.15331540477E+02  0.24794293397E+02  0.32106371057E+02  0.00000000000E+00 0. -1.
          2    1    1    2  502    0 -0.13453844951E+02 -0.15331540477E+02 -0.22116653453E+03  0.22210515094E+03  0.00000000000E+00 0. -1.
</event>
<event>
 4    1  0.8988950E+003  0.2566404E+02  0.7546771E-02  0.1461510E+00
          2   -1    0    0  501    0  0.00000000000E+00  0.00000000000E+00  0.65800076551E+01  0.65800076551E+01  0.00000000000E+00 0.  1.
          2   -1    0    0  502    0 -0.00000000000E+00 -0.00000000000E+00 -0.65401837969E+03  0.65401837969E+03  0.00000000000E+00 0.  1.
          2    1    1    2  501    0 -0.91252054571E+01 -0.23986945994E+02 -0.62769313593E+03  0.62821757047E+03  0.00000000000E+00 0.  1.
          2    1    1    2  502    0  0.91252054571E+01  0.23986945994E+02 -0.19745236106E+02  0.32380816877E+02  0.00000000000E+00 0.  1.
</event>
<event>
 4    1  0.8988950E+003  0.2470036E+02  0.7546771E-02  0.1472183E+00
          2   -1    0    0  501    0  0.00000000000E+00  0.00000000000E+00  0.19473148652E+02  0.19473148652E+02  0.00000000000E+00 0.  1.
          2   -1    0    0  502    0 -0.00000000000E+00 -0.00000000000E+00 -0.30070195124E+03  0.30070195124E+03  0.00000000000E+00 0.  1.
          2    1    1    2  501    0 -0.23302524901E+02  0.81914603103E+01 -0.29213268555E+03  0.29317505633E+03  0.00000000000E+00 0.  1.
          2    1    1    2  502    0  0.23302524901E+02 -0.81914603103E+01  0.10903882959E+02  0.27000043562E+02  0.00000000000E+00 0.  1.
</event>
<event>
 4    1  0.8988950E+003  0.2223066E+02  0.7546771E-02  0.1502391E+00
          2   -1    0    0  502    0  0.00000000000E+00  0.00000000000E+00  0.50841143696E+03  0.50841143696E+03  0.00000000000E+00 0. -1.
          2   -1    0    0  501    0 -0.00000000000E+00 -0.00000000000E+00 -0.23330603045E+02  0.23330603045E+02  0.00000000000E+00 0. -1.
          2    1    1    2  501    0 -0.99147830675E+01  0.19897220810E+02  0.50281385441E+03  0.50330505115E+03  0.00000000000E+00 0. -1.
          2    1    1    2  502    0  0.99147830675E+01 -0.19897220810E+02 -0.17733020499E+02  0.28436988857E+02  0.00000000000E+00 0. -1.
</event>
<event>
 4    1  0.8988950E+003  0.2220103E+02  0.7546771E-02  0.1502782E+00
          2   -1    0    0  502    0  0.00000000000E+00  0.00000000000E+00  0.14062170528E+03  0.14062170528E+03  0.00000000000E+00 0.  1.
          2   -1    0    0  501    0 -0.00000000000E+00 -0.00000000000E+00 -0.16883143862E+02  0.16883143862E+02  0.00000000000E+00 0.  1.
          2    1    1    2  501    0  0.55924262939E+01 -0.21485120940E+02  0.13197193220E+03  0.13382629242E+03  0.00000000000E+00 0.  1.
          2    1    1    2  502    0 -0.55924262939E+01  0.21485120940E+02 -0.82333707893E+01  0.23678556717E+02  0.00000000000E+00 0.  1.
</event>
<event>
 4    1  0.8988950E+003  0.2114885E+02  0.7546771E-02  0.1517150E+00
          2   -1    0    0  501    0  0.00000000000E+00  0.00000000000E+00  0.13655033357E+03  0.13655033357E+03  0.00000000000E+00 0.  1.
          2   -1    0    0  502    0 -0.00000000000E+00 -0.00000000000E+00 -0.58847155971E+02  0.58847155971E+02  0.00000000000E+00 0. -1.
          2    1    1    2  501    0  0.21136850155E+02 -0.71226331478E+00 -0.56089197480E+02  0.59943905674E+02  0.00000000000E+00 0. -1.
          2    1    1    2  502    0 -0.21136850155E+02  0.71226331478E+00  0.13379237508E+03  0.13545358387E+03  0.00000000000E+00 0.  1.
</event>
<event>
 4    1  0.8988950E+003  0.2851637E+02  0.7546771E-02  0.1432943E+00
          2   -1    0    0  501    0  0.00000000000E+00  0.00000000000E+00  0.58590417436E+02  0.58590417436E+02  0.00000000000E+00 0.  1.
          2   -1    0    0  502    0 -0.00000000000E+00 -0.00000000000E+00 -0.36343905700E+03  0.36343905700E+03  0.00000000000E+00 0. -1.
          2    1    1    2  501    0 -0.17720509751E+02 -0.22342039591E+02 -0.35937069200E+03  0.36050031549E+03  0.00000000000E+00 0. -1.
          2    1    1    2  502    0  0.17720509751E+02  0.22342039591E+02  0.54522052436E+02  0.61529158948E+02  0.00000000000E+00 0.  1.
</event>
<event>
 4    1  0.8988950E+003  0.2048094E+02  0.7546771E-02  0.1526806E+00
          2   -1    0    0  502    0  0.00000000000E+00  0.00000000000E+00  0.76705575818E+02  0.76705575818E+02  0.00000000000E+00 0. -1.
          2   -1    0    0  501    0 -0.00000000000E+00 -0.00000000000E+00 -0.17267905139E+03  0.17267905139E+03  0.00000000000E+00 0. -1.
          2    1    1    2  501    0 -0.18470720527E+02  0.88488110299E+01  0.74715255763E+02  0.77471532947E+02  0.00000000000E+00 0. -1.
          2    1    1    2  502    0  0.18470720527E+02 -0.88488110299E+01 -0.17068873134E+03  0.17191309426E+03  0.00000000000E+00 0. -1.
</event>
<event>
 4    1  0.8988950E+003  0.3059478E+02  0.7546771E-02  0.1414497E+00
          2   -1    0    0  501    0  0.00000000000E+00  0.00000000000E+00  0.50395535243E+03  0.50395535243E+03  0.00000000000E+00 0. -1.
          2   -1    0    0  502    0 -0.00000000000E+00 -0.00000000000E+00 -0.31592979781E+01  0.31592979781E+01  0.00000000000E+00 0.  1.
          2    1    1    2  501    0 -0.46741990373E+00  0.30591210838E+02  0.87629163315E+02  0.92816544458E+02  0.00000000000E+00 0.  1.
          2    1    1    2  502    0  0.46741990373E+00 -0.30591210838E+02  0.41316689114E+03  0.41429810595E+03  0.00000000000E+00 0. -1.
</event>
<event>
 4    1  0.8988950E+003  0.2012466E+02  0.7546771E-02  0.1532139E+00
          2   -1    0    0  501    0  0.00000000000E+00  0.00000000000E+00  0.27304920539E+00  0.27304920539E+00  0.00000000000E+00 0.  1.
          2   -1    0    0  502    0 -0.00000000000E+00 -0.00000000000E+00 -0.17153838962E+04  0.17153838962E+04  0.00000000000E+00 0. -1.
          2    1    1    2  501    0  0.27478991264E+01  0.19936175701E+02 -0.11731160772E+04  0.11732886826E+04  0.00000000000E+00 0. -1.
          2    1    1    2  502    0 -0.27478991264E+01 -0.19936175701E+02 -0.54199476973E+03  0.54236826278E+03  0.00000000000E+00 0.  1.
</event>
<event>
 4    1  0.8988950E+003  0.4177597E+02  0.7546771E-02  0.1338382E+00
          2   -1    0    0  501    0  0.00000000000E+00  0.00000000000E+00  0.26171879855E+03  0.26171879855E+03  0.00000000000E+00 0. -1.
          2   -1    0    0  502    0 -0.00000000000E+00 -0.00000000000E+00 -0.24306813867E+02  0.24306813867E+02  0.00000000000E+00 0.  1.
          2    1    1    2  501    0  0.40346313113E+02 -0.10835451237E+02 -0.31203813990E+01  0.41892347337E+02  0.00000000000E+00 0.  1.
          2    1    1    2  502    0 -0.40346313113E+02  0.10835451237E+02  0.24053236608E+03  0.24413326508E+03  0.00000000000E+00 0. -1.
</event>
<event>
 4    1  0.8988950E+003  0.2923593E+02  0.7546771E-02  0.1426354E+00
          2   -1    0    0  501    0  0.00000000000E+00  0.00000000000E+00  0.83754417821E+01  0.83754417821E+01  0.00000000000E+00 0. -1.
          2   -1    0    0  502    0 -0.00000000000E+00 -0.00000000000E+00 -0.18148449629E+03  0.18148449629E+03  0.00000000000E+00 0.  1.
          2    1    1    2  501    0  0.23713437050E+02  0.17100071836E+02 -0.14935743505E+03  0.15219192803E+03  0.00000000000E+00 0.  1.
          2    1    1    2  502    0 -0.23713437050E+02 -0.17100071836E+02 -0.23751619460E+02  0.37668010042E+02  0.00000000000E+00 0. -1.
</event>
<event>
 4    1  0.8988950E+003  0.2543926E+02  0.7546771E-02  0.1463949E+00
          2   -1    0    0  501    0  0.00000000000E+00  0.00000000000E+00  0.34139099252E+02  0.34139099252E+02  0.00000000000E+00 0.  1.
          2   -1    0    0  502    0 -0.00000000000E+00 -0.00000000000E+00 -0.19413142157E+03  0.19413142157E+03  0.00000000000E+00 0. -1.
          2    1    1    2  501    0 -0.25433320586E+02 -0.54952537723E+00 -0.18841580027E+03  0.19012540484E+03  0.00000000000E+00 0. -1.
          2    1    1    2  502    0  0.25433320586E+02  0.54952537723E+00  0.28423477954E+02  0.38145115981E+02  0.00000000000E+00 0.  1.
</event>
<event>
 4    1  0.8988950E+003  0.2676153E+02  0.7546771E-02  0.1450018E+00
          2   -1    0    0  502    0  0.00000000000E+00  0.00000000000E+00  0.11822060959E+04  0.11822060959E+04  0.00000000000E+00 0. -1.
          2   -1    0    0  501    0 -0.00000000000E+00 -0.00000000000E+00 -0.65503828545E+00  0.65503828545E+00  0.00000000000E+00 0.  1.
          2    1    1    2  501    0  0.26627974292E+02 -0.26702528871E+01  0.42862203326E+03  0.42945666447E+03  0.00000000000E+00 0.  1.
          2    1    1    2  502    0 -0.26627974292E+02  0.26702528871E+01  0.75292902435E+03  0.75340446971E+03  0.00000000000E+00 0. -1.
</event>
<event>
 4    1  0.8988950E+003  0.2621909E+02  0.7546771E-02  0.1455614E+00
          2   -1    0    0  501    0  0.00000000000E+00  0.00000000000E+00  0.30607779734E+02  0.30607779734E+02  0.00000000000E+00 0. -1.
          2   -1    0    0  502    0 -0.00000000000E+00 -0.00000000000E+00 -0.50197587518E+02  0.50197587518E+02  0.00000000000E+00 0.  1.
          2    1    1    2  501    0  0.25438226641E+02 -0.63511546232E+01 -0.39828389613E+02  0.47683762004E+02  0.00000000000E+00 0.  1.
          2    1    1    2  502    0 -0.25438226641E+02  0.63511546232E+01  0.20238581830E+02  0.33121605248E+02  0.00000000000E+00 0. -1.
</event>
<event>
 4    1  0.8988950E+003  0.2019944E+02  0.7546771E-02  0.1531009E+00
          2   -1    0    0  501    0  0.00000000000E+00  0.00000000000E+00  0.29989411390E+03  0.29989411390E+03  0.00000000000E+00 0. -1.
          2   -1    0    0  502    0 -0.00000000000E+00 -0.00000000000E+00 -0.17762459886E+01  0.17762459886E+01  0.00000000000E+00 0. -1.
          2    1    1    2  501    0 -0.13321597079E+02  0.15183950336E+02  0.76088765648E+02  0.78724313616E+02  0.00000000000E+00 0. -1.
          2    1    1    2  502    0  0.13321597079E+02 -0.15183950336E+02  0.22202910226E+03  0.22294604627E+03  0.00000000000E+00 0. -1.
</event>
<event>
 4    1  0.8988950E+003  0.2819486E+02  0.7546771E-02  0.1435961E+00
          2   -1    0    0  502    0  0.00000000000E+00  0.00000000000E+00  0.96977236103E+03  0.96977236103E+03  0.00000000000E+00 0.  1.
          2   -1    0    0  501    0 -0.00000000000E+00 -0.00000000000E+00 -0.14228033056E+01  0.14228033056E+01  0.00000000000E+00 0. -1.
          2    1    1    2  501    0 -0.22686310484E+02  0.16741600278E+02  0.80032227194E+03  0.80081876154E+03  0.00000000000E+00 0.  1.
          2    1    1    2  502    0  0.22686310484E+02 -0.16741600278E+02  0.16802728579E+03  0.17037640280E+03  0.00000000000E+00 0. -1.
</event>
<event>
 4    1  0.8988950E+003  0.2096147E+02  0.7546771E-02  0.1519816E+00
          2   -1    0    0  501    0  0.00000000000E+00  0.00000000000E+00  0.89440419877E+02  0.89440419877E+02  0.00000000000E+00 0.  1.
          2   -1    0    0  502    0 -0.00000000000E+00 -0.00000000000E+00 -0.33227525739E+03  0.33227525739E+03  0.00000000000E+00 0.  1.
          2    1    1    2  501    0  0.36302278848E+01 -0.20644722116E+02 -0.33071072170E+03  0.33137435711E+03  0.00000000000E+00 0.  1.
          2    1    1    2  502    0 -0.36302278848E+01  0.20644722116E+02  0.87875884185E+02  0.90341320154E+02  0.00000000000E+00 0.  1.
</event>
<event>
 4    1  0.8988950E+003  0.2313938E+02  0.7546771E-02  0.1490755E+00
          2   -1    0    0  501    0  0.00000000000E+00  0.00000000000E+00  0.29017077620E+02  0.29017077620E+02  0.00000000000E+00 0. -1.
          2   -1    0    0  502    0 -0.00000000000E+00 -0.00000000000E+00 -0.34672976562E+02  0.34672976562E+02  0.00000000000E+00 0. -1.
          2    1    1    2  501    0 -0.18799197052E+02  0.13491527055E+02 -0.24609102647E+02  0.33779269458E+02  0.00000000000E+00 0. -1.
          2    1    1    2  502    0  0.18799197052E+02 -0.13491527055E+02  0.18953203705E+02  0.29910784723E+02  0.00000000000E+00 0. -1.
</event>
<event>
 4    1  0.8988950E+003  0.2328128E+02  0.7546771E-02  0.1488996E+00
          2   -1    0    0  501    0  0.00000000000E+00  0.00000000000E+00  0.87975626680E+03  0.87975626680E+03  0.00000000000E+00 0.  1.
          2   -1    0    0  502    0 -0.00000000000E+00 -0.00000000000E+00 -0.66435923011E+00  0.66435923011E+00  0.00000000000E+00 0.  1.
          2    1    1    2  501    0  0.12037259744E+02 -0.19927930427E+02  0.32090137141E+03  0.32174478738E+03  0.00000000000E+00 0.  1.
          2    1    1    2  502    0 -0.12037259744E+02  0.19927930427E+02  0.55819053616E+03  0.55867583865E+03  0.00000000000E+00 0.  1.
</event>
<event>
 4    1  0.8988950E+003  0.2803902E+02  0.7546771E-02  0.1437441E+00
          2   -1    0    0  501    0  0.00000000000E+00  0.00000000000E+00  0.35072498333E+02  0.35072498333E+02  0.00000000000E+00 0.  1.
          2   -1    0    0  502    0 -0.00000000000E+00 -0.00000000000E+00 -0.14205980424E+04  0.14205980424E+04  0.00000000000E+00 0.  1.
          2    1    1    2  501    0 -0.18326879269E+02  0.21220556593E+02 -0.14148328445E+04  0.14151106544E+04  0.00000000000E+00 0.  1.
          2    1    1    2  502    0  0.18326879269E+02 -0.21220556593E+02  0.29307300354E+02  0.40559886340E+02  0.00000000000E+00 0.  1.
</event>
<event>
 4    1  0.8988950E+003  0.3188642E+02  0.7546771E-02  0.1403882E+00
          2   -1    0    0  501    0  0.00000000000E+00  0.00000000000E+00  0.44305722064E+03  0.44305722064E+03  0.00000000000E+00 0. -1.
          2   -1    0    0  502    0 -0.00000000000E+00 -0.00000000000E+00 -0.15010208846E+03  0.15010208846E+03  0.00000000000E+00 0. -1.
          2    1    1    2  501    0  0.24909849406E+02  0.19905855994E+02 -0.14782622699E+03  0.15122611245E+03  0.00000000000E+00 0. -1.
          2    1    1    2  502    0 -0.24909849406E+02 -0.19905855994E+02  0.44078135917E+03  0.44193319664E+03  0.00000000000E+00 0. -1.
</event>
<event>
 4    1  0.8988950E+003  0.3466481E+02  0.7546771E-02  0.1382935E+00
          2   -1    0    0  502    0  0.00000000000E+00  0.00000000000E+00  0.14799034245E+04  0.14799034245E+04  0.00000000000E+00 0. -1.
          2   -1    0    0  501    0 -0.00000000000E+00 -0.00000000000E+00 -0.13269402859E+02  0.13269402859E+02  0.00000000000E+00 0. -1.
          2    1    1    2  501    0  0.33595928827E+02  0.85418305221E+01  0.14567003926E+04  0.14571127901E+04  0.00000000000E+00 0. -1.
          2    1    1    2  502    0 -0.33595928827E+02 -0.85418305221E+01  0.99336290800E+01  0.36060037287E+02  0.00000000000E+00 0. -1.
</event>
<event>
 4    1  0.8988950E+003  0.2557536E+02  0.7546771E-02  0.1462469E+00
          2   -1    0    0  501    0  0.00000000000E+00  0.00000000000E+00  0.65346377637E+03  0.65346377637E+03  0.00000000000E+00 0. -1.
          2   -1    0    0  502    0 -0.00000000000E+00 -0.00000000000E+00 -0.74224427530E+02  0.74224427530E+02  0.00000000000E+00 0. -1.
          2    1    1    2  501    0 -0.25753854137E+01  0.25445361703E+02 -0.71762744457E+02  0.76183925695E+02  0.00000000000E+00 0. -1.
          2    1    1    2  502    0  0.25753854137E+01 -0.25445361703E+02  0.65100209330E+03  0.65150427820E+03  0.00000000000E+00 0. -1.
</event>
<event>
 4    1  0.8988950E+003  0.2059388E+02  0.7546771E-02  0.1525143E+00
          2   -1    0    0  502    0  0.00000000000E+00  0.00000000000E+00  0.25374025587E+03  0.25374025587E+03  0.00000000000E+00 0.  1.
          2   -1    0    0  501    0 -0.00000000000E+00 -0.00000000000E+00 -0.79234188252E+01  0.79234188252E+01  0.00000000000E+00 0. -1.
          2    1    1    2  501    0  0.19577939683E+02 -0.63884321543E+01  0.23912454786E+03  0.24000970226E+03  0.00000000000E+00 0.  1.
          2    1    1    2  502    0 -0.19577939683E+02  0.63884321543E+01  0.66922891768E+01  0.21653972431E+02  0.00000000000E+00 0. -1.
</event>
<event>
 4    1  0.8988950E+003  0.2944715E+02  0.7546771E-02  0.1424462E+00
          2   -1    0    0  501    0  0.00000000000E+00  0.00000000000E+00  0.24001848247E+02  0.24001848247E+02  0.00000000000E+00 0. -1.
          2   -1    0    0  502    0 -0.00000000000E+00 -0.00000000000E+00 -0.45157945162E+03  0.45157945162E+03  0.00000000000E+00 0.  1.
          2    1    1    2  501    0  0.17929495369E+02  0.23359536033E+02 -0.44186917570E+03  0.44284930074E+03  0.00000000000E+00 0.  1.
          2    1    1    2  502    0 -0.17929495369E+02 -0.23359536033E+02  0.14291572323E+02  0.32731999135E+02  0.00000000000E+00 0. -1.
</event>
<event>
 4    1  0.8988950E+003  0.3982607E+02  0.7546771E-02  0.1349508E+00
          2   -1    0    0  501    0  0.00000000000E+00  0.00000000000E+00  0.41938694040E+03  0.41938694040E+03  0.00000000000E+00 0.  1.
          2   -1    0    0  502    0 -0.00000000000E+00 -0.00000000000E+00 -0.20657429164E+02  0.20657429164E+02  0.00000000000E+00 0. -1.
          2    1    1    2  501    0  0.97541366733E+01  0.38613111190E+02  0.50086581635E+00  0.39829215465E+02  0.00000000000E+00 0. -1.
          2    1    1    2  502    0 -0.97541366733E+01 -0.38613111190E+02  0.39822864542E+03  0.40021515410E+03  0.00000000000E+00 0.  1.
</event>
<event>
 4    1  0.8988950E+003  0.2720038E+02  0.7546771E-02  0.1445606E+00
          2   -1    0    0  502    0  0.00000000000E+00  0.00000000000E+00  0.68774617607E+02  0.68774617607E+02  0.00000000000E+00 0.  1.
          2   -1    0    0  501    0 -0.00000000000E+00 -0.00000000000E+00 -0.86549311123E+02  0.86549311123E+02  0.00000000000E+00 0. -1.
          2    1    1    2  501    0 -0.21048817943E+02 -0.17228110081E+02  0.63787976866E+02  0.69345270253E+02  0.00000000000E+00 0.  1.
          2    1    1    2  502    0  0.21048817943E+02  0.17228110081E+02 -0.81562670382E+02  0.85978658477E+02  0.00000000000E+00 0. -1.
</event>
<event>
 4    1  0.8988950E+003  0.3718481E+02  0.7546771E-02  0.1365822E+00
          2   -1    0    0  502    0  0.00000000000E+00  0.00000000000E+00  0.16700609353E+04  0.16700609353E+04  0.00000000000E+00 0. -1.
          2   -1    0    0  501    0 -0.00000000000E+00 -0.00000000000E+00 -0.15925728885E+02  0.15925728885E+02  0.00000000000E+00 0.  1.
          2    1    1    2  501    0 -0.30050205144E+02  0.21901949178E+02  0.16478558990E+04  0.16482753938E+04  0.00000000000E+00 0. -1.
          2    1    1    2  502    0  0.30050205144E+02 -0.21901949178E+02  0.62793074273E+01  0.37711270315E+02  0.00000000000E+00 0.  1.
</event>
<event>
 4    1  0.8988950E+003  0.2014891E+02  0.7546771E-02  0.1531771E+00
          2   -1    0    0  501    0  0.00000000000E+00  0.00000000000E+00  0.12958291901E+02  0.12958291901E+02  0.00000000000E+00 0. -1.
          2   -1    0    0  502    0 -0.00000000000E+00 -0.00000000000E+00 -0.18628772614E+03  0.18628772614E+03  0.00000000000E+00 0. -1.
          2    1    1    2  501    0  0.32007863496E+00 -0.20146367095E+02 -0.17752512100E+03  0.17866490182E+03  0.00000000000E+00 0. -1.
          2    1    1    2  502    0 -0.32007863496E+00  0.20146367095E+02  0.41956867592E+01  0.20581116219E+02  0.00000000000E+00 0. -1.
</event>
<event>
 4    1  0.8988950E+003  0.2432764E+02  0.7546771E-02  0.1476467E+00
          2   -1    0    0  501    0  0.00000000000E+00  0.00000000000E+00  0.75791928736E+01  0.75791928736E+01  0.00000000000E+00 0.  1.
          2   -1    0    0  502    0 -0.00000000000E+00 -0.00000000000E+00 -0.19134091113E+03  0.19134091113E+03  0.00000000000E+00 0.  1.
          2    1    1    2  501    0 -0.13563883137E+02 -0.20195428771E+02 -0.16840032242E+03  0.17014847299E+03  0.00000000000E+00 0.  1.
          2    1    1    2  502    0  0.13563883137E+02  0.20195428771E+02 -0.15361395828E+02  0.28771631007E+02  0.00000000000E+00 0.  1.
</event>
<event>
 4    1  0.8988950E+003  0.2180420E+02  0.7546771E-02  0.1508086E+00
          2   -1    0    0  501    0  0.00000000000E+00  0.00000000000E+00  0.14782148811E+04  0.14782148811E+04  0.00000000000E+00 0. -1.
          2   -1    0    0  502    0 -0.00000000000E+00 -0.00000000000E+00 -0.30617792642E+01  0.30617792642E+01  0.00000000000E+00 0. -1.
          2    1    1    2  501    0  0.21203963620E+02 -0.50808692352E+01  0.36916821160E+02  0.42875109212E+02  0.00000000000E+00 0. -1.
          2    1    1    2  502    0 -0.21203963620E+02  0.50808692352E+01  0.14382362807E+04  0.14384015512E+04  0.00000000000E+00 0. -1.
</event>
<event>
 4    1  0.8988950E+003  0.2223520E+02  0.7546771E-02  0.1502332E+00
          2   -1    0    0  501    0  0.00000000000E+00  0.00000000000E+00  0.49038814028E+03  0.49038814028E+03  0.00000000000E+00 0. -1.
          2   -1    0    0  502    0 -0.00000000000E+00 -0.00000000000E+00 -0.18817342221E+01  0.18817342221E+01  0.00000000000E+00 0. -1.
          2    1    1    2  501    0 -0.21784786730E+02  0.44527893302E+01  0.76551818835E+02  0.79715652369E+02  0.00000000000E+00 0. -1.
          2    1    1    2  502    0  0.21784786730E+02 -0.44527893302E+01  0.41195458723E+03  0.41255422214E+03  0.00000000000E+00 0. -1.
</event>
