<event>
 4    1  0.2939002E+006  0.3097115E+02  0.7546771E-02  0.1411341E+00
         21   -1    0    0  503  501  0.00000000000E+00  0.00000000000E+00  0.30209007878E+03  0.30209007878E+03  0.00000000000E+00 0. -1.
         21   -1    0    0  504  502 -0.00000000000E+00 -0.00000000000E+00 -0.51443648501E+01  0.51443648501E+01  0.00000000000E+00 0. -1.
         21    1    1    2  503  502 -0.30287571237E+02  0.64710874128E+01  0.53432207482E+02  0.61759312983E+02  0.00000000000E+00 0. -1.
         21    1    1    2  504  501  0.30287571237E+02 -0.64710874128E+01  0.24351350644E+03  0.24547513064E+03  0.00000000000E+00 0. -1.
</event>
<event>
 4    1  0.2939002E+006  0.2058882E+02  0.7546771E-02  0.1525217E+00
         21   -1    0    0  503  501  0.00000000000E+00  0.00000000000E+00  0.18244841277E+02  0.18244841277E+02  0.00000000000E+00 0.  1.
         21   -1    0    0  501  502 -0.00000000000E+00 -0.00000000000E+00 -0.34667497615E+02  0.34667497615E+02  0.00000000000E+00 0. -1.
         21    1    1    2  503  504 -0.20151156409E+02 -0.42225998318E+01  0.69821255043E+01  0.21740504376E+02  0.00000000000E+00 0.  1.
         21    1    1    2  504  502  0.20151156409E+02  0.42225998318E+01 -0.23404781842E+02  0.31171834515E+02  0.00000000000E+00 0. -1.
</event>
<event>
 4    1  0.2939002E+006  0.2966547E+02  0.7546771E-02  0.1422526E+00
         21   -1    0    0  503  501  0.00000000000E+00  0.00000000000E+00  0.12354212676E+03  0.12354212676E+03  0.00000000000E+00 0. -1.
         21   -1    0    0  504  502 -0.00000000000E+00 -0.00000000000E+00 -0.11706897337E+03  0.11706897337E+03  0.00000000000E+00 0.  1.
         21    1    1    2  503  502  0.18745615383E+02  0.22992212974E+02 -0.11335136442E+03  0.11716898809E+03  0.00000000000E+00 0.  1.
         21    1    1    2  504  501 -0.18745615383E+02 -0.22992212974E+02  0.11982451782E+03  0.12344211204E+03  0.00000000000E+00 0. -1.
</event>
<event>
 4    1  0.2939002E+006  0.2260706E+02  0.7546771E-02  0.1497492E+00
         21   -1    0    0  502  501  0.00000000000E+00  0.00000000000E+00  0.43003850231E+02  0.43003850231E+02  0.00000000000E+00 0. -1.
         21   -1    0    0  504  502 -0.00000000000E+00 -0.00000000000E+00 -0.26662656657E+02  0.26662656657E+02  0.00000000000E+00 0.  1.
         21    1    1    2  503  501  0.64964034166E+00 -0.22597724802E+02  0.34103580235E+02  0.40916175086E+02  0.00000000000E+00 0. -1.
         21    1    1    2  504  503 -0.64964034166E+00  0.22597724802E+02 -0.17762386661E+02  0.28750331802E+02  0.00000000000E+00 0.  1.
</event>
<event>
 4    1  0.2939002E+006  0.2499579E+02  0.7546771E-02  0.1468851E+00
         21   -1    0    0  502  501  0.00000000000E+00  0.00000000000E+00  0.10328912695E+02  0.10328912695E+02  0.00000000000E+00 0.  1.
         21   -1    0    0  504  502 -0.00000000000E+00 -0.00000000000E+00 -0.20030841396E+03  0.20030841396E+03  0.00000000000E+00 0. -1.
         21    1    1    2  503  501  0.24363061272E+02 -0.55884384903E+01 -0.69986176192E+01  0.25957080882E+02  0.00000000000E+00 0.  1.
         21    1    1    2  504  503 -0.24363061272E+02  0.55884384903E+01 -0.18298088364E+03  0.18468024577E+03  0.00000000000E+00 0. -1.
</event>
<event>
 4    1  0.2939002E+006  0.2257245E+02  0.7546771E-02  0.1497938E+00
         21   -1    0    0  504  501  0.00000000000E+00  0.00000000000E+00  0.47045406099E+03  0.47045406099E+03  0.00000000000E+00 0.  1.
         21   -1    0    0  501  502 -0.00000000000E+00 -0.00000000000E+00 -0.15086295660E+01  0.15086295660E+01  0.00000000000E+00 0.  1.
         21    1    1    2  503  502  0.63393415709E+01  0.21663990102E+02  0.10913346084E+03  0.11144338470E+03  0.00000000000E+00 0.  1.
         21    1    1    2  504  503 -0.63393415709E+01 -0.21663990102E+02  0.35981197058E+03  0.36051930585E+03  0.00000000000E+00 0.  1.
</event>
<event>
 4    1  0.2939002E+006  0.2017705E+02  0.7546771E-02  0.1531346E+00
         21   -1    0    0  504  501  0.00000000000E+00  0.00000000000E+00  0.18609822240E+02  0.18609822240E+02  0.00000000000E+00 0.  1.
         21   -1    0    0  501  502 -0.00000000000E+00 -0.00000000000E+00 -0.29378204841E+03  0.29378204841E+03  0.00000000000E+00 0. -1.
         21    1    1    2  503  502  0.19110863185E+02 -0.64721264996E+01 -0.28785404817E+03  0.28856033435E+03  0.00000000000E+00 0. -1.
         21    1    1    2  504  503 -0.19110863185E+02  0.64721264996E+01  0.12681822000E+02  0.23831536298E+02  0.00000000000E+00 0.  1.
</event>
<event>
 4    1  0.2939002E+006  0.3114981E+02  0.7546771E-02  0.1409861E+00
         21   -1    0    0  502  501  0.00000000000E+00  0.00000000000E+00  0.39783204752E+01  0.39783204752E+01  0.00000000000E+00 0.  1.
         21   -1    0    0  503  502 -0.00000000000E+00 -0.00000000000E+00 -0.56435851923E+03  0.56435851923E+03  0.00000000000E+00 0.  1.
         21    1    1    2  503  504  0.30993266227E+02 -0.31190209083E+01 -0.49432351259E+03  0.49530399346E+03  0.00000000000E+00 0.  1.
         21    1    1    2  504  501 -0.30993266227E+02  0.31190209083E+01 -0.66056686161E+02  0.73032846237E+02  0.00000000000E+00 0.  1.
</event>
<event>
 4    1  0.2939002E+006  0.2043947E+02  0.7546771E-02  0.1527420E+00
         21   -1    0    0  503  501  0.00000000000E+00  0.00000000000E+00  0.49861169223E+03  0.49861169223E+03  0.00000000000E+00 0. -1.
         21   -1    0    0  504  502 -0.00000000000E+00 -0.00000000000E+00 -0.42826925700E+01  0.42826925700E+01  0.00000000000E+00 0. -1.
         21    1    1    2  503  502  0.18565206426E+02  0.85501525841E+01  0.21651417037E+02  0.29775087885E+02  0.00000000000E+00 0. -1.
         21    1    1    2  504  501 -0.18565206426E+02 -0.85501525841E+01  0.47267758262E+03  0.47311929691E+03  0.00000000000E+00 0. -1.
</event>
<event>
 4    1  0.2939002E+006  0.2861454E+02  0.7546771E-02  0.1432031E+00
         21   -1    0    0  502  501  0.00000000000E+00  0.00000000000E+00  0.73962584985E+02  0.73962584985E+02  0.00000000000E+00 0.  1.
         21   -1    0    0  504  502 -0.00000000000E+00 -0.00000000000E+00 -0.49646209319E+03  0.49646209319E+03  0.00000000000E+00 0. -1.
         21    1    1    2  503  501 -0.17592750572E+02 -0.22567394337E+02  0.70764755210E+02  0.76331138729E+02  0.00000000000E+00 0.  1.
         21    1    1    2  504  503  0.17592750572E+02  0.22567394337E+02 -0.49326426341E+03  0.49409353944E+03  0.00000000000E+00 0. -1.
</event>
<event>
 4    1  0.2939002E+006  0.4782576E+02  0.7546771E-02  0.1307885E+00
         21   -1    0    0  503  501  0.00000000000E+00  0.00000000000E+00  0.24284984593E+02  0.24284984593E+02  0.00000000000E+00 0. -1.
         21   -1    0    0  504  502 -0.00000000000E+00 -0.00000000000E+00 -0.55127618054E+03  0.55127618054E+03  0.00000000000E+00 0.  1.
         21    1    1    2  503  502  0.25834206932E+02  0.40247950218E+02 -0.52554179102E+03  0.52771344294E+03  0.00000000000E+00 0.  1.
         21    1    1    2  504  501 -0.25834206932E+02 -0.40247950218E+02 -0.14494049216E+01  0.47847722194E+02  0.00000000000E+00 0. -1.
</event>
<event>
 4    1  0.2939002E+006  0.4372379E+02  0.7546771E-02  0.1327945E+00
         21   -1    0    0  503  501  0.00000000000E+00  0.00000000000E+00  0.55617428823E+03  0.55617428823E+03  0.00000000000E+00 0.  1.
         21   -1    0    0  504  502 -0.00000000000E+00 -0.00000000000E+00 -0.34571369956E+01  0.34571369956E+01  0.00000000000E+00 0.  1.
         21    1    1    2  503  502  0.43316182037E+02  0.59563438711E+01  0.25519322806E+03  0.25891186398E+03  0.00000000000E+00 0.  1.
         21    1    1    2  504  501 -0.43316182037E+02 -0.59563438711E+01  0.29752392317E+03  0.30071956124E+03  0.00000000000E+00 0.  1.
</event>
<event>
 4    1  0.2939002E+006  0.3790014E+02  0.7546771E-02  0.1361251E+00
         21   -1    0    0  504  501  0.00000000000E+00  0.00000000000E+00  0.13893791899E+03  0.13893791899E+03  0.00000000000E+00 0. -1.
         21   -1    0    0  503  502 -0.00000000000E+00 -0.00000000000E+00 -0.10504924591E+02  0.10504924591E+02  0.00000000000E+00 0. -1.
         21    1    1    2  503  501 -0.37285839993E+02  0.67960824809E+01  0.54813749602E+02  0.66640586331E+02  0.00000000000E+00 0. -1.
         21    1    1    2  504  502  0.37285839993E+02 -0.67960824809E+01  0.73619244793E+02  0.82802257246E+02  0.00000000000E+00 0. -1.
</event>
<event>
 4    1  0.2939002E+006  0.4190237E+02  0.7546771E-02  0.1337685E+00
         21   -1    0    0  502  501  0.00000000000E+00  0.00000000000E+00  0.32338254050E+03  0.32338254050E+03  0.00000000000E+00 0. -1.
         21   -1    0    0  503  502 -0.00000000000E+00 -0.00000000000E+00 -0.55061059701E+01  0.55061059701E+01  0.00000000000E+00 0. -1.
         21    1    1    2  503  504  0.40629697386E+02  0.10248733600E+02  0.13954282462E+03  0.14569834849E+03  0.00000000000E+00 0. -1.
         21    1    1    2  504  501 -0.40629697386E+02 -0.10248733600E+02  0.17833360991E+03  0.18319029798E+03  0.00000000000E+00 0. -1.
</event>
<event>
 4    1  0.2939002E+006  0.2465029E+02  0.7546771E-02  0.1472754E+00
         21   -1    0    0  503  501  0.00000000000E+00  0.00000000000E+00  0.12118801140E+02  0.12118801140E+02  0.00000000000E+00 0.  1.
         21   -1    0    0  504  502 -0.00000000000E+00 -0.00000000000E+00 -0.89978563202E+02  0.89978563202E+02  0.00000000000E+00 0.  1.
         21    1    1    2  503  502  0.24650285588E+02  0.16978635070E-01 -0.72897629535E+02  0.76952590987E+02  0.00000000000E+00 0.  1.
         21    1    1    2  504  501 -0.24650285588E+02 -0.16978635070E-01 -0.49621325269E+01  0.25144773355E+02  0.00000000000E+00 0.  1.
</event>
<event>
 4    1  0.2939002E+006  0.2050356E+02  0.7546771E-02  0.1526472E+00
         21   -1    0    0  504  501  0.00000000000E+00  0.00000000000E+00  0.13862664144E+02  0.13862664144E+02  0.00000000000E+00 0.  1.
         21   -1    0    0  501  502 -0.00000000000E+00 -0.00000000000E+00 -0.57812478362E+02  0.57812478362E+02  0.00000000000E+00 0.  1.
         21    1    1    2  503  502  0.16532057709E+02  0.12127945310E+02 -0.46685839280E+02  0.50989837996E+02  0.00000000000E+00 0.  1.
         21    1    1    2  504  503 -0.16532057709E+02 -0.12127945310E+02  0.27360250614E+01  0.20685304510E+02  0.00000000000E+00 0.  1.
</event>
<event>
 4    1  0.2939002E+006  0.2991377E+02  0.7546771E-02  0.1420347E+00
         21   -1    0    0  504  501  0.00000000000E+00  0.00000000000E+00  0.42129054753E+03  0.42129054753E+03  0.00000000000E+00 0. -1.
         21   -1    0    0  503  502 -0.00000000000E+00 -0.00000000000E+00 -0.11858789652E+03  0.11858789652E+03  0.00000000000E+00 0.  1.
         21    1    1    2  503  501  0.79164914401E+01 -0.28847234098E+02 -0.11615953060E+03  0.11994944894E+03  0.00000000000E+00 0.  1.
         21    1    1    2  504  502 -0.79164914401E+01  0.28847234098E+02  0.41886218161E+03  0.41992899511E+03  0.00000000000E+00 0. -1.
</event>
<event>
 4    1  0.2939002E+006  0.2262179E+02  0.7546771E-02  0.1497303E+00
         21   -1    0    0  503  501  0.00000000000E+00  0.00000000000E+00  0.23208888720E+02  0.23208888720E+02  0.00000000000E+00 0. -1.
         21   -1    0    0  501  502 -0.00000000000E+00 -0.00000000000E+00 -0.22723648984E+02  0.22723648984E+02  0.00000000000E+00 0. -1.
         21    1    1    2  503  504 -0.14418294877E+02  0.17431522520E+02  0.41982718125E+01  0.23008057083E+02  0.00000000000E+00 0. -1.
         21    1    1    2  504  502  0.14418294877E+02 -0.17431522520E+02 -0.37130320756E+01  0.22924480621E+02  0.00000000000E+00 0. -1.
</event>
<event>
 4    1  0.2939002E+006  0.2143429E+02  0.7546771E-02  0.1513154E+00
         21   -1    0    0  503  501  0.00000000000E+00  0.00000000000E+00  0.28907335596E+02  0.28907335596E+02  0.00000000000E+00 0.  1.
         21   -1    0    0  504  502 -0.00000000000E+00 -0.00000000000E+00 -0.45381626540E+02  0.45381626540E+02  0.00000000000E+00 0.  1.
         21    1    1    2  503  502 -0.18882295441E+02  0.10143359636E+02  0.21704825326E+02  0.30504561433E+02  0.00000000000E+00 0.  1.
         21    1    1    2  504  501  0.18882295441E+02 -0.10143359636E+02 -0.38179116269E+02  0.43784400703E+02  0.00000000000E+00 0.  1.
</event>
<event>
 4    1  0.2939002E+006  0.2501171E+02  0.7546771E-02  0.1468672E+00
         21   -1    0    0  504  501  0.00000000000E+00  0.00000000000E+00  0.51297947235E+02  0.51297947235E+02  0.00000000000E+00 0. -1.
         21   -1    0    0  503  502 -0.00000000000E+00 -0.00000000000E+00 -0.28616529097E+02  0.28616529097E+02  0.00000000000E+00 0.  1.
         21    1    1    2  503  501  0.12585480462E+01  0.24980029344E+02  0.41609277978E+02  0.48548098037E+02  0.00000000000E+00 0. -1.
         21    1    1    2  504  502 -0.12585480462E+01 -0.24980029344E+02 -0.18927859840E+02  0.31366378295E+02  0.00000000000E+00 0.  1.
</event>
<event>
 4    1  0.2939002E+006  0.2192248E+02  0.7546771E-02  0.1506491E+00
         21   -1    0    0  503  501  0.00000000000E+00  0.00000000000E+00  0.55729360493E+01  0.55729360493E+01  0.00000000000E+00 0.  1.
         21   -1    0    0  504  502 -0.00000000000E+00 -0.00000000000E+00 -0.42046337319E+03  0.42046337319E+03  0.00000000000E+00 0. -1.
         21    1    1    2  503  502 -0.21180072782E+02 -0.56568320638E+01 -0.17524360280E+02  0.28065965782E+02  0.00000000000E+00 0.  1.
         21    1    1    2  504  501  0.21180072782E+02  0.56568320638E+01 -0.39736607686E+03  0.39797034346E+03  0.00000000000E+00 0. -1.
</event>
<event>
 4    1  0.2939002E+006  0.2522872E+02  0.7546771E-02  0.1466261E+00
         21   -1    0    0  502  501  0.00000000000E+00  0.00000000000E+00  0.92523269145E+02  0.92523269145E+02  0.00000000000E+00 0.  1.
         21   -1    0    0  503  502 -0.00000000000E+00 -0.00000000000E+00 -0.11522171516E+02  0.11522171516E+02  0.00000000000E+00 0.  1.
         21    1    1    2  503  504 -0.24888606324E+02 -0.41286385342E+01  0.74770766932E+01  0.26313400707E+02  0.00000000000E+00 0.  1.
         21    1    1    2  504  501  0.24888606324E+02  0.41286385342E+01  0.73524020936E+02  0.77732039954E+02  0.00000000000E+00 0.  1.
</event>
<event>
 4    1  0.2939002E+006  0.2033262E+02  0.7546771E-02  0.1529010E+00
         21   -1    0    0  502  501  0.00000000000E+00  0.00000000000E+00  0.20669383260E+01  0.20669383260E+01  0.00000000000E+00 0. -1.
         21   -1    0    0  503  502 -0.00000000000E+00 -0.00000000000E+00 -0.35122099754E+03  0.35122099754E+03  0.00000000000E+00 0. -1.
         21    1    1    2  503  504  0.18239744421E+02 -0.89848326370E+01 -0.29048019329E+03  0.29119093081E+03  0.00000000000E+00 0. -1.
         21    1    1    2  504  501 -0.18239744421E+02  0.89848326370E+01 -0.58673865927E+02  0.62097005056E+02  0.00000000000E+00 0. -1.
</event>
<event>
 4    1  0.2939002E+006  0.2300121E+02  0.7546771E-02  0.1492483E+00
         21   -1    0    0  503  501  0.00000000000E+00  0.00000000000E+00  0.25527210977E+02  0.25527210977E+02  0.00000000000E+00 0. -1.
         21   -1    0    0  504  502 -0.00000000000E+00 -0.00000000000E+00 -0.25713305199E+02  0.25713305199E+02  0.00000000000E+00 0. -1.
         21    1    1    2  503  502 -0.34800619724E+01  0.22736416695E+02  0.11191241559E+02  0.25579276047E+02  0.00000000000E+00 0. -1.
         21    1    1    2  504  501  0.34800619724E+01 -0.22736416695E+02 -0.11377335781E+02  0.25661240129E+02  0.00000000000E+00 0. -1.
</event>
<event>
 4    1  0.2939002E+006  0.2586302E+02  0.7546771E-02  0.1459376E+00
         21   -1    0    0  504  501  0.00000000000E+00  0.00000000000E+00  0.23050539840E+02  0.23050539840E+02  0.00000000000E+00 0.  1.
         21   -1    0    0  501  502 -0.00000000000E+00 -0.00000000000E+00 -0.13788093807E+03  0.13788093807E+03  0.00000000000E+00 0. -1.
         21    1    1    2  503  502  0.92250842284E+00  0.25846565727E+02 -0.12891380615E+03  0.13148256690E+03  0.00000000000E+00 0. -1.
         21    1    1    2  504  503 -0.92250842284E+00 -0.25846565727E+02  0.14083407915E+02  0.29448911019E+02  0.00000000000E+00 0.  1.
</event>
<event>
 4    1  0.2939002E+006  0.2327414E+02  0.7546771E-02  0.1489084E+00
         21   -1    0    0  503  501  0.00000000000E+00  0.00000000000E+00  0.53198524204E+01  0.53198524204E+01  0.00000000000E+00 0. -1.
         21   -1    0    0  504  502 -0.00000000000E+00 -0.00000000000E+00 -0.15878775629E+03  0.15878775629E+03  0.00000000000E+00 0.  1.
         21    1    1    2  503  502  0.22534840364E+02  0.58194936628E+01 -0.27587546589E+02  0.36093742719E+02  0.00000000000E+00 0. -1.
         21    1    1    2  504  501 -0.22534840364E+02 -0.58194936628E+01 -0.12588035728E+03  0.12801386599E+03  0.00000000000E+00 0.  1.
</event>
<event>
 4    1  0.2939002E+006  0.2315913E+02  0.7546771E-02  0.1490510E+00
         21   -1    0    0  503  501  0.00000000000E+00  0.00000000000E+00  0.35454018523E+03  0.35454018523E+03  0.00000000000E+00 0.  1.
         21   -1    0    0  504  502 -0.00000000000E+00 -0.00000000000E+00 -0.26212456173E+03  0.26212456173E+03  0.00000000000E+00 0. -1.
         21    1    1    2  503  502 -0.22210359500E+02  0.65608918510E+01  0.35364916319E+03  0.35440665343E+03  0.00000000000E+00 0.  1.
         21    1    1    2  504  501  0.22210359500E+02 -0.65608918510E+01 -0.26123353968E+03  0.26225809353E+03  0.00000000000E+00 0. -1.
</event>
<event>
 4    1  0.2939002E+006  0.2662944E+02  0.7546771E-02  0.1451366E+00
         21   -1    0    0  502  501  0.00000000000E+00  0.00000000000E+00  0.55284242369E+02  0.55284242369E+02  0.00000000000E+00 0. -1.
         21   -1    0    0  504  502 -0.00000000000E+00 -0.00000000000E+00 -0.35213441417E+02  0.35213441417E+02  0.00000000000E+00 0.  1.
         21    1    1    2  503  501 -0.25242630780E+02 -0.84815507297E+01  0.46113731797E+02  0.53250383771E+02  0.00000000000E+00 0. -1.
         21    1    1    2  504  503  0.25242630780E+02  0.84815507297E+01 -0.26042930845E+02  0.37247300016E+02  0.00000000000E+00 0.  1.
</event>
<event>
 4    1  0.2939002E+006  0.2702346E+02  0.7546771E-02  0.1447373E+00
         21   -1    0    0  503  501  0.00000000000E+00  0.00000000000E+00  0.17739019719E+02  0.17739019719E+02  0.00000000000E+00 0. -1.
         21   -1    0    0  504  502 -0.00000000000E+00 -0.00000000000E+00 -0.40740952982E+03  0.40740952982E+03  0.00000000000E+00 0.  1.
         21    1    1    2  503  502 -0.19499488541E+02 -0.18709290103E+02  0.67131300123E+01  0.27844814672E+02  0.00000000000E+00 0. -1.
         21    1    1    2  504  501  0.19499488541E+02  0.18709290103E+02 -0.39638364011E+03  0.39730373486E+03  0.00000000000E+00 0.  1.
</event>
<event>
 4    1  0.2939002E+006  0.2766638E+02  0.7546771E-02  0.1441027E+00
         21   -1    0    0  503  501  0.00000000000E+00  0.00000000000E+00  0.53191869982E+01  0.53191869982E+01  0.00000000000E+00 0. -1.
         21   -1    0    0  504  502 -0.00000000000E+00 -0.00000000000E+00 -0.14677940711E+03  0.14677940711E+03  0.00000000000E+00 0. -1.
         21    1    1    2  503  502 -0.15361297858E+02  0.23009984260E+02 -0.81382445142E+02  0.85956565920E+02  0.00000000000E+00 0. -1.
         21    1    1    2  504  501  0.15361297858E+02 -0.23009984260E+02 -0.60077774974E+02  0.66142028192E+02  0.00000000000E+00 0. -1.
</event>
<event>
 4    1  0.2939002E+006  0.2135475E+02  0.7546771E-02  0.1514260E+00
         21   -1    0    0  503  501  0.00000000000E+00  0.00000000000E+00  0.72358318825E+02  0.72358318825E+02  0.00000000000E+00 0.  1.
         21   -1    0    0  504  502 -0.00000000000E+00 -0.00000000000E+00 -0.79340965436E+01  0.79340965436E+01  0.00000000000E+00 0.  1.
         21    1    1    2  503  502  0.17764397179E+02 -0.11851223354E+02  0.14005626935E+02  0.25537871641E+02  0.00000000000E+00 0.  1.
         21    1    1    2  504  501 -0.17764397179E+02  0.11851223354E+02  0.50418595347E+02  0.54754543728E+02  0.00000000000E+00 0.  1.
</event>
<event>
 4    1  0.2939002E+006  0.2021467E+02  0.7546771E-02  0.1530779E+00
         21   -1    0    0  503  501  0.00000000000E+00  0.00000000000E+00  0.39014353436E+01  0.39014353436E+01  0.00000000000E+00 0. -1.
         21   -1    0    0  501  502 -0.00000000000E+00 -0.00000000000E+00 -0.20178880724E+03  0.20178880724E+03  0.00000000000E+00 0. -1.
         21    1    1    2  503  504  0.24534576780E+01 -0.20065226537E+02 -0.27620242076E+02  0.34227336193E+02  0.00000000000E+00 0. -1.
         21    1    1    2  504  502 -0.24534576780E+01  0.20065226537E+02 -0.17026712982E+03  0.17146290639E+03  0.00000000000E+00 0. -1.
</event>
<event>
 4    1  0.2939002E+006  0.3027800E+02  0.7546771E-02  0.1417196E+00
         21   -1    0    0  503  501  0.00000000000E+00  0.00000000000E+00  0.18482233416E+01  0.18482233416E+01  0.00000000000E+00 0. -1.
         21   -1    0    0  504  502 -0.00000000000E+00 -0.00000000000E+00 -0.67201800652E+03  0.67201800652E+03  0.00000000000E+00 0. -1.
         21    1    1    2  503  502  0.24445742864E+02  0.17865129116E+02 -0.16265754119E+03  0.16545160286E+03  0.00000000000E+00 0. -1.
         21    1    1    2  504  501 -0.24445742864E+02 -0.17865129116E+02 -0.50751224199E+03  0.50841462700E+03  0.00000000000E+00 0. -1.
</event>
<event>
 4    1  0.2939002E+006  0.2072378E+02  0.7546771E-02  0.1523245E+00
         21   -1    0    0  503  501  0.00000000000E+00  0.00000000000E+00  0.41921931261E+03  0.41921931261E+03  0.00000000000E+00 0.  1.
         21   -1    0    0  504  502 -0.00000000000E+00 -0.00000000000E+00 -0.35000803471E+01  0.35000803471E+01  0.00000000000E+00 0.  1.
         21    1    1    2  503  502 -0.95711471112E+01 -0.18381187171E+02  0.38561586679E+03  0.38617233409E+03  0.00000000000E+00 0.  1.
         21    1    1    2  504  501  0.95711471112E+01  0.18381187171E+02  0.30103365476E+02  0.36547058867E+02  0.00000000000E+00 0.  1.
</event>
<event>
 4    1  0.2939002E+006  0.2249071E+02  0.7546771E-02  0.1498994E+00
         21   -1    0    0  503  501  0.00000000000E+00  0.00000000000E+00  0.45592229820E+03  0.45592229820E+03  0.00000000000E+00 0. -1.
         21   -1    0    0  504  502 -0.00000000000E+00 -0.00000000000E+00 -0.11099100757E+01  0.11099100757E+01  0.00000000000E+00 0. -1.
         21    1    1    2  503  502  0.15433493604E+02  0.16359682084E+02  0.22285378160E+03  0.22398580289E+03  0.00000000000E+00 0. -1.
         21    1    1    2  504  501 -0.15433493604E+02 -0.16359682084E+02  0.23195860652E+03  0.23304640538E+03  0.00000000000E+00 0. -1.
</event>
<event>
 4    1  0.2939002E+006  0.2174423E+02  0.7546771E-02  0.1508899E+00
         21   -1    0    0  502  501  0.00000000000E+00  0.00000000000E+00  0.18690588401E+02  0.18690588401E+02  0.00000000000E+00 0. -1.
         21   -1    0    0  504  502 -0.00000000000E+00 -0.00000000000E+00 -0.19095735250E+03  0.19095735250E+03  0.00000000000E+00 0. -1.
         21    1    1    2  503  501  0.49802986915E+01  0.21166199295E+02  0.11500827742E+02  0.24598382191E+02  0.00000000000E+00 0. -1.
         21    1    1    2  504  503 -0.49802986915E+01 -0.21166199295E+02 -0.18376759184E+03  0.18504955871E+03  0.00000000000E+00 0. -1.
</event>
<event>
 4    1  0.2939002E+006  0.2230475E+02  0.7546771E-02  0.1501418E+00
         21   -1    0    0  503  501  0.00000000000E+00  0.00000000000E+00  0.19130502687E+01  0.19130502687E+01  0.00000000000E+00 0.  1.
         21   -1    0    0  504  502 -0.00000000000E+00 -0.00000000000E+00 -0.59758515971E+03  0.59758515971E+03  0.00000000000E+00 0.  1.
         21    1    1    2  503  502  0.86454522143E+01  0.20561077459E+02 -0.72560991034E+02  0.75911785449E+02  0.00000000000E+00 0.  1.
         21    1    1    2  504  501 -0.86454522143E+01 -0.20561077459E+02 -0.52311111841E+03  0.52358642453E+03  0.00000000000E+00 0.  1.
</event>
<event>
 4    1  0.2939002E+006  0.2936555E+02  0.7546771E-02  0.1425191E+00
         21   -1    0    0  502  501  0.00000000000E+00  0.00000000000E+00  0.55178020930E+02  0.55178020930E+02  0.00000000000E+00 0. -1.
         21   -1    0    0  503  502 -0.00000000000E+00 -0.00000000000E+00 -0.44976765683E+02  0.44976765683E+02  0.00000000000E+00 0. -1.
         21    1    1    2  503  504  0.16647979654E+02  0.24190505226E+02 -0.35351437005E+02  0.45957152523E+02  0.00000000000E+00 0. -1.
         21    1    1    2  504  501 -0.16647979654E+02 -0.24190505226E+02  0.45552692251E+02  0.54197634091E+02  0.00000000000E+00 0. -1.
</event>
<event>
 4    1  0.2939002E+006  0.2318382E+02  0.7546771E-02  0.1490203E+00
         21   -1    0    0  504  501  0.00000000000E+00  0.00000000000E+00  0.13091993105E+03  0.13091993105E+03  0.00000000000E+00 0.  1.
         21   -1    0    0  503  502 -0.00000000000E+00 -0.00000000000E+00 -0.13782915273E+02  0.13782915273E+02  0.00000000000E+00 0.  1.
         21    1    1    2  503  501  0.18497495876E+02  0.13976129875E+02 -0.20571694473E+01  0.23274911517E+02  0.00000000000E+00 0.  1.
         21    1    1    2  504  502 -0.18497495876E+02 -0.13976129875E+02  0.11919418522E+03  0.12142793480E+03  0.00000000000E+00 0.  1.
</event>
<event>
 4    1  0.2939002E+006  0.3477951E+02  0.7546771E-02  0.1382120E+00
         21   -1    0    0  504  501  0.00000000000E+00  0.00000000000E+00  0.33198917969E+03  0.33198917969E+03  0.00000000000E+00 0.  1.
         21   -1    0    0  503  502 -0.00000000000E+00 -0.00000000000E+00 -0.37580051872E+01  0.37580051872E+01  0.00000000000E+00 0.  1.
         21    1    1    2  503  501  0.11214925053E+02 -0.32921725474E+02  0.13481692055E+03  0.13923080341E+03  0.00000000000E+00 0.  1.
         21    1    1    2  504  502 -0.11214925053E+02  0.32921725474E+02  0.19341425395E+03  0.19651638146E+03  0.00000000000E+00 0.  1.
</event>
<event>
 4    1  0.2939002E+006  0.2145798E+02  0.7546771E-02  0.1512826E+00
         21   -1    0    0  503  501  0.00000000000E+00  0.00000000000E+00  0.11123199388E+02  0.11123199388E+02  0.00000000000E+00 0.  1.
         21   -1    0    0  504  502 -0.00000000000E+00 -0.00000000000E+00 -0.52518026634E+02  0.52518026634E+02  0.00000000000E+00 0.  1.
         21    1    1    2  503  502  0.20659992333E+02 -0.57973790764E+01 -0.60532104550E+01  0.22295431016E+02  0.00000000000E+00 0.  1.
         21    1    1    2  504  501 -0.20659992333E+02  0.57973790764E+01 -0.35341616790E+02  0.41345795006E+02  0.00000000000E+00 0.  1.
</event>
<event>
 4    1  0.2939002E+006  0.2542229E+02  0.7546771E-02  0.1464134E+00
         21   -1    0    0  504  501  0.00000000000E+00  0.00000000000E+00  0.13655318137E+03  0.13655318137E+03  0.00000000000E+00 0.  1.
         21   -1    0    0  503  502 -0.00000000000E+00 -0.00000000000E+00 -0.30737333410E+02  0.30737333410E+02  0.00000000000E+00 0.  1.
         21    1    1    2  503  501  0.21428868993E+02  0.13678312267E+02  0.12984433437E+03  0.13230965127E+03  0.00000000000E+00 0.  1.
         21    1    1    2  504  502 -0.21428868993E+02 -0.13678312267E+02 -0.24028486407E+02  0.34980863508E+02  0.00000000000E+00 0.  1.
</event>
<event>
 4    1  0.2939002E+006  0.2612004E+02  0.7546771E-02  0.1456653E+00
         21   -1    0    0  503  501  0.00000000000E+00  0.00000000000E+00  0.42428063946E+02  0.42428063946E+02  0.00000000000E+00 0.  1.
         21   -1    0    0  504  502 -0.00000000000E+00 -0.00000000000E+00 -0.65465937853E+02  0.65465937853E+02  0.00000000000E+00 0.  1.
         21    1    1    2  503  502 -0.26078671742E+02 -0.14695643545E+01 -0.58374360235E+02  0.63951721417E+02  0.00000000000E+00 0.  1.
         21    1    1    2  504  501  0.26078671742E+02  0.14695643545E+01  0.35336486328E+02  0.43942280383E+02  0.00000000000E+00 0.  1.
</event>
<event>
 4    1  0.2939002E+006  0.2777814E+02  0.7546771E-02  0.1439944E+00
         21   -1    0    0  503  501  0.00000000000E+00  0.00000000000E+00  0.18325661923E+03  0.18325661923E+03  0.00000000000E+00 0. -1.
         21   -1    0    0  504  502 -0.00000000000E+00 -0.00000000000E+00 -0.83506046591E+02  0.83506046591E+02  0.00000000000E+00 0. -1.
         21    1    1    2  503  502  0.27774038973E+02 -0.47717504539E+00 -0.80099809747E+02  0.84779740849E+02  0.00000000000E+00 0. -1.
         21    1    1    2  504  501 -0.27774038973E+02  0.47717504539E+00  0.17985038239E+03  0.18198292497E+03  0.00000000000E+00 0. -1.
</event>
<event>
 4    1  0.2939002E+006  0.2989557E+02  0.7546771E-02  0.1420506E+00
         21   -1    0    0  503  501  0.00000000000E+00  0.00000000000E+00  0.44846320463E+01  0.44846320463E+01  0.00000000000E+00 0.  1.
         21   -1    0    0  504  502 -0.00000000000E+00 -0.00000000000E+00 -0.24900998774E+03  0.24900998774E+03  0.00000000000E+00 0.  1.
         21    1    1    2  503  502 -0.20450267256E+02 -0.21806687354E+02 -0.17889876235E+03  0.18137947021E+03  0.00000000000E+00 0.  1.
         21    1    1    2  504  501  0.20450267256E+02  0.21806687354E+02 -0.65626593345E+02  0.72115149575E+02  0.00000000000E+00 0.  1.
</event>
<event>
 4    1  0.2939002E+006  0.2042674E+02  0.7546771E-02  0.1527609E+00
         21   -1    0    0  502  501  0.00000000000E+00  0.00000000000E+00  0.25255378939E+03  0.25255378939E+03  0.00000000000E+00 0. -1.
         21   -1    0    0  504  502 -0.00000000000E+00 -0.00000000000E+00 -0.23998118028E+02  0.23998118028E+02  0.00000000000E+00 0.  1.
         21    1    1    2  503  501 -0.19305644324E+01 -0.20335303240E+02  0.24770917739E+03  0.24854997123E+03  0.00000000000E+00 0. -1.
         21    1    1    2  504  503  0.19305644324E+01  0.20335303240E+02 -0.19153506029E+02  0.28001936184E+02  0.00000000000E+00 0.  1.
</event>
<event>
 4    1  0.2939002E+006  0.3047218E+02  0.7546771E-02  0.1415537E+00
         21   -1    0    0  503  501  0.00000000000E+00  0.00000000000E+00  0.19638818298E+03  0.19638818298E+03  0.00000000000E+00 0.  1.
         21   -1    0    0  504  502 -0.00000000000E+00 -0.00000000000E+00 -0.51115281056E+01  0.51115281056E+01  0.00000000000E+00 0.  1.
         21    1    1    2  503  502  0.24948382821E+02 -0.17496632248E+02  0.68046569644E+02  0.74557961250E+02  0.00000000000E+00 0.  1.
         21    1    1    2  504  501 -0.24948382821E+02  0.17496632248E+02  0.12323008523E+03  0.12694174983E+03  0.00000000000E+00 0.  1.
</event>
<event>
 4    1  0.2939002E+006  0.2673890E+02  0.7546771E-02  0.1450249E+00
         21   -1    0    0  504  501  0.00000000000E+00  0.00000000000E+00  0.16105829603E+02  0.16105829603E+02  0.00000000000E+00 0. -1.
         21   -1    0    0  503  502 -0.00000000000E+00 -0.00000000000E+00 -0.69927967352E+02  0.69927967352E+02  0.00000000000E+00 0.  1.
         21    1    1    2  503  501  0.17977540486E+02  0.19793355570E+02 -0.91603540982E+00  0.26754588532E+02  0.00000000000E+00 0. -1.
         21    1    1    2  504  502 -0.17977540486E+02 -0.19793355570E+02 -0.52906102339E+02  0.59279208424E+02  0.00000000000E+00 0.  1.
</event>
<event>
 4    1  0.2939002E+006  0.2141054E+02  0.7546771E-02  0.1513483E+00
         21   -1    0    0  504  501  0.00000000000E+00  0.00000000000E+00  0.52868957308E+02  0.52868957308E+02  0.00000000000E+00 0.  1.
         21   -1    0    0  501  502 -0.00000000000E+00 -0.00000000000E+00 -0.20463528372E+02  0.20463528372E+02  0.00000000000E+00 0.  1.
         21    1    1    2  503  502 -0.13662483426E+02  0.16484774048E+02 -0.11631887470E+02  0.24366206822E+02  0.00000000000E+00 0.  1.
         21    1    1    2  504  503  0.13662483426E+02 -0.16484774048E+02  0.44037316407E+02  0.48966278857E+02  0.00000000000E+00 0.  1.
</event>
<event>
 4    1  0.2939002E+006  0.2692372E+02  0.7546771E-02  0.1448376E+00
         21   -1    0    0  504  501  0.00000000000E+00  0.00000000000E+00  0.18921844833E+01  0.18921844833E+01  0.00000000000E+00 0.  1.
         21   -1    0    0  503  502 -0.00000000000E+00 -0.00000000000E+00 -0.48615999453E+03  0.48615999453E+03  0.00000000000E+00 0.  1.
         21    1    1    2  503  501  0.26040527742E+02 -0.68394141818E+01 -0.35449137659E+03  0.35551233839E+03  0.00000000000E+00 0.  1.
         21    1    1    2  504  502 -0.26040527742E+02  0.68394141818E+01 -0.12977643345E+03  0.13253984062E+03  0.00000000000E+00 0.  1.
</event>
<event>
 4    1  0.2939002E+006  0.3034196E+02  0.7546771E-02  0.1416648E+00
         21   -1    0    0  504  501  0.00000000000E+00  0.00000000000E+00  0.51706977915E+03  0.51706977915E+03  0.00000000000E+00 0.  1.
         21   -1    0    0  503  502 -0.00000000000E+00 -0.00000000000E+00 -0.18133200659E+01  0.18133200659E+01  0.00000000000E+00 0.  1.
         21    1    1    2  503  501  0.27470058203E+02 -0.12885282103E+02  0.22271610561E+03  0.22477343769E+03  0.00000000000E+00 0.  1.
         21    1    1    2  504  502 -0.27470058203E+02  0.12885282103E+02  0.29254035347E+03  0.29410966152E+03  0.00000000000E+00 0.  1.
</event>
<event>
 4    1  0.2939002E+006  0.3064461E+02  0.7546771E-02  0.1414076E+00
         21   -1    0    0  503  501  0.00000000000E+00  0.00000000000E+00  0.13984213479E+03  0.13984213479E+03  0.00000000000E+00 0. -1.
         21   -1    0    0  504  502 -0.00000000000E+00 -0.00000000000E+00 -0.69235834764E+02  0.69235834764E+02  0.00000000000E+00 0.  1.
         21    1    1    2  503  502  0.27958693051E+02 -0.12546047275E+02 -0.64036793140E+02  0.70991567774E+02  0.00000000000E+00 0.  1.
         21    1    1    2  504  501 -0.27958693051E+02  0.12546047275E+02  0.13464309317E+03  0.13808640178E+03  0.00000000000E+00 0. -1.
</event>
<event>
 4    1  0.2939002E+006  0.2015785E+02  0.7546771E-02  0.1531636E+00
         21   -1    0    0  504  501  0.00000000000E+00  0.00000000000E+00  0.95869807884E+01  0.95869807884E+01  0.00000000000E+00 0. -1.
         21   -1    0    0  503  502 -0.00000000000E+00 -0.00000000000E+00 -0.42462557982E+02  0.42462557982E+02  0.00000000000E+00 0. -1.
         21    1    1    2  503  501  0.24790697412E+01  0.20004832138E+02 -0.17553821676E+02  0.26729679218E+02  0.00000000000E+00 0. -1.
         21    1    1    2  504  502 -0.24790697412E+01 -0.20004832138E+02 -0.15321755517E+02  0.25319859553E+02  0.00000000000E+00 0. -1.
</event>
<event>
 4    1  0.2939002E+006  0.2082340E+02  0.7546771E-02  0.1521801E+00
         21   -1    0    0  504  501  0.00000000000E+00  0.00000000000E+00  0.29868165018E+03  0.29868165018E+03  0.00000000000E+00 0. -1.
         21   -1    0    0  503  502 -0.00000000000E+00 -0.00000000000E+00 -0.17657940581E+02  0.17657940581E+02  0.00000000000E+00 0. -1.
         21    1    1    2  503  501 -0.13829709733E+02 -0.15567688656E+02 -0.11016488961E+02  0.23557946226E+02  0.00000000000E+00 0. -1.
         21    1    1    2  504  502  0.13829709733E+02  0.15567688656E+02  0.29204019856E+03  0.29278164453E+03  0.00000000000E+00 0. -1.
</event>
<event>
 4    1  0.2939002E+006  0.2794689E+02  0.7546771E-02  0.1438321E+00
         21   -1    0    0  503  501  0.00000000000E+00  0.00000000000E+00  0.31853627816E+01  0.31853627816E+01  0.00000000000E+00 0.  1.
         21   -1    0    0  501  502 -0.00000000000E+00 -0.00000000000E+00 -0.59098325030E+03  0.59098325030E+03  0.00000000000E+00 0.  1.
         21    1    1    2  503  504  0.27818986131E+02  0.26706873532E+01 -0.66651756914E+02  0.72273683039E+02  0.00000000000E+00 0.  1.
         21    1    1    2  504  502 -0.27818986131E+02 -0.26706873532E+01 -0.52114613061E+03  0.52189493005E+03  0.00000000000E+00 0.  1.
</event>
<event>
 4    1  0.2939002E+006  0.2393117E+02  0.7546771E-02  0.1481125E+00
         21   -1    0    0  503  501  0.00000000000E+00  0.00000000000E+00  0.88400768136E+02  0.88400768136E+02  0.00000000000E+00 0.  1.
         21   -1    0    0  504  502 -0.00000000000E+00 -0.00000000000E+00 -0.37747710287E+02  0.37747710287E+02  0.00000000000E+00 0. -1.
         21    1    1    2  503  502  0.19284077996E+02  0.14171283742E+02 -0.32080548842E+02  0.40023275242E+02  0.00000000000E+00 0. -1.
         21    1    1    2  504  501 -0.19284077996E+02 -0.14171283742E+02  0.82733606691E+02  0.86125203182E+02  0.00000000000E+00 0.  1.
</event>
<event>
 4    1  0.2939002E+006  0.4152802E+02  0.7546771E-02  0.1339757E+00
         21   -1    0    0  504  501  0.00000000000E+00  0.00000000000E+00  0.54271891261E+03  0.54271891261E+03  0.00000000000E+00 0. -1.
         21   -1    0    0  501  502 -0.00000000000E+00 -0.00000000000E+00 -0.75678080987E+01  0.75678080987E+01  0.00000000000E+00 0. -1.
         21    1    1    2  503  502  0.40468451570E+02  0.93209987580E+01  0.58013072040E+02  0.71344888519E+02  0.00000000000E+00 0. -1.
         21    1    1    2  504  503 -0.40468451570E+02 -0.93209987580E+01  0.47713803247E+03  0.47894183219E+03  0.00000000000E+00 0. -1.
</event>
<event>
 4    1  0.2939002E+006  0.2382214E+02  0.7546771E-02  0.1482425E+00
         21   -1    0    0  504  501  0.00000000000E+00  0.00000000000E+00  0.29906078897E+03  0.29906078897E+03  0.00000000000E+00 0.  1.
         21   -1    0    0  501  502 -0.00000000000E+00 -0.00000000000E+00 -0.10150604812E+02  0.10150604812E+02  0.00000000000E+00 0. -1.
         21    1    1    2  503  502  0.22558095260E+02 -0.76567978564E+01  0.50476710073E+01  0.24351041000E+02  0.00000000000E+00 0. -1.
         21    1    1    2  504  503 -0.22558095260E+02  0.76567978564E+01  0.28386251315E+03  0.28486035278E+03  0.00000000000E+00 0.  1.
</event>
<event>
 4    1  0.2939002E+006  0.3633206E+02  0.7546771E-02  0.1371433E+00
         21   -1    0    0  504  501  0.00000000000E+00  0.00000000000E+00  0.89110845110E+02  0.89110845110E+02  0.00000000000E+00 0. -1.
         21   -1    0    0  503  502 -0.00000000000E+00 -0.00000000000E+00 -0.18825470769E+03  0.18825470769E+03  0.00000000000E+00 0. -1.
         21    1    1    2  503  501  0.24259029748E+02  0.27046594828E+02  0.83542792749E+02  0.91101136307E+02  0.00000000000E+00 0. -1.
         21    1    1    2  504  502 -0.24259029748E+02 -0.27046594828E+02 -0.18268665533E+03  0.18626441649E+03  0.00000000000E+00 0. -1.
</event>
<event>
 4    1  0.2939002E+006  0.4851733E+02  0.7546771E-02  0.1304732E+00
         21   -1    0    0  503  501  0.00000000000E+00  0.00000000000E+00  0.87120363778E+03  0.87120363778E+03  0.00000000000E+00 0. -1.
         21   -1    0    0  501  502 -0.00000000000E+00 -0.00000000000E+00 -0.39077694633E+01  0.39077694633E+01  0.00000000000E+00 0. -1.
         21    1    1    2  503  504  0.45848086765E+02 -0.15870866469E+02  0.67670798441E+03  0.67844500708E+03  0.00000000000E+00 0. -1.
         21    1    1    2  504  502 -0.45848086765E+02  0.15870866469E+02  0.19058788390E+03  0.19666640016E+03  0.00000000000E+00 0. -1.
</event>
<event>
 4    1  0.2939002E+006  0.2264536E+02  0.7546771E-02  0.1497000E+00
         21   -1    0    0  503  501  0.00000000000E+00  0.00000000000E+00  0.79742636669E+03  0.79742636669E+03  0.00000000000E+00 0.  1.
         21   -1    0    0  504  502 -0.00000000000E+00 -0.00000000000E+00 -0.35652181099E+01  0.35652181099E+01  0.00000000000E+00 0.  1.
         21    1    1    2  503  502 -0.69413807083E+01  0.21555264672E+02  0.34349633275E+02  0.41142551055E+02  0.00000000000E+00 0.  1.
         21    1    1    2  504  501  0.69413807083E+01 -0.21555264672E+02  0.75951151530E+03  0.75984903374E+03  0.00000000000E+00 0.  1.
</event>
<event>
 4    1  0.2939002E+006  0.2464002E+02  0.7546771E-02  0.1472871E+00
         21   -1    0    0  504  501  0.00000000000E+00  0.00000000000E+00  0.36880131870E+03  0.36880131870E+03  0.00000000000E+00 0. -1.
         21   -1    0    0  503  502 -0.00000000000E+00 -0.00000000000E+00 -0.24127491148E+01  0.24127491148E+01  0.00000000000E+00 0.  1.
         21    1    1    2  503  501 -0.16091316170E+02 -0.18660123634E+02  0.28781091013E+03  0.28886372334E+03  0.00000000000E+00 0. -1.
         21    1    1    2  504  502  0.16091316170E+02  0.18660123634E+02  0.78577659447E+02  0.82350344470E+02  0.00000000000E+00 0.  1.
</event>
<event>
 4    1  0.2939002E+006  0.3308174E+02  0.7546771E-02  0.1394575E+00
         21   -1    0    0  503  501  0.00000000000E+00  0.00000000000E+00  0.43127490231E+02  0.43127490231E+02  0.00000000000E+00 0. -1.
         21   -1    0    0  504  502 -0.00000000000E+00 -0.00000000000E+00 -0.65163889516E+02  0.65163889516E+02  0.00000000000E+00 0. -1.
         21    1    1    2  503  502 -0.45688692326E+01  0.32764723616E+02  0.31291119364E+02  0.45536093715E+02  0.00000000000E+00 0. -1.
         21    1    1    2  504  501  0.45688692326E+01 -0.32764723616E+02 -0.53327518649E+02  0.62755286032E+02  0.00000000000E+00 0. -1.
</event>
<event>
 4    1  0.2939002E+006  0.3152469E+02  0.7546771E-02  0.1406794E+00
         21   -1    0    0  504  501  0.00000000000E+00  0.00000000000E+00  0.12278678645E+03  0.12278678645E+03  0.00000000000E+00 0.  1.
         21   -1    0    0  503  502 -0.00000000000E+00 -0.00000000000E+00 -0.39437939976E+02  0.39437939976E+02  0.00000000000E+00 0. -1.
         21    1    1    2  503  501 -0.16660532983E+02  0.26762519301E+02  0.11398610390E+03  0.11826511608E+03  0.00000000000E+00 0.  1.
         21    1    1    2  504  502  0.16660532983E+02 -0.26762519301E+02 -0.30637257431E+02  0.43959610343E+02  0.00000000000E+00 0. -1.
</event>
<event>
 4    1  0.2939002E+006  0.3347519E+02  0.7546771E-02  0.1391612E+00
         21   -1    0    0  504  501  0.00000000000E+00  0.00000000000E+00  0.39111684888E+03  0.39111684888E+03  0.00000000000E+00 0.  1.
         21   -1    0    0  501  502 -0.00000000000E+00 -0.00000000000E+00 -0.41382653889E+01  0.41382653889E+01  0.00000000000E+00 0. -1.
         21    1    1    2  503  502  0.31223297855E+02  0.12070375499E+02  0.83871511787E+02  0.90305142616E+02  0.00000000000E+00 0. -1.
         21    1    1    2  504  503 -0.31223297855E+02 -0.12070375499E+02  0.30310707171E+03  0.30494997166E+03  0.00000000000E+00 0.  1.
</event>
<event>
 4    1  0.2939002E+006  0.3138497E+02  0.7546771E-02  0.1407931E+00
         21   -1    0    0  503  501  0.00000000000E+00  0.00000000000E+00  0.29826418550E+03  0.29826418550E+03  0.00000000000E+00 0. -1.
         21   -1    0    0  501  502 -0.00000000000E+00 -0.00000000000E+00 -0.36572264395E+01  0.36572264395E+01  0.00000000000E+00 0. -1.
         21    1    1    2  503  504  0.15837608903E+01 -0.31344986120E+02  0.19431852542E+03  0.19683674905E+03  0.00000000000E+00 0. -1.
         21    1    1    2  504  502 -0.15837608903E+01  0.31344986120E+02  0.10028843364E+03  0.10508466289E+03  0.00000000000E+00 0. -1.
</event>
<event>
 4    1  0.2939002E+006  0.2083468E+02  0.7546771E-02  0.1521638E+00
         21   -1    0    0  503  501  0.00000000000E+00  0.00000000000E+00  0.50915866626E+02  0.50915866626E+02  0.00000000000E+00 0.  1.
         21   -1    0    0  504  502 -0.00000000000E+00 -0.00000000000E+00 -0.91582024646E+01  0.91582024646E+01  0.00000000000E+00 0.  1.
         21    1    1    2  503  502  0.18639376023E+02  0.93089928829E+01  0.12983897148E+02  0.24549241784E+02  0.00000000000E+00 0.  1.
         21    1    1    2  504  501 -0.18639376023E+02 -0.93089928829E+01  0.28773767013E+02  0.35524827307E+02  0.00000000000E+00 0.  1.
</event>
<event>
 4    1  0.2939002E+006  0.2124776E+02  0.7546771E-02  0.1515757E+00
         21   -1    0    0  503  501  0.00000000000E+00  0.00000000000E+00  0.19073130012E+03  0.19073130012E+03  0.00000000000E+00 0. -1.
         21   -1    0    0  504  502 -0.00000000000E+00 -0.00000000000E+00 -0.58851424876E+01  0.58851424876E+01  0.00000000000E+00 0.  1.
         21    1    1    2  503  502  0.18023188870E+02  0.11253085886E+02  0.16413902947E+02  0.26849273528E+02  0.00000000000E+00 0.  1.
         21    1    1    2  504  501 -0.18023188870E+02 -0.11253085886E+02  0.16843225469E+03  0.16976716908E+03  0.00000000000E+00 0. -1.
</event>
<event>
 4    1  0.2939002E+006  0.2335576E+02  0.7546771E-02  0.1488078E+00
         21   -1    0    0  503  501  0.00000000000E+00  0.00000000000E+00  0.48868438343E+02  0.48868438343E+02  0.00000000000E+00 0.  1.
         21   -1    0    0  504  502 -0.00000000000E+00 -0.00000000000E+00 -0.14414694624E+02  0.14414694624E+02  0.00000000000E+00 0.  1.
         21    1    1    2  503  502 -0.11912823942E+02 -0.20089207190E+02  0.32256446545E+02  0.39824238392E+02  0.00000000000E+00 0.  1.
         21    1    1    2  504  501  0.11912823942E+02  0.20089207190E+02  0.21972971743E+01  0.23458894575E+02  0.00000000000E+00 0.  1.
</event>
<event>
 4    1  0.2939002E+006  0.2015051E+02  0.7546771E-02  0.1531747E+00
         21   -1    0    0  504  501  0.00000000000E+00  0.00000000000E+00  0.26753057039E+03  0.26753057039E+03  0.00000000000E+00 0.  1.
         21   -1    0    0  503  502 -0.00000000000E+00 -0.00000000000E+00 -0.17702740022E+01  0.17702740022E+01  0.00000000000E+00 0.  1.
         21    1    1    2  503  501 -0.19797685390E+02  0.37542901181E+01  0.18373630874E+03  0.18483796739E+03  0.00000000000E+00 0.  1.
         21    1    1    2  504  502  0.19797685390E+02 -0.37542901181E+01  0.82023987649E+02  0.84462876999E+02  0.00000000000E+00 0.  1.
</event>
<event>
 4    1  0.2939002E+006  0.2034598E+02  0.7546771E-02  0.1528811E+00
         21   -1    0    0  503  501  0.00000000000E+00  0.00000000000E+00  0.74083969794E+03  0.74083969794E+03  0.00000000000E+00 0.  1.
         21   -1    0    0  504  502 -0.00000000000E+00 -0.00000000000E+00 -0.14883556180E+02  0.14883556180E+02  0.00000000000E+00 0. -1.
         21    1    1    2  503  502 -0.12685967365E+02 -0.15906763629E+02 -0.77227185504E+01  0.21762336247E+02  0.00000000000E+00 0. -1.
         21    1    1    2  504  501  0.12685967365E+02  0.15906763629E+02  0.73367886031E+03  0.73396091787E+03  0.00000000000E+00 0.  1.
</event>
<event>
 4    1  0.2939002E+006  0.2089348E+02  0.7546771E-02  0.1520791E+00
         21   -1    0    0  504  501  0.00000000000E+00  0.00000000000E+00  0.35747150081E+03  0.35747150081E+03  0.00000000000E+00 0.  1.
         21   -1    0    0  503  502 -0.00000000000E+00 -0.00000000000E+00 -0.12215639865E+01  0.12215639865E+01  0.00000000000E+00 0.  1.
         21    1    1    2  503  501 -0.19580204397E+02 -0.72906229708E+01  0.17495148250E+03  0.17619466171E+03  0.00000000000E+00 0.  1.
         21    1    1    2  504  502  0.19580204397E+02  0.72906229708E+01  0.18129845432E+03  0.18249840308E+03  0.00000000000E+00 0.  1.
</event>
<event>
 4    1  0.2939002E+006  0.2061742E+02  0.7546771E-02  0.1524798E+00
         21   -1    0    0  504  501  0.00000000000E+00  0.00000000000E+00  0.10378695844E+02  0.10378695844E+02  0.00000000000E+00 0.  1.
         21   -1    0    0  503  502 -0.00000000000E+00 -0.00000000000E+00 -0.44330928386E+02  0.44330928386E+02  0.00000000000E+00 0.  1.
         21    1    1    2  503  501  0.18289194045E+02  0.95175231387E+01 -0.24522919255E+02  0.32038280764E+02  0.00000000000E+00 0.  1.
         21    1    1    2  504  502 -0.18289194045E+02 -0.95175231387E+01 -0.94293132868E+01  0.22671343466E+02  0.00000000000E+00 0.  1.
</event>
<event>
 4    1  0.2939002E+006  0.2389190E+02  0.7546771E-02  0.1481592E+00
         21   -1    0    0  503  501  0.00000000000E+00  0.00000000000E+00  0.47072446184E+02  0.47072446184E+02  0.00000000000E+00 0.  1.
         21   -1    0    0  504  502 -0.00000000000E+00 -0.00000000000E+00 -0.17827970078E+02  0.17827970078E+02  0.00000000000E+00 0. -1.
         21    1    1    2  503  502 -0.77624020802E+01  0.22595752667E+02 -0.37288089786E+01  0.24181127787E+02  0.00000000000E+00 0. -1.
         21    1    1    2  504  501  0.77624020802E+01 -0.22595752667E+02  0.32973285084E+02  0.40719288475E+02  0.00000000000E+00 0.  1.
</event>
<event>
 4    1  0.2939002E+006  0.3722833E+02  0.7546771E-02  0.1365541E+00
         21   -1    0    0  504  501  0.00000000000E+00  0.00000000000E+00  0.15216114981E+02  0.15216114981E+02  0.00000000000E+00 0. -1.
         21   -1    0    0  501  502 -0.00000000000E+00 -0.00000000000E+00 -0.23560655383E+03  0.23560655383E+03  0.00000000000E+00 0.  1.
         21    1    1    2  503  502 -0.15288103001E+02  0.33944407848E+02 -0.20841760873E+03  0.21171643429E+03  0.00000000000E+00 0.  1.
         21    1    1    2  504  503  0.15288103001E+02 -0.33944407848E+02 -0.11972830115E+02  0.39106234522E+02  0.00000000000E+00 0. -1.
</event>
<event>
 4    1  0.2939002E+006  0.2277426E+02  0.7546771E-02  0.1495352E+00
         21   -1    0    0  503  501  0.00000000000E+00  0.00000000000E+00  0.81047100721E+02  0.81047100721E+02  0.00000000000E+00 0.  1.
         21   -1    0    0  504  502 -0.00000000000E+00 -0.00000000000E+00 -0.90073403886E+02  0.90073403886E+02  0.00000000000E+00 0. -1.
         21    1    1    2  503  502  0.22660667845E+02 -0.22717602191E+01  0.77951646122E+02  0.81210380462E+02  0.00000000000E+00 0.  1.
         21    1    1    2  504  501 -0.22660667845E+02  0.22717602191E+01 -0.86977949286E+02  0.89910124145E+02  0.00000000000E+00 0. -1.
</event>
<event>
 4    1  0.2939002E+006  0.3263901E+02  0.7546771E-02  0.1397967E+00
         21   -1    0    0  504  501  0.00000000000E+00  0.00000000000E+00  0.33862851010E+02  0.33862851010E+02  0.00000000000E+00 0. -1.
         21   -1    0    0  503  502 -0.00000000000E+00 -0.00000000000E+00 -0.71003546943E+02  0.71003546943E+02  0.00000000000E+00 0.  1.
         21    1    1    2  503  501  0.89231119136E+01 -0.31395594691E+02  0.20559430319E+02  0.38574544291E+02  0.00000000000E+00 0. -1.
         21    1    1    2  504  502 -0.89231119136E+01  0.31395594691E+02 -0.57700126253E+02  0.66291853661E+02  0.00000000000E+00 0.  1.
</event>
<event>
 4    1  0.2939002E+006  0.2866986E+02  0.7546771E-02  0.1431519E+00
         21   -1    0    0  503  501  0.00000000000E+00  0.00000000000E+00  0.30841464676E+02  0.30841464676E+02  0.00000000000E+00 0. -1.
         21   -1    0    0  504  502 -0.00000000000E+00 -0.00000000000E+00 -0.96178461378E+02  0.96178461378E+02  0.00000000000E+00 0. -1.
         21    1    1    2  503  502  0.23594873448E+02  0.16286284957E+02  0.21329865558E+02  0.35734077509E+02  0.00000000000E+00 0. -1.
         21    1    1    2  504  501 -0.23594873448E+02 -0.16286284957E+02 -0.86666862259E+02  0.91285848545E+02  0.00000000000E+00 0. -1.
</event>
<event>
 4    1  0.2939002E+006  0.2805434E+02  0.7546771E-02  0.1437295E+00
         21   -1    0    0  504  501  0.00000000000E+00  0.00000000000E+00  0.60413885861E+02  0.60413885861E+02  0.00000000000E+00 0.  1.
         21   -1    0    0  503  502 -0.00000000000E+00 -0.00000000000E+00 -0.70203399851E+02  0.70203399851E+02  0.00000000000E+00 0.  1.
         21    1    1    2  503  501  0.27890961599E+02  0.30233050619E+01  0.54043572969E+02  0.60891328542E+02  0.00000000000E+00 0.  1.
         21    1    1    2  504  502 -0.27890961599E+02 -0.30233050619E+01 -0.63833086959E+02  0.69725957169E+02  0.00000000000E+00 0.  1.
</event>
<event>
 4    1  0.2939002E+006  0.2359918E+02  0.7546771E-02  0.1485108E+00
         21   -1    0    0  504  501  0.00000000000E+00  0.00000000000E+00  0.89464155345E+01  0.89464155345E+01  0.00000000000E+00 0. -1.
         21   -1    0    0  503  502 -0.00000000000E+00 -0.00000000000E+00 -0.17247811680E+03  0.17247811680E+03  0.00000000000E+00 0. -1.
         21    1    1    2  503  501  0.19981372406E+02  0.12556511141E+02 -0.92482040233E+01  0.25346607129E+02  0.00000000000E+00 0. -1.
         21    1    1    2  504  502 -0.19981372406E+02 -0.12556511141E+02 -0.15428349725E+03  0.15607792521E+03  0.00000000000E+00 0. -1.
</event>
<event>
 4    1  0.2939002E+006  0.3271865E+02  0.7546771E-02  0.1397353E+00
         21   -1    0    0  503  501  0.00000000000E+00  0.00000000000E+00  0.83904023310E+02  0.83904023310E+02  0.00000000000E+00 0. -1.
         21   -1    0    0  504  502 -0.00000000000E+00 -0.00000000000E+00 -0.11122849574E+03  0.11122849574E+03  0.00000000000E+00 0. -1.
         21    1    1    2  503  502  0.14528743009E+02 -0.29315963547E+02 -0.10546231234E+03  0.11042105513E+03  0.00000000000E+00 0. -1.
         21    1    1    2  504  501 -0.14528743009E+02  0.29315963547E+02  0.78137839915E+02  0.84711463915E+02  0.00000000000E+00 0. -1.
</event>
<event>
 4    1  0.2939002E+006  0.2469908E+02  0.7546771E-02  0.1472198E+00
         21   -1    0    0  503  501  0.00000000000E+00  0.00000000000E+00  0.42404160307E+02  0.42404160307E+02  0.00000000000E+00 0. -1.
         21   -1    0    0  501  502 -0.00000000000E+00 -0.00000000000E+00 -0.33222714484E+02  0.33222714484E+02  0.00000000000E+00 0. -1.
         21    1    1    2  503  504  0.24509823149E+02  0.30517485703E+01  0.33063261502E+02  0.41270132800E+02  0.00000000000E+00 0. -1.
         21    1    1    2  504  502 -0.24509823149E+02 -0.30517485703E+01 -0.23881815679E+02  0.34356741992E+02  0.00000000000E+00 0. -1.
</event>
<event>
 4    1  0.2939002E+006  0.3828640E+02  0.7546771E-02  0.1358831E+00
         21   -1    0    0  502  501  0.00000000000E+00  0.00000000000E+00  0.48029364518E+02  0.48029364518E+02  0.00000000000E+00 0.  1.
         21   -1    0    0  504  502 -0.00000000000E+00 -0.00000000000E+00 -0.72797667797E+02  0.72797667797E+02  0.00000000000E+00 0.  1.
         21    1    1    2  503  501 -0.16128631769E+02  0.34723419683E+02  0.33655465162E+02  0.50975866569E+02  0.00000000000E+00 0.  1.
         21    1    1    2  504  503  0.16128631769E+02 -0.34723419683E+02 -0.58423768441E+02  0.69851165746E+02  0.00000000000E+00 0.  1.
</event>
<event>
 4    1  0.2939002E+006  0.4120576E+02  0.7546771E-02  0.1341561E+00
         21   -1    0    0  502  501  0.00000000000E+00  0.00000000000E+00  0.69278887035E+02  0.69278887035E+02  0.00000000000E+00 0.  1.
         21   -1    0    0  504  502 -0.00000000000E+00 -0.00000000000E+00 -0.40030352407E+02  0.40030352407E+02  0.00000000000E+00 0. -1.
         21    1    1    2  503  501 -0.39180065434E+02  0.12760779955E+02  0.48657662114E+02  0.63761141104E+02  0.00000000000E+00 0.  1.
         21    1    1    2  504  503  0.39180065434E+02 -0.12760779955E+02 -0.19409127485E+02  0.45548098338E+02  0.00000000000E+00 0. -1.
</event>
<event>
 4    1  0.2939002E+006  0.2313050E+02  0.7546771E-02  0.1490866E+00
         21   -1    0    0  504  501  0.00000000000E+00  0.00000000000E+00  0.63496981995E+02  0.63496981995E+02  0.00000000000E+00 0.  1.
         21   -1    0    0  503  502 -0.00000000000E+00 -0.00000000000E+00 -0.10104095126E+03  0.10104095126E+03  0.00000000000E+00 0.  1.
         21    1    1    2  503  501  0.94372464029E+01 -0.21117725599E+02 -0.97536043431E+02  0.10024120771E+03  0.00000000000E+00 0.  1.
         21    1    1    2  504  502 -0.94372464029E+01  0.21117725599E+02  0.59992074164E+02  0.64296725552E+02  0.00000000000E+00 0.  1.
</event>
<event>
 4    1  0.2939002E+006  0.3489763E+02  0.7546771E-02  0.1381284E+00
         21   -1    0    0  504  501  0.00000000000E+00  0.00000000000E+00  0.18397961984E+01  0.18397961984E+01  0.00000000000E+00 0. -1.
         21   -1    0    0  503  502 -0.00000000000E+00 -0.00000000000E+00 -0.82945132914E+03  0.82945132914E+03  0.00000000000E+00 0. -1.
         21    1    1    2  503  501 -0.29078529860E+02 -0.19294656215E+02 -0.22702043478E+03  0.22968700979E+03  0.00000000000E+00 0. -1.
         21    1    1    2  504  502  0.29078529860E+02  0.19294656215E+02 -0.60059109816E+03  0.60160411555E+03  0.00000000000E+00 0. -1.
</event>
<event>
 4    1  0.2939002E+006  0.2644600E+02  0.7546771E-02  0.1453254E+00
         21   -1    0    0  503  501  0.00000000000E+00  0.00000000000E+00  0.10104559898E+02  0.10104559898E+02  0.00000000000E+00 0.  1.
         21   -1    0    0  504  502 -0.00000000000E+00 -0.00000000000E+00 -0.70660280665E+02  0.70660280665E+02  0.00000000000E+00 0.  1.
         21    1    1    2  503  502  0.25870762007E+02 -0.54858604413E+01 -0.36052476089E+02  0.44712101536E+02  0.00000000000E+00 0.  1.
         21    1    1    2  504  501 -0.25870762007E+02  0.54858604413E+01 -0.24503244678E+02  0.36052739027E+02  0.00000000000E+00 0.  1.
</event>
<event>
 4    1  0.2939002E+006  0.2350160E+02  0.7546771E-02  0.1486294E+00
         21   -1    0    0  502  501  0.00000000000E+00  0.00000000000E+00  0.78270654486E+01  0.78270654486E+01  0.00000000000E+00 0. -1.
         21   -1    0    0  504  502 -0.00000000000E+00 -0.00000000000E+00 -0.12284461517E+03  0.12284461517E+03  0.00000000000E+00 0. -1.
         21    1    1    2  503  501 -0.22951783092E+02  0.50537784746E+01 -0.14886631573E+02  0.27819720048E+02  0.00000000000E+00 0. -1.
         21    1    1    2  504  503  0.22951783092E+02 -0.50537784746E+01 -0.10013091815E+03  0.10285196057E+03  0.00000000000E+00 0. -1.
</event>
<event>
 4    1  0.2939002E+006  0.2993644E+02  0.7546771E-02  0.1420150E+00
         21   -1    0    0  502  501  0.00000000000E+00  0.00000000000E+00  0.17659152196E+02  0.17659152196E+02  0.00000000000E+00 0. -1.
         21   -1    0    0  503  502 -0.00000000000E+00 -0.00000000000E+00 -0.98484885498E+02  0.98484885498E+02  0.00000000000E+00 0. -1.
         21    1    1    2  503  504  0.28102103574E+02  0.10318066268E+02 -0.80842795274E+02  0.86207588207E+02  0.00000000000E+00 0. -1.
         21    1    1    2  504  501 -0.28102103574E+02 -0.10318066268E+02  0.17061971811E-01  0.29936449487E+02  0.00000000000E+00 0. -1.
</event>
<event>
 4    1  0.2939002E+006  0.3265468E+02  0.7546771E-02  0.1397846E+00
         21   -1    0    0  503  501  0.00000000000E+00  0.00000000000E+00  0.68324366456E+02  0.68324366456E+02  0.00000000000E+00 0.  1.
         21   -1    0    0  504  502 -0.00000000000E+00 -0.00000000000E+00 -0.86638827051E+02  0.86638827051E+02  0.00000000000E+00 0.  1.
         21    1    1    2  503  502 -0.18233513510E+02  0.27089978902E+02 -0.79313944231E+02  0.85773129366E+02  0.00000000000E+00 0.  1.
         21    1    1    2  504  501  0.18233513510E+02 -0.27089978902E+02  0.60999483636E+02  0.69190064140E+02  0.00000000000E+00 0.  1.
</event>
<event>
 4    1  0.2939002E+006  0.2697846E+02  0.7546771E-02  0.1447825E+00
         21   -1    0    0  504  501  0.00000000000E+00  0.00000000000E+00  0.48994797432E+02  0.48994797432E+02  0.00000000000E+00 0.  1.
         21   -1    0    0  503  502 -0.00000000000E+00 -0.00000000000E+00 -0.22553540081E+02  0.22553540081E+02  0.00000000000E+00 0.  1.
         21    1    1    2  503  501  0.26953565562E+02  0.11586431914E+01 -0.76797998268E+01  0.28050249124E+02  0.00000000000E+00 0.  1.
         21    1    1    2  504  502 -0.26953565562E+02 -0.11586431914E+01  0.34121057178E+02  0.43498088389E+02  0.00000000000E+00 0.  1.
</event>
<event>
 4    1  0.2939002E+006  0.2447415E+02  0.7546771E-02  0.1474773E+00
         21   -1    0    0  504  501  0.00000000000E+00  0.00000000000E+00  0.24678911227E+02  0.24678911227E+02  0.00000000000E+00 0. -1.
         21   -1    0    0  503  502 -0.00000000000E+00 -0.00000000000E+00 -0.10151174081E+03  0.10151174081E+03  0.00000000000E+00 0.  1.
         21    1    1    2  503  501 -0.21747702398E+02  0.11225924154E+02  0.16621507339E+02  0.29584767008E+02  0.00000000000E+00 0. -1.
         21    1    1    2  504  502  0.21747702398E+02 -0.11225924154E+02 -0.93454336922E+02  0.96605885030E+02  0.00000000000E+00 0.  1.
</event>
<event>
 4    1  0.2939002E+006  0.3269977E+02  0.7546771E-02  0.1397498E+00
         21   -1    0    0  502  501  0.00000000000E+00  0.00000000000E+00  0.48408488668E+01  0.48408488668E+01  0.00000000000E+00 0.  1.
         21   -1    0    0  504  502 -0.00000000000E+00 -0.00000000000E+00 -0.58621909150E+03  0.58621909150E+03  0.00000000000E+00 0. -1.
         21    1    1    2  503  501 -0.12215810799E+02 -0.30332305730E+02 -0.57388351339E+02  0.66050720464E+02  0.00000000000E+00 0.  1.
         21    1    1    2  504  503  0.12215810799E+02  0.30332305730E+02 -0.52398989129E+03  0.52500921990E+03  0.00000000000E+00 0. -1.
</event>
<event>
 4    1  0.2939002E+006  0.2176205E+02  0.7546771E-02  0.1508657E+00
         21   -1    0    0  502  501  0.00000000000E+00  0.00000000000E+00  0.22332147601E+03  0.22332147601E+03  0.00000000000E+00 0.  1.
         21   -1    0    0  504  502 -0.00000000000E+00 -0.00000000000E+00 -0.23144037530E+02  0.23144037530E+02  0.00000000000E+00 0. -1.
         21    1    1    2  503  501 -0.48922984659E+01  0.21205005541E+02  0.21754005010E+03  0.21862584532E+03  0.00000000000E+00 0.  1.
         21    1    1    2  504  503  0.48922984659E+01 -0.21205005541E+02 -0.17362611621E+02  0.27839668220E+02  0.00000000000E+00 0. -1.
</event>
<event>
 4    1  0.2939002E+006  0.2122521E+02  0.7546771E-02  0.1516074E+00
         21   -1    0    0  503  501  0.00000000000E+00  0.00000000000E+00  0.32918885079E+02  0.32918885079E+02  0.00000000000E+00 0. -1.
         21   -1    0    0  504  502 -0.00000000000E+00 -0.00000000000E+00 -0.16575239270E+02  0.16575239270E+02  0.00000000000E+00 0. -1.
         21    1    1    2  503  502 -0.20236430276E+02  0.64028483886E+01  0.18504842183E+02  0.28159168348E+02  0.00000000000E+00 0. -1.
         21    1    1    2  504  501  0.20236430276E+02 -0.64028483886E+01 -0.21611963739E+01  0.21334956001E+02  0.00000000000E+00 0. -1.
</event>
<event>
 4    1  0.2939002E+006  0.2065985E+02  0.7546771E-02  0.1524177E+00
         21   -1    0    0  503  501  0.00000000000E+00  0.00000000000E+00  0.11724529763E+02  0.11724529763E+02  0.00000000000E+00 0.  1.
         21   -1    0    0  504  502 -0.00000000000E+00 -0.00000000000E+00 -0.49780607074E+02  0.49780607074E+02  0.00000000000E+00 0.  1.
         21    1    1    2  503  502  0.66616950437E+01  0.19556358436E+02 -0.30872040856E+01  0.20889235630E+02  0.00000000000E+00 0.  1.
         21    1    1    2  504  501 -0.66616950437E+01 -0.19556358436E+02 -0.34968873225E+02  0.40615901206E+02  0.00000000000E+00 0.  1.
</event>
<event>
 4    1  0.2939002E+006  0.4556819E+02  0.7546771E-02  0.1318622E+00
         21   -1    0    0  503  501  0.00000000000E+00  0.00000000000E+00  0.19908403005E+03  0.19908403005E+03  0.00000000000E+00 0.  1.
         21   -1    0    0  504  502 -0.00000000000E+00 -0.00000000000E+00 -0.10435191345E+02  0.10435191345E+02  0.00000000000E+00 0.  1.
         21    1    1    2  503  502 -0.22700452701E+02 -0.39511380444E+02  0.92002911123E+02  0.10266934982E+03  0.00000000000E+00 0.  1.
         21    1    1    2  504  501  0.22700452701E+02  0.39511380444E+02  0.96645927580E+02  0.10684987157E+03  0.00000000000E+00 0.  1.
</event>
<event>
 4    1  0.2939002E+006  0.3002991E+02  0.7546771E-02  0.1419337E+00
         21   -1    0    0  502  501  0.00000000000E+00  0.00000000000E+00  0.23581822687E+02  0.23581822687E+02  0.00000000000E+00 0.  1.
         21   -1    0    0  503  502 -0.00000000000E+00 -0.00000000000E+00 -0.30387896676E+03  0.30387896676E+03  0.00000000000E+00 0. -1.
         21    1    1    2  503  504  0.27877082847E+02 -0.11165283812E+02 -0.29323051434E+03  0.29476419364E+03  0.00000000000E+00 0. -1.
         21    1    1    2  504  501 -0.27877082847E+02  0.11165283812E+02  0.12933370272E+02  0.32696595805E+02  0.00000000000E+00 0.  1.
</event>
<event>
 4    1  0.2939002E+006  0.2951600E+02  0.7546771E-02  0.1423850E+00
         21   -1    0    0  503  501  0.00000000000E+00  0.00000000000E+00  0.72426036089E+03  0.72426036089E+03  0.00000000000E+00 0. -1.
         21   -1    0    0  504  502 -0.00000000000E+00 -0.00000000000E+00 -0.25963627365E+01  0.25963627365E+01  0.00000000000E+00 0.  1.
         21    1    1    2  503  502  0.23506816994E+02  0.17850034680E+02  0.62708089498E+03  0.62777515325E+03  0.00000000000E+00 0. -1.
         21    1    1    2  504  501 -0.23506816994E+02 -0.17850034680E+02  0.94583103174E+02  0.99081570382E+02  0.00000000000E+00 0.  1.
</event>
<event>
 4    1  0.2939002E+006  0.2385841E+02  0.7546771E-02  0.1481991E+00
         21   -1    0    0  503  501  0.00000000000E+00  0.00000000000E+00  0.44647749822E+02  0.44647749822E+02  0.00000000000E+00 0. -1.
         21   -1    0    0  504  502 -0.00000000000E+00 -0.00000000000E+00 -0.63108485315E+02  0.63108485315E+02  0.00000000000E+00 0. -1.
         21    1    1    2  503  502 -0.23857500396E+02  0.20812917929E+00  0.38898789943E+02  0.45632658283E+02  0.00000000000E+00 0. -1.
         21    1    1    2  504  501  0.23857500396E+02 -0.20812917929E+00 -0.57359525436E+02  0.62123576854E+02  0.00000000000E+00 0. -1.
</event>
<event>
 4    1  0.2939002E+006  0.2198634E+02  0.7546771E-02  0.1505635E+00
         21   -1    0    0  503  501  0.00000000000E+00  0.00000000000E+00  0.22696347053E+03  0.22696347053E+03  0.00000000000E+00 0.  1.
         21   -1    0    0  501  502 -0.00000000000E+00 -0.00000000000E+00 -0.31683826153E+01  0.31683826153E+01  0.00000000000E+00 0. -1.
         21    1    1    2  503  504 -0.89231063297E+01  0.20094214740E+02  0.17777501875E+03  0.17912944087E+03  0.00000000000E+00 0.  1.
         21    1    1    2  504  502  0.89231063297E+01 -0.20094214740E+02  0.46020069161E+02  0.51002412278E+02  0.00000000000E+00 0. -1.
</event>
<event>
 4    1  0.2939002E+006  0.2647446E+02  0.7546771E-02  0.1452960E+00
         21   -1    0    0  502  501  0.00000000000E+00  0.00000000000E+00  0.17618645645E+02  0.17618645645E+02  0.00000000000E+00 0.  1.
         21   -1    0    0  503  502 -0.00000000000E+00 -0.00000000000E+00 -0.79884893470E+02  0.79884893470E+02  0.00000000000E+00 0.  1.
         21    1    1    2  503  504 -0.20078111953E+02  0.17255912431E+02 -0.65675191221E+02  0.70810506532E+02  0.00000000000E+00 0.  1.
         21    1    1    2  504  501  0.20078111953E+02 -0.17255912431E+02  0.34089433967E+01  0.26693032583E+02  0.00000000000E+00 0.  1.
</event>
<event>
 4    1  0.2939002E+006  0.2776175E+02  0.7546771E-02  0.1440103E+00
         21   -1    0    0  504  501  0.00000000000E+00  0.00000000000E+00  0.14618876830E+02  0.14618876830E+02  0.00000000000E+00 0.  1.
         21   -1    0    0  503  502 -0.00000000000E+00 -0.00000000000E+00 -0.72426666511E+02  0.72426666511E+02  0.00000000000E+00 0.  1.
         21    1    1    2  503  501  0.77791985083E+01  0.26649551306E+02 -0.51606116337E+02  0.58599537180E+02  0.00000000000E+00 0.  1.
         21    1    1    2  504  502 -0.77791985083E+01 -0.26649551306E+02 -0.62016733438E+01  0.28446006161E+02  0.00000000000E+00 0.  1.
</event>
<event>
 4    1  0.2939002E+006  0.2060348E+02  0.7546771E-02  0.1525002E+00
         21   -1    0    0  503  501  0.00000000000E+00  0.00000000000E+00  0.11964335789E+03  0.11964335789E+03  0.00000000000E+00 0.  1.
         21   -1    0    0  504  502 -0.00000000000E+00 -0.00000000000E+00 -0.10123229162E+04  0.10123229162E+04  0.00000000000E+00 0. -1.
         21    1    1    2  503  502 -0.10972863858E+02  0.17438457898E+02 -0.10113301929E+04  0.10115400450E+04  0.00000000000E+00 0. -1.
         21    1    1    2  504  501  0.10972863858E+02 -0.17438457898E+02  0.11865063461E+03  0.12042622907E+03  0.00000000000E+00 0.  1.
</event>
<event>
 4    1  0.2939002E+006  0.2869046E+02  0.7546771E-02  0.1431328E+00
         21   -1    0    0  503  501  0.00000000000E+00  0.00000000000E+00  0.35098881965E+02  0.35098881965E+02  0.00000000000E+00 0.  1.
         21   -1    0    0  501  502 -0.00000000000E+00 -0.00000000000E+00 -0.72649415267E+02  0.72649415267E+02  0.00000000000E+00 0.  1.
         21    1    1    2  503  504  0.18823812476E+02 -0.21651946706E+02  0.25558540954E+02  0.38423713095E+02  0.00000000000E+00 0.  1.
         21    1    1    2  504  502 -0.18823812476E+02  0.21651946706E+02 -0.63109074257E+02  0.69324584137E+02  0.00000000000E+00 0.  1.
</event>
<event>
 4    1  0.2939002E+006  0.2806518E+02  0.7546771E-02  0.1437192E+00
         21   -1    0    0  502  501  0.00000000000E+00  0.00000000000E+00  0.31118679538E+02  0.31118679538E+02  0.00000000000E+00 0. -1.
         21   -1    0    0  503  502 -0.00000000000E+00 -0.00000000000E+00 -0.88990980716E+02  0.88990980716E+02  0.00000000000E+00 0. -1.
         21    1    1    2  503  504 -0.21105569947E+02 -0.18498897836E+02 -0.79737515078E+02  0.84532393878E+02  0.00000000000E+00 0. -1.
         21    1    1    2  504  501  0.21105569947E+02  0.18498897836E+02  0.21865213900E+02  0.35577266377E+02  0.00000000000E+00 0. -1.
</event>
<event>
 4    1  0.2939002E+006  0.2176934E+02  0.7546771E-02  0.1508558E+00
         21   -1    0    0  504  501  0.00000000000E+00  0.00000000000E+00  0.18895086314E+02  0.18895086314E+02  0.00000000000E+00 0. -1.
         21   -1    0    0  503  502 -0.00000000000E+00 -0.00000000000E+00 -0.25605072144E+02  0.25605072144E+02  0.00000000000E+00 0. -1.
         21    1    1    2  503  501 -0.11533609478E+02 -0.18462936945E+02 -0.17123371138E+00  0.21770013992E+02  0.00000000000E+00 0. -1.
         21    1    1    2  504  502  0.11533609478E+02  0.18462936945E+02 -0.65387521186E+01  0.22730144467E+02  0.00000000000E+00 0. -1.
</event>
<event>
 4    1  0.2939002E+006  0.2126673E+02  0.7546771E-02  0.1515491E+00
         21   -1    0    0  504  501  0.00000000000E+00  0.00000000000E+00  0.88047689791E+02  0.88047689791E+02  0.00000000000E+00 0.  1.
         21   -1    0    0  501  502 -0.00000000000E+00 -0.00000000000E+00 -0.59366662631E+01  0.59366662631E+01  0.00000000000E+00 0. -1.
         21    1    1    2  503  502  0.20981246852E+02  0.34729135711E+01  0.23805384136E+02  0.31921312034E+02  0.00000000000E+00 0. -1.
         21    1    1    2  504  503 -0.20981246852E+02 -0.34729135711E+01  0.58305639392E+02  0.62063044020E+02  0.00000000000E+00 0.  1.
</event>
<event>
 4    1  0.2939002E+006  0.2052764E+02  0.7546771E-02  0.1526117E+00
         21   -1    0    0  504  501  0.00000000000E+00  0.00000000000E+00  0.19795593062E+03  0.19795593062E+03  0.00000000000E+00 0. -1.
         21   -1    0    0  503  502 -0.00000000000E+00 -0.00000000000E+00 -0.25824502199E+01  0.25824502199E+01  0.00000000000E+00 0. -1.
         21    1    1    2  503  501 -0.68657951149E+01 -0.19345409054E+02  0.55655563740E+02  0.59320534129E+02  0.00000000000E+00 0. -1.
         21    1    1    2  504  502  0.68657951149E+01  0.19345409054E+02  0.13971791666E+03  0.14121784671E+03  0.00000000000E+00 0. -1.
</event>
<event>
 4    1  0.2939002E+006  0.2895209E+02  0.7546771E-02  0.1428927E+00
         21   -1    0    0  502  501  0.00000000000E+00  0.00000000000E+00  0.19897849655E+02  0.19897849655E+02  0.00000000000E+00 0. -1.
         21   -1    0    0  503  502 -0.00000000000E+00 -0.00000000000E+00 -0.46861486064E+02  0.46861486064E+02  0.00000000000E+00 0. -1.
         21    1    1    2  503  504  0.26852630816E+02 -0.10824027814E+02 -0.24092448422E+02  0.37665228406E+02  0.00000000000E+00 0. -1.
         21    1    1    2  504  501 -0.26852630816E+02  0.10824027814E+02 -0.28711879870E+01  0.29094107313E+02  0.00000000000E+00 0. -1.
</event>
<event>
 4    1  0.2939002E+006  0.2040695E+02  0.7546771E-02  0.1527903E+00
         21   -1    0    0  504  501  0.00000000000E+00  0.00000000000E+00  0.30817126563E+03  0.30817126563E+03  0.00000000000E+00 0. -1.
         21   -1    0    0  503  502 -0.00000000000E+00 -0.00000000000E+00 -0.98026926417E+02  0.98026926417E+02  0.00000000000E+00 0. -1.
         21    1    1    2  503  501 -0.20406412142E+02 -0.14876950773E+00  0.30676650806E+03  0.30744452224E+03  0.00000000000E+00 0. -1.
         21    1    1    2  504  502  0.20406412142E+02  0.14876950773E+00 -0.96622168843E+02  0.98753669809E+02  0.00000000000E+00 0. -1.
</event>
<event>
 4    1  0.2939002E+006  0.2378994E+02  0.7546771E-02  0.1482810E+00
         21   -1    0    0  504  501  0.00000000000E+00  0.00000000000E+00  0.22668626757E+03  0.22668626757E+03  0.00000000000E+00 0.  1.
         21   -1    0    0  501  502 -0.00000000000E+00 -0.00000000000E+00 -0.42852218389E+03  0.42852218389E+03  0.00000000000E+00 0.  1.
         21    1    1    2  503  502 -0.19132928062E+02  0.14138327168E+02 -0.42756643979E+03  0.42822776845E+03  0.00000000000E+00 0.  1.
         21    1    1    2  504  503  0.19132928062E+02 -0.14138327168E+02  0.22573052348E+03  0.22698068301E+03  0.00000000000E+00 0.  1.
</event>
<event>
 4    1  0.2939002E+006  0.3204924E+02  0.7546771E-02  0.1402586E+00
         21   -1    0    0  504  501  0.00000000000E+00  0.00000000000E+00  0.39897961538E+01  0.39897961538E+01  0.00000000000E+00 0. -1.
         21   -1    0    0  503  502 -0.00000000000E+00 -0.00000000000E+00 -0.45146999312E+03  0.45146999312E+03  0.00000000000E+00 0. -1.
         21    1    1    2  503  501  0.16778400655E+01 -0.32005289804E+02 -0.74448882446E+02  0.81054239989E+02  0.00000000000E+00 0. -1.
         21    1    1    2  504  502 -0.16778400655E+01  0.32005289804E+02 -0.37303131452E+03  0.37440554929E+03  0.00000000000E+00 0. -1.
</event>
<event>
 4    1  0.2939002E+006  0.2179763E+02  0.7546771E-02  0.1508175E+00
         21   -1    0    0  502  501  0.00000000000E+00  0.00000000000E+00  0.31992320247E+02  0.31992320247E+02  0.00000000000E+00 0. -1.
         21   -1    0    0  504  502 -0.00000000000E+00 -0.00000000000E+00 -0.81275808962E+03  0.81275808962E+03  0.00000000000E+00 0. -1.
         21    1    1    2  503  501 -0.38162208919E+01 -0.21460965184E+02  0.28115483218E+02  0.35575510750E+02  0.00000000000E+00 0. -1.
         21    1    1    2  504  503  0.38162208919E+01  0.21460965184E+02 -0.80888125259E+03  0.80917489912E+03  0.00000000000E+00 0. -1.
</event>
<event>
 4    1  0.2939002E+006  0.2021697E+02  0.7546771E-02  0.1530744E+00
         21   -1    0    0  504  501  0.00000000000E+00  0.00000000000E+00  0.10353303602E+04  0.10353303602E+04  0.00000000000E+00 0. -1.
         21   -1    0    0  501  502 -0.00000000000E+00 -0.00000000000E+00 -0.20606029242E+01  0.20606029242E+01  0.00000000000E+00 0.  1.
         21    1    1    2  503  502 -0.20027588033E+02  0.27607096497E+01  0.50265563999E+02  0.54178895562E+02  0.00000000000E+00 0.  1.
         21    1    1    2  504  503  0.20027588033E+02 -0.27607096497E+01  0.98300419329E+03  0.98321206758E+03  0.00000000000E+00 0. -1.
</event>
<event>
 4    1  0.2939002E+006  0.2071978E+02  0.7546771E-02  0.1523304E+00
         21   -1    0    0  502  501  0.00000000000E+00  0.00000000000E+00  0.52536355901E+02  0.52536355901E+02  0.00000000000E+00 0. -1.
         21   -1    0    0  504  502 -0.00000000000E+00 -0.00000000000E+00 -0.96646876393E+02  0.96646876393E+02  0.00000000000E+00 0. -1.
         21    1    1    2  503  501 -0.16336484490E+02  0.12744743751E+02  0.49313298004E+02  0.53489350143E+02  0.00000000000E+00 0. -1.
         21    1    1    2  504  503  0.16336484490E+02 -0.12744743751E+02 -0.93423818495E+02  0.95693882151E+02  0.00000000000E+00 0. -1.
</event>
<event>
 4    1  0.2939002E+006  0.2133063E+02  0.7546771E-02  0.1514596E+00
         21   -1    0    0  503  501  0.00000000000E+00  0.00000000000E+00  0.81725934921E+01  0.81725934921E+01  0.00000000000E+00 0.  1.
         21   -1    0    0  504  502 -0.00000000000E+00 -0.00000000000E+00 -0.71196334907E+02  0.71196334907E+02  0.00000000000E+00 0.  1.
         21    1    1    2  503  502  0.13560759559E+02  0.16465167667E+02 -0.50042016089E+02  0.54398523145E+02  0.00000000000E+00 0.  1.
         21    1    1    2  504  501 -0.13560759559E+02 -0.16465167667E+02 -0.12981725326E+02  0.24970405254E+02  0.00000000000E+00 0.  1.
</event>
<event>
 4    1  0.2939002E+006  0.4102761E+02  0.7546771E-02  0.1342567E+00
         21   -1    0    0  504  501  0.00000000000E+00  0.00000000000E+00  0.77365677644E+00  0.77365677644E+00  0.00000000000E+00 0. -1.
         21   -1    0    0  503  502 -0.00000000000E+00 -0.00000000000E+00 -0.24833123502E+04  0.24833123502E+04  0.00000000000E+00 0.  1.
         21    1    1    2  503  501  0.34125332958E+02  0.22775566648E+02 -0.80414516450E+03  0.80519110177E+03  0.00000000000E+00 0. -1.
         21    1    1    2  504  502 -0.34125332958E+02 -0.22775566648E+02 -0.16783935289E+04  0.16788949052E+04  0.00000000000E+00 0.  1.
</event>
<event>
 4    1  0.2939002E+006  0.2093008E+02  0.7546771E-02  0.1520265E+00
         21   -1    0    0  503  501  0.00000000000E+00  0.00000000000E+00  0.16094660770E+02  0.16094660770E+02  0.00000000000E+00 0.  1.
         21   -1    0    0  504  502 -0.00000000000E+00 -0.00000000000E+00 -0.27421926149E+02  0.27421926149E+02  0.00000000000E+00 0. -1.
         21    1    1    2  503  502  0.34393526157E+01  0.20645555354E+02 -0.37883259463E+01  0.21270155518E+02  0.00000000000E+00 0. -1.
         21    1    1    2  504  501 -0.34393526157E+01 -0.20645555354E+02 -0.75389394323E+01  0.22246431401E+02  0.00000000000E+00 0.  1.
</event>
<event>
 4    1  0.2939002E+006  0.2651748E+02  0.7546771E-02  0.1452516E+00
         21   -1    0    0  503  501  0.00000000000E+00  0.00000000000E+00  0.20983399051E+03  0.20983399051E+03  0.00000000000E+00 0. -1.
         21   -1    0    0  501  502 -0.00000000000E+00 -0.00000000000E+00 -0.15744214975E+04  0.15744214975E+04  0.00000000000E+00 0. -1.
         21    1    1    2  503  504 -0.20778561582E+02  0.16475069981E+02  0.20888405120E+03  0.21056049819E+03  0.00000000000E+00 0. -1.
         21    1    1    2  504  502  0.20778561582E+02 -0.16475069981E+02 -0.15734715582E+04  0.15736949899E+04  0.00000000000E+00 0. -1.
</event>
<event>
 4    1  0.2939002E+006  0.2057187E+02  0.7546771E-02  0.1525466E+00
         21   -1    0    0  503  501  0.00000000000E+00  0.00000000000E+00  0.10042477003E+03  0.10042477003E+03  0.00000000000E+00 0.  1.
         21   -1    0    0  504  502 -0.00000000000E+00 -0.00000000000E+00 -0.56822783190E+01  0.56822783190E+01  0.00000000000E+00 0.  1.
         21    1    1    2  503  502  0.40442487304E+01 -0.20170416902E+02  0.74338701399E+02  0.77132640247E+02  0.00000000000E+00 0.  1.
         21    1    1    2  504  501 -0.40442487304E+01  0.20170416902E+02  0.20403790314E+02  0.28974408104E+02  0.00000000000E+00 0.  1.
</event>
<event>
 4    1  0.2939002E+006  0.2062880E+02  0.7546771E-02  0.1524631E+00
         21   -1    0    0  502  501  0.00000000000E+00  0.00000000000E+00  0.18978066015E+03  0.18978066015E+03  0.00000000000E+00 0. -1.
         21   -1    0    0  504  502 -0.00000000000E+00 -0.00000000000E+00 -0.13528678334E+02  0.13528678334E+02  0.00000000000E+00 0.  1.
         21    1    1    2  503  501 -0.91902998003E+01 -0.18468511941E+02  0.18097487919E+03  0.18214679367E+03  0.00000000000E+00 0. -1.
         21    1    1    2  504  503  0.91902998003E+01  0.18468511941E+02 -0.47228973740E+01  0.21162544822E+02  0.00000000000E+00 0.  1.
</event>
<event>
 4    1  0.2939002E+006  0.2100042E+02  0.7546771E-02  0.1519259E+00
         21   -1    0    0  502  501  0.00000000000E+00  0.00000000000E+00  0.67017240374E+02  0.67017240374E+02  0.00000000000E+00 0.  1.
         21   -1    0    0  504  502 -0.00000000000E+00 -0.00000000000E+00 -0.76898605282E+01  0.76898605282E+01  0.00000000000E+00 0.  1.
         21    1    1    2  503  501 -0.85278096977E+01  0.19190988665E+02  0.43850277705E+02  0.48619589046E+02  0.00000000000E+00 0.  1.
         21    1    1    2  504  503  0.85278096977E+01 -0.19190988665E+02  0.15477102140E+02  0.26087511856E+02  0.00000000000E+00 0.  1.
</event>
<event>
 4    1  0.2939002E+006  0.2554945E+02  0.7546771E-02  0.1462750E+00
         21   -1    0    0  503  501  0.00000000000E+00  0.00000000000E+00  0.21494714649E+02  0.21494714649E+02  0.00000000000E+00 0. -1.
         21   -1    0    0  504  502 -0.00000000000E+00 -0.00000000000E+00 -0.30522454333E+02  0.30522454333E+02  0.00000000000E+00 0. -1.
         21    1    1    2  503  502  0.24656316200E+02  0.66962911773E+01 -0.26700693049E+01  0.25688587236E+02  0.00000000000E+00 0. -1.
         21    1    1    2  504  501 -0.24656316200E+02 -0.66962911773E+01 -0.63576703785E+01  0.26328581746E+02  0.00000000000E+00 0. -1.
</event>
<event>
 4    1  0.2939002E+006  0.2056482E+02  0.7546771E-02  0.1525570E+00
         21   -1    0    0  504  501  0.00000000000E+00  0.00000000000E+00  0.92927176068E+01  0.92927176068E+01  0.00000000000E+00 0.  1.
         21   -1    0    0  503  502 -0.00000000000E+00 -0.00000000000E+00 -0.99146929507E+02  0.99146929507E+02  0.00000000000E+00 0.  1.
         21    1    1    2  503  501 -0.19306536337E+02  0.70830325833E+01 -0.50475449994E+01  0.21175207353E+02  0.00000000000E+00 0.  1.
         21    1    1    2  504  502  0.19306536337E+02 -0.70830325833E+01 -0.84806666900E+02  0.87264439760E+02  0.00000000000E+00 0.  1.
</event>
<event>
 4    1  0.2939002E+006  0.2684423E+02  0.7546771E-02  0.1449179E+00
         21   -1    0    0  503  501  0.00000000000E+00  0.00000000000E+00  0.59370323041E+02  0.59370323041E+02  0.00000000000E+00 0. -1.
         21   -1    0    0  504  502 -0.00000000000E+00 -0.00000000000E+00 -0.20199470881E+02  0.20199470881E+02  0.00000000000E+00 0. -1.
         21    1    1    2  503  502 -0.17319966372E+02  0.20509305226E+02 -0.55488476256E+01  0.27411722783E+02  0.00000000000E+00 0. -1.
         21    1    1    2  504  501  0.17319966372E+02 -0.20509305226E+02  0.44719699786E+02  0.52158071138E+02  0.00000000000E+00 0. -1.
</event>
<event>
 4    1  0.2939002E+006  0.2409804E+02  0.7546771E-02  0.1479152E+00
         21   -1    0    0  502  501  0.00000000000E+00  0.00000000000E+00  0.93344063956E+02  0.93344063956E+02  0.00000000000E+00 0. -1.
         21   -1    0    0  503  502 -0.00000000000E+00 -0.00000000000E+00 -0.11706758714E+02  0.11706758714E+02  0.00000000000E+00 0.  1.
         21    1    1    2  503  504 -0.23618698800E+02 -0.47825164101E+01  0.48635807995E+01  0.24583934071E+02  0.00000000000E+00 0.  1.
         21    1    1    2  504  501  0.23618698800E+02  0.47825164101E+01  0.76773724442E+02  0.80466888600E+02  0.00000000000E+00 0. -1.
</event>
<event>
 4    1  0.2939002E+006  0.2148937E+02  0.7546771E-02  0.1512391E+00
         21   -1    0    0  503  501  0.00000000000E+00  0.00000000000E+00  0.16980713559E+02  0.16980713559E+02  0.00000000000E+00 0. -1.
         21   -1    0    0  501  502 -0.00000000000E+00 -0.00000000000E+00 -0.11524133609E+03  0.11524133609E+03  0.00000000000E+00 0. -1.
         21    1    1    2  503  504  0.12931113998E+02 -0.17163311763E+02  0.86560078736E+01  0.23167206396E+02  0.00000000000E+00 0. -1.
         21    1    1    2  504  502 -0.12931113998E+02  0.17163311763E+02 -0.10691663041E+03  0.10905484326E+03  0.00000000000E+00 0. -1.
</event>
<event>
 4    1  0.2939002E+006  0.2607950E+02  0.7546771E-02  0.1457080E+00
         21   -1    0    0  503  501  0.00000000000E+00  0.00000000000E+00  0.26334580670E+01  0.26334580670E+01  0.00000000000E+00 0. -1.
         21   -1    0    0  504  502 -0.00000000000E+00 -0.00000000000E+00 -0.49575741061E+03  0.49575741061E+03  0.00000000000E+00 0. -1.
         21    1    1    2  503  502  0.91385132547E+01  0.24425972982E+02 -0.74086765440E+02  0.78542914346E+02  0.00000000000E+00 0. -1.
         21    1    1    2  504  501 -0.91385132547E+01 -0.24425972982E+02 -0.41903718711E+03  0.41984795433E+03  0.00000000000E+00 0. -1.
</event>
<event>
 4    1  0.2939002E+006  0.2059728E+02  0.7546771E-02  0.1525093E+00
         21   -1    0    0  504  501  0.00000000000E+00  0.00000000000E+00  0.60844932154E+03  0.60844932154E+03  0.00000000000E+00 0. -1.
         21   -1    0    0  503  502 -0.00000000000E+00 -0.00000000000E+00 -0.70789461437E+00  0.70789461437E+00  0.00000000000E+00 0. -1.
         21    1    1    2  503  501 -0.18034014588E+02 -0.99509876074E+01  0.34120092422E+03  0.34182205681E+03  0.00000000000E+00 0. -1.
         21    1    1    2  504  502  0.18034014588E+02  0.99509876074E+01  0.26654050271E+03  0.26733515934E+03  0.00000000000E+00 0. -1.
</event>
<event>
 4    1  0.2939002E+006  0.5039313E+02  0.7546771E-02  0.1296477E+00
         21   -1    0    0  503  501  0.00000000000E+00  0.00000000000E+00  0.32633371701E+03  0.32633371701E+03  0.00000000000E+00 0. -1.
         21   -1    0    0  501  502 -0.00000000000E+00 -0.00000000000E+00 -0.47523592095E+02  0.47523592095E+02  0.00000000000E+00 0.  1.
         21    1    1    2  503  504 -0.14262845826E+02 -0.48332582793E+02  0.31034554019E+03  0.31441027599E+03  0.00000000000E+00 0. -1.
         21    1    1    2  504  502  0.14262845826E+02  0.48332582793E+02 -0.31535415272E+02  0.59447033121E+02  0.00000000000E+00 0.  1.
</event>
<event>
 4    1  0.2939002E+006  0.3226176E+02  0.7546771E-02  0.1400908E+00
         21   -1    0    0  504  501  0.00000000000E+00  0.00000000000E+00  0.21763248686E+03  0.21763248686E+03  0.00000000000E+00 0.  1.
         21   -1    0    0  501  502 -0.00000000000E+00 -0.00000000000E+00 -0.14616090316E+03  0.14616090316E+03  0.00000000000E+00 0.  1.
         21    1    1    2  503  502 -0.15911708499E+02  0.28064899855E+02 -0.14316026976E+03  0.14675041366E+03  0.00000000000E+00 0.  1.
         21    1    1    2  504  503  0.15911708499E+02 -0.28064899855E+02  0.21463185346E+03  0.21704297637E+03  0.00000000000E+00 0.  1.
</event>
<event>
 4    1  0.2939002E+006  0.2125285E+02  0.7546771E-02  0.1515685E+00
         21   -1    0    0  504  501  0.00000000000E+00  0.00000000000E+00  0.11644218715E+02  0.11644218715E+02  0.00000000000E+00 0. -1.
         21   -1    0    0  503  502 -0.00000000000E+00 -0.00000000000E+00 -0.45889784446E+02  0.45889784446E+02  0.00000000000E+00 0. -1.
         21    1    1    2  503  501 -0.87813606187E+01  0.19353844486E+02 -0.28437605552E+02  0.35501845025E+02  0.00000000000E+00 0. -1.
         21    1    1    2  504  502  0.87813606187E+01 -0.19353844486E+02 -0.58079601793E+01  0.22032158136E+02  0.00000000000E+00 0. -1.
</event>
<event>
 4    1  0.2939002E+006  0.2252979E+02  0.7546771E-02  0.1498489E+00
         21   -1    0    0  504  501  0.00000000000E+00  0.00000000000E+00  0.18881906107E+02  0.18881906107E+02  0.00000000000E+00 0. -1.
         21   -1    0    0  501  502 -0.00000000000E+00 -0.00000000000E+00 -0.34933403698E+02  0.34933403698E+02  0.00000000000E+00 0. -1.
         21    1    1    2  503  502 -0.97881896194E+00  0.22508516741E+02 -0.20943286986E+02  0.30760570251E+02  0.00000000000E+00 0. -1.
         21    1    1    2  504  503  0.97881896194E+00 -0.22508516741E+02  0.48917893944E+01  0.23054739554E+02  0.00000000000E+00 0. -1.
</event>
<event>
 4    1  0.2939002E+006  0.2828237E+02  0.7546771E-02  0.1435135E+00
         21   -1    0    0  503  501  0.00000000000E+00  0.00000000000E+00  0.47175310261E+02  0.47175310261E+02  0.00000000000E+00 0.  1.
         21   -1    0    0  504  502 -0.00000000000E+00 -0.00000000000E+00 -0.13971225274E+03  0.13971225274E+03  0.00000000000E+00 0.  1.
         21    1    1    2  503  502 -0.10099301585E+02  0.26417729505E+02 -0.13385865303E+03  0.13681385645E+03  0.00000000000E+00 0.  1.
         21    1    1    2  504  501  0.10099301585E+02 -0.26417729505E+02  0.41321710554E+02  0.50073706552E+02  0.00000000000E+00 0.  1.
</event>
<event>
 4    1  0.2939002E+006  0.2336731E+02  0.7546771E-02  0.1487937E+00
         21   -1    0    0  504  501  0.00000000000E+00  0.00000000000E+00  0.51034239272E+02  0.51034239272E+02  0.00000000000E+00 0. -1.
         21   -1    0    0  503  502 -0.00000000000E+00 -0.00000000000E+00 -0.22959968263E+02  0.22959968263E+02  0.00000000000E+00 0. -1.
         21    1    1    2  503  501  0.23209143249E+02 -0.27141832938E+01 -0.12998649773E+02  0.26739409441E+02  0.00000000000E+00 0. -1.
         21    1    1    2  504  502 -0.23209143249E+02  0.27141832938E+01  0.41072920783E+02  0.47254798094E+02  0.00000000000E+00 0. -1.
</event>
<event>
 4    1  0.2939002E+006  0.4119677E+02  0.7546771E-02  0.1341612E+00
         21   -1    0    0  503  501  0.00000000000E+00  0.00000000000E+00  0.13208529065E+03  0.13208529065E+03  0.00000000000E+00 0.  1.
         21   -1    0    0  504  502 -0.00000000000E+00 -0.00000000000E+00 -0.38534522370E+02  0.38534522370E+02  0.00000000000E+00 0. -1.
         21    1    1    2  503  502  0.13596604452E+02 -0.38888385156E+02 -0.22874118710E+02  0.47121114794E+02  0.00000000000E+00 0. -1.
         21    1    1    2  504  501 -0.13596604452E+02  0.38888385156E+02  0.11642488699E+03  0.12349869823E+03  0.00000000000E+00 0.  1.
</event>
<event>
 4    1  0.2939002E+006  0.2751750E+02  0.7546771E-02  0.1442478E+00
         21   -1    0    0  504  501  0.00000000000E+00  0.00000000000E+00  0.18764393981E+02  0.18764393981E+02  0.00000000000E+00 0.  1.
         21   -1    0    0  503  502 -0.00000000000E+00 -0.00000000000E+00 -0.59177867715E+02  0.59177867715E+02  0.00000000000E+00 0.  1.
         21    1    1    2  503  501 -0.20282486651E+02  0.18596605714E+02 -0.42186401890E+02  0.50367703077E+02  0.00000000000E+00 0.  1.
         21    1    1    2  504  502  0.20282486651E+02 -0.18596605714E+02  0.17729281563E+01  0.27574558619E+02  0.00000000000E+00 0.  1.
</event>
<event>
 4    1  0.2939002E+006  0.2902433E+02  0.7546771E-02  0.1428269E+00
         21   -1    0    0  502  501  0.00000000000E+00  0.00000000000E+00  0.31719995046E+02  0.31719995046E+02  0.00000000000E+00 0.  1.
         21   -1    0    0  503  502 -0.00000000000E+00 -0.00000000000E+00 -0.35765798604E+03  0.35765798604E+03  0.00000000000E+00 0.  1.
         21    1    1    2  503  504 -0.22868557326E+02 -0.17872904923E+02 -0.35029030117E+03  0.35149069225E+03  0.00000000000E+00 0.  1.
         21    1    1    2  504  501  0.22868557326E+02  0.17872904923E+02  0.24352310175E+02  0.37887288837E+02  0.00000000000E+00 0.  1.
</event>
<event>
 4    1  0.2939002E+006  0.4101168E+02  0.7546771E-02  0.1342657E+00
         21   -1    0    0  504  501  0.00000000000E+00  0.00000000000E+00  0.14519217511E+03  0.14519217511E+03  0.00000000000E+00 0. -1.
         21   -1    0    0  503  502 -0.00000000000E+00 -0.00000000000E+00 -0.11605466058E+02  0.11605466058E+02  0.00000000000E+00 0. -1.
         21    1    1    2  503  501  0.23803126547E+02  0.33397142709E+02  0.70136950233E+02  0.81247460037E+02  0.00000000000E+00 0. -1.
         21    1    1    2  504  502 -0.23803126547E+02 -0.33397142709E+02  0.63449758817E+02  0.75550181128E+02  0.00000000000E+00 0. -1.
</event>
<event>
 4    1  0.2939002E+006  0.2238183E+02  0.7546771E-02  0.1500410E+00
         21   -1    0    0  504  501  0.00000000000E+00  0.00000000000E+00  0.51147763684E+01  0.51147763684E+01  0.00000000000E+00 0. -1.
         21   -1    0    0  501  502 -0.00000000000E+00 -0.00000000000E+00 -0.35024072157E+03  0.35024072157E+03  0.00000000000E+00 0.  1.
         21    1    1    2  503  502  0.20380277090E+02  0.92515080735E+01 -0.32336533532E+03  0.32413899208E+03  0.00000000000E+00 0.  1.
         21    1    1    2  504  503 -0.20380277090E+02 -0.92515080735E+01 -0.21760609878E+02  0.31216505861E+02  0.00000000000E+00 0. -1.
</event>
<event>
 4    1  0.2939002E+006  0.4332319E+02  0.7546771E-02  0.1330040E+00
         21   -1    0    0  504  501  0.00000000000E+00  0.00000000000E+00  0.88359221653E+03  0.88359221653E+03  0.00000000000E+00 0. -1.
         21   -1    0    0  501  502 -0.00000000000E+00 -0.00000000000E+00 -0.87091839424E+01  0.87091839424E+01  0.00000000000E+00 0. -1.
         21    1    1    2  503  502  0.98755881644E+01 -0.42182599982E+02  0.49495552621E+02  0.65777722004E+02  0.00000000000E+00 0. -1.
         21    1    1    2  504  503 -0.98755881644E+01  0.42182599982E+02  0.82538747997E+03  0.82652367847E+03  0.00000000000E+00 0. -1.
</event>
<event>
 4    1  0.2939002E+006  0.5619972E+02  0.7546771E-02  0.1273321E+00
         21   -1    0    0  503  501  0.00000000000E+00  0.00000000000E+00  0.41951794616E+01  0.41951794616E+01  0.00000000000E+00 0.  1.
         21   -1    0    0  504  502 -0.00000000000E+00 -0.00000000000E+00 -0.93380389240E+03  0.93380389240E+03  0.00000000000E+00 0. -1.
         21    1    1    2  503  502 -0.50459549577E+02  0.24743540848E+02 -0.25835712781E+03  0.26439896832E+03  0.00000000000E+00 0.  1.
         21    1    1    2  504  501  0.50459549577E+02 -0.24743540848E+02 -0.67125158513E+03  0.67360010354E+03  0.00000000000E+00 0. -1.
</event>
<event>
 4    1  0.2939002E+006  0.2790376E+02  0.7546771E-02  0.1438735E+00
         21   -1    0    0  502  501  0.00000000000E+00  0.00000000000E+00  0.54863846241E+02  0.54863846241E+02  0.00000000000E+00 0. -1.
         21   -1    0    0  504  502 -0.00000000000E+00 -0.00000000000E+00 -0.14236063574E+02  0.14236063574E+02  0.00000000000E+00 0. -1.
         21    1    1    2  503  501 -0.14979037576E+02  0.23542482872E+02  0.22239098617E+02  0.35681894201E+02  0.00000000000E+00 0. -1.
         21    1    1    2  504  503  0.14979037576E+02 -0.23542482872E+02  0.18388684050E+02  0.33418015614E+02  0.00000000000E+00 0. -1.
</event>
<event>
 4    1  0.2939002E+006  0.2068710E+02  0.7546771E-02  0.1523780E+00
         21   -1    0    0  502  501  0.00000000000E+00  0.00000000000E+00  0.30773640195E+02  0.30773640195E+02  0.00000000000E+00 0.  1.
         21   -1    0    0  503  502 -0.00000000000E+00 -0.00000000000E+00 -0.34036359873E+03  0.34036359873E+03  0.00000000000E+00 0.  1.
         21    1    1    2  503  504 -0.17244989375E+02 -0.11426563760E+02 -0.33653308207E+03  0.33716831308E+03  0.00000000000E+00 0.  1.
         21    1    1    2  504  501  0.17244989375E+02  0.11426563760E+02  0.26943123530E+02  0.33968925851E+02  0.00000000000E+00 0.  1.
</event>
<event>
 4    1  0.2939002E+006  0.3695973E+02  0.7546771E-02  0.1367286E+00
         21   -1    0    0  504  501  0.00000000000E+00  0.00000000000E+00  0.11090224716E+02  0.11090224716E+02  0.00000000000E+00 0. -1.
         21   -1    0    0  503  502 -0.00000000000E+00 -0.00000000000E+00 -0.12347782219E+03  0.12347782219E+03  0.00000000000E+00 0. -1.
         21    1    1    2  503  501 -0.69892438185E+01  0.36292869534E+02 -0.52853564347E+02  0.64494349925E+02  0.00000000000E+00 0. -1.
         21    1    1    2  504  502  0.69892438185E+01 -0.36292869534E+02 -0.59534033123E+02  0.70073696977E+02  0.00000000000E+00 0. -1.
</event>
<event>
 4    1  0.2939002E+006  0.2388968E+02  0.7546771E-02  0.1481619E+00
         21   -1    0    0  504  501  0.00000000000E+00  0.00000000000E+00  0.36727092063E+02  0.36727092063E+02  0.00000000000E+00 0.  1.
         21   -1    0    0  503  502 -0.00000000000E+00 -0.00000000000E+00 -0.17333903263E+03  0.17333903263E+03  0.00000000000E+00 0.  1.
         21    1    1    2  503  501 -0.13172776747E+02  0.19929742114E+02  0.31908595504E+02  0.39860696619E+02  0.00000000000E+00 0.  1.
         21    1    1    2  504  502  0.13172776747E+02 -0.19929742114E+02 -0.16852053607E+03  0.17020542808E+03  0.00000000000E+00 0.  1.
</event>
<event>
 4    1  0.2939002E+006  0.2183742E+02  0.7546771E-02  0.1507636E+00
         21   -1    0    0  502  501  0.00000000000E+00  0.00000000000E+00  0.46332436103E+03  0.46332436103E+03  0.00000000000E+00 0.  1.
         21   -1    0    0  503  502 -0.00000000000E+00 -0.00000000000E+00 -0.11233768812E+01  0.11233768812E+01  0.00000000000E+00 0. -1.
         21    1    1    2  503  504  0.21292594237E+02  0.48475134259E+01  0.16387730677E+03  0.16532587405E+03  0.00000000000E+00 0. -1.
         21    1    1    2  504  501 -0.21292594237E+02 -0.48475134259E+01  0.29832367739E+03  0.29912186387E+03  0.00000000000E+00 0.  1.
</event>
<event>
 4    1  0.2939002E+006  0.7688223E+02  0.7546771E-02  0.1211277E+00
         21   -1    0    0  503  501  0.00000000000E+00  0.00000000000E+00  0.67640134303E+03  0.67640134303E+03  0.00000000000E+00 0.  1.
         21   -1    0    0  504  502 -0.00000000000E+00 -0.00000000000E+00 -0.14260387595E+04  0.14260387595E+04  0.00000000000E+00 0. -1.
         21    1    1    2  503  502 -0.70628655396E+02  0.30372187675E+02 -0.14228128913E+04  0.14248885572E+04  0.00000000000E+00 0. -1.
         21    1    1    2  504  501  0.70628655396E+02 -0.30372187675E+02  0.67317547480E+03  0.67755154536E+03  0.00000000000E+00 0.  1.
</event>
<event>
 4    1  0.2939002E+006  0.2115079E+02  0.7546771E-02  0.1517123E+00
         21   -1    0    0  504  501  0.00000000000E+00  0.00000000000E+00  0.36447326005E+02  0.36447326005E+02  0.00000000000E+00 0.  1.
         21   -1    0    0  503  502 -0.00000000000E+00 -0.00000000000E+00 -0.38215615953E+02  0.38215615953E+02  0.00000000000E+00 0. -1.
         21    1    1    2  503  501  0.17112338917E+02 -0.12430756380E+02 -0.31641775065E+02  0.38059923498E+02  0.00000000000E+00 0. -1.
         21    1    1    2  504  502 -0.17112338917E+02  0.12430756380E+02  0.29873485117E+02  0.36603018460E+02  0.00000000000E+00 0.  1.
</event>
<event>
 4    1  0.2939002E+006  0.2092009E+02  0.7546771E-02  0.1520409E+00
         21   -1    0    0  504  501  0.00000000000E+00  0.00000000000E+00  0.12064000289E+02  0.12064000289E+02  0.00000000000E+00 0.  1.
         21   -1    0    0  503  502 -0.00000000000E+00 -0.00000000000E+00 -0.11867748445E+04  0.11867748445E+04  0.00000000000E+00 0.  1.
         21    1    1    2  503  501 -0.16096941898E+02 -0.13361837645E+02  0.28313602319E+01  0.21110822923E+02  0.00000000000E+00 0.  1.
         21    1    1    2  504  502  0.16096941898E+02  0.13361837645E+02 -0.11775422045E+04  0.11777280219E+04  0.00000000000E+00 0.  1.
</event>
<event>
 4    1  0.2939002E+006  0.2122440E+02  0.7546771E-02  0.1516085E+00
         21   -1    0    0  503  501  0.00000000000E+00  0.00000000000E+00  0.49983339331E+02  0.49983339331E+02  0.00000000000E+00 0. -1.
         21   -1    0    0  501  502 -0.00000000000E+00 -0.00000000000E+00 -0.56814437263E+02  0.56814437263E+02  0.00000000000E+00 0. -1.
         21    1    1    2  503  504 -0.34714382519E+01  0.20938584732E+02  0.45565217431E+02  0.50265935321E+02  0.00000000000E+00 0. -1.
         21    1    1    2  504  502  0.34714382519E+01 -0.20938584732E+02 -0.52396315363E+02  0.56531841273E+02  0.00000000000E+00 0. -1.
</event>
<event>
 4    1  0.2939002E+006  0.2412830E+02  0.7546771E-02  0.1478796E+00
         21   -1    0    0  504  501  0.00000000000E+00  0.00000000000E+00  0.37610971933E+02  0.37610971933E+02  0.00000000000E+00 0.  1.
         21   -1    0    0  503  502 -0.00000000000E+00 -0.00000000000E+00 -0.42387442111E+02  0.42387442111E+02  0.00000000000E+00 0.  1.
         21    1    1    2  503  501 -0.30420744978E+01 -0.23935763314E+02  0.29481479997E+02  0.38096360003E+02  0.00000000000E+00 0.  1.
         21    1    1    2  504  502  0.30420744978E+01  0.23935763314E+02 -0.34257950176E+02  0.41902054041E+02  0.00000000000E+00 0.  1.
</event>
<event>
 4    1  0.2939002E+006  0.2677769E+02  0.7546771E-02  0.1449854E+00
         21   -1    0    0  502  501  0.00000000000E+00  0.00000000000E+00  0.62920227457E+02  0.62920227457E+02  0.00000000000E+00 0.  1.
         21   -1    0    0  503  502 -0.00000000000E+00 -0.00000000000E+00 -0.89730044458E+02  0.89730044458E+02  0.00000000000E+00 0. -1.
         21    1    1    2  503  504  0.26742236326E+02 -0.13774830298E+01 -0.84718722966E+02  0.88849910997E+02  0.00000000000E+00 0. -1.
         21    1    1    2  504  501 -0.26742236326E+02  0.13774830298E+01  0.57908905965E+02  0.63800360918E+02  0.00000000000E+00 0.  1.
</event>
<event>
 4    1  0.2939002E+006  0.2222373E+02  0.7546771E-02  0.1502483E+00
         21   -1    0    0  502  501  0.00000000000E+00  0.00000000000E+00  0.24274918258E+03  0.24274918258E+03  0.00000000000E+00 0.  1.
         21   -1    0    0  504  502 -0.00000000000E+00 -0.00000000000E+00 -0.28381627788E+01  0.28381627788E+01  0.00000000000E+00 0.  1.
         21    1    1    2  503  501  0.19263648239E+02  0.11081790444E+02  0.18529426841E+03  0.18662223911E+03  0.00000000000E+00 0.  1.
         21    1    1    2  504  503 -0.19263648239E+02 -0.11081790444E+02  0.54616751383E+02  0.58965106245E+02  0.00000000000E+00 0.  1.
</event>
<event>
 4    1  0.2939002E+006  0.2048872E+02  0.7546771E-02  0.1526691E+00
         21   -1    0    0  504  501  0.00000000000E+00  0.00000000000E+00  0.15150855430E+03  0.15150855430E+03  0.00000000000E+00 0. -1.
         21   -1    0    0  503  502 -0.00000000000E+00 -0.00000000000E+00 -0.95631559472E+01  0.95631559472E+01  0.00000000000E+00 0.  1.
         21    1    1    2  503  501 -0.15907539538E+01  0.20426876606E+02  0.30990139037E+01  0.20721768100E+02  0.00000000000E+00 0.  1.
         21    1    1    2  504  502  0.15907539538E+01 -0.20426876606E+02  0.13884638445E+03  0.14034994215E+03  0.00000000000E+00 0. -1.
</event>
<event>
 4    1  0.2939002E+006  0.2891852E+02  0.7546771E-02  0.1429233E+00
         21   -1    0    0  503  501  0.00000000000E+00  0.00000000000E+00  0.13783052184E+03  0.13783052184E+03  0.00000000000E+00 0.  1.
         21   -1    0    0  504  502 -0.00000000000E+00 -0.00000000000E+00 -0.37418348822E+02  0.37418348822E+02  0.00000000000E+00 0. -1.
         21    1    1    2  503  502 -0.25467143578E+02 -0.13700571537E+02 -0.30000098084E+02  0.41668776650E+02  0.00000000000E+00 0. -1.
         21    1    1    2  504  501  0.25467143578E+02  0.13700571537E+02  0.13041227110E+03  0.13358009401E+03  0.00000000000E+00 0.  1.
</event>
<event>
 4    1  0.2939002E+006  0.2842180E+02  0.7546771E-02  0.1433826E+00
         21   -1    0    0  504  501  0.00000000000E+00  0.00000000000E+00  0.40252670265E+02  0.40252670265E+02  0.00000000000E+00 0. -1.
         21   -1    0    0  503  502 -0.00000000000E+00 -0.00000000000E+00 -0.42661085419E+02  0.42661085419E+02  0.00000000000E+00 0. -1.
         21    1    1    2  503  501  0.27762426760E+02 -0.60865550980E+01 -0.31373597345E+02  0.42333215126E+02  0.00000000000E+00 0. -1.
         21    1    1    2  504  502 -0.27762426760E+02  0.60865550980E+01  0.28965182191E+02  0.40580540557E+02  0.00000000000E+00 0. -1.
</event>
<event>
 4    1  0.2939002E+006  0.2720286E+02  0.7546771E-02  0.1445581E+00
         21   -1    0    0  502  501  0.00000000000E+00  0.00000000000E+00  0.65288305609E+01  0.65288305609E+01  0.00000000000E+00 0.  1.
         21   -1    0    0  504  502 -0.00000000000E+00 -0.00000000000E+00 -0.13409480608E+03  0.13409480608E+03  0.00000000000E+00 0.  1.
         21    1    1    2  503  501  0.21964698329E+02 -0.16048288485E+02 -0.36122932976E+02  0.45220148416E+02  0.00000000000E+00 0.  1.
         21    1    1    2  504  503 -0.21964698329E+02  0.16048288485E+02 -0.91443042546E+02  0.95403488227E+02  0.00000000000E+00 0.  1.
</event>
<event>
 4    1  0.2939002E+006  0.2844248E+02  0.7546771E-02  0.1433633E+00
         21   -1    0    0  502  501  0.00000000000E+00  0.00000000000E+00  0.35465117657E+02  0.35465117657E+02  0.00000000000E+00 0. -1.
         21   -1    0    0  503  502 -0.00000000000E+00 -0.00000000000E+00 -0.23854632249E+02  0.23854632249E+02  0.00000000000E+00 0. -1.
         21    1    1    2  503  504  0.17936802746E+02  0.22073638208E+02 -0.40025133851E+00  0.28445291308E+02  0.00000000000E+00 0. -1.
         21    1    1    2  504  501 -0.17936802746E+02 -0.22073638208E+02  0.12010736747E+02  0.30874458598E+02  0.00000000000E+00 0. -1.
</event>
<event>
 4    1  0.2939002E+006  0.2011236E+02  0.7546771E-02  0.1532325E+00
         21   -1    0    0  504  501  0.00000000000E+00  0.00000000000E+00  0.18272660610E+02  0.18272660610E+02  0.00000000000E+00 0.  1.
         21   -1    0    0  503  502 -0.00000000000E+00 -0.00000000000E+00 -0.40307050110E+02  0.40307050110E+02  0.00000000000E+00 0.  1.
         21    1    1    2  503  501  0.16720746242E+02 -0.11176922010E+02  0.86481460609E+01  0.21892861183E+02  0.00000000000E+00 0.  1.
         21    1    1    2  504  502 -0.16720746242E+02  0.11176922010E+02 -0.30682535561E+02  0.36686849537E+02  0.00000000000E+00 0.  1.
</event>
<event>
 4    1  0.2939002E+006  0.2444235E+02  0.7546771E-02  0.1475139E+00
         21   -1    0    0  503  501  0.00000000000E+00  0.00000000000E+00  0.42027586191E+01  0.42027586191E+01  0.00000000000E+00 0.  1.
         21   -1    0    0  504  502 -0.00000000000E+00 -0.00000000000E+00 -0.16188819272E+03  0.16188819272E+03  0.00000000000E+00 0.  1.
         21    1    1    2  503  502  0.23556810773E+02 -0.65195862266E+01 -0.10783923511E+03  0.11057454032E+03  0.00000000000E+00 0.  1.
         21    1    1    2  504  501 -0.23556810773E+02  0.65195862266E+01 -0.49846198995E+02  0.55516411021E+02  0.00000000000E+00 0.  1.
</event>
<event>
 4    1  0.2939002E+006  0.2039533E+02  0.7546771E-02  0.1528076E+00
         21   -1    0    0  503  501  0.00000000000E+00  0.00000000000E+00  0.44523397035E+01  0.44523397035E+01  0.00000000000E+00 0. -1.
         21   -1    0    0  504  502 -0.00000000000E+00 -0.00000000000E+00 -0.13077964560E+03  0.13077964560E+03  0.00000000000E+00 0.  1.
         21    1    1    2  503  502 -0.17854558185E+02 -0.98582154138E+01 -0.99299549610E+02  0.10137243319E+03  0.00000000000E+00 0.  1.
         21    1    1    2  504  501  0.17854558185E+02  0.98582154138E+01 -0.27027756289E+02  0.33859552111E+02  0.00000000000E+00 0. -1.
</event>
<event>
 4    1  0.2939002E+006  0.2245045E+02  0.7546771E-02  0.1499517E+00
         21   -1    0    0  502  501  0.00000000000E+00  0.00000000000E+00  0.84522022239E+02  0.84522022239E+02  0.00000000000E+00 0.  1.
         21   -1    0    0  503  502 -0.00000000000E+00 -0.00000000000E+00 -0.20479660404E+02  0.20479660404E+02  0.00000000000E+00 0. -1.
         21    1    1    2  503  504  0.97903835695E+01 -0.20203249934E+02 -0.12180119124E+02  0.25541695719E+02  0.00000000000E+00 0. -1.
         21    1    1    2  504  501 -0.97903835695E+01  0.20203249934E+02  0.76222480959E+02  0.79459986923E+02  0.00000000000E+00 0.  1.
</event>
<event>
 4    1  0.2939002E+006  0.2170943E+02  0.7546771E-02  0.1509372E+00
         21   -1    0    0  502  501  0.00000000000E+00  0.00000000000E+00  0.13534988699E+04  0.13534988699E+04  0.00000000000E+00 0.  1.
         21   -1    0    0  504  502 -0.00000000000E+00 -0.00000000000E+00 -0.16389620638E+01  0.16389620638E+01  0.00000000000E+00 0.  1.
         21    1    1    2  503  501 -0.34882283584E+01  0.21427357145E+02  0.12772293181E+04  0.12774138054E+04  0.00000000000E+00 0.  1.
         21    1    1    2  504  503  0.34882283584E+01 -0.21427357145E+02  0.74630589746E+02  0.77724026512E+02  0.00000000000E+00 0.  1.
</event>
<event>
 4    1  0.2939002E+006  0.2282400E+02  0.7546771E-02  0.1494720E+00
         21   -1    0    0  503  501  0.00000000000E+00  0.00000000000E+00  0.66864583322E+02  0.66864583322E+02  0.00000000000E+00 0.  1.
         21   -1    0    0  501  502 -0.00000000000E+00 -0.00000000000E+00 -0.15113261904E+03  0.15113261904E+03  0.00000000000E+00 0. -1.
         21    1    1    2  503  504  0.10238661888E+02  0.20398649657E+02  0.64017969297E+02  0.67964957868E+02  0.00000000000E+00 0.  1.
         21    1    1    2  504  502 -0.10238661888E+02 -0.20398649657E+02 -0.14828600502E+03  0.15003224450E+03  0.00000000000E+00 0. -1.
</event>
<event>
 4    1  0.2939002E+006  0.2164415E+02  0.7546771E-02  0.1510263E+00
         21   -1    0    0  502  501  0.00000000000E+00  0.00000000000E+00  0.70411260303E+03  0.70411260303E+03  0.00000000000E+00 0. -1.
         21   -1    0    0  503  502 -0.00000000000E+00 -0.00000000000E+00 -0.55939896278E+01  0.55939896278E+01  0.00000000000E+00 0.  1.
         21    1    1    2  503  504  0.18593332567E+02  0.11079579198E+02  0.16176425282E+02  0.27021210670E+02  0.00000000000E+00 0.  1.
         21    1    1    2  504  501 -0.18593332567E+02 -0.11079579198E+02  0.68234218812E+03  0.68268538199E+03  0.00000000000E+00 0. -1.
</event>
<event>
 4    1  0.2939002E+006  0.2509890E+02  0.7546771E-02  0.1467700E+00
         21   -1    0    0  504  501  0.00000000000E+00  0.00000000000E+00  0.96397969729E+03  0.96397969729E+03  0.00000000000E+00 0.  1.
         21   -1    0    0  501  502 -0.00000000000E+00 -0.00000000000E+00 -0.13423794800E+02  0.13423794800E+02  0.00000000000E+00 0. -1.
         21    1    1    2  503  502 -0.14976335390E+02  0.20141107782E+02 -0.13799579195E+01  0.25136808235E+02  0.00000000000E+00 0. -1.
         21    1    1    2  504  503  0.14976335390E+02 -0.20141107782E+02  0.95193586041E+03  0.95226668386E+03  0.00000000000E+00 0.  1.
</event>
<event>
 4    1  0.2939002E+006  0.3113541E+02  0.7546771E-02  0.1409980E+00
         21   -1    0    0  504  501  0.00000000000E+00  0.00000000000E+00  0.28677255805E+02  0.28677255805E+02  0.00000000000E+00 0.  1.
         21   -1    0    0  503  502 -0.00000000000E+00 -0.00000000000E+00 -0.35355748169E+02  0.35355748169E+02  0.00000000000E+00 0.  1.
         21    1    1    2  503  501 -0.15915606530E+02  0.26760184922E+02  0.33675496797E+01  0.31316998884E+02  0.00000000000E+00 0.  1.
         21    1    1    2  504  502  0.15915606530E+02 -0.26760184922E+02 -0.10046042043E+02  0.32716005089E+02  0.00000000000E+00 0.  1.
</event>
<event>
 4    1  0.2939002E+006  0.2015580E+02  0.7546771E-02  0.1531667E+00
         21   -1    0    0  504  501  0.00000000000E+00  0.00000000000E+00  0.13992376758E+02  0.13992376758E+02  0.00000000000E+00 0. -1.
         21   -1    0    0  503  502 -0.00000000000E+00 -0.00000000000E+00 -0.32704899031E+02  0.32704899031E+02  0.00000000000E+00 0. -1.
         21    1    1    2  503  501 -0.98837055677E+01 -0.17566116867E+02 -0.17178576386E+02  0.26483194373E+02  0.00000000000E+00 0. -1.
         21    1    1    2  504  502  0.98837055677E+01  0.17566116867E+02 -0.15339458868E+01  0.20214081416E+02  0.00000000000E+00 0. -1.
</event>
<event>
 4    1  0.2939002E+006  0.2632366E+02  0.7546771E-02  0.1454523E+00
         21   -1    0    0  503  501  0.00000000000E+00  0.00000000000E+00  0.47214761539E+02  0.47214761539E+02  0.00000000000E+00 0. -1.
         21   -1    0    0  501  502 -0.00000000000E+00 -0.00000000000E+00 -0.40705030273E+02  0.40705030273E+02  0.00000000000E+00 0. -1.
         21    1    1    2  503  504 -0.21196005869E+02 -0.15609756536E+02  0.38407640098E+02  0.46562667254E+02  0.00000000000E+00 0. -1.
         21    1    1    2  504  502  0.21196005869E+02  0.15609756536E+02 -0.31897908831E+02  0.41357124558E+02  0.00000000000E+00 0. -1.
</event>
<event>
 4    1  0.2939002E+006  0.3698914E+02  0.7546771E-02  0.1367094E+00
         21   -1    0    0  502  501  0.00000000000E+00  0.00000000000E+00  0.13263431398E+03  0.13263431398E+03  0.00000000000E+00 0.  1.
         21   -1    0    0  504  502 -0.00000000000E+00 -0.00000000000E+00 -0.28218531490E+02  0.28218531490E+02  0.00000000000E+00 0.  1.
         21    1    1    2  503  501  0.31358059840E+02  0.19618064030E+02  0.11626896110E+03  0.12201093258E+03  0.00000000000E+00 0.  1.
         21    1    1    2  504  503 -0.31358059840E+02 -0.19618064030E+02 -0.11853178618E+02  0.38841912885E+02  0.00000000000E+00 0.  1.
</event>
<event>
 4    1  0.2939002E+006  0.2368180E+02  0.7546771E-02  0.1484110E+00
         21   -1    0    0  504  501  0.00000000000E+00  0.00000000000E+00  0.20127006429E+03  0.20127006429E+03  0.00000000000E+00 0. -1.
         21   -1    0    0  501  502 -0.00000000000E+00 -0.00000000000E+00 -0.10622530705E+02  0.10622530705E+02  0.00000000000E+00 0.  1.
         21    1    1    2  503  502  0.17829743281E+02  0.15586138919E+02  0.43279467959E+01  0.24074023248E+02  0.00000000000E+00 0.  1.
         21    1    1    2  504  503 -0.17829743281E+02 -0.15586138919E+02  0.18631958679E+03  0.18781857175E+03  0.00000000000E+00 0. -1.
</event>
<event>
 4    1  0.2939002E+006  0.2057717E+02  0.7546771E-02  0.1525388E+00
         21   -1    0    0  504  501  0.00000000000E+00  0.00000000000E+00  0.68672666281E+02  0.68672666281E+02  0.00000000000E+00 0. -1.
         21   -1    0    0  503  502 -0.00000000000E+00 -0.00000000000E+00 -0.28876577574E+02  0.28876577574E+02  0.00000000000E+00 0.  1.
         21    1    1    2  503  501 -0.13073211439E+02 -0.15890598446E+02  0.63153144831E+02  0.66420928015E+02  0.00000000000E+00 0. -1.
         21    1    1    2  504  502  0.13073211439E+02  0.15890598446E+02 -0.23357056124E+02  0.31128315841E+02  0.00000000000E+00 0.  1.
</event>
<event>
 4    1  0.2939002E+006  0.2593470E+02  0.7546771E-02  0.1458613E+00
         21   -1    0    0  504  501  0.00000000000E+00  0.00000000000E+00  0.11955671894E+02  0.11955671894E+02  0.00000000000E+00 0. -1.
         21   -1    0    0  503  502 -0.00000000000E+00 -0.00000000000E+00 -0.52699785344E+03  0.52699785344E+03  0.00000000000E+00 0. -1.
         21    1    1    2  503  501 -0.48163466377E+01 -0.25483549993E+02 -0.51220830204E+03  0.51286445889E+03  0.00000000000E+00 0. -1.
         21    1    1    2  504  502  0.48163466377E+01  0.25483549993E+02 -0.28338795151E+01  0.26089066451E+02  0.00000000000E+00 0. -1.
</event>
<event>
 4    1  0.2939002E+006  0.3649132E+02  0.7546771E-02  0.1370371E+00
         21   -1    0    0  504  501  0.00000000000E+00  0.00000000000E+00  0.11595800197E+03  0.11595800197E+03  0.00000000000E+00 0.  1.
         21   -1    0    0  503  502 -0.00000000000E+00 -0.00000000000E+00 -0.11979484460E+02  0.11979484460E+02  0.00000000000E+00 0.  1.
         21    1    1    2  503  501  0.19364663270E+02 -0.30929370267E+02  0.38974506147E+02  0.53391275112E+02  0.00000000000E+00 0.  1.
         21    1    1    2  504  502 -0.19364663270E+02  0.30929370267E+02  0.65004011365E+02  0.74546211320E+02  0.00000000000E+00 0.  1.
</event>
<event>
 4    1  0.2939002E+006  0.2100472E+02  0.7546771E-02  0.1519197E+00
         21   -1    0    0  503  501  0.00000000000E+00  0.00000000000E+00  0.10527861576E+02  0.10527861576E+02  0.00000000000E+00 0.  1.
         21   -1    0    0  504  502 -0.00000000000E+00 -0.00000000000E+00 -0.48134334856E+02  0.48134334856E+02  0.00000000000E+00 0.  1.
         21    1    1    2  503  502  0.18594653869E+02 -0.97691924236E+01 -0.82538266715E+01  0.22568206128E+02  0.00000000000E+00 0.  1.
         21    1    1    2  504  501 -0.18594653869E+02  0.97691924236E+01 -0.29352646608E+02  0.36093990304E+02  0.00000000000E+00 0.  1.
</event>
<event>
 4    1  0.2939002E+006  0.3575816E+02  0.7546771E-02  0.1375310E+00
         21   -1    0    0  504  501  0.00000000000E+00  0.00000000000E+00  0.16100814684E+02  0.16100814684E+02  0.00000000000E+00 0. -1.
         21   -1    0    0  503  502 -0.00000000000E+00 -0.00000000000E+00 -0.24632886889E+03  0.24632886889E+03  0.00000000000E+00 0.  1.
         21    1    1    2  503  501  0.32299719173E+02  0.15341904718E+02 -0.71021432244E+01  0.36456636398E+02  0.00000000000E+00 0. -1.
         21    1    1    2  504  502 -0.32299719173E+02 -0.15341904718E+02 -0.22312591098E+03  0.22597304718E+03  0.00000000000E+00 0.  1.
</event>
<event>
 4    1  0.2939002E+006  0.6908804E+02  0.7546771E-02  0.1231733E+00
         21   -1    0    0  502  501  0.00000000000E+00  0.00000000000E+00  0.13839922899E+04  0.13839922899E+04  0.00000000000E+00 0. -1.
         21   -1    0    0  503  502 -0.00000000000E+00 -0.00000000000E+00 -0.39207260632E+01  0.39207260632E+01  0.00000000000E+00 0. -1.
         21    1    1    2  503  504  0.31626481265E+02 -0.61424126384E+02  0.44928316313E+03  0.45456409701E+03  0.00000000000E+00 0. -1.
         21    1    1    2  504  501 -0.31626481265E+02  0.61424126384E+02  0.93078840073E+03  0.93334891897E+03  0.00000000000E+00 0. -1.
</event>
<event>
 4    1  0.2939002E+006  0.2035432E+02  0.7546771E-02  0.1528686E+00
         21   -1    0    0  502  501  0.00000000000E+00  0.00000000000E+00  0.25134374061E+03  0.25134374061E+03  0.00000000000E+00 0.  1.
         21   -1    0    0  503  502 -0.00000000000E+00 -0.00000000000E+00 -0.18533059451E+01  0.18533059451E+01  0.00000000000E+00 0.  1.
         21    1    1    2  503  504  0.70607910812E+01 -0.19090403539E+02  0.82643196060E+02  0.85112843526E+02  0.00000000000E+00 0.  1.
         21    1    1    2  504  501 -0.70607910812E+01  0.19090403539E+02  0.16684723861E+03  0.16808420303E+03  0.00000000000E+00 0.  1.
</event>
<event>
 4    1  0.2939002E+006  0.3220092E+02  0.7546771E-02  0.1401387E+00
         21   -1    0    0  503  501  0.00000000000E+00  0.00000000000E+00  0.18992642392E+02  0.18992642392E+02  0.00000000000E+00 0.  1.
         21   -1    0    0  504  502 -0.00000000000E+00 -0.00000000000E+00 -0.55502805068E+02  0.55502805068E+02  0.00000000000E+00 0.  1.
         21    1    1    2  503  502  0.42343378989E+01 -0.31921303580E+02 -0.23019279830E+02  0.39582653822E+02  0.00000000000E+00 0.  1.
         21    1    1    2  504  501 -0.42343378989E+01  0.31921303580E+02 -0.13490882847E+02  0.34912793639E+02  0.00000000000E+00 0.  1.
</event>
<event>
 4    1  0.2939002E+006  0.2770538E+02  0.7546771E-02  0.1440648E+00
         21   -1    0    0  503  501  0.00000000000E+00  0.00000000000E+00  0.12647280233E+04  0.12647280233E+04  0.00000000000E+00 0. -1.
         21   -1    0    0  504  502 -0.00000000000E+00 -0.00000000000E+00 -0.68197726179E+00  0.68197726179E+00  0.00000000000E+00 0. -1.
         21    1    1    2  503  502  0.23879410344E+02 -0.14048561805E+02  0.42212246007E+03  0.42303068402E+03  0.00000000000E+00 0. -1.
         21    1    1    2  504  501 -0.23879410344E+02  0.14048561805E+02  0.84192358594E+03  0.84237931651E+03  0.00000000000E+00 0. -1.
</event>
<event>
 4    1  0.2939002E+006  0.2895284E+02  0.7546771E-02  0.1428920E+00
         21   -1    0    0  504  501  0.00000000000E+00  0.00000000000E+00  0.25459869608E+02  0.25459869608E+02  0.00000000000E+00 0.  1.
         21   -1    0    0  503  502 -0.00000000000E+00 -0.00000000000E+00 -0.24529003237E+03  0.24529003237E+03  0.00000000000E+00 0.  1.
         21    1    1    2  503  501  0.16795040532E+02 -0.23583759000E+02  0.16047000901E+02  0.33102466871E+02  0.00000000000E+00 0.  1.
         21    1    1    2  504  502 -0.16795040532E+02  0.23583759000E+02 -0.23587716366E+03  0.23764743511E+03  0.00000000000E+00 0.  1.
</event>
<event>
 4    1  0.2939002E+006  0.2130932E+02  0.7546771E-02  0.1514894E+00
         21   -1    0    0  504  501  0.00000000000E+00  0.00000000000E+00  0.11017275157E+02  0.11017275157E+02  0.00000000000E+00 0. -1.
         21   -1    0    0  503  502 -0.00000000000E+00 -0.00000000000E+00 -0.41694897790E+02  0.41694897790E+02  0.00000000000E+00 0. -1.
         21    1    1    2  503  501 -0.26510095356E+00  0.21307670525E+02 -0.12513941875E+02  0.24712058655E+02  0.00000000000E+00 0. -1.
         21    1    1    2  504  502  0.26510095356E+00 -0.21307670525E+02 -0.18163680758E+02  0.28000114293E+02  0.00000000000E+00 0. -1.
</event>
<event>
 4    1  0.2939002E+006  0.2338065E+02  0.7546771E-02  0.1487773E+00
         21   -1    0    0  504  501  0.00000000000E+00  0.00000000000E+00  0.13207388582E+02  0.13207388582E+02  0.00000000000E+00 0.  1.
         21   -1    0    0  503  502 -0.00000000000E+00 -0.00000000000E+00 -0.58313365752E+02  0.58313365752E+02  0.00000000000E+00 0.  1.
         21    1    1    2  503  501 -0.98172280343E+01  0.21219731856E+02 -0.32883765603E+01  0.23610768872E+02  0.00000000000E+00 0.  1.
         21    1    1    2  504  502  0.98172280343E+01 -0.21219731856E+02 -0.41817600609E+02  0.47909985463E+02  0.00000000000E+00 0.  1.
</event>
<event>
 4    1  0.2939002E+006  0.2427236E+02  0.7546771E-02  0.1477111E+00
         21   -1    0    0  502  501  0.00000000000E+00  0.00000000000E+00  0.41000246963E+03  0.41000246963E+03  0.00000000000E+00 0. -1.
         21   -1    0    0  503  502 -0.00000000000E+00 -0.00000000000E+00 -0.49965568068E+02  0.49965568068E+02  0.00000000000E+00 0.  1.
         21    1    1    2  503  504 -0.23839209276E+02 -0.45650385161E+01 -0.46634442360E+02  0.52572984410E+02  0.00000000000E+00 0.  1.
         21    1    1    2  504  501  0.23839209276E+02  0.45650385161E+01  0.40667134392E+03  0.40739505329E+03  0.00000000000E+00 0. -1.
</event>
<event>
 4    1  0.2939002E+006  0.3248880E+02  0.7546771E-02  0.1399133E+00
         21   -1    0    0  503  501  0.00000000000E+00  0.00000000000E+00  0.40814627738E+02  0.40814627738E+02  0.00000000000E+00 0.  1.
         21   -1    0    0  504  502 -0.00000000000E+00 -0.00000000000E+00 -0.44098548755E+02  0.44098548755E+02  0.00000000000E+00 0.  1.
         21    1    1    2  503  502 -0.12564673879E+02  0.29960822606E+02 -0.28945053546E+02  0.43512504475E+02  0.00000000000E+00 0.  1.
         21    1    1    2  504  501  0.12564673879E+02 -0.29960822606E+02  0.25661132529E+02  0.41400672018E+02  0.00000000000E+00 0.  1.
</event>
<event>
 4    1  0.2939002E+006  0.2298883E+02  0.7546771E-02  0.1492638E+00
         21   -1    0    0  503  501  0.00000000000E+00  0.00000000000E+00  0.89345555584E+01  0.89345555584E+01  0.00000000000E+00 0.  1.
         21   -1    0    0  504  502 -0.00000000000E+00 -0.00000000000E+00 -0.85678521912E+02  0.85678521912E+02  0.00000000000E+00 0.  1.
         21    1    1    2  503  502  0.19887134343E+02 -0.11532054958E+02 -0.12049012602E+02  0.25955059404E+02  0.00000000000E+00 0.  1.
         21    1    1    2  504  501 -0.19887134343E+02  0.11532054958E+02 -0.64694953752E+02  0.68658018067E+02  0.00000000000E+00 0.  1.
</event>
<event>
 4    1  0.2939002E+006  0.2708823E+02  0.7546771E-02  0.1446724E+00
         21   -1    0    0  503  501  0.00000000000E+00  0.00000000000E+00  0.26111039299E+02  0.26111039299E+02  0.00000000000E+00 0.  1.
         21   -1    0    0  504  502 -0.00000000000E+00 -0.00000000000E+00 -0.89620897135E+02  0.89620897135E+02  0.00000000000E+00 0. -1.
         21    1    1    2  503  502 -0.22368926922E+02 -0.15277535664E+02 -0.79697675492E+02  0.84175361398E+02  0.00000000000E+00 0. -1.
         21    1    1    2  504  501  0.22368926922E+02  0.15277535664E+02  0.16187817656E+02  0.31556575037E+02  0.00000000000E+00 0.  1.
</event>
<event>
 4    1  0.2939002E+006  0.4078169E+02  0.7546771E-02  0.1343965E+00
         21   -1    0    0  503  501  0.00000000000E+00  0.00000000000E+00  0.28015005197E+02  0.28015005197E+02  0.00000000000E+00 0.  1.
         21   -1    0    0  504  502 -0.00000000000E+00 -0.00000000000E+00 -0.12905995074E+03  0.12905995074E+03  0.00000000000E+00 0.  1.
         21    1    1    2  503  502 -0.22151690458E+02  0.34241039046E+02 -0.10823604130E+03  0.11566411190E+03  0.00000000000E+00 0.  1.
         21    1    1    2  504  501  0.22151690458E+02 -0.34241039046E+02  0.71910957642E+01  0.41410844031E+02  0.00000000000E+00 0.  1.
</event>
<event>
 4    1  0.2939002E+006  0.2266060E+02  0.7546771E-02  0.1496805E+00
         21   -1    0    0  504  501  0.00000000000E+00  0.00000000000E+00  0.29362799239E+01  0.29362799239E+01  0.00000000000E+00 0. -1.
         21   -1    0    0  503  502 -0.00000000000E+00 -0.00000000000E+00 -0.28813966647E+03  0.28813966647E+03  0.00000000000E+00 0. -1.
         21    1    1    2  503  501 -0.17392521894E+02  0.14525944902E+02 -0.51356845791E+02  0.56134022684E+02  0.00000000000E+00 0. -1.
         21    1    1    2  504  502  0.17392521894E+02 -0.14525944902E+02 -0.23384654076E+03  0.23494192371E+03  0.00000000000E+00 0. -1.
</event>
<event>
 4    1  0.2939002E+006  0.2940624E+02  0.7546771E-02  0.1424827E+00
         21   -1    0    0  503  501  0.00000000000E+00  0.00000000000E+00  0.88177246552E+01  0.88177246552E+01  0.00000000000E+00 0.  1.
         21   -1    0    0  504  502 -0.00000000000E+00 -0.00000000000E+00 -0.64792231248E+03  0.64792231248E+03  0.00000000000E+00 0. -1.
         21    1    1    2  503  502 -0.12878906851E+00 -0.29405954130E+02 -0.17051658989E+02  0.33992437382E+02  0.00000000000E+00 0.  1.
         21    1    1    2  504  501  0.12878906851E+00  0.29405954130E+02 -0.62205292883E+03  0.62274759975E+03  0.00000000000E+00 0. -1.
</event>
<event>
 4    1  0.2939002E+006  0.2122358E+02  0.7546771E-02  0.1516096E+00
         21   -1    0    0  502  501  0.00000000000E+00  0.00000000000E+00  0.53396882642E+02  0.53396882642E+02  0.00000000000E+00 0. -1.
         21   -1    0    0  503  502 -0.00000000000E+00 -0.00000000000E+00 -0.75424516223E+02  0.75424516223E+02  0.00000000000E+00 0. -1.
         21    1    1    2  503  504 -0.16823379342E+02 -0.12938872908E+02 -0.71715799039E+02  0.74790349354E+02  0.00000000000E+00 0. -1.
         21    1    1    2  504  501  0.16823379342E+02  0.12938872908E+02  0.49688165458E+02  0.54031049511E+02  0.00000000000E+00 0. -1.
</event>
<event>
 4    1  0.2939002E+006  0.2189077E+02  0.7546771E-02  0.1506917E+00
         21   -1    0    0  504  501  0.00000000000E+00  0.00000000000E+00  0.60572834099E+02  0.60572834099E+02  0.00000000000E+00 0.  1.
         21   -1    0    0  501  502 -0.00000000000E+00 -0.00000000000E+00 -0.22389446202E+02  0.22389446202E+02  0.00000000000E+00 0.  1.
         21    1    1    2  503  502 -0.21043352171E+02 -0.60318447415E+01 -0.14265267928E+02  0.26128599095E+02  0.00000000000E+00 0.  1.
         21    1    1    2  504  503  0.21043352171E+02  0.60318447415E+01  0.52448655825E+02  0.56833681206E+02  0.00000000000E+00 0.  1.
</event>
<event>
 4    1  0.2939002E+006  0.2487292E+02  0.7546771E-02  0.1470230E+00
         21   -1    0    0  504  501  0.00000000000E+00  0.00000000000E+00  0.47552673177E+01  0.47552673177E+01  0.00000000000E+00 0.  1.
         21   -1    0    0  503  502 -0.00000000000E+00 -0.00000000000E+00 -0.25760222642E+03  0.25760222642E+03  0.00000000000E+00 0. -1.
         21    1    1    2  503  501  0.17989762511E+02 -0.17176453738E+02 -0.34135126270E+02  0.42235872948E+02  0.00000000000E+00 0.  1.
         21    1    1    2  504  502 -0.17989762511E+02  0.17176453738E+02 -0.21871183283E+03  0.22012162078E+03  0.00000000000E+00 0. -1.
</event>
<event>
 4    1  0.2939002E+006  0.2647765E+02  0.7546771E-02  0.1452927E+00
         21   -1    0    0  502  501  0.00000000000E+00  0.00000000000E+00  0.39937317312E+02  0.39937317312E+02  0.00000000000E+00 0.  1.
         21   -1    0    0  503  502 -0.00000000000E+00 -0.00000000000E+00 -0.69954630391E+02  0.69954630391E+02  0.00000000000E+00 0. -1.
         21    1    1    2  503  504  0.17431745531E+02  0.19929886928E+02 -0.62563551390E+02  0.67935735131E+02  0.00000000000E+00 0. -1.
         21    1    1    2  504  501 -0.17431745531E+02 -0.19929886928E+02  0.32546238311E+02  0.41956212572E+02  0.00000000000E+00 0.  1.
</event>
<event>
 4    1  0.2939002E+006  0.3873738E+02  0.7546771E-02  0.1356048E+00
         21   -1    0    0  503  501  0.00000000000E+00  0.00000000000E+00  0.58242854903E+01  0.58242854903E+01  0.00000000000E+00 0. -1.
         21   -1    0    0  504  502 -0.00000000000E+00 -0.00000000000E+00 -0.29852098861E+03  0.29852098861E+03  0.00000000000E+00 0. -1.
         21    1    1    2  503  502 -0.43682428614E+01  0.38490303174E+02 -0.20265960174E+03  0.20632861935E+03  0.00000000000E+00 0. -1.
         21    1    1    2  504  501  0.43682428614E+01 -0.38490303174E+02 -0.90037101378E+02  0.98016654751E+02  0.00000000000E+00 0. -1.
</event>
<event>
 4    1  0.2939002E+006  0.2251492E+02  0.7546771E-02  0.1498681E+00
         21   -1    0    0  504  501  0.00000000000E+00  0.00000000000E+00  0.19264790901E+02  0.19264790901E+02  0.00000000000E+00 0.  1.
         21   -1    0    0  503  502 -0.00000000000E+00 -0.00000000000E+00 -0.67790097665E+02  0.67790097665E+02  0.00000000000E+00 0.  1.
         21    1    1    2  503  501 -0.17488525459E+02 -0.14180020986E+02 -0.58309923435E+02  0.62505749247E+02  0.00000000000E+00 0.  1.
         21    1    1    2  504  502  0.17488525459E+02  0.14180020986E+02  0.97846166714E+01  0.24549139319E+02  0.00000000000E+00 0.  1.
</event>
<event>
 4    1  0.2939002E+006  0.2523266E+02  0.7546771E-02  0.1466217E+00
         21   -1    0    0  503  501  0.00000000000E+00  0.00000000000E+00  0.21119989888E+02  0.21119989888E+02  0.00000000000E+00 0.  1.
         21   -1    0    0  504  502 -0.00000000000E+00 -0.00000000000E+00 -0.54694976454E+02  0.54694976454E+02  0.00000000000E+00 0.  1.
         21    1    1    2  503  502 -0.96952513573E+01  0.23295689633E+02  0.86085651548E+01  0.26660728579E+02  0.00000000000E+00 0.  1.
         21    1    1    2  504  501  0.96952513573E+01 -0.23295689633E+02 -0.42183551720E+02  0.49154237763E+02  0.00000000000E+00 0.  1.
</event>
<event>
 4    1  0.2939002E+006  0.3622180E+02  0.7546771E-02  0.1372171E+00
         21   -1    0    0  503  501  0.00000000000E+00  0.00000000000E+00  0.50109960915E+01  0.50109960915E+01  0.00000000000E+00 0.  1.
         21   -1    0    0  504  502 -0.00000000000E+00 -0.00000000000E+00 -0.26186578721E+03  0.26186578721E+03  0.00000000000E+00 0.  1.
         21    1    1    2  503  502  0.97427553466E+01  0.34886928799E+02 -0.13003033063E+03  0.13498113189E+03  0.00000000000E+00 0.  1.
         21    1    1    2  504  501 -0.97427553466E+01 -0.34886928799E+02 -0.12682446048E+03  0.13189565140E+03  0.00000000000E+00 0.  1.
</event>
<event>
 4    1  0.2939002E+006  0.2170017E+02  0.7546771E-02  0.1509499E+00
         21   -1    0    0  502  501  0.00000000000E+00  0.00000000000E+00  0.12680329680E+02  0.12680329680E+02  0.00000000000E+00 0. -1.
         21   -1    0    0  503  502 -0.00000000000E+00 -0.00000000000E+00 -0.94889659824E+03  0.94889659824E+03  0.00000000000E+00 0. -1.
         21    1    1    2  503  504 -0.20310820547E+02 -0.76399001286E+01 -0.93939462305E+03  0.93964522843E+03  0.00000000000E+00 0. -1.
         21    1    1    2  504  501  0.20310820547E+02  0.76399001286E+01  0.31783544846E+01  0.21931699490E+02  0.00000000000E+00 0. -1.
</event>
<event>
 4    1  0.2939002E+006  0.2518147E+02  0.7546771E-02  0.1466783E+00
         21   -1    0    0  502  501  0.00000000000E+00  0.00000000000E+00  0.10633586315E+02  0.10633586315E+02  0.00000000000E+00 0.  1.
         21   -1    0    0  503  502 -0.00000000000E+00 -0.00000000000E+00 -0.34231935854E+03  0.34231935854E+03  0.00000000000E+00 0. -1.
         21    1    1    2  503  504 -0.17749078318E+02  0.17862717409E+02 -0.32621319208E+03  0.32718366882E+03  0.00000000000E+00 0. -1.
         21    1    1    2  504  501  0.17749078318E+02 -0.17862717409E+02 -0.54725801526E+01  0.25769276045E+02  0.00000000000E+00 0.  1.
</event>
<event>
 4    1  0.2939002E+006  0.2090571E+02  0.7546771E-02  0.1520615E+00
         21   -1    0    0  502  501  0.00000000000E+00  0.00000000000E+00  0.83596200149E+01  0.83596200149E+01  0.00000000000E+00 0. -1.
         21   -1    0    0  503  502 -0.00000000000E+00 -0.00000000000E+00 -0.32190061056E+03  0.32190061056E+03  0.00000000000E+00 0. -1.
         21    1    1    2  503  504  0.19981365163E+02  0.61476653305E+01 -0.30789718703E+03  0.30860610254E+03  0.00000000000E+00 0. -1.
         21    1    1    2  504  501 -0.19981365163E+02 -0.61476653305E+01 -0.56438035116E+01  0.21654128033E+02  0.00000000000E+00 0. -1.
</event>
<event>
 4    1  0.2939002E+006  0.2357508E+02  0.7546771E-02  0.1485400E+00
         21   -1    0    0  504  501  0.00000000000E+00  0.00000000000E+00  0.99676679224E+03  0.99676679224E+03  0.00000000000E+00 0. -1.
         21   -1    0    0  503  502 -0.00000000000E+00 -0.00000000000E+00 -0.23466731152E+02  0.23466731152E+02  0.00000000000E+00 0. -1.
         21    1    1    2  503  501  0.18216369691E+02  0.14964904740E+02 -0.17369917013E+02  0.29283075584E+02  0.00000000000E+00 0. -1.
         21    1    1    2  504  502 -0.18216369691E+02 -0.14964904740E+02  0.99066997810E+03  0.99095044780E+03  0.00000000000E+00 0. -1.
</event>
<event>
 4    1  0.2939002E+006  0.2007501E+02  0.7546771E-02  0.1532892E+00
         21   -1    0    0  503  501  0.00000000000E+00  0.00000000000E+00  0.40928072991E+02  0.40928072991E+02  0.00000000000E+00 0. -1.
         21   -1    0    0  501  502 -0.00000000000E+00 -0.00000000000E+00 -0.42561783701E+02  0.42561783701E+02  0.00000000000E+00 0. -1.
         21    1    1    2  503  504 -0.15483218148E+02 -0.12777954522E+02  0.35782031340E+02  0.41028769575E+02  0.00000000000E+00 0. -1.
         21    1    1    2  504  502  0.15483218148E+02  0.12777954522E+02 -0.37415742051E+02  0.42461087117E+02  0.00000000000E+00 0. -1.
</event>
<event>
 4    1  0.2939002E+006  0.2546700E+02  0.7546771E-02  0.1463646E+00
         21   -1    0    0  504  501  0.00000000000E+00  0.00000000000E+00  0.12539487249E+03  0.12539487249E+03  0.00000000000E+00 0.  1.
         21   -1    0    0  503  502 -0.00000000000E+00 -0.00000000000E+00 -0.35458624671E+02  0.35458624671E+02  0.00000000000E+00 0. -1.
         21    1    1    2  503  501 -0.25081120269E+02  0.44165099732E+01  0.11929802020E+03  0.12198600649E+03  0.00000000000E+00 0.  1.
         21    1    1    2  504  502  0.25081120269E+02 -0.44165099732E+01 -0.29361772380E+02  0.38867490678E+02  0.00000000000E+00 0. -1.
</event>
<event>
 4    1  0.2939002E+006  0.4914416E+02  0.7546771E-02  0.1301926E+00
         21   -1    0    0  504  501  0.00000000000E+00  0.00000000000E+00  0.71240822860E+02  0.71240822860E+02  0.00000000000E+00 0.  1.
         21   -1    0    0  503  502 -0.00000000000E+00 -0.00000000000E+00 -0.12083299143E+03  0.12083299143E+03  0.00000000000E+00 0.  1.
         21    1    1    2  503  501 -0.41896757555E+02  0.25686762211E+02  0.56662107082E+02  0.75004949340E+02  0.00000000000E+00 0.  1.
         21    1    1    2  504  502  0.41896757555E+02 -0.25686762211E+02 -0.10625427565E+03  0.11706886495E+03  0.00000000000E+00 0.  1.
</event>
<event>
 4    1  0.2939002E+006  0.3036406E+02  0.7546771E-02  0.1416459E+00
         21   -1    0    0  504  501  0.00000000000E+00  0.00000000000E+00  0.15033550623E+03  0.15033550623E+03  0.00000000000E+00 0. -1.
         21   -1    0    0  503  502 -0.00000000000E+00 -0.00000000000E+00 -0.68402743315E+01  0.68402743315E+01  0.00000000000E+00 0. -1.
         21    1    1    2  503  501  0.15358807898E+02  0.26193193462E+02  0.46473456391E+02  0.55513588541E+02  0.00000000000E+00 0. -1.
         21    1    1    2  504  502 -0.15358807898E+02 -0.26193193462E+02  0.97021775505E+02  0.10166219202E+03  0.00000000000E+00 0. -1.
</event>
<event>
 4    1  0.2939002E+006  0.2417051E+02  0.7546771E-02  0.1478301E+00
         21   -1    0    0  502  501  0.00000000000E+00  0.00000000000E+00  0.32125199077E+02  0.32125199077E+02  0.00000000000E+00 0. -1.
         21   -1    0    0  503  502 -0.00000000000E+00 -0.00000000000E+00 -0.18013750689E+03  0.18013750689E+03  0.00000000000E+00 0. -1.
         21    1    1    2  503  504  0.14907396397E+02 -0.19025849939E+02 -0.17463784426E+03  0.17630255268E+03  0.00000000000E+00 0. -1.
         21    1    1    2  504  501 -0.14907396397E+02  0.19025849939E+02  0.26625536448E+02  0.35960153287E+02  0.00000000000E+00 0. -1.
</event>
<event>
 4    1  0.2939002E+006  0.2352025E+02  0.7546771E-02  0.1486067E+00
         21   -1    0    0  503  501  0.00000000000E+00  0.00000000000E+00  0.19161495470E+01  0.19161495470E+01  0.00000000000E+00 0.  1.
         21   -1    0    0  504  502 -0.00000000000E+00 -0.00000000000E+00 -0.28982249454E+03  0.28982249454E+03  0.00000000000E+00 0.  1.
         21    1    1    2  503  502 -0.83808481421E-01  0.23520102184E+02 -0.13489599935E+03  0.13693112455E+03  0.00000000000E+00 0.  1.
         21    1    1    2  504  501  0.83808481421E-01 -0.23520102184E+02 -0.15301034565E+03  0.15480751954E+03  0.00000000000E+00 0.  1.
</event>
<event>
 4    1  0.2939002E+006  0.2249918E+02  0.7546771E-02  0.1498885E+00
         21   -1    0    0  503  501  0.00000000000E+00  0.00000000000E+00  0.51854144093E+01  0.51854144093E+01  0.00000000000E+00 0. -1.
         21   -1    0    0  504  502 -0.00000000000E+00 -0.00000000000E+00 -0.33657521155E+03  0.33657521155E+03  0.00000000000E+00 0.  1.
         21    1    1    2  503  502  0.51181715452E+01 -0.21909297937E+02 -0.30967648901E+03  0.31049273882E+03  0.00000000000E+00 0.  1.
         21    1    1    2  504  501 -0.51181715452E+01  0.21909297937E+02 -0.21713308134E+02  0.31267887139E+02  0.00000000000E+00 0. -1.
</event>
<event>
 4    1  0.2939002E+006  0.4594610E+02  0.7546771E-02  0.1316775E+00
         21   -1    0    0  502  501  0.00000000000E+00  0.00000000000E+00  0.15101450718E+03  0.15101450718E+03  0.00000000000E+00 0.  1.
         21   -1    0    0  504  502 -0.00000000000E+00 -0.00000000000E+00 -0.19246578527E+02  0.19246578527E+02  0.00000000000E+00 0. -1.
         21    1    1    2  503  501  0.28319421450E+02  0.36180853467E+02  0.11041992966E+03  0.11959767830E+03  0.00000000000E+00 0.  1.
         21    1    1    2  504  503 -0.28319421450E+02 -0.36180853467E+02  0.21347998993E+02  0.50663407405E+02  0.00000000000E+00 0. -1.
</event>
<event>
 4    1  0.2939002E+006  0.2297722E+02  0.7546771E-02  0.1492784E+00
         21   -1    0    0  503  501  0.00000000000E+00  0.00000000000E+00  0.17143113033E+01  0.17143113033E+01  0.00000000000E+00 0.  1.
         21   -1    0    0  504  502 -0.00000000000E+00 -0.00000000000E+00 -0.47188109095E+03  0.47188109095E+03  0.00000000000E+00 0.  1.
         21    1    1    2  503  502  0.14151039652E+02 -0.18102504221E+02 -0.37464576608E+03  0.37534970711E+03  0.00000000000E+00 0.  1.
         21    1    1    2  504  501 -0.14151039652E+02  0.18102504221E+02 -0.95521013569E+02  0.98245695150E+02  0.00000000000E+00 0.  1.
</event>
<event>
 4    1  0.2939002E+006  0.3082738E+02  0.7546771E-02  0.1412540E+00
         21   -1    0    0  502  501  0.00000000000E+00  0.00000000000E+00  0.11414304959E+03  0.11414304959E+03  0.00000000000E+00 0. -1.
         21   -1    0    0  504  502 -0.00000000000E+00 -0.00000000000E+00 -0.64635798680E+02  0.64635798680E+02  0.00000000000E+00 0.  1.
         21    1    1    2  503  501 -0.38756252892E+01  0.30582782459E+02  0.10818751924E+03  0.11249385038E+03  0.00000000000E+00 0. -1.
         21    1    1    2  504  503  0.38756252892E+01 -0.30582782459E+02 -0.58680268328E+02  0.66284997891E+02  0.00000000000E+00 0.  1.
</event>
<event>
 4    1  0.2939002E+006  0.2143626E+02  0.7546771E-02  0.1513127E+00
         21   -1    0    0  504  501  0.00000000000E+00  0.00000000000E+00  0.43937546760E+02  0.43937546760E+02  0.00000000000E+00 0. -1.
         21   -1    0    0  503  502 -0.00000000000E+00 -0.00000000000E+00 -0.11679532596E+02  0.11679532596E+02  0.00000000000E+00 0.  1.
         21    1    1    2  503  501  0.16898452879E+02  0.13189213014E+02  0.71369184102E+01  0.22593110765E+02  0.00000000000E+00 0.  1.
         21    1    1    2  504  502 -0.16898452879E+02 -0.13189213014E+02  0.25121095754E+02  0.33023968591E+02  0.00000000000E+00 0. -1.
</event>
<event>
 4    1  0.2939002E+006  0.2179605E+02  0.7546771E-02  0.1508196E+00
         21   -1    0    0  503  501  0.00000000000E+00  0.00000000000E+00  0.17923111187E+02  0.17923111187E+02  0.00000000000E+00 0. -1.
         21   -1    0    0  504  502 -0.00000000000E+00 -0.00000000000E+00 -0.31658456279E+02  0.31658456279E+02  0.00000000000E+00 0.  1.
         21    1    1    2  503  502 -0.10480481237E+02  0.19110919067E+02  0.31336604245E+01  0.22020162174E+02  0.00000000000E+00 0. -1.
         21    1    1    2  504  501  0.10480481237E+02 -0.19110919067E+02 -0.16869005516E+02  0.27561405292E+02  0.00000000000E+00 0.  1.
</event>
<event>
 4    1  0.2939002E+006  0.2611799E+02  0.7546771E-02  0.1456675E+00
         21   -1    0    0  504  501  0.00000000000E+00  0.00000000000E+00  0.60812950919E+03  0.60812950919E+03  0.00000000000E+00 0. -1.
         21   -1    0    0  503  502 -0.00000000000E+00 -0.00000000000E+00 -0.34438882804E+01  0.34438882804E+01  0.00000000000E+00 0.  1.
         21    1    1    2  503  501  0.21097123765E+02  0.15396776389E+02  0.51246017736E+02  0.57517855386E+02  0.00000000000E+00 0.  1.
         21    1    1    2  504  502 -0.21097123765E+02 -0.15396776389E+02  0.55343960317E+03  0.55405554209E+03  0.00000000000E+00 0. -1.
</event>
<event>
 4    1  0.2939002E+006  0.3406654E+02  0.7546771E-02  0.1387247E+00
         21   -1    0    0  504  501  0.00000000000E+00  0.00000000000E+00  0.35284444817E+02  0.35284444817E+02  0.00000000000E+00 0.  1.
         21   -1    0    0  503  502 -0.00000000000E+00 -0.00000000000E+00 -0.10438318171E+03  0.10438318171E+03  0.00000000000E+00 0. -1.
         21    1    1    2  503  501 -0.23758951465E+02  0.24413959140E+02  0.23244365872E+02  0.41241116866E+02  0.00000000000E+00 0.  1.
         21    1    1    2  504  502  0.23758951465E+02 -0.24413959140E+02 -0.92343102767E+02  0.98426509662E+02  0.00000000000E+00 0. -1.
</event>
<event>
 4    1  0.2939002E+006  0.3579021E+02  0.7546771E-02  0.1375091E+00
         21   -1    0    0  503  501  0.00000000000E+00  0.00000000000E+00  0.33324605285E+02  0.33324605285E+02  0.00000000000E+00 0. -1.
         21   -1    0    0  504  502 -0.00000000000E+00 -0.00000000000E+00 -0.44823921468E+02  0.44823921468E+02  0.00000000000E+00 0. -1.
         21    1    1    2  503  502  0.10431376552E+01  0.35775004642E+02 -0.20497877331E+02  0.41244418634E+02  0.00000000000E+00 0. -1.
         21    1    1    2  504  501 -0.10431376552E+01 -0.35775004642E+02  0.89985611483E+01  0.36904108119E+02  0.00000000000E+00 0. -1.
</event>
<event>
 4    1  0.2939002E+006  0.2834297E+02  0.7546771E-02  0.1434565E+00
         21   -1    0    0  503  501  0.00000000000E+00  0.00000000000E+00  0.75850285730E+02  0.75850285730E+02  0.00000000000E+00 0. -1.
         21   -1    0    0  504  502 -0.00000000000E+00 -0.00000000000E+00 -0.12783196228E+02  0.12783196228E+02  0.00000000000E+00 0. -1.
         21    1    1    2  503  502  0.13714948043E+02 -0.24803706896E+02  0.13180989056E+02  0.31257993347E+02  0.00000000000E+00 0. -1.
         21    1    1    2  504  501 -0.13714948043E+02  0.24803706896E+02  0.49886100446E+02  0.57375488610E+02  0.00000000000E+00 0. -1.
</event>
<event>
 4    1  0.2939002E+006  0.2252033E+02  0.7546771E-02  0.1498611E+00
         21   -1    0    0  503  501  0.00000000000E+00  0.00000000000E+00  0.82019719548E+01  0.82019719548E+01  0.00000000000E+00 0.  1.
         21   -1    0    0  504  502 -0.00000000000E+00 -0.00000000000E+00 -0.94739387818E+02  0.94739387818E+02  0.00000000000E+00 0. -1.
         21    1    1    2  503  502  0.12934047277E+02  0.18435719502E+02 -0.12935075160E+02  0.25970781696E+02  0.00000000000E+00 0.  1.
         21    1    1    2  504  501 -0.12934047277E+02 -0.18435719502E+02 -0.73602340703E+02  0.76970578076E+02  0.00000000000E+00 0. -1.
</event>
<event>
 4    1  0.2939002E+006  0.2162051E+02  0.7546771E-02  0.1510587E+00
         21   -1    0    0  504  501  0.00000000000E+00  0.00000000000E+00  0.49872354848E+03  0.49872354848E+03  0.00000000000E+00 0.  1.
         21   -1    0    0  503  502 -0.00000000000E+00 -0.00000000000E+00 -0.10451417303E+01  0.10451417303E+01  0.00000000000E+00 0.  1.
         21    1    1    2  503  501 -0.15811743303E+02  0.14745684008E+02  0.32911299560E+03  0.32982239204E+03  0.00000000000E+00 0.  1.
         21    1    1    2  504  502  0.15811743303E+02 -0.14745684008E+02  0.16856541116E+03  0.16994629817E+03  0.00000000000E+00 0.  1.
</event>
<event>
 4    1  0.2939002E+006  0.2565171E+02  0.7546771E-02  0.1461643E+00
         21   -1    0    0  504  501  0.00000000000E+00  0.00000000000E+00  0.58756716396E+02  0.58756716396E+02  0.00000000000E+00 0.  1.
         21   -1    0    0  501  502 -0.00000000000E+00 -0.00000000000E+00 -0.14938133201E+02  0.14938133201E+02  0.00000000000E+00 0.  1.
         21    1    1    2  503  502 -0.25545084576E+02  0.23364777112E+01  0.34739848315E+01  0.25885885048E+02  0.00000000000E+00 0.  1.
         21    1    1    2  504  503  0.25545084576E+02 -0.23364777112E+01  0.40344598364E+02  0.47808964549E+02  0.00000000000E+00 0.  1.
</event>
<event>
 4    1  0.2939002E+006  0.3535283E+02  0.7546771E-02  0.1378100E+00
         21   -1    0    0  502  501  0.00000000000E+00  0.00000000000E+00  0.54565790594E+02  0.54565790594E+02  0.00000000000E+00 0. -1.
         21   -1    0    0  504  502 -0.00000000000E+00 -0.00000000000E+00 -0.23048470402E+02  0.23048470402E+02  0.00000000000E+00 0. -1.
         21    1    1    2  503  501  0.18484825780E+02  0.30135263568E+02  0.18821702004E+02  0.40050959549E+02  0.00000000000E+00 0. -1.
         21    1    1    2  504  503 -0.18484825780E+02 -0.30135263568E+02  0.12695618187E+02  0.37563301447E+02  0.00000000000E+00 0. -1.
</event>
<event>
 4    1  0.2939002E+006  0.2065546E+02  0.7546771E-02  0.1524241E+00
         21   -1    0    0  504  501  0.00000000000E+00  0.00000000000E+00  0.15228921102E+01  0.15228921102E+01  0.00000000000E+00 0.  1.
         21   -1    0    0  503  502 -0.00000000000E+00 -0.00000000000E+00 -0.28175882338E+03  0.28175882338E+03  0.00000000000E+00 0.  1.
         21    1    1    2  503  501  0.36921977279E+01  0.20322791025E+02 -0.15079920627E+03  0.15220725597E+03  0.00000000000E+00 0.  1.
         21    1    1    2  504  502 -0.36921977279E+01 -0.20322791025E+02 -0.12943672500E+03  0.13107445952E+03  0.00000000000E+00 0.  1.
</event>
<event>
 4    1  0.2939002E+006  0.2223933E+02  0.7546771E-02  0.1502277E+00
         21   -1    0    0  503  501  0.00000000000E+00  0.00000000000E+00  0.15632493489E+03  0.15632493489E+03  0.00000000000E+00 0. -1.
         21   -1    0    0  504  502 -0.00000000000E+00 -0.00000000000E+00 -0.22945754633E+02  0.22945754633E+02  0.00000000000E+00 0.  1.
         21    1    1    2  503  502  0.20565669452E+02 -0.84640906785E+01  0.14991620805E+03  0.15155677823E+03  0.00000000000E+00 0. -1.
         21    1    1    2  504  501 -0.20565669452E+02  0.84640906785E+01 -0.16537027793E+02  0.27713911294E+02  0.00000000000E+00 0.  1.
</event>
<event>
 4    1  0.2939002E+006  0.2111045E+02  0.7546771E-02  0.1517694E+00
         21   -1    0    0  503  501  0.00000000000E+00  0.00000000000E+00  0.11794395537E+01  0.11794395537E+01  0.00000000000E+00 0.  1.
         21   -1    0    0  504  502 -0.00000000000E+00 -0.00000000000E+00 -0.62312052828E+03  0.62312052828E+03  0.00000000000E+00 0.  1.
         21    1    1    2  503  502 -0.12852073678E+02 -0.16747401020E+02 -0.50680989845E+03  0.50724937102E+03  0.00000000000E+00 0.  1.
         21    1    1    2  504  501  0.12852073678E+02  0.16747401020E+02 -0.11513119028E+03  0.11705059681E+03  0.00000000000E+00 0.  1.
</event>
<event>
 4    1  0.2939002E+006  0.2313632E+02  0.7546771E-02  0.1490793E+00
         21   -1    0    0  503  501  0.00000000000E+00  0.00000000000E+00  0.20466866272E+03  0.20466866272E+03  0.00000000000E+00 0.  1.
         21   -1    0    0  504  502 -0.00000000000E+00 -0.00000000000E+00 -0.27631641132E+01  0.27631641132E+01  0.00000000000E+00 0.  1.
         21    1    1    2  503  502 -0.38965667174E+01 -0.22805832325E+02  0.12493749734E+03  0.12706166794E+03  0.00000000000E+00 0.  1.
         21    1    1    2  504  501  0.38965667174E+01  0.22805832325E+02  0.76968001275E+02  0.80370158893E+02  0.00000000000E+00 0.  1.
</event>
<event>
 4    1  0.2939002E+006  0.2292220E+02  0.7546771E-02  0.1493477E+00
         21   -1    0    0  504  501  0.00000000000E+00  0.00000000000E+00  0.21713281062E+02  0.21713281062E+02  0.00000000000E+00 0. -1.
         21   -1    0    0  503  502 -0.00000000000E+00 -0.00000000000E+00 -0.24849157866E+02  0.24849157866E+02  0.00000000000E+00 0. -1.
         21    1    1    2  503  501  0.11631339502E+02 -0.19751939286E+02  0.21995494369E+01  0.23027487529E+02  0.00000000000E+00 0. -1.
         21    1    1    2  504  502 -0.11631339502E+02  0.19751939286E+02 -0.53354262411E+01  0.23534951399E+02  0.00000000000E+00 0. -1.
</event>
<event>
 4    1  0.2939002E+006  0.2135357E+02  0.7546771E-02  0.1514276E+00
         21   -1    0    0  503  501  0.00000000000E+00  0.00000000000E+00  0.23647268354E+01  0.23647268354E+01  0.00000000000E+00 0.  1.
         21   -1    0    0  504  502 -0.00000000000E+00 -0.00000000000E+00 -0.88412969886E+03  0.88412969886E+03  0.00000000000E+00 0.  1.
         21    1    1    2  503  502  0.12128525013E+02  0.17574811904E+02 -0.83282576281E+03  0.83309946965E+03  0.00000000000E+00 0.  1.
         21    1    1    2  504  501 -0.12128525013E+02 -0.17574811904E+02 -0.48939209215E+02  0.53394956045E+02  0.00000000000E+00 0.  1.
</event>
<event>
 4    1  0.2939002E+006  0.2050342E+02  0.7546771E-02  0.1526474E+00
         21   -1    0    0  504  501  0.00000000000E+00  0.00000000000E+00  0.18199117837E+02  0.18199117837E+02  0.00000000000E+00 0.  1.
         21   -1    0    0  503  502 -0.00000000000E+00 -0.00000000000E+00 -0.46737296436E+02  0.46737296436E+02  0.00000000000E+00 0. -1.
         21    1    1    2  503  501 -0.19687671743E+02  0.57258922781E+01 -0.37359419353E+02  0.42615918099E+02  0.00000000000E+00 0. -1.
         21    1    1    2  504  502  0.19687671743E+02 -0.57258922781E+01  0.88212407538E+01  0.22320496174E+02  0.00000000000E+00 0.  1.
</event>
<event>
 4    1  0.2939002E+006  0.3451647E+02  0.7546771E-02  0.1383995E+00
         21   -1    0    0  504  501  0.00000000000E+00  0.00000000000E+00  0.10982723298E+02  0.10982723298E+02  0.00000000000E+00 0. -1.
         21   -1    0    0  503  502 -0.00000000000E+00 -0.00000000000E+00 -0.34003792241E+03  0.34003792241E+03  0.00000000000E+00 0.  1.
         21    1    1    2  503  501 -0.30028209448E+02  0.17020372908E+02 -0.19693619972E+02  0.39739465575E+02  0.00000000000E+00 0. -1.
         21    1    1    2  504  502  0.30028209448E+02 -0.17020372908E+02 -0.30936157914E+03  0.31128118013E+03  0.00000000000E+00 0.  1.
</event>
<event>
 4    1  0.2939002E+006  0.2745108E+02  0.7546771E-02  0.1443129E+00
         21   -1    0    0  504  501  0.00000000000E+00  0.00000000000E+00  0.12971825488E+03  0.12971825488E+03  0.00000000000E+00 0.  1.
         21   -1    0    0  503  502 -0.00000000000E+00 -0.00000000000E+00 -0.10151712847E+02  0.10151712847E+02  0.00000000000E+00 0. -1.
         21    1    1    2  503  501  0.95173231927E+00 -0.27434579384E+02  0.10552308031E+03  0.10903523475E+03  0.00000000000E+00 0.  1.
         21    1    1    2  504  502 -0.95173231927E+00  0.27434579384E+02  0.14043461729E+02  0.30834732976E+02  0.00000000000E+00 0. -1.
</event>
<event>
 4    1  0.2939002E+006  0.2277757E+02  0.7546771E-02  0.1495310E+00
         21   -1    0    0  503  501  0.00000000000E+00  0.00000000000E+00  0.25676226004E+02  0.25676226004E+02  0.00000000000E+00 0.  1.
         21   -1    0    0  504  502 -0.00000000000E+00 -0.00000000000E+00 -0.94858713795E+02  0.94858713795E+02  0.00000000000E+00 0.  1.
         21    1    1    2  503  502 -0.15222815250E+02 -0.16943545948E+02 -0.88055888852E+02  0.90954150070E+02  0.00000000000E+00 0.  1.
         21    1    1    2  504  501  0.15222815250E+02  0.16943545948E+02  0.18873401061E+02  0.29580789730E+02  0.00000000000E+00 0.  1.
</event>
<event>
 4    1  0.2939002E+006  0.2501344E+02  0.7546771E-02  0.1468653E+00
         21   -1    0    0  504  501  0.00000000000E+00  0.00000000000E+00  0.85141208432E+02  0.85141208432E+02  0.00000000000E+00 0. -1.
         21   -1    0    0  503  502 -0.00000000000E+00 -0.00000000000E+00 -0.76123935157E+01  0.76123935157E+01  0.00000000000E+00 0. -1.
         21    1    1    2  503  501 -0.16048452826E+02  0.19186436143E+02  0.30131868888E+02  0.39161226905E+02  0.00000000000E+00 0. -1.
         21    1    1    2  504  502  0.16048452826E+02 -0.19186436143E+02  0.47396946027E+02  0.53592375043E+02  0.00000000000E+00 0. -1.
</event>
<event>
 4    1  0.2939002E+006  0.2122825E+02  0.7546771E-02  0.1516031E+00
         21   -1    0    0  504  501  0.00000000000E+00  0.00000000000E+00  0.30771199709E+03  0.30771199709E+03  0.00000000000E+00 0.  1.
         21   -1    0    0  503  502 -0.00000000000E+00 -0.00000000000E+00 -0.31967885521E+02  0.31967885521E+02  0.00000000000E+00 0.  1.
         21    1    1    2  503  501 -0.14977021587E+02 -0.15044187753E+02  0.30377611935E+03  0.30451694444E+03  0.00000000000E+00 0.  1.
         21    1    1    2  504  502  0.14977021587E+02  0.15044187753E+02 -0.28032007783E+02  0.35162938175E+02  0.00000000000E+00 0.  1.
</event>
<event>
 4    1  0.2939002E+006  0.2644751E+02  0.7546771E-02  0.1453238E+00
         21   -1    0    0  504  501  0.00000000000E+00  0.00000000000E+00  0.37225037193E+02  0.37225037193E+02  0.00000000000E+00 0.  1.
         21   -1    0    0  503  502 -0.00000000000E+00 -0.00000000000E+00 -0.80294966912E+02  0.80294966912E+02  0.00000000000E+00 0.  1.
         21    1    1    2  503  501  0.23053608669E+02  0.12961557869E+02  0.29892078724E+02  0.39912494604E+02  0.00000000000E+00 0.  1.
         21    1    1    2  504  502 -0.23053608669E+02 -0.12961557869E+02 -0.72962008443E+02  0.77607509502E+02  0.00000000000E+00 0.  1.
</event>
<event>
 4    1  0.2939002E+006  0.3310590E+02  0.7546771E-02  0.1394392E+00
         21   -1    0    0  504  501  0.00000000000E+00  0.00000000000E+00  0.43603709208E+03  0.43603709208E+03  0.00000000000E+00 0. -1.
         21   -1    0    0  501  502 -0.00000000000E+00 -0.00000000000E+00 -0.60020839075E+01  0.60020839075E+01  0.00000000000E+00 0.  1.
         21    1    1    2  503  502  0.12430744357E+02 -0.30683502541E+02  0.46516982021E+02  0.57094924028E+02  0.00000000000E+00 0.  1.
         21    1    1    2  504  503 -0.12430744357E+02  0.30683502541E+02  0.38351802615E+03  0.38494425196E+03  0.00000000000E+00 0. -1.
</event>
<event>
 4    1  0.2939002E+006  0.4298927E+02  0.7546771E-02  0.1331806E+00
         21   -1    0    0  504  501  0.00000000000E+00  0.00000000000E+00  0.12934186612E+03  0.12934186612E+03  0.00000000000E+00 0.  1.
         21   -1    0    0  501  502 -0.00000000000E+00 -0.00000000000E+00 -0.19506003965E+03  0.19506003965E+03  0.00000000000E+00 0.  1.
         21    1    1    2  503  502 -0.15826846467E+01 -0.42960123288E+02 -0.18900639433E+03  0.19383367659E+03  0.00000000000E+00 0.  1.
         21    1    1    2  504  503  0.15826846467E+01  0.42960123288E+02  0.12328822080E+03  0.13056822918E+03  0.00000000000E+00 0.  1.
</event>
<event>
 4    1  0.2939002E+006  0.2162243E+02  0.7546771E-02  0.1510561E+00
         21   -1    0    0  504  501  0.00000000000E+00  0.00000000000E+00  0.16874961549E+02  0.16874961549E+02  0.00000000000E+00 0.  1.
         21   -1    0    0  503  502 -0.00000000000E+00 -0.00000000000E+00 -0.27125050077E+03  0.27125050077E+03  0.00000000000E+00 0.  1.
         21    1    1    2  503  501  0.17457752803E+01  0.21551839811E+02 -0.26369509712E+03  0.26458010843E+03  0.00000000000E+00 0.  1.
         21    1    1    2  504  502 -0.17457752803E+01 -0.21551839811E+02  0.93195578963E+01  0.23545353893E+02  0.00000000000E+00 0.  1.
</event>
<event>
 4    1  0.2939002E+006  0.2216214E+02  0.7546771E-02  0.1503296E+00
         21   -1    0    0  503  501  0.00000000000E+00  0.00000000000E+00  0.70788883752E+01  0.70788883752E+01  0.00000000000E+00 0.  1.
         21   -1    0    0  504  502 -0.00000000000E+00 -0.00000000000E+00 -0.73371147937E+02  0.73371147937E+02  0.00000000000E+00 0.  1.
         21    1    1    2  503  502  0.63102637657E+01  0.21244783892E+02 -0.23768892210E+02  0.32498007759E+02  0.00000000000E+00 0.  1.
         21    1    1    2  504  501 -0.63102637657E+01 -0.21244783892E+02 -0.42523367351E+02  0.47952028553E+02  0.00000000000E+00 0.  1.
</event>
<event>
 4    1  0.2939002E+006  0.6792390E+02  0.7546771E-02  0.1235052E+00
         21   -1    0    0  503  501  0.00000000000E+00  0.00000000000E+00  0.14905788087E+04  0.14905788087E+04  0.00000000000E+00 0. -1.
         21   -1    0    0  501  502 -0.00000000000E+00 -0.00000000000E+00 -0.45704306149E+01  0.45704306149E+01  0.00000000000E+00 0. -1.
         21    1    1    2  503  504 -0.65575347299E+02  0.17706792707E+02  0.11677256957E+04  0.11696995157E+04  0.00000000000E+00 0. -1.
         21    1    1    2  504  502  0.65575347299E+02 -0.17706792707E+02  0.31828268244E+03  0.32544972365E+03  0.00000000000E+00 0. -1.
</event>
<event>
 4    1  0.2939002E+006  0.2242991E+02  0.7546771E-02  0.1499784E+00
         21   -1    0    0  504  501  0.00000000000E+00  0.00000000000E+00  0.18838408729E+02  0.18838408729E+02  0.00000000000E+00 0. -1.
         21   -1    0    0  503  502 -0.00000000000E+00 -0.00000000000E+00 -0.29105511452E+02  0.29105511452E+02  0.00000000000E+00 0. -1.
         21    1    1    2  503  501  0.17542625860E+02  0.13977014028E+02  0.17492819992E+01  0.22498013928E+02  0.00000000000E+00 0. -1.
         21    1    1    2  504  502 -0.17542625860E+02 -0.13977014028E+02 -0.12016384723E+02  0.25445906253E+02  0.00000000000E+00 0. -1.
</event>
<event>
 4    1  0.2939002E+006  0.3797723E+02  0.7546771E-02  0.1360765E+00
         21   -1    0    0  503  501  0.00000000000E+00  0.00000000000E+00  0.77468670797E+01  0.77468670797E+01  0.00000000000E+00 0. -1.
         21   -1    0    0  504  502 -0.00000000000E+00 -0.00000000000E+00 -0.23429686154E+03  0.23429686154E+03  0.00000000000E+00 0. -1.
         21    1    1    2  503  502 -0.86800148157E+01  0.36971985539E+02 -0.16812205451E+03  0.17235804473E+03  0.00000000000E+00 0. -1.
         21    1    1    2  504  501  0.86800148157E+01 -0.36971985539E+02 -0.58427939956E+02  0.69685683891E+02  0.00000000000E+00 0. -1.
</event>
<event>
 4    1  0.2939002E+006  0.2134719E+02  0.7546771E-02  0.1514365E+00
         21   -1    0    0  503  501  0.00000000000E+00  0.00000000000E+00  0.19924110378E+02  0.19924110378E+02  0.00000000000E+00 0. -1.
         21   -1    0    0  504  502 -0.00000000000E+00 -0.00000000000E+00 -0.23900324877E+02  0.23900324877E+02  0.00000000000E+00 0. -1.
         21    1    1    2  503  502 -0.11746456768E+02  0.17824794476E+02  0.25572466323E+01  0.21499815233E+02  0.00000000000E+00 0. -1.
         21    1    1    2  504  501  0.11746456768E+02 -0.17824794476E+02 -0.65334611313E+01  0.22324620021E+02  0.00000000000E+00 0. -1.
</event>
<event>
 4    1  0.2939002E+006  0.2161813E+02  0.7546771E-02  0.1510620E+00
         21   -1    0    0  504  501  0.00000000000E+00  0.00000000000E+00  0.29611330027E+01  0.29611330027E+01  0.00000000000E+00 0.  1.
         21   -1    0    0  503  502 -0.00000000000E+00 -0.00000000000E+00 -0.15784324220E+03  0.15784324220E+03  0.00000000000E+00 0. -1.
         21    1    1    2  503  501 -0.20476469207E+02  0.69323772941E+01 -0.78282465764E+02  0.81212610426E+02  0.00000000000E+00 0. -1.
         21    1    1    2  504  502  0.20476469207E+02 -0.69323772941E+01 -0.76599643429E+02  0.79591764772E+02  0.00000000000E+00 0.  1.
</event>
<event>
 4    1  0.2939002E+006  0.2742643E+02  0.7546771E-02  0.1443371E+00
         21   -1    0    0  502  501  0.00000000000E+00  0.00000000000E+00  0.28076445061E+02  0.28076445061E+02  0.00000000000E+00 0.  1.
         21   -1    0    0  503  502 -0.00000000000E+00 -0.00000000000E+00 -0.15351683914E+03  0.15351683914E+03  0.00000000000E+00 0.  1.
         21    1    1    2  503  504  0.26576702083E+02  0.67740839243E+01 -0.14521442371E+03  0.14778172472E+03  0.00000000000E+00 0.  1.
         21    1    1    2  504  501 -0.26576702083E+02 -0.67740839243E+01  0.19774029635E+02  0.33811559482E+02  0.00000000000E+00 0.  1.
</event>
<event>
 4    1  0.2939002E+006  0.2997113E+02  0.7546771E-02  0.1419848E+00
         21   -1    0    0  504  501  0.00000000000E+00  0.00000000000E+00  0.10013608104E+03  0.10013608104E+03  0.00000000000E+00 0.  1.
         21   -1    0    0  503  502 -0.00000000000E+00 -0.00000000000E+00 -0.75279017142E+02  0.75279017142E+02  0.00000000000E+00 0. -1.
         21    1    1    2  503  501 -0.48773034316E+01 -0.29571617106E+02  0.94744621568E+02  0.99372088350E+02  0.00000000000E+00 0.  1.
         21    1    1    2  504  502  0.48773034316E+01  0.29571617106E+02 -0.69887557671E+02  0.76043009831E+02  0.00000000000E+00 0. -1.
</event>
<event>
 4    1  0.2939002E+006  0.2186818E+02  0.7546771E-02  0.1507221E+00
         21   -1    0    0  504  501  0.00000000000E+00  0.00000000000E+00  0.42996722192E+02  0.42996722192E+02  0.00000000000E+00 0.  1.
         21   -1    0    0  503  502 -0.00000000000E+00 -0.00000000000E+00 -0.11147984524E+02  0.11147984524E+02  0.00000000000E+00 0. -1.
         21    1    1    2  503  501  0.11202824482E+02 -0.18780677358E+02  0.17226959896E+02  0.27838557176E+02  0.00000000000E+00 0.  1.
         21    1    1    2  504  502 -0.11202824482E+02  0.18780677358E+02  0.14621777772E+02  0.26306149539E+02  0.00000000000E+00 0. -1.
</event>
<event>
 4    1  0.2939002E+006  0.2772179E+02  0.7546771E-02  0.1440489E+00
         21   -1    0    0  504  501  0.00000000000E+00  0.00000000000E+00  0.29498500354E+02  0.29498500354E+02  0.00000000000E+00 0. -1.
         21   -1    0    0  501  502 -0.00000000000E+00 -0.00000000000E+00 -0.36648782397E+02  0.36648782397E+02  0.00000000000E+00 0.  1.
         21    1    1    2  503  502  0.77389966903E+01  0.26619650468E+02 -0.21359458834E+02  0.34996061814E+02  0.00000000000E+00 0.  1.
         21    1    1    2  504  503 -0.77389966903E+01 -0.26619650468E+02  0.14209176792E+02  0.31151220937E+02  0.00000000000E+00 0. -1.
</event>
<event>
 4    1  0.2939002E+006  0.2054904E+02  0.7546771E-02  0.1525802E+00
         21   -1    0    0  502  501  0.00000000000E+00  0.00000000000E+00  0.58599603693E+00  0.58599603693E+00  0.00000000000E+00 0.  1.
         21   -1    0    0  503  502 -0.00000000000E+00 -0.00000000000E+00 -0.13770970451E+04  0.13770970451E+04  0.00000000000E+00 0.  1.
         21    1    1    2  503  504 -0.12364619594E+02  0.16412777681E+02 -0.11638717078E+04  0.11640530982E+04  0.00000000000E+00 0.  1.
         21    1    1    2  504  501  0.12364619594E+02 -0.16412777681E+02 -0.21263934123E+03  0.21362994296E+03  0.00000000000E+00 0.  1.
</event>
<event>
 4    1  0.2939002E+006  0.3831134E+02  0.7546771E-02  0.1358676E+00
         21   -1    0    0  502  501  0.00000000000E+00  0.00000000000E+00  0.17841875964E+03  0.17841875964E+03  0.00000000000E+00 0. -1.
         21   -1    0    0  504  502 -0.00000000000E+00 -0.00000000000E+00 -0.14437818044E+03  0.14437818044E+03  0.00000000000E+00 0.  1.
         21    1    1    2  503  501 -0.30196960845E+02  0.23577581599E+02  0.17375318709E+03  0.17792675129E+03  0.00000000000E+00 0. -1.
         21    1    1    2  504  503  0.30196960845E+02 -0.23577581599E+02 -0.13971260789E+03  0.14487018879E+03  0.00000000000E+00 0.  1.
</event>
<event>
 4    1  0.2939002E+006  0.2216577E+02  0.7546771E-02  0.1503248E+00
         21   -1    0    0  503  501  0.00000000000E+00  0.00000000000E+00  0.32615351525E+03  0.32615351525E+03  0.00000000000E+00 0.  1.
         21   -1    0    0  501  502 -0.00000000000E+00 -0.00000000000E+00 -0.82478430040E+02  0.82478430040E+02  0.00000000000E+00 0.  1.
         21    1    1    2  503  504  0.17932008011E+02 -0.13029368458E+02  0.32427907216E+03  0.32503574880E+03  0.00000000000E+00 0.  1.
         21    1    1    2  504  502 -0.17932008011E+02  0.13029368458E+02 -0.80603986958E+02  0.83596196488E+02  0.00000000000E+00 0.  1.
</event>
<event>
 4    1  0.2939002E+006  0.2638722E+02  0.7546771E-02  0.1453863E+00
         21   -1    0    0  504  501  0.00000000000E+00  0.00000000000E+00  0.77892880289E+02  0.77892880289E+02  0.00000000000E+00 0.  1.
         21   -1    0    0  501  502 -0.00000000000E+00 -0.00000000000E+00 -0.27742842790E+02  0.27742842790E+02  0.00000000000E+00 0.  1.
         21    1    1    2  503  502 -0.21938618412E+02 -0.14662286496E+02 -0.18408879037E+02  0.32174095955E+02  0.00000000000E+00 0.  1.
         21    1    1    2  504  503  0.21938618412E+02  0.14662286496E+02  0.68558916536E+02  0.73461627124E+02  0.00000000000E+00 0.  1.
</event>
<event>
 4    1  0.2939002E+006  0.2272694E+02  0.7546771E-02  0.1495956E+00
         21   -1    0    0  504  501  0.00000000000E+00  0.00000000000E+00  0.49314174982E+01  0.49314174982E+01  0.00000000000E+00 0. -1.
         21   -1    0    0  503  502 -0.00000000000E+00 -0.00000000000E+00 -0.18562246549E+03  0.18562246549E+03  0.00000000000E+00 0.  1.
         21    1    1    2  503  501 -0.20682945400E+02 -0.94196274478E+01 -0.15323839116E+03  0.15491455108E+03  0.00000000000E+00 0.  1.
         21    1    1    2  504  502  0.20682945400E+02  0.94196274478E+01 -0.27452656836E+02  0.35639331911E+02  0.00000000000E+00 0. -1.
</event>
<event>
 4    1  0.2939002E+006  0.2496413E+02  0.7546771E-02  0.1469205E+00
         21   -1    0    0  504  501  0.00000000000E+00  0.00000000000E+00  0.20408112272E+03  0.20408112272E+03  0.00000000000E+00 0.  1.
         21   -1    0    0  503  502 -0.00000000000E+00 -0.00000000000E+00 -0.12884011783E+02  0.12884011783E+02  0.00000000000E+00 0. -1.
         21    1    1    2  503  501 -0.21390969065E+02  0.12869901173E+02  0.19035689905E+03  0.19198686656E+03  0.00000000000E+00 0.  1.
         21    1    1    2  504  502  0.21390969065E+02 -0.12869901173E+02  0.84021188882E+00  0.24978267950E+02  0.00000000000E+00 0. -1.
</event>
<event>
 4    1  0.2939002E+006  0.2486471E+02  0.7546771E-02  0.1470323E+00
         21   -1    0    0  504  501  0.00000000000E+00  0.00000000000E+00  0.69444231117E+02  0.69444231117E+02  0.00000000000E+00 0.  1.
         21   -1    0    0  501  502 -0.00000000000E+00 -0.00000000000E+00 -0.88829185283E+02  0.88829185283E+02  0.00000000000E+00 0.  1.
         21    1    1    2  503  502  0.14063454428E+02  0.20505437079E+02 -0.84758776857E+02  0.88330651274E+02  0.00000000000E+00 0.  1.
         21    1    1    2  504  503 -0.14063454428E+02 -0.20505437079E+02  0.65373822691E+02  0.69942765126E+02  0.00000000000E+00 0.  1.
</event>
<event>
 4    1  0.2939002E+006  0.2406051E+02  0.7546771E-02  0.1479594E+00
         21   -1    0    0  504  501  0.00000000000E+00  0.00000000000E+00  0.21921150708E+01  0.21921150708E+01  0.00000000000E+00 0. -1.
         21   -1    0    0  501  502 -0.00000000000E+00 -0.00000000000E+00 -0.26696311445E+03  0.26696311445E+03  0.00000000000E+00 0. -1.
         21    1    1    2  503  502  0.20131335971E+02 -0.13177149012E+02 -0.14635528836E+03  0.14831985159E+03  0.00000000000E+00 0. -1.
         21    1    1    2  504  503 -0.20131335971E+02  0.13177149012E+02 -0.11841571102E+03  0.12083537794E+03  0.00000000000E+00 0. -1.
</event>
<event>
 4    1  0.2939002E+006  0.3338122E+02  0.7546771E-02  0.1392315E+00
         21   -1    0    0  502  501  0.00000000000E+00  0.00000000000E+00  0.26815880238E+02  0.26815880238E+02  0.00000000000E+00 0.  1.
         21   -1    0    0  503  502 -0.00000000000E+00 -0.00000000000E+00 -0.33551192258E+03  0.33551192258E+03  0.00000000000E+00 0.  1.
         21    1    1    2  503  504  0.12471753534E+02 -0.30963869522E+02 -0.32392242727E+03  0.32563790434E+03  0.00000000000E+00 0.  1.
         21    1    1    2  504  501 -0.12471753534E+02  0.30963869522E+02  0.15226384935E+02  0.36689898476E+02  0.00000000000E+00 0.  1.
</event>
<event>
 4    1  0.2939002E+006  0.2572670E+02  0.7546771E-02  0.1460836E+00
         21   -1    0    0  504  501  0.00000000000E+00  0.00000000000E+00  0.11229729934E+03  0.11229729934E+03  0.00000000000E+00 0. -1.
         21   -1    0    0  503  502 -0.00000000000E+00 -0.00000000000E+00 -0.60408904114E+01  0.60408904114E+01  0.00000000000E+00 0.  1.
         21    1    1    2  503  501  0.11548474150E+02  0.22989040283E+02  0.43896847272E+02  0.50880216477E+02  0.00000000000E+00 0.  1.
         21    1    1    2  504  502 -0.11548474150E+02 -0.22989040283E+02  0.62359561658E+02  0.67457973276E+02  0.00000000000E+00 0. -1.
</event>
<event>
 4    1  0.2939002E+006  0.2452031E+02  0.7546771E-02  0.1474242E+00
         21   -1    0    0  502  501  0.00000000000E+00  0.00000000000E+00  0.46549833159E+01  0.46549833159E+01  0.00000000000E+00 0.  1.
         21   -1    0    0  504  502 -0.00000000000E+00 -0.00000000000E+00 -0.18037688431E+03  0.18037688431E+03  0.00000000000E+00 0.  1.
         21    1    1    2  503  501  0.37423232378E+01 -0.24233051614E+02 -0.38563407978E+02  0.45698820648E+02  0.00000000000E+00 0.  1.
         21    1    1    2  504  503 -0.37423232378E+01  0.24233051614E+02 -0.13715849302E+03  0.13933304698E+03  0.00000000000E+00 0.  1.
</event>
<event>
 4    1  0.2939002E+006  0.2564955E+02  0.7546771E-02  0.1461666E+00
         21   -1    0    0  504  501  0.00000000000E+00  0.00000000000E+00  0.22588350844E+03  0.22588350844E+03  0.00000000000E+00 0.  1.
         21   -1    0    0  501  502 -0.00000000000E+00 -0.00000000000E+00 -0.78710956754E+01  0.78710956754E+01  0.00000000000E+00 0. -1.
         21    1    1    2  503  502  0.31902897224E+00 -0.25647568075E+02  0.16240115997E+02  0.30358539083E+02  0.00000000000E+00 0. -1.
         21    1    1    2  504  503 -0.31902897224E+00  0.25647568075E+02  0.20177229677E+03  0.20339606503E+03  0.00000000000E+00 0.  1.
</event>
<event>
 4    1  0.2939002E+006  0.3062560E+02  0.7546771E-02  0.1414236E+00
         21   -1    0    0  504  501  0.00000000000E+00  0.00000000000E+00  0.51244395454E+03  0.51244395454E+03  0.00000000000E+00 0. -1.
         21   -1    0    0  503  502 -0.00000000000E+00 -0.00000000000E+00 -0.59759826793E+01  0.59759826793E+01  0.00000000000E+00 0. -1.
         21    1    1    2  503  501  0.18397473967E+02  0.24483873212E+02  0.37337800855E+02  0.48291184170E+02  0.00000000000E+00 0. -1.
         21    1    1    2  504  502 -0.18397473967E+02 -0.24483873212E+02  0.46913017101E+03  0.47012875305E+03  0.00000000000E+00 0. -1.
</event>
<event>
 4    1  0.2939002E+006  0.2856026E+02  0.7546771E-02  0.1432535E+00
         21   -1    0    0  502  501  0.00000000000E+00  0.00000000000E+00  0.39573189512E+03  0.39573189512E+03  0.00000000000E+00 0. -1.
         21   -1    0    0  504  502 -0.00000000000E+00 -0.00000000000E+00 -0.91598399682E+01  0.91598399682E+01  0.00000000000E+00 0.  1.
         21    1    1    2  503  501 -0.39040819141E+01  0.28292161234E+02  0.37150425116E+03  0.37260045205E+03  0.00000000000E+00 0. -1.
         21    1    1    2  504  503  0.39040819141E+01 -0.28292161234E+02  0.15067803997E+02  0.32291283037E+02  0.00000000000E+00 0.  1.
</event>
<event>
 4    1  0.2939002E+006  0.2073673E+02  0.7546771E-02  0.1523057E+00
         21   -1    0    0  504  501  0.00000000000E+00  0.00000000000E+00  0.15478645067E+03  0.15478645067E+03  0.00000000000E+00 0.  1.
         21   -1    0    0  503  502 -0.00000000000E+00 -0.00000000000E+00 -0.12303349147E+02  0.12303349147E+02  0.00000000000E+00 0. -1.
         21    1    1    2  503  501  0.10179292600E+02  0.18066379960E+02 -0.22684561744E+01  0.20860440458E+02  0.00000000000E+00 0. -1.
         21    1    1    2  504  502 -0.10179292600E+02 -0.18066379960E+02  0.14475155770E+03  0.14622935936E+03  0.00000000000E+00 0.  1.
</event>
<event>
 4    1  0.2939002E+006  0.4223891E+02  0.7546771E-02  0.1335843E+00
         21   -1    0    0  502  501  0.00000000000E+00  0.00000000000E+00  0.78764811330E+03  0.78764811330E+03  0.00000000000E+00 0.  1.
         21   -1    0    0  503  502 -0.00000000000E+00 -0.00000000000E+00 -0.35804678213E+01  0.35804678213E+01  0.00000000000E+00 0.  1.
         21    1    1    2  503  504  0.40482054456E+02  0.12055231453E+02  0.15224952257E+03  0.15800013437E+03  0.00000000000E+00 0.  1.
         21    1    1    2  504  501 -0.40482054456E+02 -0.12055231453E+02  0.63181812291E+03  0.63322844675E+03  0.00000000000E+00 0.  1.
</event>
<event>
 4    1  0.2939002E+006  0.2235458E+02  0.7546771E-02  0.1500766E+00
         21   -1    0    0  503  501  0.00000000000E+00  0.00000000000E+00  0.57140447052E+00  0.57140447052E+00  0.00000000000E+00 0. -1.
         21   -1    0    0  504  502 -0.00000000000E+00 -0.00000000000E+00 -0.11809518454E+04  0.11809518454E+04  0.00000000000E+00 0. -1.
         21    1    1    2  503  502 -0.13639249215E+02 -0.17711531584E+02 -0.28928147350E+03  0.29014392701E+03  0.00000000000E+00 0. -1.
         21    1    1    2  504  501  0.13639249215E+02  0.17711531584E+02 -0.89109896747E+03  0.89137932291E+03  0.00000000000E+00 0. -1.
</event>
<event>
 4    1  0.2939002E+006  0.4952806E+02  0.7546771E-02  0.1300232E+00
         21   -1    0    0  503  501  0.00000000000E+00  0.00000000000E+00  0.15627974750E+02  0.15627974750E+02  0.00000000000E+00 0.  1.
         21   -1    0    0  504  502 -0.00000000000E+00 -0.00000000000E+00 -0.99453835702E+03  0.99453835702E+03  0.00000000000E+00 0.  1.
         21    1    1    2  503  502 -0.20663369531E+02 -0.45011713454E+02 -0.25940167195E+02  0.55909940642E+02  0.00000000000E+00 0.  1.
         21    1    1    2  504  501  0.20663369531E+02  0.45011713454E+02 -0.95297021508E+03  0.95425639113E+03  0.00000000000E+00 0.  1.
</event>
<event>
 4    1  0.2939002E+006  0.2640114E+02  0.7546771E-02  0.1453718E+00
         21   -1    0    0  502  501  0.00000000000E+00  0.00000000000E+00  0.15760109604E+02  0.15760109604E+02  0.00000000000E+00 0.  1.
         21   -1    0    0  503  502 -0.00000000000E+00 -0.00000000000E+00 -0.12008125026E+03  0.12008125026E+03  0.00000000000E+00 0. -1.
         21    1    1    2  503  504 -0.15203546924E+02 -0.21584070424E+02 -0.10614329815E+03  0.10937741849E+03  0.00000000000E+00 0. -1.
         21    1    1    2  504  501  0.15203546924E+02  0.21584070424E+02  0.18221574864E+01  0.26463941374E+02  0.00000000000E+00 0.  1.
</event>
<event>
 4    1  0.2939002E+006  0.2247287E+02  0.7546771E-02  0.1499226E+00
         21   -1    0    0  504  501  0.00000000000E+00  0.00000000000E+00  0.11171374198E+02  0.11171374198E+02  0.00000000000E+00 0. -1.
         21   -1    0    0  501  502 -0.00000000000E+00 -0.00000000000E+00 -0.15572524238E+03  0.15572524238E+03  0.00000000000E+00 0.  1.
         21    1    1    2  503  502 -0.20727339722E+02 -0.86837236540E+01 -0.14257673127E+03  0.14433694595E+03  0.00000000000E+00 0.  1.
         21    1    1    2  504  503  0.20727339722E+02  0.86837236540E+01 -0.19771369183E+01  0.22559670628E+02  0.00000000000E+00 0. -1.
</event>
<event>
 4    1  0.2939002E+006  0.3644124E+02  0.7546771E-02  0.1370704E+00
         21   -1    0    0  504  501  0.00000000000E+00  0.00000000000E+00  0.72458508585E+02  0.72458508585E+02  0.00000000000E+00 0. -1.
         21   -1    0    0  503  502 -0.00000000000E+00 -0.00000000000E+00 -0.28011898540E+02  0.28011898540E+02  0.00000000000E+00 0.  1.
         21    1    1    2  503  501 -0.36437177958E+02 -0.54420749811E+00  0.51761174524E+02  0.63302316605E+02  0.00000000000E+00 0. -1.
         21    1    1    2  504  502  0.36437177958E+02  0.54420749811E+00 -0.73145644797E+01  0.37168090520E+02  0.00000000000E+00 0.  1.
</event>
<event>
 4    1  0.2939002E+006  0.5279950E+02  0.7546771E-02  0.1286471E+00
         21   -1    0    0  502  501  0.00000000000E+00  0.00000000000E+00  0.67990606086E+03  0.67990606086E+03  0.00000000000E+00 0.  1.
         21   -1    0    0  504  502 -0.00000000000E+00 -0.00000000000E+00 -0.11423048057E+02  0.11423048057E+02  0.00000000000E+00 0. -1.
         21    1    1    2  503  501 -0.30722367045E+02  0.42940926328E+02  0.61100084264E+03  0.61327792777E+03  0.00000000000E+00 0.  1.
         21    1    1    2  504  503  0.30722367045E+02 -0.42940926328E+02  0.57482170162E+02  0.78051181140E+02  0.00000000000E+00 0. -1.
</event>
<event>
 4    1  0.2939002E+006  0.2725784E+02  0.7546771E-02  0.1445035E+00
         21   -1    0    0  503  501  0.00000000000E+00  0.00000000000E+00  0.65381449527E+02  0.65381449527E+02  0.00000000000E+00 0. -1.
         21   -1    0    0  501  502 -0.00000000000E+00 -0.00000000000E+00 -0.18906347265E+02  0.18906347265E+02  0.00000000000E+00 0. -1.
         21    1    1    2  503  504 -0.14081718225E+02  0.23338697332E+02  0.49856226990E+02  0.56821060805E+02  0.00000000000E+00 0. -1.
         21    1    1    2  504  502  0.14081718225E+02 -0.23338697332E+02 -0.33811247271E+01  0.27466735987E+02  0.00000000000E+00 0. -1.
</event>
<event>
 4    1  0.2939002E+006  0.3248301E+02  0.7546771E-02  0.1399178E+00
         21   -1    0    0  502  501  0.00000000000E+00  0.00000000000E+00  0.16533243718E+02  0.16533243718E+02  0.00000000000E+00 0. -1.
         21   -1    0    0  504  502 -0.00000000000E+00 -0.00000000000E+00 -0.23574684845E+03  0.23574684845E+03  0.00000000000E+00 0. -1.
         21    1    1    2  503  501 -0.16891199164E+02 -0.27745871770E+02 -0.18853210790E+01  0.32537677315E+02  0.00000000000E+00 0. -1.
         21    1    1    2  504  503  0.16891199164E+02  0.27745871770E+02 -0.21732828365E+03  0.21974241485E+03  0.00000000000E+00 0. -1.
</event>
<event>
 4    1  0.2939002E+006  0.3064694E+02  0.7546771E-02  0.1414056E+00
         21   -1    0    0  504  501  0.00000000000E+00  0.00000000000E+00  0.47683661754E+01  0.47683661754E+01  0.00000000000E+00 0. -1.
         21   -1    0    0  503  502 -0.00000000000E+00 -0.00000000000E+00 -0.21315440710E+03  0.21315440710E+03  0.00000000000E+00 0. -1.
         21    1    1    2  503  501  0.19911129953E+02 -0.23297677931E+02 -0.13421547963E+03  0.13767000351E+03  0.00000000000E+00 0. -1.
         21    1    1    2  504  502 -0.19911129953E+02  0.23297677931E+02 -0.74170561296E+02  0.80252769771E+02  0.00000000000E+00 0. -1.
</event>
<event>
 4    1  0.2939002E+006  0.3198014E+02  0.7546771E-02  0.1403135E+00
         21   -1    0    0  504  501  0.00000000000E+00  0.00000000000E+00  0.42554858109E+02  0.42554858109E+02  0.00000000000E+00 0.  1.
         21   -1    0    0  501  502 -0.00000000000E+00 -0.00000000000E+00 -0.27941548900E+03  0.27941548900E+03  0.00000000000E+00 0.  1.
         21    1    1    2  503  502  0.18532633666E+02  0.26062823280E+02 -0.27233648597E+03  0.27420775127E+03  0.00000000000E+00 0.  1.
         21    1    1    2  504  503 -0.18532633666E+02 -0.26062823280E+02  0.35475855075E+02  0.47762595838E+02  0.00000000000E+00 0.  1.
</event>
<event>
 4    1  0.2939002E+006  0.2036304E+02  0.7546771E-02  0.1528556E+00
         21   -1    0    0  502  501  0.00000000000E+00  0.00000000000E+00  0.11331897687E+02  0.11331897687E+02  0.00000000000E+00 0.  1.
         21   -1    0    0  504  502 -0.00000000000E+00 -0.00000000000E+00 -0.71652532151E+02  0.71652532151E+02  0.00000000000E+00 0.  1.
         21    1    1    2  503  501 -0.16909058270E+02  0.11346245727E+02 -0.11360088988E+01  0.20394706663E+02  0.00000000000E+00 0.  1.
         21    1    1    2  504  503  0.16909058270E+02 -0.11346245727E+02 -0.59184625566E+02  0.62589723174E+02  0.00000000000E+00 0.  1.
</event>
<event>
 4    1  0.2939002E+006  0.2392362E+02  0.7546771E-02  0.1481215E+00
         21   -1    0    0  504  501  0.00000000000E+00  0.00000000000E+00  0.11338637133E+04  0.11338637133E+04  0.00000000000E+00 0.  1.
         21   -1    0    0  503  502 -0.00000000000E+00 -0.00000000000E+00 -0.22181663065E+02  0.22181663065E+02  0.00000000000E+00 0.  1.
         21    1    1    2  503  501 -0.23124030943E+02 -0.61334320168E+01 -0.15567027130E+02  0.28542461860E+02  0.00000000000E+00 0.  1.
         21    1    1    2  504  502  0.23124030943E+02  0.61334320168E+01  0.11272490774E+04  0.11275029145E+04  0.00000000000E+00 0.  1.
</event>
<event>
 4    1  0.2939002E+006  0.2451371E+02  0.7546771E-02  0.1474318E+00
         21   -1    0    0  502  501  0.00000000000E+00  0.00000000000E+00  0.15535825976E+03  0.15535825976E+03  0.00000000000E+00 0.  1.
         21   -1    0    0  504  502 -0.00000000000E+00 -0.00000000000E+00 -0.18563684664E+02  0.18563684664E+02  0.00000000000E+00 0.  1.
         21    1    1    2  503  501 -0.81334720035E+01  0.23125059515E+02  0.14576995832E+03  0.14781678691E+03  0.00000000000E+00 0.  1.
         21    1    1    2  504  503  0.81334720035E+01 -0.23125059515E+02 -0.89753832288E+01  0.26105157508E+02  0.00000000000E+00 0.  1.
</event>
<event>
 4    1  0.2939002E+006  0.4473521E+02  0.7546771E-02  0.1322769E+00
         21   -1    0    0  502  501  0.00000000000E+00  0.00000000000E+00  0.68769883765E+01  0.68769883765E+01  0.00000000000E+00 0.  1.
         21   -1    0    0  504  502 -0.00000000000E+00 -0.00000000000E+00 -0.64477723557E+03  0.64477723557E+03  0.00000000000E+00 0. -1.
         21    1    1    2  503  501  0.18961353350E+00 -0.44734803485E+02 -0.77601853079E+02  0.89572798312E+02  0.00000000000E+00 0.  1.
         21    1    1    2  504  503 -0.18961353350E+00  0.44734803485E+02 -0.56029839411E+03  0.56208142563E+03  0.00000000000E+00 0. -1.
</event>
<event>
 4    1  0.2939002E+006  0.2743267E+02  0.7546771E-02  0.1443310E+00
         21   -1    0    0  504  501  0.00000000000E+00  0.00000000000E+00  0.23662304689E+01  0.23662304689E+01  0.00000000000E+00 0. -1.
         21   -1    0    0  503  502 -0.00000000000E+00 -0.00000000000E+00 -0.55602163016E+03  0.55602163016E+03  0.00000000000E+00 0. -1.
         21    1    1    2  503  501  0.76025937686E+01  0.26358152236E+02 -0.94171881281E+02  0.98086160315E+02  0.00000000000E+00 0. -1.
         21    1    1    2  504  502 -0.76025937686E+01 -0.26358152236E+02 -0.45948351841E+03  0.46030170031E+03  0.00000000000E+00 0. -1.
</event>
<event>
 4    1  0.2939002E+006  0.4265102E+02  0.7546771E-02  0.1333614E+00
         21   -1    0    0  504  501  0.00000000000E+00  0.00000000000E+00  0.91784147704E+02  0.91784147704E+02  0.00000000000E+00 0. -1.
         21   -1    0    0  503  502 -0.00000000000E+00 -0.00000000000E+00 -0.50046141248E+02  0.50046141248E+02  0.00000000000E+00 0.  1.
         21    1    1    2  503  501  0.34442008554E+02 -0.25156664892E+02  0.75981377661E+02  0.87133687475E+02  0.00000000000E+00 0. -1.
         21    1    1    2  504  502 -0.34442008554E+02  0.25156664892E+02 -0.34243371205E+02  0.54696601477E+02  0.00000000000E+00 0.  1.
</event>
<event>
 4    1  0.2939002E+006  0.2536963E+02  0.7546771E-02  0.1464711E+00
         21   -1    0    0  503  501  0.00000000000E+00  0.00000000000E+00  0.35467228113E+03  0.35467228113E+03  0.00000000000E+00 0.  1.
         21   -1    0    0  504  502 -0.00000000000E+00 -0.00000000000E+00 -0.31209351488E+02  0.31209351488E+02  0.00000000000E+00 0.  1.
         21    1    1    2  503  502  0.49759111055E+01 -0.24876868346E+02 -0.25516028323E+02  0.35981744975E+02  0.00000000000E+00 0.  1.
         21    1    1    2  504  501 -0.49759111055E+01  0.24876868346E+02  0.34897895797E+03  0.34989988765E+03  0.00000000000E+00 0.  1.
</event>
<event>
 4    1  0.2939002E+006  0.2034042E+02  0.7546771E-02  0.1528894E+00
         21   -1    0    0  503  501  0.00000000000E+00  0.00000000000E+00  0.76104529748E+02  0.76104529748E+02  0.00000000000E+00 0. -1.
         21   -1    0    0  504  502 -0.00000000000E+00 -0.00000000000E+00 -0.61146803319E+02  0.61146803319E+02  0.00000000000E+00 0. -1.
         21    1    1    2  503  502 -0.30614589835E+01  0.20108710584E+02 -0.58025155499E+02  0.61487002230E+02  0.00000000000E+00 0. -1.
         21    1    1    2  504  501  0.30614589835E+01 -0.20108710584E+02  0.72982881929E+02  0.75764330837E+02  0.00000000000E+00 0. -1.
</event>
<event>
 4    1  0.2939002E+006  0.2631872E+02  0.7546771E-02  0.1454574E+00
         21   -1    0    0  503  501  0.00000000000E+00  0.00000000000E+00  0.32565086678E+03  0.32565086678E+03  0.00000000000E+00 0. -1.
         21   -1    0    0  504  502 -0.00000000000E+00 -0.00000000000E+00 -0.43536856717E+02  0.43536856717E+02  0.00000000000E+00 0. -1.
         21    1    1    2  503  502  0.12652696336E+02 -0.23077783309E+02  0.32108512073E+03  0.32216196169E+03  0.00000000000E+00 0. -1.
         21    1    1    2  504  501 -0.12652696336E+02  0.23077783309E+02 -0.38971110665E+02  0.47025761807E+02  0.00000000000E+00 0. -1.
</event>
<event>
 4    1  0.2939002E+006  0.3971422E+02  0.7546771E-02  0.1350169E+00
         21   -1    0    0  503  501  0.00000000000E+00  0.00000000000E+00  0.18922221887E+03  0.18922221887E+03  0.00000000000E+00 0.  1.
         21   -1    0    0  501  502 -0.00000000000E+00 -0.00000000000E+00 -0.27668104027E+02  0.27668104027E+02  0.00000000000E+00 0.  1.
         21    1    1    2  503  504 -0.27840318171E+02 -0.28322006715E+02  0.17142713413E+03  0.17596727450E+03  0.00000000000E+00 0.  1.
         21    1    1    2  504  502  0.27840318171E+02  0.28322006715E+02 -0.98730192837E+01  0.40923048396E+02  0.00000000000E+00 0.  1.
</event>
<event>
 4    1  0.2939002E+006  0.2264170E+02  0.7546771E-02  0.1497047E+00
         21   -1    0    0  504  501  0.00000000000E+00  0.00000000000E+00  0.37079472861E+01  0.37079472861E+01  0.00000000000E+00 0.  1.
         21   -1    0    0  503  502 -0.00000000000E+00 -0.00000000000E+00 -0.26227964480E+03  0.26227964480E+03  0.00000000000E+00 0. -1.
         21    1    1    2  503  501  0.21539022920E+02 -0.69797773095E+01 -0.22073947649E+03  0.22189764145E+03  0.00000000000E+00 0. -1.
         21    1    1    2  504  502 -0.21539022920E+02  0.69797773095E+01 -0.37832221028E+02  0.44089950641E+02  0.00000000000E+00 0.  1.
</event>
<event>
 4    1  0.2939002E+006  0.3809246E+02  0.7546771E-02  0.1360042E+00
         21   -1    0    0  503  501  0.00000000000E+00  0.00000000000E+00  0.89440965332E+03  0.89440965332E+03  0.00000000000E+00 0. -1.
         21   -1    0    0  504  502 -0.00000000000E+00 -0.00000000000E+00 -0.16855705282E+01  0.16855705282E+01  0.00000000000E+00 0.  1.
         21    1    1    2  503  502  0.33711506517E+02 -0.17736120700E+02  0.53314163121E+03  0.53450073394E+03  0.00000000000E+00 0. -1.
         21    1    1    2  504  501 -0.33711506517E+02  0.17736120700E+02  0.35958245158E+03  0.36159448991E+03  0.00000000000E+00 0.  1.
</event>
<event>
 4    1  0.2939002E+006  0.3270563E+02  0.7546771E-02  0.1397453E+00
         21   -1    0    0  502  501  0.00000000000E+00  0.00000000000E+00  0.30030011010E+02  0.30030011010E+02  0.00000000000E+00 0.  1.
         21   -1    0    0  504  502 -0.00000000000E+00 -0.00000000000E+00 -0.43758445115E+02  0.43758445115E+02  0.00000000000E+00 0.  1.
         21    1    1    2  503  501  0.11098979343E+02 -0.30764771117E+02  0.90471517699E+01  0.33933898089E+02  0.00000000000E+00 0.  1.
         21    1    1    2  504  503 -0.11098979343E+02  0.30764771117E+02 -0.22775585874E+02  0.39854558036E+02  0.00000000000E+00 0.  1.
</event>
<event>
 4    1  0.2939002E+006  0.6106891E+02  0.7546771E-02  0.1256243E+00
         21   -1    0    0  503  501  0.00000000000E+00  0.00000000000E+00  0.73961943452E+03  0.73961943452E+03  0.00000000000E+00 0.  1.
         21   -1    0    0  501  502 -0.00000000000E+00 -0.00000000000E+00 -0.14425168769E+02  0.14425168769E+02  0.00000000000E+00 0.  1.
         21    1    1    2  503  504 -0.68942078257E+01  0.60678506097E+02  0.66666710188E+03  0.66945831531E+03  0.00000000000E+00 0.  1.
         21    1    1    2  504  502  0.68942078257E+01 -0.60678506097E+02  0.58527163868E+02  0.84586287980E+02  0.00000000000E+00 0.  1.
</event>
<event>
 4    1  0.2939002E+006  0.2190104E+02  0.7546771E-02  0.1506779E+00
         21   -1    0    0  503  501  0.00000000000E+00  0.00000000000E+00  0.45199722361E+03  0.45199722361E+03  0.00000000000E+00 0. -1.
         21   -1    0    0  501  502 -0.00000000000E+00 -0.00000000000E+00 -0.15857750265E+01  0.15857750265E+01  0.00000000000E+00 0. -1.
         21    1    1    2  503  504 -0.21547060201E+02  0.39217063557E+01  0.35564648852E+03  0.35632019362E+03  0.00000000000E+00 0. -1.
         21    1    1    2  504  502  0.21547060201E+02 -0.39217063557E+01  0.94764960068E+02  0.97262805022E+02  0.00000000000E+00 0. -1.
</event>
<event>
 4    1  0.2939002E+006  0.2461060E+02  0.7546771E-02  0.1473207E+00
         21   -1    0    0  503  501  0.00000000000E+00  0.00000000000E+00  0.75378871877E+02  0.75378871877E+02  0.00000000000E+00 0.  1.
         21   -1    0    0  504  502 -0.00000000000E+00 -0.00000000000E+00 -0.22508281898E+02  0.22508281898E+02  0.00000000000E+00 0.  1.
         21    1    1    2  503  502 -0.24600512330E+02  0.70467173864E+00 -0.12811622128E+02  0.27745620028E+02  0.00000000000E+00 0.  1.
         21    1    1    2  504  501  0.24600512330E+02 -0.70467173864E+00  0.65682212107E+02  0.70141533748E+02  0.00000000000E+00 0.  1.
</event>
<event>
 4    1  0.2939002E+006  0.2544916E+02  0.7546771E-02  0.1463841E+00
         21   -1    0    0  503  501  0.00000000000E+00  0.00000000000E+00  0.48667734031E+03  0.48667734031E+03  0.00000000000E+00 0.  1.
         21   -1    0    0  501  502 -0.00000000000E+00 -0.00000000000E+00 -0.80136555852E+02  0.80136555852E+02  0.00000000000E+00 0. -1.
         21    1    1    2  503  504  0.22711550843E+02 -0.11482396007E+02  0.48431430563E+03  0.48498248071E+03  0.00000000000E+00 0.  1.
         21    1    1    2  504  502 -0.22711550843E+02  0.11482396007E+02 -0.77773521170E+02  0.81831415453E+02  0.00000000000E+00 0. -1.
</event>
<event>
 4    1  0.2939002E+006  0.3870145E+02  0.7546771E-02  0.1356268E+00
         21   -1    0    0  504  501  0.00000000000E+00  0.00000000000E+00  0.28223809753E+02  0.28223809753E+02  0.00000000000E+00 0. -1.
         21   -1    0    0  503  502 -0.00000000000E+00 -0.00000000000E+00 -0.16079355061E+03  0.16079355061E+03  0.00000000000E+00 0.  1.
         21    1    1    2  503  501  0.62381671595E+01  0.38195389994E+02 -0.14364108649E+03  0.14876345073E+03  0.00000000000E+00 0.  1.
         21    1    1    2  504  502 -0.62381671595E+01 -0.38195389994E+02  0.11071345633E+02  0.40253909629E+02  0.00000000000E+00 0. -1.
</event>
<event>
 4    1  0.2939002E+006  0.2178199E+02  0.7546771E-02  0.1508386E+00
         21   -1    0    0  504  501  0.00000000000E+00  0.00000000000E+00  0.11440736205E+03  0.11440736205E+03  0.00000000000E+00 0. -1.
         21   -1    0    0  501  502 -0.00000000000E+00 -0.00000000000E+00 -0.10951657283E+02  0.10951657283E+02  0.00000000000E+00 0.  1.
         21    1    1    2  503  502  0.99648810508E+01 -0.19368951978E+02  0.23210651613E+01  0.21905307543E+02  0.00000000000E+00 0.  1.
         21    1    1    2  504  503 -0.99648810508E+01  0.19368951978E+02  0.10113463961E+03  0.10345371179E+03  0.00000000000E+00 0. -1.
</event>
<event>
 4    1  0.2939002E+006  0.2495312E+02  0.7546771E-02  0.1469329E+00
         21   -1    0    0  503  501  0.00000000000E+00  0.00000000000E+00  0.11940138526E+04  0.11940138526E+04  0.00000000000E+00 0.  1.
         21   -1    0    0  501  502 -0.00000000000E+00 -0.00000000000E+00 -0.17109789318E+01  0.17109789318E+01  0.00000000000E+00 0.  1.
         21    1    1    2  503  504  0.23542963875E+02 -0.82696479213E+01  0.10946459202E+04  0.10949302941E+04  0.00000000000E+00 0.  1.
         21    1    1    2  504  502 -0.23542963875E+02  0.82696479213E+01  0.97656953453E+02  0.10079453746E+03  0.00000000000E+00 0.  1.
</event>
<event>
 4    1  0.2939002E+006  0.2123933E+02  0.7546771E-02  0.1515875E+00
         21   -1    0    0  504  501  0.00000000000E+00  0.00000000000E+00  0.11309037323E+03  0.11309037323E+03  0.00000000000E+00 0. -1.
         21   -1    0    0  503  502 -0.00000000000E+00 -0.00000000000E+00 -0.41653254368E+01  0.41653254368E+01  0.00000000000E+00 0. -1.
         21    1    1    2  503  501  0.17668542942E+02  0.11786931228E+02  0.42397510918E+02  0.47420017814E+02  0.00000000000E+00 0. -1.
         21    1    1    2  504  502 -0.17668542942E+02 -0.11786931228E+02  0.66527536875E+02  0.69835680852E+02  0.00000000000E+00 0. -1.
</event>
<event>
 4    1  0.2939002E+006  0.2284069E+02  0.7546771E-02  0.1494508E+00
         21   -1    0    0  503  501  0.00000000000E+00  0.00000000000E+00  0.30563672134E+03  0.30563672134E+03  0.00000000000E+00 0. -1.
         21   -1    0    0  504  502 -0.00000000000E+00 -0.00000000000E+00 -0.22111929604E+02  0.22111929604E+02  0.00000000000E+00 0.  1.
         21    1    1    2  503  502 -0.68079189824E+01 -0.21802503093E+02 -0.15659818031E+02  0.27693443317E+02  0.00000000000E+00 0.  1.
         21    1    1    2  504  501  0.68079189824E+01  0.21802503093E+02  0.29918460977E+03  0.30005520763E+03  0.00000000000E+00 0. -1.
</event>
<event>
 4    1  0.2939002E+006  0.3135403E+02  0.7546771E-02  0.1408184E+00
         21   -1    0    0  504  501  0.00000000000E+00  0.00000000000E+00  0.37352908559E+02  0.37352908559E+02  0.00000000000E+00 0.  1.
         21   -1    0    0  503  502 -0.00000000000E+00 -0.00000000000E+00 -0.63522314315E+02  0.63522314315E+02  0.00000000000E+00 0. -1.
         21    1    1    2  503  501  0.30522079487E+02 -0.71747888229E+01  0.25515066808E+02  0.40423923177E+02  0.00000000000E+00 0.  1.
         21    1    1    2  504  502 -0.30522079487E+02  0.71747888229E+01 -0.51684472564E+02  0.60451299697E+02  0.00000000000E+00 0. -1.
</event>
<event>
 4    1  0.2939002E+006  0.2091699E+02  0.7546771E-02  0.1520453E+00
         21   -1    0    0  504  501  0.00000000000E+00  0.00000000000E+00  0.75144703612E+01  0.75144703612E+01  0.00000000000E+00 0.  1.
         21   -1    0    0  503  502 -0.00000000000E+00 -0.00000000000E+00 -0.87722199311E+02  0.87722199311E+02  0.00000000000E+00 0.  1.
         21    1    1    2  503  501 -0.17171299537E+01  0.20846385918E+02 -0.12490499169E+02  0.24362530874E+02  0.00000000000E+00 0.  1.
         21    1    1    2  504  502  0.17171299537E+01 -0.20846385918E+02 -0.67717229781E+02  0.70874138798E+02  0.00000000000E+00 0.  1.
</event>
<event>
 4    1  0.2939002E+006  0.2136789E+02  0.7546771E-02  0.1514077E+00
         21   -1    0    0  503  501  0.00000000000E+00  0.00000000000E+00  0.27589784678E+02  0.27589784678E+02  0.00000000000E+00 0.  1.
         21   -1    0    0  501  502 -0.00000000000E+00 -0.00000000000E+00 -0.20138099157E+03  0.20138099157E+03  0.00000000000E+00 0.  1.
         21    1    1    2  503  504 -0.11826905313E+02 -0.17796378997E+02  0.22784852725E+02  0.31236778137E+02  0.00000000000E+00 0.  1.
         21    1    1    2  504  502  0.11826905313E+02  0.17796378997E+02 -0.19657605962E+03  0.19773399812E+03  0.00000000000E+00 0.  1.
</event>
<event>
 4    1  0.2939002E+006  0.2930199E+02  0.7546771E-02  0.1425761E+00
         21   -1    0    0  504  501  0.00000000000E+00  0.00000000000E+00  0.85548386626E+00  0.85548386626E+00  0.00000000000E+00 0.  1.
         21   -1    0    0  503  502 -0.00000000000E+00 -0.00000000000E+00 -0.10100072755E+04  0.10100072755E+04  0.00000000000E+00 0.  1.
         21    1    1    2  503  501  0.27905494716E+02  0.89381059186E+01 -0.46447668273E+03  0.46540003779E+03  0.00000000000E+00 0.  1.
         21    1    1    2  504  502 -0.27905494716E+02 -0.89381059186E+01 -0.54467510888E+03  0.54546272156E+03  0.00000000000E+00 0.  1.
</event>
<event>
 4    1  0.2939002E+006  0.2426821E+02  0.7546771E-02  0.1477159E+00
         21   -1    0    0  502  501  0.00000000000E+00  0.00000000000E+00  0.35546667615E+02  0.35546667615E+02  0.00000000000E+00 0. -1.
         21   -1    0    0  504  502 -0.00000000000E+00 -0.00000000000E+00 -0.65324054166E+02  0.65324054166E+02  0.00000000000E+00 0. -1.
         21    1    1    2  503  501  0.24152432248E+02 -0.23676652933E+01  0.28683734769E+02  0.37572629169E+02  0.00000000000E+00 0. -1.
         21    1    1    2  504  503 -0.24152432248E+02  0.23676652933E+01 -0.58461121319E+02  0.63298092612E+02  0.00000000000E+00 0. -1.
</event>
<event>
 4    1  0.2939002E+006  0.2221130E+02  0.7546771E-02  0.1502647E+00
         21   -1    0    0  503  501  0.00000000000E+00  0.00000000000E+00  0.36661724099E+03  0.36661724099E+03  0.00000000000E+00 0.  1.
         21   -1    0    0  504  502 -0.00000000000E+00 -0.00000000000E+00 -0.18204962253E+01  0.18204962253E+01  0.00000000000E+00 0.  1.
         21    1    1    2  503  502  0.16238595542E+02  0.15154195852E+02  0.88315235469E+02  0.91065484422E+02  0.00000000000E+00 0.  1.
         21    1    1    2  504  501 -0.16238595542E+02 -0.15154195852E+02  0.27648150930E+03  0.27737225280E+03  0.00000000000E+00 0.  1.
</event>
<event>
 4    1  0.2939002E+006  0.2258123E+02  0.7546771E-02  0.1497825E+00
         21   -1    0    0  504  501  0.00000000000E+00  0.00000000000E+00  0.21037127011E+03  0.21037127011E+03  0.00000000000E+00 0. -1.
         21   -1    0    0  503  502 -0.00000000000E+00 -0.00000000000E+00 -0.44598402577E+01  0.44598402577E+01  0.00000000000E+00 0.  1.
         21    1    1    2  503  501 -0.20969031253E+02  0.83792537808E+01  0.30379641829E+02  0.37852804431E+02  0.00000000000E+00 0.  1.
         21    1    1    2  504  502  0.20969031253E+02 -0.83792537808E+01  0.17553178802E+03  0.17697830594E+03  0.00000000000E+00 0. -1.
</event>
<event>
 4    1  0.2939002E+006  0.2645567E+02  0.7546771E-02  0.1453154E+00
         21   -1    0    0  502  501  0.00000000000E+00  0.00000000000E+00  0.42935160675E+02  0.42935160675E+02  0.00000000000E+00 0.  1.
         21   -1    0    0  503  502 -0.00000000000E+00 -0.00000000000E+00 -0.32938640193E+02  0.32938640193E+02  0.00000000000E+00 0.  1.
         21    1    1    2  503  504 -0.12595565266E+02 -0.23264866058E+02 -0.21963606022E+02  0.34384622240E+02  0.00000000000E+00 0.  1.
         21    1    1    2  504  501  0.12595565266E+02  0.23264866058E+02  0.31960126505E+02  0.41489178629E+02  0.00000000000E+00 0.  1.
</event>
<event>
 4    1  0.2939002E+006  0.2693330E+02  0.7546771E-02  0.1448279E+00
         21   -1    0    0  504  501  0.00000000000E+00  0.00000000000E+00  0.74663869850E+02  0.74663869850E+02  0.00000000000E+00 0. -1.
         21   -1    0    0  503  502 -0.00000000000E+00 -0.00000000000E+00 -0.13808005883E+03  0.13808005883E+03  0.00000000000E+00 0. -1.
         21    1    1    2  503  501  0.16417610560E+02  0.21350984618E+02  0.70853351631E+02  0.75799735607E+02  0.00000000000E+00 0. -1.
         21    1    1    2  504  502 -0.16417610560E+02 -0.21350984618E+02 -0.13426954061E+03  0.13694419308E+03  0.00000000000E+00 0. -1.
</event>
<event>
 4    1  0.2939002E+006  0.3384050E+02  0.7546771E-02  0.1388903E+00
         21   -1    0    0  503  501  0.00000000000E+00  0.00000000000E+00  0.47004405377E+02  0.47004405377E+02  0.00000000000E+00 0. -1.
         21   -1    0    0  501  502 -0.00000000000E+00 -0.00000000000E+00 -0.32564569217E+03  0.32564569217E+03  0.00000000000E+00 0. -1.
         21    1    1    2  503  504 -0.17412554866E+02  0.29016932865E+02  0.39898953381E+02  0.52317357930E+02  0.00000000000E+00 0. -1.
         21    1    1    2  504  502  0.17412554866E+02 -0.29016932865E+02 -0.31854024017E+03  0.32033273961E+03  0.00000000000E+00 0. -1.
</event>
<event>
 4    1  0.2939002E+006  0.2336733E+02  0.7546771E-02  0.1487936E+00
         21   -1    0    0  504  501  0.00000000000E+00  0.00000000000E+00  0.42741512632E+03  0.42741512632E+03  0.00000000000E+00 0. -1.
         21   -1    0    0  503  502 -0.00000000000E+00 -0.00000000000E+00 -0.29640889691E+02  0.29640889691E+02  0.00000000000E+00 0.  1.
         21    1    1    2  503  501 -0.15135207434E+02  0.17803308140E+02 -0.24661872154E+02  0.33974111069E+02  0.00000000000E+00 0.  1.
         21    1    1    2  504  502  0.15135207434E+02 -0.17803308140E+02  0.42243610879E+03  0.42308190495E+03  0.00000000000E+00 0. -1.
</event>
<event>
 4    1  0.2939002E+006  0.2244994E+02  0.7546771E-02  0.1499523E+00
         21   -1    0    0  503  501  0.00000000000E+00  0.00000000000E+00  0.45074664193E+02  0.45074664193E+02  0.00000000000E+00 0.  1.
         21   -1    0    0  501  502 -0.00000000000E+00 -0.00000000000E+00 -0.15068961619E+03  0.15068961619E+03  0.00000000000E+00 0. -1.
         21    1    1    2  503  504  0.26452739517E+01 -0.22293551115E+02  0.41373159259E+02  0.47071628426E+02  0.00000000000E+00 0.  1.
         21    1    1    2  504  502 -0.26452739517E+01  0.22293551115E+02 -0.14698811126E+03  0.14869265196E+03  0.00000000000E+00 0. -1.
</event>
<event>
 4    1  0.2939002E+006  0.2440920E+02  0.7546771E-02  0.1475522E+00
         21   -1    0    0  502  501  0.00000000000E+00  0.00000000000E+00  0.45548504925E+01  0.45548504925E+01  0.00000000000E+00 0. -1.
         21   -1    0    0  503  502 -0.00000000000E+00 -0.00000000000E+00 -0.51545352339E+03  0.51545352339E+03  0.00000000000E+00 0. -1.
         21    1    1    2  503  504  0.24240330888E+02  0.28662917887E+01 -0.48005263312E+03  0.48067279914E+03  0.00000000000E+00 0. -1.
         21    1    1    2  504  501 -0.24240330888E+02 -0.28662917887E+01 -0.30846039780E+02  0.39335574742E+02  0.00000000000E+00 0. -1.
</event>
<event>
 4    1  0.2939002E+006  0.2414321E+02  0.7546771E-02  0.1478621E+00
         21   -1    0    0  503  501  0.00000000000E+00  0.00000000000E+00  0.98201797272E+03  0.98201797272E+03  0.00000000000E+00 0. -1.
         21   -1    0    0  501  502 -0.00000000000E+00 -0.00000000000E+00 -0.31764462091E+01  0.31764462091E+01  0.00000000000E+00 0. -1.
         21    1    1    2  503  504  0.14202759614E+02  0.19523739794E+02  0.93361521395E+03  0.93392733257E+03  0.00000000000E+00 0. -1.
         21    1    1    2  504  502 -0.14202759614E+02 -0.19523739794E+02  0.45226312556E+02  0.51267086358E+02  0.00000000000E+00 0. -1.
</event>
<event>
 4    1  0.2939002E+006  0.2382675E+02  0.7546771E-02  0.1482370E+00
         21   -1    0    0  504  501  0.00000000000E+00  0.00000000000E+00  0.62487223832E+02  0.62487223832E+02  0.00000000000E+00 0.  1.
         21   -1    0    0  501  502 -0.00000000000E+00 -0.00000000000E+00 -0.59279729486E+02  0.59279729486E+02  0.00000000000E+00 0.  1.
         21    1    1    2  503  502 -0.21960998765E+02 -0.92427485331E+01 -0.54420262631E+02  0.59407733941E+02  0.00000000000E+00 0.  1.
         21    1    1    2  504  503  0.21960998765E+02  0.92427485331E+01  0.57627756976E+02  0.62359219377E+02  0.00000000000E+00 0.  1.
</event>
<event>
 4    1  0.2939002E+006  0.2184014E+02  0.7546771E-02  0.1507600E+00
         21   -1    0    0  503  501  0.00000000000E+00  0.00000000000E+00  0.83668564408E+01  0.83668564408E+01  0.00000000000E+00 0. -1.
         21   -1    0    0  504  502 -0.00000000000E+00 -0.00000000000E+00 -0.94472644683E+02  0.94472644683E+02  0.00000000000E+00 0. -1.
         21    1    1    2  503  502 -0.16634725834E+02  0.14151954811E+02 -0.75432974096E+02  0.78531048061E+02  0.00000000000E+00 0. -1.
         21    1    1    2  504  501  0.16634725834E+02 -0.14151954811E+02 -0.10672814146E+02  0.24308453063E+02  0.00000000000E+00 0. -1.
</event>
<event>
 4    1  0.2939002E+006  0.2031226E+02  0.7546771E-02  0.1529315E+00
         21   -1    0    0  502  501  0.00000000000E+00  0.00000000000E+00  0.81419470000E+01  0.81419470000E+01  0.00000000000E+00 0.  1.
         21   -1    0    0  504  502 -0.00000000000E+00 -0.00000000000E+00 -0.20469141838E+03  0.20469141838E+03  0.00000000000E+00 0.  1.
         21    1    1    2  503  501 -0.20278104121E+02  0.11773864114E+01 -0.59656717313E+01  0.21170190946E+02  0.00000000000E+00 0.  1.
         21    1    1    2  504  503  0.20278104121E+02 -0.11773864114E+01 -0.19058379965E+03  0.19166317443E+03  0.00000000000E+00 0.  1.
</event>
<event>
 4    1  0.2939002E+006  0.3316240E+02  0.7546771E-02  0.1393964E+00
         21   -1    0    0  502  501  0.00000000000E+00  0.00000000000E+00  0.18588206535E+03  0.18588206535E+03  0.00000000000E+00 0. -1.
         21   -1    0    0  503  502 -0.00000000000E+00 -0.00000000000E+00 -0.12288398241E+02  0.12288398241E+02  0.00000000000E+00 0. -1.
         21    1    1    2  503  504 -0.11280867371E+02  0.31184719652E+02  0.15445750332E+02  0.36583000311E+02  0.00000000000E+00 0. -1.
         21    1    1    2  504  501  0.11280867371E+02 -0.31184719652E+02  0.15814791677E+03  0.16158746328E+03  0.00000000000E+00 0. -1.
</event>
<event>
 4    1  0.2939002E+006  0.2960840E+02  0.7546771E-02  0.1423030E+00
         21   -1    0    0  504  501  0.00000000000E+00  0.00000000000E+00  0.98162848412E+02  0.98162848412E+02  0.00000000000E+00 0. -1.
         21   -1    0    0  501  502 -0.00000000000E+00 -0.00000000000E+00 -0.16219663767E+02  0.16219663767E+02  0.00000000000E+00 0.  1.
         21    1    1    2  503  502  0.13511758473E+02 -0.26345578913E+02  0.26323638554E+01  0.29725182670E+02  0.00000000000E+00 0.  1.
         21    1    1    2  504  503 -0.13511758473E+02  0.26345578913E+02  0.79310820790E+02  0.84657329510E+02  0.00000000000E+00 0. -1.
</event>
<event>
 4    1  0.2939002E+006  0.2746299E+02  0.7546771E-02  0.1443012E+00
         21   -1    0    0  504  501  0.00000000000E+00  0.00000000000E+00  0.16390609785E+02  0.16390609785E+02  0.00000000000E+00 0. -1.
         21   -1    0    0  503  502 -0.00000000000E+00 -0.00000000000E+00 -0.30136333327E+03  0.30136333327E+03  0.00000000000E+00 0. -1.
         21    1    1    2  503  501  0.11554652022E+02 -0.24913968124E+02 -0.28873174451E+03  0.29003488769E+03  0.00000000000E+00 0. -1.
         21    1    1    2  504  502 -0.11554652022E+02  0.24913968124E+02  0.37590210268E+01  0.27719055361E+02  0.00000000000E+00 0. -1.
</event>
<event>
 4    1  0.2939002E+006  0.2488177E+02  0.7546771E-02  0.1470130E+00
         21   -1    0    0  502  501  0.00000000000E+00  0.00000000000E+00  0.15990831468E+03  0.15990831468E+03  0.00000000000E+00 0. -1.
         21   -1    0    0  503  502 -0.00000000000E+00 -0.00000000000E+00 -0.20125835524E+02  0.20125835524E+02  0.00000000000E+00 0. -1.
         21    1    1    2  503  504  0.11589468978E+01  0.24854763551E+02 -0.11005514322E+02  0.27207053765E+02  0.00000000000E+00 0. -1.
         21    1    1    2  504  501 -0.11589468978E+01 -0.24854763551E+02  0.15078799348E+03  0.15282709644E+03  0.00000000000E+00 0. -1.
</event>
<event>
 4    1  0.2939002E+006  0.2353275E+02  0.7546771E-02  0.1485915E+00
         21   -1    0    0  502  501  0.00000000000E+00  0.00000000000E+00  0.13635650376E+03  0.13635650376E+03  0.00000000000E+00 0.  1.
         21   -1    0    0  503  502 -0.00000000000E+00 -0.00000000000E+00 -0.50200069363E+02  0.50200069363E+02  0.00000000000E+00 0.  1.
         21    1    1    2  503  504 -0.12717058470E+02  0.19800675298E+02 -0.46347248313E+02  0.51979397309E+02  0.00000000000E+00 0.  1.
         21    1    1    2  504  501  0.12717058470E+02 -0.19800675298E+02  0.13250368271E+03  0.13457717582E+03  0.00000000000E+00 0.  1.
</event>
<event>
 4    1  0.2939002E+006  0.5069885E+02  0.7546771E-02  0.1295171E+00
         21   -1    0    0  503  501  0.00000000000E+00  0.00000000000E+00  0.58859030332E+03  0.58859030332E+03  0.00000000000E+00 0.  1.
         21   -1    0    0  504  502 -0.00000000000E+00 -0.00000000000E+00 -0.55965485379E+02  0.55965485379E+02  0.00000000000E+00 0.  1.
         21    1    1    2  503  502 -0.49870784427E+02  0.91256865146E+01 -0.43136432357E+02  0.66566696555E+02  0.00000000000E+00 0.  1.
         21    1    1    2  504  501  0.49870784427E+02 -0.91256865146E+01  0.57576125029E+03  0.57798909214E+03  0.00000000000E+00 0.  1.
</event>
<event>
 4    1  0.2939002E+006  0.2524145E+02  0.7546771E-02  0.1466120E+00
         21   -1    0    0  502  501  0.00000000000E+00  0.00000000000E+00  0.10809238418E+03  0.10809238418E+03  0.00000000000E+00 0. -1.
         21   -1    0    0  503  502 -0.00000000000E+00 -0.00000000000E+00 -0.52709724941E+02  0.52709724941E+02  0.00000000000E+00 0.  1.
         21    1    1    2  503  504 -0.19192310945E+02 -0.16394696299E+02 -0.48081023129E+02  0.54303919299E+02  0.00000000000E+00 0.  1.
         21    1    1    2  504  501  0.19192310945E+02  0.16394696299E+02  0.10346368236E+03  0.10649818982E+03  0.00000000000E+00 0. -1.
</event>
<event>
 4    1  0.2939002E+006  0.5111058E+02  0.7546771E-02  0.1293428E+00
         21   -1    0    0  503  501  0.00000000000E+00  0.00000000000E+00  0.39652837866E+03  0.39652837866E+03  0.00000000000E+00 0. -1.
         21   -1    0    0  504  502 -0.00000000000E+00 -0.00000000000E+00 -0.71156089808E+02  0.71156089808E+02  0.00000000000E+00 0. -1.
         21    1    1    2  503  502 -0.50586346424E+02  0.73016057394E+01  0.38544049662E+03  0.38881443946E+03  0.00000000000E+00 0. -1.
         21    1    1    2  504  501  0.50586346424E+02 -0.73016057394E+01 -0.60068207774E+02  0.78870029010E+02  0.00000000000E+00 0. -1.
</event>
<event>
 4    1  0.2939002E+006  0.2698566E+02  0.7546771E-02  0.1447752E+00
         21   -1    0    0  503  501  0.00000000000E+00  0.00000000000E+00  0.66543178024E+03  0.66543178024E+03  0.00000000000E+00 0. -1.
         21   -1    0    0  501  502 -0.00000000000E+00 -0.00000000000E+00 -0.50773801227E+01  0.50773801227E+01  0.00000000000E+00 0. -1.
         21    1    1    2  503  504  0.18479808079E+02 -0.19665256417E+02  0.62711181507E+03  0.62769216517E+03  0.00000000000E+00 0. -1.
         21    1    1    2  504  502 -0.18479808079E+02  0.19665256417E+02  0.33242585045E+02  0.42816995190E+02  0.00000000000E+00 0. -1.
</event>
<event>
 4    1  0.2939002E+006  0.2247264E+02  0.7546771E-02  0.1499229E+00
         21   -1    0    0  502  501  0.00000000000E+00  0.00000000000E+00  0.76096744661E+01  0.76096744661E+01  0.00000000000E+00 0. -1.
         21   -1    0    0  503  502 -0.00000000000E+00 -0.00000000000E+00 -0.99080922939E+02  0.99080922939E+02  0.00000000000E+00 0. -1.
         21    1    1    2  503  504 -0.17113809352E+02  0.14564931425E+02 -0.76388945188E+02  0.79625942034E+02  0.00000000000E+00 0. -1.
         21    1    1    2  504  501  0.17113809352E+02 -0.14564931425E+02 -0.15082303285E+02  0.27064655371E+02  0.00000000000E+00 0. -1.
</event>
<event>
 4    1  0.2939002E+006  0.2253791E+02  0.7546771E-02  0.1498384E+00
         21   -1    0    0  503  501  0.00000000000E+00  0.00000000000E+00  0.11406299464E+02  0.11406299464E+02  0.00000000000E+00 0.  1.
         21   -1    0    0  504  502 -0.00000000000E+00 -0.00000000000E+00 -0.44728494851E+02  0.44728494851E+02  0.00000000000E+00 0.  1.
         21    1    1    2  503  502 -0.22398402227E+02  0.25037603451E+01 -0.14805736129E+02  0.26966035314E+02  0.00000000000E+00 0.  1.
         21    1    1    2  504  501  0.22398402227E+02 -0.25037603451E+01 -0.18516459258E+02  0.29168759001E+02  0.00000000000E+00 0.  1.
</event>
<event>
 4    1  0.2939002E+006  0.2633555E+02  0.7546771E-02  0.1454399E+00
         21   -1    0    0  503  501  0.00000000000E+00  0.00000000000E+00  0.60804451742E+03  0.60804451742E+03  0.00000000000E+00 0.  1.
         21   -1    0    0  504  502 -0.00000000000E+00 -0.00000000000E+00 -0.57112969245E+01  0.57112969245E+01  0.00000000000E+00 0.  1.
         21    1    1    2  503  502  0.61202708895E+01 -0.25614517870E+02  0.26638095013E+02  0.37458635151E+02  0.00000000000E+00 0.  1.
         21    1    1    2  504  501 -0.61202708895E+01  0.25614517870E+02  0.57569512548E+03  0.57629717919E+03  0.00000000000E+00 0.  1.
</event>
<event>
 4    1  0.2939002E+006  0.2357020E+02  0.7546771E-02  0.1485460E+00
         21   -1    0    0  504  501  0.00000000000E+00  0.00000000000E+00  0.78651152392E+01  0.78651152392E+01  0.00000000000E+00 0. -1.
         21   -1    0    0  503  502 -0.00000000000E+00 -0.00000000000E+00 -0.77232667372E+02  0.77232667372E+02  0.00000000000E+00 0. -1.
         21    1    1    2  503  501  0.20272724339E+02  0.12023767161E+02 -0.47119610458E+02  0.52685975540E+02  0.00000000000E+00 0. -1.
         21    1    1    2  504  502 -0.20272724339E+02 -0.12023767161E+02 -0.22247941675E+02  0.32411807071E+02  0.00000000000E+00 0. -1.
</event>
<event>
 4    1  0.2939002E+006  0.2788076E+02  0.7546771E-02  0.1438956E+00
         21   -1    0    0  503  501  0.00000000000E+00  0.00000000000E+00  0.14059487773E+03  0.14059487773E+03  0.00000000000E+00 0. -1.
         21   -1    0    0  504  502 -0.00000000000E+00 -0.00000000000E+00 -0.60508463106E+01  0.60508463106E+01  0.00000000000E+00 0. -1.
         21    1    1    2  503  502 -0.95174584627E+01 -0.26206007811E+02  0.88806715122E+02  0.93080446453E+02  0.00000000000E+00 0. -1.
         21    1    1    2  504  501  0.95174584627E+01  0.26206007811E+02  0.45737316296E+02  0.53565277587E+02  0.00000000000E+00 0. -1.
</event>
<event>
 4    1  0.2939002E+006  0.4000553E+02  0.7546771E-02  0.1348453E+00
         21   -1    0    0  503  501  0.00000000000E+00  0.00000000000E+00  0.20237334798E+02  0.20237334798E+02  0.00000000000E+00 0. -1.
         21   -1    0    0  504  502 -0.00000000000E+00 -0.00000000000E+00 -0.80237753283E+02  0.80237753283E+02  0.00000000000E+00 0. -1.
         21    1    1    2  503  502 -0.13118559632E+02  0.37793459262E+02 -0.23975132423E+02  0.46639566298E+02  0.00000000000E+00 0. -1.
         21    1    1    2  504  501  0.13118559632E+02 -0.37793459262E+02 -0.36025286063E+02  0.53835521783E+02  0.00000000000E+00 0. -1.
</event>
<event>
 4    1  0.2939002E+006  0.2905386E+02  0.7546771E-02  0.1428000E+00
         21   -1    0    0  502  501  0.00000000000E+00  0.00000000000E+00  0.44865890391E+01  0.44865890391E+01  0.00000000000E+00 0.  1.
         21   -1    0    0  504  502 -0.00000000000E+00 -0.00000000000E+00 -0.21164517199E+03  0.21164517199E+03  0.00000000000E+00 0.  1.
         21    1    1    2  503  501 -0.96942636581E+01 -0.27388832491E+02 -0.67569145649E+02  0.73550773870E+02  0.00000000000E+00 0.  1.
         21    1    1    2  504  503  0.96942636581E+01  0.27388832491E+02 -0.13958943730E+03  0.14258098716E+03  0.00000000000E+00 0.  1.
</event>
<event>
 4    1  0.2939002E+006  0.2226547E+02  0.7546771E-02  0.1501934E+00
         21   -1    0    0  502  501  0.00000000000E+00  0.00000000000E+00  0.12015533740E+02  0.12015533740E+02  0.00000000000E+00 0. -1.
         21   -1    0    0  504  502 -0.00000000000E+00 -0.00000000000E+00 -0.45388524997E+02  0.45388524997E+02  0.00000000000E+00 0. -1.
         21    1    1    2  503  501 -0.11051743955E+02 -0.19328995685E+02 -0.80292460401E+01  0.23668965136E+02  0.00000000000E+00 0. -1.
         21    1    1    2  504  503  0.11051743955E+02  0.19328995685E+02 -0.25343745217E+02  0.33735093601E+02  0.00000000000E+00 0. -1.
</event>
<event>
 4    1  0.2939002E+006  0.2810977E+02  0.7546771E-02  0.1436768E+00
         21   -1    0    0  503  501  0.00000000000E+00  0.00000000000E+00  0.62633466184E+02  0.62633466184E+02  0.00000000000E+00 0. -1.
         21   -1    0    0  501  502 -0.00000000000E+00 -0.00000000000E+00 -0.10618327138E+03  0.10618327138E+03  0.00000000000E+00 0. -1.
         21    1    1    2  503  504 -0.65754403446E+00  0.28102078796E+02  0.57460697446E+02  0.63967889974E+02  0.00000000000E+00 0. -1.
         21    1    1    2  504  502  0.65754403446E+00 -0.28102078796E+02 -0.10101050264E+03  0.10484884759E+03  0.00000000000E+00 0. -1.
</event>
<event>
 4    1  0.2939002E+006  0.3356121E+02  0.7546771E-02  0.1390970E+00
         21   -1    0    0  503  501  0.00000000000E+00  0.00000000000E+00  0.33828895264E+02  0.33828895264E+02  0.00000000000E+00 0.  1.
         21   -1    0    0  504  502 -0.00000000000E+00 -0.00000000000E+00 -0.15573847059E+03  0.15573847059E+03  0.00000000000E+00 0. -1.
         21    1    1    2  503  502 -0.19933445673E+02  0.27000231770E+02 -0.14499793435E+03  0.14883129959E+03  0.00000000000E+00 0. -1.
         21    1    1    2  504  501  0.19933445673E+02 -0.27000231770E+02  0.23088359025E+02  0.40736066262E+02  0.00000000000E+00 0.  1.
</event>
<event>
 4    1  0.2939002E+006  0.2330105E+02  0.7546771E-02  0.1488752E+00
         21   -1    0    0  503  501  0.00000000000E+00  0.00000000000E+00  0.36747828471E+02  0.36747828471E+02  0.00000000000E+00 0. -1.
         21   -1    0    0  504  502 -0.00000000000E+00 -0.00000000000E+00 -0.16931601068E+02  0.16931601068E+02  0.00000000000E+00 0. -1.
         21    1    1    2  503  502  0.22481048048E+02  0.61270947292E+01  0.19487598665E+02  0.30376064803E+02  0.00000000000E+00 0. -1.
         21    1    1    2  504  501 -0.22481048048E+02 -0.61270947292E+01  0.32862873716E+00  0.23303364736E+02  0.00000000000E+00 0. -1.
</event>
<event>
 4    1  0.2939002E+006  0.2302848E+02  0.7546771E-02  0.1492141E+00
         21   -1    0    0  502  501  0.00000000000E+00  0.00000000000E+00  0.15355455360E+01  0.15355455360E+01  0.00000000000E+00 0.  1.
         21   -1    0    0  503  502 -0.00000000000E+00 -0.00000000000E+00 -0.45504081244E+03  0.45504081244E+03  0.00000000000E+00 0.  1.
         21    1    1    2  503  504  0.21872400664E+02 -0.72047978770E+01 -0.33883311877E+03  0.33961477206E+03  0.00000000000E+00 0.  1.
         21    1    1    2  504  501 -0.21872400664E+02  0.72047978770E+01 -0.11467214813E+03  0.11696158592E+03  0.00000000000E+00 0.  1.
</event>
<event>
 4    1  0.2939002E+006  0.2297287E+02  0.7546771E-02  0.1492839E+00
         21   -1    0    0  502  501  0.00000000000E+00  0.00000000000E+00  0.25180505400E+02  0.25180505400E+02  0.00000000000E+00 0. -1.
         21   -1    0    0  504  502 -0.00000000000E+00 -0.00000000000E+00 -0.30620308881E+02  0.30620308881E+02  0.00000000000E+00 0. -1.
         21    1    1    2  503  501  0.15035121142E+02 -0.17369446255E+02  0.12952256648E+02  0.26372589620E+02  0.00000000000E+00 0. -1.
         21    1    1    2  504  503 -0.15035121142E+02  0.17369446255E+02 -0.18392060129E+02  0.29428224662E+02  0.00000000000E+00 0. -1.
</event>
<event>
 4    1  0.2939002E+006  0.2147503E+02  0.7546771E-02  0.1512590E+00
         21   -1    0    0  503  501  0.00000000000E+00  0.00000000000E+00  0.18079874501E+02  0.18079874501E+02  0.00000000000E+00 0.  1.
         21   -1    0    0  501  502 -0.00000000000E+00 -0.00000000000E+00 -0.34870824740E+02  0.34870824740E+02  0.00000000000E+00 0.  1.
         21    1    1    2  503  504 -0.18217434877E+02 -0.11371100872E+02  0.53234442581E+01  0.22125006832E+02  0.00000000000E+00 0.  1.
         21    1    1    2  504  502  0.18217434877E+02  0.11371100872E+02 -0.22114394497E+02  0.30825692410E+02  0.00000000000E+00 0.  1.
</event>
<event>
 4    1  0.2939002E+006  0.2990853E+02  0.7546771E-02  0.1420393E+00
         21   -1    0    0  502  501  0.00000000000E+00  0.00000000000E+00  0.33426822427E+03  0.33426822427E+03  0.00000000000E+00 0. -1.
         21   -1    0    0  504  502 -0.00000000000E+00 -0.00000000000E+00 -0.34736099317E+01  0.34736099317E+01  0.00000000000E+00 0. -1.
         21    1    1    2  503  501 -0.29419468308E+02 -0.53865604152E+01  0.24631521474E+03  0.24812437438E+03  0.00000000000E+00 0. -1.
         21    1    1    2  504  503  0.29419468308E+02  0.53865604152E+01  0.84479399601E+02  0.89617459825E+02  0.00000000000E+00 0. -1.
</event>
<event>
 4    1  0.2939002E+006  0.2340508E+02  0.7546771E-02  0.1487473E+00
         21   -1    0    0  503  501  0.00000000000E+00  0.00000000000E+00  0.21922282805E+01  0.21922282805E+01  0.00000000000E+00 0.  1.
         21   -1    0    0  504  502 -0.00000000000E+00 -0.00000000000E+00 -0.25932115910E+03  0.25932115910E+03  0.00000000000E+00 0. -1.
         21    1    1    2  503  502  0.23305624120E+02 -0.21553770757E+01 -0.10361747700E+03  0.10622795915E+03  0.00000000000E+00 0.  1.
         21    1    1    2  504  501 -0.23305624120E+02  0.21553770757E+01 -0.15351145382E+03  0.15528542823E+03  0.00000000000E+00 0. -1.
</event>
<event>
 4    1  0.2939002E+006  0.3433579E+02  0.7546771E-02  0.1385294E+00
         21   -1    0    0  503  501  0.00000000000E+00  0.00000000000E+00  0.28988432386E+03  0.28988432386E+03  0.00000000000E+00 0.  1.
         21   -1    0    0  504  502 -0.00000000000E+00 -0.00000000000E+00 -0.11411292328E+02  0.11411292328E+02  0.00000000000E+00 0.  1.
         21    1    1    2  503  502  0.72976275899E+01 -0.33551320192E+02  0.18379542333E+02  0.38945526463E+02  0.00000000000E+00 0.  1.
         21    1    1    2  504  501 -0.72976275899E+01  0.33551320192E+02  0.26009348920E+03  0.26235008973E+03  0.00000000000E+00 0.  1.
</event>
<event>
 4    1  0.2939002E+006  0.2094598E+02  0.7546771E-02  0.1520038E+00
         21   -1    0    0  503  501  0.00000000000E+00  0.00000000000E+00  0.67601260233E+03  0.67601260233E+03  0.00000000000E+00 0. -1.
         21   -1    0    0  501  502 -0.00000000000E+00 -0.00000000000E+00 -0.83176745430E+01  0.83176745430E+01  0.00000000000E+00 0.  1.
         21    1    1    2  503  504 -0.17563219486E+02  0.11413467029E+02  0.66239247634E+03  0.66272356727E+03  0.00000000000E+00 0. -1.
         21    1    1    2  504  502  0.17563219486E+02 -0.11413467029E+02  0.53024514466E+01  0.21606709599E+02  0.00000000000E+00 0.  1.
</event>
<event>
 4    1  0.2939002E+006  0.2123014E+02  0.7546771E-02  0.1516004E+00
         21   -1    0    0  503  501  0.00000000000E+00  0.00000000000E+00  0.19925128262E+02  0.19925128262E+02  0.00000000000E+00 0.  1.
         21   -1    0    0  504  502 -0.00000000000E+00 -0.00000000000E+00 -0.25043394814E+02  0.25043394814E+02  0.00000000000E+00 0. -1.
         21    1    1    2  503  502  0.50660828120E+01  0.20616829051E+02  0.44342638731E+01  0.21688280966E+02  0.00000000000E+00 0.  1.
         21    1    1    2  504  501 -0.50660828120E+01 -0.20616829051E+02 -0.95525304248E+01  0.23280242110E+02  0.00000000000E+00 0. -1.
</event>
<event>
 4    1  0.2939002E+006  0.2042677E+02  0.7546771E-02  0.1527609E+00
         21   -1    0    0  503  501  0.00000000000E+00  0.00000000000E+00  0.39857236022E+03  0.39857236022E+03  0.00000000000E+00 0. -1.
         21   -1    0    0  501  502 -0.00000000000E+00 -0.00000000000E+00 -0.21229018668E+02  0.21229018668E+02  0.00000000000E+00 0. -1.
         21    1    1    2  503  504 -0.14099563386E+02 -0.14780236475E+02  0.39333150408E+03  0.39386155586E+03  0.00000000000E+00 0. -1.
         21    1    1    2  504  502  0.14099563386E+02  0.14780236475E+02 -0.15988162529E+02  0.25939823033E+02  0.00000000000E+00 0. -1.
</event>
<event>
 4    1  0.2939002E+006  0.2499547E+02  0.7546771E-02  0.1468854E+00
         21   -1    0    0  504  501  0.00000000000E+00  0.00000000000E+00  0.10773279654E+03  0.10773279654E+03  0.00000000000E+00 0.  1.
         21   -1    0    0  503  502 -0.00000000000E+00 -0.00000000000E+00 -0.17966619640E+02  0.17966619640E+02  0.00000000000E+00 0. -1.
         21    1    1    2  503  501  0.11751156806E+02  0.22060908644E+02  0.96604190924E+02  0.99785485320E+02  0.00000000000E+00 0.  1.
         21    1    1    2  504  502 -0.11751156806E+02 -0.22060908644E+02 -0.68380140297E+01  0.25913930855E+02  0.00000000000E+00 0. -1.
</event>
<event>
 4    1  0.2939002E+006  0.2840019E+02  0.7546771E-02  0.1434028E+00
         21   -1    0    0  504  501  0.00000000000E+00  0.00000000000E+00  0.63959460304E+02  0.63959460304E+02  0.00000000000E+00 0. -1.
         21   -1    0    0  501  502 -0.00000000000E+00 -0.00000000000E+00 -0.14929926278E+02  0.14929926278E+02  0.00000000000E+00 0. -1.
         21    1    1    2  503  502 -0.33621406332E+01 -0.28200471139E+02  0.89681567705E+01  0.29782518328E+02  0.00000000000E+00 0. -1.
         21    1    1    2  504  503  0.33621406332E+01  0.28200471139E+02  0.40061377256E+02  0.49106868254E+02  0.00000000000E+00 0. -1.
</event>
<event>
 4    1  0.2939002E+006  0.2005567E+02  0.7546771E-02  0.1533186E+00
         21   -1    0    0  504  501  0.00000000000E+00  0.00000000000E+00  0.82268315249E+03  0.82268315249E+03  0.00000000000E+00 0. -1.
         21   -1    0    0  503  502 -0.00000000000E+00 -0.00000000000E+00 -0.19908057350E+01  0.19908057350E+01  0.00000000000E+00 0.  1.
         21    1    1    2  503  501 -0.13532119521E+02 -0.14802414141E+02  0.52203823755E+02  0.55923777928E+02  0.00000000000E+00 0.  1.
         21    1    1    2  504  502  0.13532119521E+02  0.14802414141E+02  0.76848852301E+03  0.76875018030E+03  0.00000000000E+00 0. -1.
</event>
<event>
 4    1  0.2939002E+006  0.5121861E+02  0.7546771E-02  0.1292974E+00
         21   -1    0    0  503  501  0.00000000000E+00  0.00000000000E+00  0.64962231436E+03  0.64962231436E+03  0.00000000000E+00 0. -1.
         21   -1    0    0  504  502 -0.00000000000E+00 -0.00000000000E+00 -0.40382967475E+01  0.40382967475E+01  0.00000000000E+00 0.  1.
         21    1    1    2  503  502 -0.45991222456E+02  0.22542264891E+02  0.32185789200E+03  0.32590773064E+03  0.00000000000E+00 0. -1.
         21    1    1    2  504  501  0.45991222456E+02 -0.22542264891E+02  0.32372612562E+03  0.32775288047E+03  0.00000000000E+00 0.  1.
</event>
<event>
 4    1  0.2939002E+006  0.2386201E+02  0.7546771E-02  0.1481949E+00
         21   -1    0    0  504  501  0.00000000000E+00  0.00000000000E+00  0.43090809107E+01  0.43090809107E+01  0.00000000000E+00 0. -1.
         21   -1    0    0  501  502 -0.00000000000E+00 -0.00000000000E+00 -0.30782984604E+03  0.30782984604E+03  0.00000000000E+00 0. -1.
         21    1    1    2  503  502  0.88417124949E+01 -0.22163471195E+02 -0.26966689776E+03  0.27072057750E+03  0.00000000000E+00 0. -1.
         21    1    1    2  504  503 -0.88417124949E+01  0.22163471195E+02 -0.33853867370E+02  0.41418349450E+02  0.00000000000E+00 0. -1.
</event>
<event>
 4    1  0.2939002E+006  0.2254774E+02  0.7546771E-02  0.1498257E+00
         21   -1    0    0  502  501  0.00000000000E+00  0.00000000000E+00  0.10127092755E+03  0.10127092755E+03  0.00000000000E+00 0.  1.
         21   -1    0    0  504  502 -0.00000000000E+00 -0.00000000000E+00 -0.80511024330E+01  0.80511024330E+01  0.00000000000E+00 0.  1.
         21    1    1    2  503  501  0.19121377754E+02 -0.11948786876E+02  0.80147806929E+02  0.83259062873E+02  0.00000000000E+00 0.  1.
         21    1    1    2  504  503 -0.19121377754E+02  0.11948786876E+02  0.13072018186E+02  0.26062967108E+02  0.00000000000E+00 0.  1.
</event>
<event>
 4    1  0.2939002E+006  0.3094449E+02  0.7546771E-02  0.1411562E+00
         21   -1    0    0  504  501  0.00000000000E+00  0.00000000000E+00  0.33542822778E+03  0.33542822778E+03  0.00000000000E+00 0. -1.
         21   -1    0    0  503  502 -0.00000000000E+00 -0.00000000000E+00 -0.11202211195E+03  0.11202211195E+03  0.00000000000E+00 0. -1.
         21    1    1    2  503  501  0.16548790126E+02 -0.26147641701E+02  0.33255915276E+03  0.33399573606E+03  0.00000000000E+00 0. -1.
         21    1    1    2  504  502 -0.16548790126E+02  0.26147641701E+02 -0.10915303693E+03  0.11345460366E+03  0.00000000000E+00 0. -1.
</event>
<event>
 4    1  0.2939002E+006  0.2174899E+02  0.7546771E-02  0.1508834E+00
         21   -1    0    0  502  501  0.00000000000E+00  0.00000000000E+00  0.31114135412E+00  0.31114135412E+00  0.00000000000E+00 0.  1.
         21   -1    0    0  504  502 -0.00000000000E+00 -0.00000000000E+00 -0.19064957592E+04  0.19064957592E+04  0.00000000000E+00 0. -1.
         21    1    1    2  503  501 -0.18067355840E+02 -0.12107411351E+02 -0.52397146173E+03  0.52442264584E+03  0.00000000000E+00 0.  1.
         21    1    1    2  504  503  0.18067355840E+02  0.12107411351E+02 -0.13822131562E+04  0.13823842548E+04  0.00000000000E+00 0. -1.
</event>
<event>
 4    1  0.2939002E+006  0.2045307E+02  0.7546771E-02  0.1527219E+00
         21   -1    0    0  503  501  0.00000000000E+00  0.00000000000E+00  0.26206248404E+01  0.26206248404E+01  0.00000000000E+00 0.  1.
         21   -1    0    0  501  502 -0.00000000000E+00 -0.00000000000E+00 -0.19958613056E+03  0.19958613056E+03  0.00000000000E+00 0.  1.
         21    1    1    2  503  504  0.14873075375E+02  0.14039931805E+02 -0.53245425334E+02  0.57038613019E+02  0.00000000000E+00 0.  1.
         21    1    1    2  504  502 -0.14873075375E+02 -0.14039931805E+02 -0.14372008038E+03  0.14516814238E+03  0.00000000000E+00 0.  1.
</event>
<event>
 4    1  0.2939002E+006  0.2437696E+02  0.7546771E-02  0.1475895E+00
         21   -1    0    0  503  501  0.00000000000E+00  0.00000000000E+00  0.26306042850E+03  0.26306042850E+03  0.00000000000E+00 0. -1.
         21   -1    0    0  504  502 -0.00000000000E+00 -0.00000000000E+00 -0.22589352832E+01  0.22589352832E+01  0.00000000000E+00 0. -1.
         21    1    1    2  503  502  0.17562684857E+02  0.16905278284E+02  0.13033402983E+03  0.13259410117E+03  0.00000000000E+00 0. -1.
         21    1    1    2  504  501 -0.17562684857E+02 -0.16905278284E+02  0.13046746339E+03  0.13272526261E+03  0.00000000000E+00 0. -1.
</event>
<event>
 4    1  0.2939002E+006  0.4617312E+02  0.7546771E-02  0.1315675E+00
         21   -1    0    0  504  501  0.00000000000E+00  0.00000000000E+00  0.16803007166E+02  0.16803007166E+02  0.00000000000E+00 0.  1.
         21   -1    0    0  503  502 -0.00000000000E+00 -0.00000000000E+00 -0.13324379685E+03  0.13324379685E+03  0.00000000000E+00 0.  1.
         21    1    1    2  503  501 -0.12996479868E+02  0.44306304128E+02 -0.41823990610E+02  0.62299303889E+02  0.00000000000E+00 0.  1.
         21    1    1    2  504  502  0.12996479868E+02 -0.44306304128E+02 -0.74616799076E+02  0.87747500129E+02  0.00000000000E+00 0.  1.
</event>
<event>
 4    1  0.2939002E+006  0.2024184E+02  0.7546771E-02  0.1530370E+00
         21   -1    0    0  503  501  0.00000000000E+00  0.00000000000E+00  0.24613892379E+03  0.24613892379E+03  0.00000000000E+00 0.  1.
         21   -1    0    0  501  502 -0.00000000000E+00 -0.00000000000E+00 -0.66459887106E+02  0.66459887106E+02  0.00000000000E+00 0.  1.
         21    1    1    2  503  504  0.17402132379E+02  0.10339135952E+02  0.24416907617E+03  0.24500667276E+03  0.00000000000E+00 0.  1.
         21    1    1    2  504  502 -0.17402132379E+02 -0.10339135952E+02 -0.64490039487E+02  0.67592138127E+02  0.00000000000E+00 0.  1.
</event>
<event>
 4    1  0.2939002E+006  0.2124852E+02  0.7546771E-02  0.1515746E+00
         21   -1    0    0  503  501  0.00000000000E+00  0.00000000000E+00  0.12912218967E+03  0.12912218967E+03  0.00000000000E+00 0.  1.
         21   -1    0    0  501  502 -0.00000000000E+00 -0.00000000000E+00 -0.17826398942E+02  0.17826398942E+02  0.00000000000E+00 0.  1.
         21    1    1    2  503  504 -0.20504740153E+00 -0.21247534401E+02  0.12152315757E+03  0.12336684153E+03  0.00000000000E+00 0.  1.
         21    1    1    2  504  502  0.20504740153E+00  0.21247534401E+02 -0.10227366849E+02  0.23581747078E+02  0.00000000000E+00 0.  1.
</event>
<event>
 4    1  0.2939002E+006  0.2504636E+02  0.7546771E-02  0.1468285E+00
         21   -1    0    0  503  501  0.00000000000E+00  0.00000000000E+00  0.50418137559E+01  0.50418137559E+01  0.00000000000E+00 0. -1.
         21   -1    0    0  501  502 -0.00000000000E+00 -0.00000000000E+00 -0.48797646468E+03  0.48797646468E+03  0.00000000000E+00 0. -1.
         21    1    1    2  503  504 -0.23277549059E+01 -0.24937960811E+02 -0.28693889689E+02  0.38087526013E+02  0.00000000000E+00 0. -1.
         21    1    1    2  504  502  0.23277549059E+01  0.24937960811E+02 -0.45424076123E+03  0.45493075242E+03  0.00000000000E+00 0. -1.
</event>
<event>
 4    1  0.2939002E+006  0.2909851E+02  0.7546771E-02  0.1427595E+00
         21   -1    0    0  504  501  0.00000000000E+00  0.00000000000E+00  0.13854717800E+02  0.13854717800E+02  0.00000000000E+00 0.  1.
         21   -1    0    0  503  502 -0.00000000000E+00 -0.00000000000E+00 -0.17015324985E+03  0.17015324985E+03  0.00000000000E+00 0. -1.
         21    1    1    2  503  501  0.62921975441E+01 -0.28410064022E+02 -0.44985393910E+01  0.29444190333E+02  0.00000000000E+00 0.  1.
         21    1    1    2  504  502 -0.62921975441E+01  0.28410064022E+02 -0.15179999266E+03  0.15456377732E+03  0.00000000000E+00 0. -1.
</event>
<event>
 4    1  0.2939002E+006  0.2271817E+02  0.7546771E-02  0.1496068E+00
         21   -1    0    0  502  501  0.00000000000E+00  0.00000000000E+00  0.36766316937E+03  0.36766316937E+03  0.00000000000E+00 0. -1.
         21   -1    0    0  504  502 -0.00000000000E+00 -0.00000000000E+00 -0.48336103815E+01  0.48336103815E+01  0.00000000000E+00 0. -1.
         21    1    1    2  503  501 -0.20989032085E+02 -0.86934405723E+01  0.33830414800E+03  0.33906608785E+03  0.00000000000E+00 0. -1.
         21    1    1    2  504  503  0.20989032085E+02  0.86934405723E+01  0.24525410994E+02  0.33430691905E+02  0.00000000000E+00 0. -1.
</event>
<event>
 4    1  0.2939002E+006  0.2048729E+02  0.7546771E-02  0.1526712E+00
         21   -1    0    0  504  501  0.00000000000E+00  0.00000000000E+00  0.67859605960E+01  0.67859605960E+01  0.00000000000E+00 0. -1.
         21   -1    0    0  501  502 -0.00000000000E+00 -0.00000000000E+00 -0.19900356230E+03  0.19900356230E+03  0.00000000000E+00 0.  1.
         21    1    1    2  503  502  0.13200028797E+02  0.15668063724E+02 -0.18152934719E+03  0.18268178035E+03  0.00000000000E+00 0.  1.
         21    1    1    2  504  503 -0.13200028797E+02 -0.15668063724E+02 -0.10688254519E+02  0.23107742550E+02  0.00000000000E+00 0. -1.
</event>
<event>
 4    1  0.2939002E+006  0.3471621E+02  0.7546771E-02  0.1382569E+00
         21   -1    0    0  503  501  0.00000000000E+00  0.00000000000E+00  0.98256048130E+01  0.98256048130E+01  0.00000000000E+00 0. -1.
         21   -1    0    0  504  502 -0.00000000000E+00 -0.00000000000E+00 -0.56200496222E+03  0.56200496222E+03  0.00000000000E+00 0.  1.
         21    1    1    2  503  502 -0.16414014500E+02  0.30590775431E+02 -0.23293920141E+02  0.41806962685E+02  0.00000000000E+00 0. -1.
         21    1    1    2  504  501  0.16414014500E+02 -0.30590775431E+02 -0.52888543726E+03  0.53002360434E+03  0.00000000000E+00 0.  1.
</event>
<event>
 4    1  0.2939002E+006  0.2203363E+02  0.7546771E-02  0.1505003E+00
         21   -1    0    0  503  501  0.00000000000E+00  0.00000000000E+00  0.31951209318E+03  0.31951209318E+03  0.00000000000E+00 0.  1.
         21   -1    0    0  504  502 -0.00000000000E+00 -0.00000000000E+00 -0.35618881399E+02  0.35618881399E+02  0.00000000000E+00 0. -1.
         21    1    1    2  503  502 -0.18590338527E+02  0.11827089844E+02  0.31568348904E+03  0.31645149075E+03  0.00000000000E+00 0.  1.
         21    1    1    2  504  501  0.18590338527E+02 -0.11827089844E+02 -0.31790277266E+02  0.38679483830E+02  0.00000000000E+00 0. -1.
</event>
<event>
 4    1  0.2939002E+006  0.2414153E+02  0.7546771E-02  0.1478641E+00
         21   -1    0    0  504  501  0.00000000000E+00  0.00000000000E+00  0.75673981570E+02  0.75673981570E+02  0.00000000000E+00 0. -1.
         21   -1    0    0  503  502 -0.00000000000E+00 -0.00000000000E+00 -0.10242202036E+02  0.10242202036E+02  0.00000000000E+00 0. -1.
         21    1    1    2  503  501  0.18467780888E+02  0.15548456062E+02  0.11320824970E+02  0.26664104988E+02  0.00000000000E+00 0. -1.
         21    1    1    2  504  502 -0.18467780888E+02 -0.15548456062E+02  0.54110954563E+02  0.59252078618E+02  0.00000000000E+00 0. -1.
</event>
<event>
 4    1  0.2939002E+006  0.3493492E+02  0.7546771E-02  0.1381021E+00
         21   -1    0    0  503  501  0.00000000000E+00  0.00000000000E+00  0.33179554809E+03  0.33179554809E+03  0.00000000000E+00 0.  1.
         21   -1    0    0  501  502 -0.00000000000E+00 -0.00000000000E+00 -0.42191903922E+01  0.42191903922E+01  0.00000000000E+00 0.  1.
         21    1    1    2  503  504  0.34934918893E+02  0.11847664247E-01  0.22394185749E+03  0.22665040092E+03  0.00000000000E+00 0.  1.
         21    1    1    2  504  502 -0.34934918893E+02 -0.11847664247E-01  0.10363450021E+03  0.10936433757E+03  0.00000000000E+00 0.  1.
</event>
<event>
 4    1  0.2939002E+006  0.2225933E+02  0.7546771E-02  0.1502014E+00
         21   -1    0    0  502  501  0.00000000000E+00  0.00000000000E+00  0.43519995014E+02  0.43519995014E+02  0.00000000000E+00 0.  1.
         21   -1    0    0  503  502 -0.00000000000E+00 -0.00000000000E+00 -0.12961896181E+02  0.12961896181E+02  0.00000000000E+00 0.  1.
         21    1    1    2  503  504  0.32717397573E+01 -0.22017569211E+02  0.54289949712E+01  0.22911822742E+02  0.00000000000E+00 0.  1.
         21    1    1    2  504  501 -0.32717397573E+01  0.22017569211E+02  0.25129103862E+02  0.33570068452E+02  0.00000000000E+00 0.  1.
</event>
<event>
 4    1  0.2939002E+006  0.2075420E+02  0.7546771E-02  0.1522803E+00
         21   -1    0    0  502  501  0.00000000000E+00  0.00000000000E+00  0.51982539876E+02  0.51982539876E+02  0.00000000000E+00 0.  1.
         21   -1    0    0  503  502 -0.00000000000E+00 -0.00000000000E+00 -0.25685203376E+03  0.25685203376E+03  0.00000000000E+00 0.  1.
         21    1    1    2  503  504 -0.19449151506E+02 -0.72434316702E+01 -0.25434082289E+03  0.25518618886E+03  0.00000000000E+00 0.  1.
         21    1    1    2  504  501  0.19449151506E+02  0.72434316702E+01  0.49471329000E+02  0.53648384782E+02  0.00000000000E+00 0.  1.
</event>
<event>
 4    1  0.2939002E+006  0.2947234E+02  0.7546771E-02  0.1424238E+00
         21   -1    0    0  502  501  0.00000000000E+00  0.00000000000E+00  0.75427719026E+03  0.75427719026E+03  0.00000000000E+00 0. -1.
         21   -1    0    0  504  502 -0.00000000000E+00 -0.00000000000E+00 -0.35247060982E+01  0.35247060982E+01  0.00000000000E+00 0. -1.
         21    1    1    2  503  501  0.31417414328E+01 -0.29304405486E+02  0.68627833878E+03  0.68691089451E+03  0.00000000000E+00 0. -1.
         21    1    1    2  504  503 -0.31417414328E+01  0.29304405486E+02  0.64474145382E+02  0.70891001847E+02  0.00000000000E+00 0. -1.
</event>
<event>
 4    1  0.2939002E+006  0.2045081E+02  0.7546771E-02  0.1527252E+00
         21   -1    0    0  503  501  0.00000000000E+00  0.00000000000E+00  0.48997207200E+03  0.48997207200E+03  0.00000000000E+00 0.  1.
         21   -1    0    0  504  502 -0.00000000000E+00 -0.00000000000E+00 -0.92505305004E+00  0.92505305004E+00  0.00000000000E+00 0.  1.
         21    1    1    2  503  502 -0.82749219623E+01 -0.18701908801E+02  0.31274403513E+03  0.31341197685E+03  0.00000000000E+00 0.  1.
         21    1    1    2  504  501  0.82749219623E+01  0.18701908801E+02  0.17630298382E+03  0.17748514820E+03  0.00000000000E+00 0.  1.
</event>
<event>
 4    1  0.2939002E+006  0.3940223E+02  0.7546771E-02  0.1352025E+00
         21   -1    0    0  503  501  0.00000000000E+00  0.00000000000E+00  0.78376166021E+02  0.78376166021E+02  0.00000000000E+00 0.  1.
         21   -1    0    0  504  502 -0.00000000000E+00 -0.00000000000E+00 -0.42671584461E+02  0.42671584461E+02  0.00000000000E+00 0.  1.
         21    1    1    2  503  502 -0.17481258365E+02  0.35312057455E+02 -0.26449588201E+02  0.47456469651E+02  0.00000000000E+00 0.  1.
         21    1    1    2  504  501  0.17481258365E+02 -0.35312057455E+02  0.62154169761E+02  0.73591280831E+02  0.00000000000E+00 0.  1.
</event>
<event>
 4    1  0.2939002E+006  0.2362082E+02  0.7546771E-02  0.1484846E+00
         21   -1    0    0  503  501  0.00000000000E+00  0.00000000000E+00  0.10123603524E+04  0.10123603524E+04  0.00000000000E+00 0. -1.
         21   -1    0    0  504  502 -0.00000000000E+00 -0.00000000000E+00 -0.91051756239E+00  0.91051756239E+00  0.00000000000E+00 0. -1.
         21    1    1    2  503  502 -0.13216126415E+01  0.23583822820E+02  0.82402166798E+03  0.82436014743E+03  0.00000000000E+00 0. -1.
         21    1    1    2  504  501  0.13216126415E+01 -0.23583822820E+02  0.18742816688E+03  0.18891072256E+03  0.00000000000E+00 0. -1.
</event>
<event>
 4    1  0.2939002E+006  0.3046589E+02  0.7546771E-02  0.1415590E+00
         21   -1    0    0  502  501  0.00000000000E+00  0.00000000000E+00  0.18947767314E+03  0.18947767314E+03  0.00000000000E+00 0. -1.
         21   -1    0    0  503  502 -0.00000000000E+00 -0.00000000000E+00 -0.25981374394E+02  0.25981374394E+02  0.00000000000E+00 0.  1.
         21    1    1    2  503  504 -0.18153805690E+02 -0.24466498755E+02 -0.15295660374E+02  0.34089990447E+02  0.00000000000E+00 0.  1.
         21    1    1    2  504  501  0.18153805690E+02  0.24466498755E+02  0.17879195912E+03  0.18136905708E+03  0.00000000000E+00 0. -1.
</event>
<event>
 4    1  0.2939002E+006  0.2318040E+02  0.7546771E-02  0.1490245E+00
         21   -1    0    0  502  501  0.00000000000E+00  0.00000000000E+00  0.14245515242E+03  0.14245515242E+03  0.00000000000E+00 0. -1.
         21   -1    0    0  504  502 -0.00000000000E+00 -0.00000000000E+00 -0.11759027872E+02  0.11759027872E+02  0.00000000000E+00 0. -1.
         21    1    1    2  503  501  0.68113868918E+01  0.22157074241E+02  0.12889623898E+03  0.13096400786E+03  0.00000000000E+00 0. -1.
         21    1    1    2  504  503 -0.68113868918E+01 -0.22157074241E+02  0.17998855681E+01  0.23250172438E+02  0.00000000000E+00 0. -1.
</event>
<event>
 4    1  0.2939002E+006  0.2109049E+02  0.7546771E-02  0.1517977E+00
         21   -1    0    0  504  501  0.00000000000E+00  0.00000000000E+00  0.22087582406E+03  0.22087582406E+03  0.00000000000E+00 0. -1.
         21   -1    0    0  501  502 -0.00000000000E+00 -0.00000000000E+00 -0.20139407446E+01  0.20139407446E+01  0.00000000000E+00 0. -1.
         21    1    1    2  503  502  0.20686390961E+02 -0.41087459971E+01  0.10864263487E+03  0.11067082125E+03  0.00000000000E+00 0. -1.
         21    1    1    2  504  503 -0.20686390961E+02  0.41087459971E+01  0.11021924845E+03  0.11221894356E+03  0.00000000000E+00 0. -1.
</event>
<event>
 4    1  0.2939002E+006  0.2231834E+02  0.7546771E-02  0.1501240E+00
         21   -1    0    0  503  501  0.00000000000E+00  0.00000000000E+00  0.50480148549E+02  0.50480148549E+02  0.00000000000E+00 0.  1.
         21   -1    0    0  501  502 -0.00000000000E+00 -0.00000000000E+00 -0.17152728387E+02  0.17152728387E+02  0.00000000000E+00 0.  1.
         21    1    1    2  503  504  0.16184787665E+02  0.15367532729E+02  0.38702384795E+02  0.44676425582E+02  0.00000000000E+00 0.  1.
         21    1    1    2  504  502 -0.16184787665E+02 -0.15367532729E+02 -0.53749646334E+01  0.22956451354E+02  0.00000000000E+00 0.  1.
</event>
<event>
 4    1  0.2939002E+006  0.4157110E+02  0.7546771E-02  0.1339517E+00
         21   -1    0    0  503  501  0.00000000000E+00  0.00000000000E+00  0.14490904800E+03  0.14490904800E+03  0.00000000000E+00 0. -1.
         21   -1    0    0  504  502 -0.00000000000E+00 -0.00000000000E+00 -0.25123358354E+02  0.25123358354E+02  0.00000000000E+00 0. -1.
         21    1    1    2  503  502  0.35869128350E+02 -0.21013382193E+02  0.12151113217E+03  0.12842551087E+03  0.00000000000E+00 0. -1.
         21    1    1    2  504  501 -0.35869128350E+02  0.21013382193E+02 -0.17254425312E+01  0.41606895482E+02  0.00000000000E+00 0. -1.
</event>
<event>
 4    1  0.2939002E+006  0.2066942E+02  0.7546771E-02  0.1524037E+00
         21   -1    0    0  504  501  0.00000000000E+00  0.00000000000E+00  0.23397359323E+03  0.23397359323E+03  0.00000000000E+00 0. -1.
         21   -1    0    0  501  502 -0.00000000000E+00 -0.00000000000E+00 -0.61479739857E+01  0.61479739857E+01  0.00000000000E+00 0. -1.
         21    1    1    2  503  502  0.15653946755E+02  0.13497368854E+02  0.13247797745E+02  0.24550542969E+02  0.00000000000E+00 0. -1.
         21    1    1    2  504  503 -0.15653946755E+02 -0.13497368854E+02  0.21457782150E+03  0.21557102425E+03  0.00000000000E+00 0. -1.
</event>
<event>
 4    1  0.2939002E+006  0.2563987E+02  0.7546771E-02  0.1461771E+00
         21   -1    0    0  503  501  0.00000000000E+00  0.00000000000E+00  0.16373302501E+03  0.16373302501E+03  0.00000000000E+00 0. -1.
         21   -1    0    0  504  502 -0.00000000000E+00 -0.00000000000E+00 -0.23810497207E+03  0.23810497207E+03  0.00000000000E+00 0. -1.
         21    1    1    2  503  502 -0.21560044774E+02 -0.13876873815E+02  0.16203180463E+03  0.16404788590E+03  0.00000000000E+00 0. -1.
         21    1    1    2  504  501  0.21560044774E+02  0.13876873815E+02 -0.23640375169E+03  0.23779011117E+03  0.00000000000E+00 0. -1.
</event>
<event>
 4    1  0.2939002E+006  0.2485871E+02  0.7546771E-02  0.1470390E+00
         21   -1    0    0  502  501  0.00000000000E+00  0.00000000000E+00  0.51879683422E+02  0.51879683422E+02  0.00000000000E+00 0.  1.
         21   -1    0    0  504  502 -0.00000000000E+00 -0.00000000000E+00 -0.20692710381E+03  0.20692710381E+03  0.00000000000E+00 0.  1.
         21    1    1    2  503  501 -0.21355928939E+01 -0.24766807622E+02  0.48100069927E+02  0.54143995454E+02  0.00000000000E+00 0.  1.
         21    1    1    2  504  503  0.21355928939E+01  0.24766807622E+02 -0.20314749031E+03  0.20466279177E+03  0.00000000000E+00 0.  1.
</event>
<event>
 4    1  0.2939002E+006  0.2050302E+02  0.7546771E-02  0.1526480E+00
         21   -1    0    0  503  501  0.00000000000E+00  0.00000000000E+00  0.37937455430E+03  0.37937455430E+03  0.00000000000E+00 0.  1.
         21   -1    0    0  501  502 -0.00000000000E+00 -0.00000000000E+00 -0.36520041591E+01  0.36520041591E+01  0.00000000000E+00 0.  1.
         21    1    1    2  503  504  0.12454501319E+02 -0.16286784113E+02  0.34770151009E+03  0.34830548956E+03  0.00000000000E+00 0.  1.
         21    1    1    2  504  502 -0.12454501319E+02  0.16286784113E+02  0.28021040051E+02  0.34721068898E+02  0.00000000000E+00 0.  1.
</event>
<event>
 4    1  0.2939002E+006  0.2029713E+02  0.7546771E-02  0.1529541E+00
         21   -1    0    0  503  501  0.00000000000E+00  0.00000000000E+00  0.21105094364E+03  0.21105094364E+03  0.00000000000E+00 0.  1.
         21   -1    0    0  501  502 -0.00000000000E+00 -0.00000000000E+00 -0.65247170788E+02  0.65247170788E+02  0.00000000000E+00 0. -1.
         21    1    1    2  503  504 -0.11847619365E+02  0.16480516657E+02  0.20896873849E+03  0.20995215451E+03  0.00000000000E+00 0.  1.
         21    1    1    2  504  502  0.11847619365E+02 -0.16480516657E+02 -0.63164965640E+02  0.66345959924E+02  0.00000000000E+00 0. -1.
</event>
<event>
 4    1  0.2939002E+006  0.2781950E+02  0.7546771E-02  0.1439545E+00
         21   -1    0    0  502  501  0.00000000000E+00  0.00000000000E+00  0.13594781803E+03  0.13594781803E+03  0.00000000000E+00 0.  1.
         21   -1    0    0  504  502 -0.00000000000E+00 -0.00000000000E+00 -0.54941069279E+02  0.54941069279E+02  0.00000000000E+00 0.  1.
         21    1    1    2  503  501 -0.93870077348E+01  0.26187949941E+02  0.13086781286E+03  0.13379203668E+03  0.00000000000E+00 0.  1.
         21    1    1    2  504  503  0.93870077348E+01 -0.26187949941E+02 -0.49861064115E+02  0.57096850622E+02  0.00000000000E+00 0.  1.
</event>
<event>
 4    1  0.2939002E+006  0.3538382E+02  0.7546771E-02  0.1377885E+00
         21   -1    0    0  504  501  0.00000000000E+00  0.00000000000E+00  0.56805367290E+01  0.56805367290E+01  0.00000000000E+00 0. -1.
         21   -1    0    0  503  502 -0.00000000000E+00 -0.00000000000E+00 -0.24308399795E+03  0.24308399795E+03  0.00000000000E+00 0. -1.
         21    1    1    2  503  501 -0.28749333886E+02  0.20627427188E+02 -0.15669428813E+03  0.16063970519E+03  0.00000000000E+00 0. -1.
         21    1    1    2  504  502  0.28749333886E+02 -0.20627427188E+02 -0.80709173097E+02  0.88124829494E+02  0.00000000000E+00 0. -1.
</event>
<event>
 4    1  0.2939002E+006  0.2150311E+02  0.7546771E-02  0.1512201E+00
         21   -1    0    0  504  501  0.00000000000E+00  0.00000000000E+00  0.10561614015E+02  0.10561614015E+02  0.00000000000E+00 0.  1.
         21   -1    0    0  503  502 -0.00000000000E+00 -0.00000000000E+00 -0.75450395036E+02  0.75450395036E+02  0.00000000000E+00 0.  1.
         21    1    1    2  503  501 -0.77621008381E+01  0.20053270607E+02 -0.45814204555E+01  0.21985751860E+02  0.00000000000E+00 0.  1.
         21    1    1    2  504  502  0.77621008381E+01 -0.20053270607E+02 -0.60307360566E+02  0.64026257191E+02  0.00000000000E+00 0.  1.
</event>
<event>
 4    1  0.2939002E+006  0.3783633E+02  0.7546771E-02  0.1361653E+00
         21   -1    0    0  502  501  0.00000000000E+00  0.00000000000E+00  0.57268250382E+02  0.57268250382E+02  0.00000000000E+00 0. -1.
         21   -1    0    0  503  502 -0.00000000000E+00 -0.00000000000E+00 -0.50651748458E+02  0.50651748458E+02  0.00000000000E+00 0.  1.
         21    1    1    2  503  504 -0.34886271175E+02 -0.14647051385E+02 -0.35093469095E+02  0.51605616012E+02  0.00000000000E+00 0.  1.
         21    1    1    2  504  501  0.34886271175E+02  0.14647051385E+02  0.41709971020E+02  0.56314382828E+02  0.00000000000E+00 0. -1.
</event>
<event>
 4    1  0.2939002E+006  0.2762251E+02  0.7546771E-02  0.1441453E+00
         21   -1    0    0  502  501  0.00000000000E+00  0.00000000000E+00  0.66234972377E+03  0.66234972377E+03  0.00000000000E+00 0. -1.
         21   -1    0    0  504  502 -0.00000000000E+00 -0.00000000000E+00 -0.48708108249E+01  0.48708108249E+01  0.00000000000E+00 0. -1.
         21    1    1    2  503  501 -0.13501641226E+02 -0.24097898459E+02  0.62024238568E+03  0.62085716556E+03  0.00000000000E+00 0. -1.
         21    1    1    2  504  503  0.13501641226E+02  0.24097898459E+02  0.37236527259E+02  0.46363369035E+02  0.00000000000E+00 0. -1.
</event>
<event>
 4    1  0.2939002E+006  0.2013547E+02  0.7546771E-02  0.1531975E+00
         21   -1    0    0  504  501  0.00000000000E+00  0.00000000000E+00  0.47473749213E+02  0.47473749213E+02  0.00000000000E+00 0.  1.
         21   -1    0    0  503  502 -0.00000000000E+00 -0.00000000000E+00 -0.85428393423E+01  0.85428393423E+01  0.00000000000E+00 0.  1.
         21    1    1    2  503  501  0.66451775430E+01  0.19007336543E+02  0.19953984432E+02  0.28347816878E+02  0.00000000000E+00 0.  1.
         21    1    1    2  504  502 -0.66451775430E+01 -0.19007336543E+02  0.18976925439E+02  0.27668771678E+02  0.00000000000E+00 0.  1.
</event>
<event>
 4    1  0.2939002E+006  0.4688102E+02  0.7546771E-02  0.1312293E+00
         21   -1    0    0  503  501  0.00000000000E+00  0.00000000000E+00  0.37451343829E+02  0.37451343829E+02  0.00000000000E+00 0. -1.
         21   -1    0    0  504  502 -0.00000000000E+00 -0.00000000000E+00 -0.34664825896E+03  0.34664825896E+03  0.00000000000E+00 0.  1.
         21    1    1    2  503  502 -0.46817008489E+02  0.24490653683E+01  0.20441794121E+02  0.51143886750E+02  0.00000000000E+00 0. -1.
         21    1    1    2  504  501  0.46817008489E+02 -0.24490653683E+01 -0.32963870926E+03  0.33295571604E+03  0.00000000000E+00 0.  1.
</event>
<event>
 4    1  0.2939002E+006  0.2511389E+02  0.7546771E-02  0.1467533E+00
         21   -1    0    0  502  501  0.00000000000E+00  0.00000000000E+00  0.10049348066E+03  0.10049348066E+03  0.00000000000E+00 0.  1.
         21   -1    0    0  504  502 -0.00000000000E+00 -0.00000000000E+00 -0.25993754092E+02  0.25993754092E+02  0.00000000000E+00 0. -1.
         21    1    1    2  503  501  0.23807200161E+02 -0.79953043058E+01  0.92331871086E+02  0.95686373579E+02  0.00000000000E+00 0.  1.
         21    1    1    2  504  503 -0.23807200161E+02  0.79953043058E+01 -0.17832144523E+02  0.30800861168E+02  0.00000000000E+00 0. -1.
</event>
<event>
 4    1  0.2939002E+006  0.2861370E+02  0.7546771E-02  0.1432039E+00
         21   -1    0    0  504  501  0.00000000000E+00  0.00000000000E+00  0.17984460241E+03  0.17984460241E+03  0.00000000000E+00 0. -1.
         21   -1    0    0  503  502 -0.00000000000E+00 -0.00000000000E+00 -0.21913902875E+03  0.21913902875E+03  0.00000000000E+00 0.  1.
         21    1    1    2  503  501  0.23195130680E+01  0.28519532180E+02 -0.21705598044E+03  0.21893387701E+03  0.00000000000E+00 0.  1.
         21    1    1    2  504  502 -0.23195130680E+01 -0.28519532180E+02  0.17776155410E+03  0.18004975416E+03  0.00000000000E+00 0. -1.
</event>
<event>
 4    1  0.2939002E+006  0.2386649E+02  0.7546771E-02  0.1481895E+00
         21   -1    0    0  502  501  0.00000000000E+00  0.00000000000E+00  0.11069646454E+03  0.11069646454E+03  0.00000000000E+00 0.  1.
         21   -1    0    0  504  502 -0.00000000000E+00 -0.00000000000E+00 -0.80058155817E+02  0.80058155817E+02  0.00000000000E+00 0. -1.
         21    1    1    2  503  501 -0.65626201466E+01  0.22946491093E+02  0.10758040395E+03  0.11019597430E+03  0.00000000000E+00 0.  1.
         21    1    1    2  504  503  0.65626201466E+01 -0.22946491093E+02 -0.76942095230E+02  0.80558646060E+02  0.00000000000E+00 0. -1.
</event>
<event>
 4    1  0.2939002E+006  0.3472816E+02  0.7546771E-02  0.1382484E+00
         21   -1    0    0  504  501  0.00000000000E+00  0.00000000000E+00  0.29791725991E+03  0.29791725991E+03  0.00000000000E+00 0. -1.
         21   -1    0    0  501  502 -0.00000000000E+00 -0.00000000000E+00 -0.22685273593E+02  0.22685273593E+02  0.00000000000E+00 0. -1.
         21    1    1    2  503  502  0.17764810715E+02 -0.29840516991E+02 -0.76798421595E+01  0.35567188947E+02  0.00000000000E+00 0. -1.
         21    1    1    2  504  503 -0.17764810715E+02  0.29840516991E+02  0.28291182847E+03  0.28503534455E+03  0.00000000000E+00 0. -1.
</event>
<event>
 4    1  0.2939002E+006  0.3072961E+02  0.7546771E-02  0.1413360E+00
         21   -1    0    0  502  501  0.00000000000E+00  0.00000000000E+00  0.42383225733E+02  0.42383225733E+02  0.00000000000E+00 0.  1.
         21   -1    0    0  504  502 -0.00000000000E+00 -0.00000000000E+00 -0.98700629489E+02  0.98700629489E+02  0.00000000000E+00 0.  1.
         21    1    1    2  503  501  0.14712460860E+01  0.30694374547E+02  0.33912754398E+02  0.45764441489E+02  0.00000000000E+00 0.  1.
         21    1    1    2  504  503 -0.14712460860E+01 -0.30694374547E+02 -0.90230158154E+02  0.95319413733E+02  0.00000000000E+00 0.  1.
</event>
<event>
 4    1  0.2939002E+006  0.2385062E+02  0.7546771E-02  0.1482084E+00
         21   -1    0    0  503  501  0.00000000000E+00  0.00000000000E+00  0.35753651708E+01  0.35753651708E+01  0.00000000000E+00 0. -1.
         21   -1    0    0  501  502 -0.00000000000E+00 -0.00000000000E+00 -0.34859614540E+03  0.34859614540E+03  0.00000000000E+00 0.  1.
         21    1    1    2  503  504  0.23755933370E+02 -0.21230915447E+01 -0.42685038937E+02  0.48896466508E+02  0.00000000000E+00 0. -1.
         21    1    1    2  504  502 -0.23755933370E+02  0.21230915447E+01 -0.30233574129E+03  0.30327504406E+03  0.00000000000E+00 0.  1.
</event>
<event>
 4    1  0.2939002E+006  0.3353020E+02  0.7546771E-02  0.1391201E+00
         21   -1    0    0  504  501  0.00000000000E+00  0.00000000000E+00  0.60985558646E+02  0.60985558646E+02  0.00000000000E+00 0. -1.
         21   -1    0    0  503  502 -0.00000000000E+00 -0.00000000000E+00 -0.42502882555E+02  0.42502882555E+02  0.00000000000E+00 0. -1.
         21    1    1    2  503  501  0.33333495696E+02 -0.36266485057E+01  0.48179078837E+02  0.58698365841E+02  0.00000000000E+00 0. -1.
         21    1    1    2  504  502 -0.33333495696E+02  0.36266485057E+01 -0.29696402746E+02  0.44790075360E+02  0.00000000000E+00 0. -1.
</event>
<event>
 4    1  0.2939002E+006  0.4075541E+02  0.7546771E-02  0.1344115E+00
         21   -1    0    0  502  501  0.00000000000E+00  0.00000000000E+00  0.66388371726E+02  0.66388371726E+02  0.00000000000E+00 0.  1.
         21   -1    0    0  503  502 -0.00000000000E+00 -0.00000000000E+00 -0.19535276723E+03  0.19535276723E+03  0.00000000000E+00 0. -1.
         21    1    1    2  503  504 -0.11037207549E+02 -0.39232428415E+02 -0.18668522263E+03  0.19108211779E+03  0.00000000000E+00 0. -1.
         21    1    1    2  504  501  0.11037207549E+02  0.39232428415E+02  0.57720827121E+02  0.70659021174E+02  0.00000000000E+00 0.  1.
</event>
<event>
 4    1  0.2939002E+006  0.3354541E+02  0.7546771E-02  0.1391088E+00
         21   -1    0    0  503  501  0.00000000000E+00  0.00000000000E+00  0.48054292272E+01  0.48054292272E+01  0.00000000000E+00 0.  1.
         21   -1    0    0  504  502 -0.00000000000E+00 -0.00000000000E+00 -0.75360939886E+03  0.75360939886E+03  0.00000000000E+00 0.  1.
         21    1    1    2  503  502  0.32163925145E+02  0.95276777699E+01 -0.68922789663E+03  0.69004375819E+03  0.00000000000E+00 0.  1.
         21    1    1    2  504  501 -0.32163925145E+02 -0.95276777699E+01 -0.59576073005E+02  0.68371069899E+02  0.00000000000E+00 0.  1.
</event>
<event>
 4    1  0.2939002E+006  0.2471930E+02  0.7546771E-02  0.1471968E+00
         21   -1    0    0  504  501  0.00000000000E+00  0.00000000000E+00  0.70980133839E+03  0.70980133839E+03  0.00000000000E+00 0. -1.
         21   -1    0    0  503  502 -0.00000000000E+00 -0.00000000000E+00 -0.11731763010E+02  0.11731763010E+02  0.00000000000E+00 0.  1.
         21    1    1    2  503  501  0.10465376874E+02  0.22394635593E+02  0.17567532797E+01  0.24781646405E+02  0.00000000000E+00 0.  1.
         21    1    1    2  504  502 -0.10465376874E+02 -0.22394635593E+02  0.69631282210E+03  0.69675145499E+03  0.00000000000E+00 0. -1.
</event>
<event>
 4    1  0.2939002E+006  0.3198048E+02  0.7546771E-02  0.1403132E+00
         21   -1    0    0  502  501  0.00000000000E+00  0.00000000000E+00  0.49738028799E+02  0.49738028799E+02  0.00000000000E+00 0. -1.
         21   -1    0    0  503  502 -0.00000000000E+00 -0.00000000000E+00 -0.12907528337E+03  0.12907528337E+03  0.00000000000E+00 0.  1.
         21    1    1    2  503  504 -0.29915868001E+02 -0.11304509560E+02 -0.12164491398E+03  0.12577852039E+03  0.00000000000E+00 0.  1.
         21    1    1    2  504  501  0.29915868001E+02  0.11304509560E+02  0.42307659406E+02  0.53034791779E+02  0.00000000000E+00 0. -1.
</event>
<event>
 4    1  0.2939002E+006  0.2623933E+02  0.7546771E-02  0.1455402E+00
         21   -1    0    0  504  501  0.00000000000E+00  0.00000000000E+00  0.13809236149E+04  0.13809236149E+04  0.00000000000E+00 0.  1.
         21   -1    0    0  503  502 -0.00000000000E+00 -0.00000000000E+00 -0.68160119493E+02  0.68160119493E+02  0.00000000000E+00 0. -1.
         21    1    1    2  503  501 -0.11280458058E+02  0.23690795506E+02 -0.65505297445E+02  0.70565193396E+02  0.00000000000E+00 0. -1.
         21    1    1    2  504  502  0.11280458058E+02 -0.23690795506E+02  0.13782687929E+04  0.13785185410E+04  0.00000000000E+00 0.  1.
</event>
<event>
 4    1  0.2939002E+006  0.2413490E+02  0.7546771E-02  0.1478718E+00
         21   -1    0    0  504  501  0.00000000000E+00  0.00000000000E+00  0.23907266242E+03  0.23907266242E+03  0.00000000000E+00 0.  1.
         21   -1    0    0  503  502 -0.00000000000E+00 -0.00000000000E+00 -0.25495249782E+01  0.25495249782E+01  0.00000000000E+00 0. -1.
         21    1    1    2  503  501 -0.11386334725E+02  0.21280155125E+02  0.14370173880E+03  0.14571438966E+03  0.00000000000E+00 0.  1.
         21    1    1    2  504  502  0.11386334725E+02 -0.21280155125E+02  0.92821398639E+02  0.95907797733E+02  0.00000000000E+00 0. -1.
</event>
<event>
 4    1  0.2939002E+006  0.3187907E+02  0.7546771E-02  0.1403941E+00
         21   -1    0    0  503  501  0.00000000000E+00  0.00000000000E+00  0.24822520516E+03  0.24822520516E+03  0.00000000000E+00 0.  1.
         21   -1    0    0  504  502 -0.00000000000E+00 -0.00000000000E+00 -0.15023932716E+02  0.15023932716E+02  0.00000000000E+00 0.  1.
         21    1    1    2  503  502  0.32868028672E+01 -0.31709180984E+02  0.43340310383E+01  0.32172333717E+02  0.00000000000E+00 0.  1.
         21    1    1    2  504  501 -0.32868028672E+01  0.31709180984E+02  0.22886724141E+03  0.23107680416E+03  0.00000000000E+00 0.  1.
</event>
<event>
 4    1  0.2939002E+006  0.5140005E+02  0.7546771E-02  0.1292214E+00
         21   -1    0    0  504  501  0.00000000000E+00  0.00000000000E+00  0.28776513469E+03  0.28776513469E+03  0.00000000000E+00 0.  1.
         21   -1    0    0  503  502 -0.00000000000E+00 -0.00000000000E+00 -0.92349568432E+01  0.92349568432E+01  0.00000000000E+00 0.  1.
         21    1    1    2  503  501  0.40098707412E+02  0.32156780296E+02  0.12791163118E+03  0.13785263960E+03  0.00000000000E+00 0.  1.
         21    1    1    2  504  502 -0.40098707412E+02 -0.32156780296E+02  0.15061854667E+03  0.15914745193E+03  0.00000000000E+00 0.  1.
</event>
<event>
 4    1  0.2939002E+006  0.2169809E+02  0.7546771E-02  0.1509527E+00
         21   -1    0    0  504  501  0.00000000000E+00  0.00000000000E+00  0.28662641600E+01  0.28662641600E+01  0.00000000000E+00 0. -1.
         21   -1    0    0  503  502 -0.00000000000E+00 -0.00000000000E+00 -0.24369732451E+03  0.24369732451E+03  0.00000000000E+00 0.  1.
         21    1    1    2  503  501 -0.20065437158E+02  0.82574300426E+01 -0.50028726931E+02  0.54531462823E+02  0.00000000000E+00 0. -1.
         21    1    1    2  504  502  0.20065437158E+02 -0.82574300426E+01 -0.19080233342E+03  0.19203212585E+03  0.00000000000E+00 0.  1.
</event>
<event>
 4    1  0.2939002E+006  0.3229023E+02  0.7546771E-02  0.1400685E+00
         21   -1    0    0  503  501  0.00000000000E+00  0.00000000000E+00  0.92257927865E+01  0.92257927865E+01  0.00000000000E+00 0.  1.
         21   -1    0    0  501  502 -0.00000000000E+00 -0.00000000000E+00 -0.59015619811E+03  0.59015619811E+03  0.00000000000E+00 0. -1.
         21    1    1    2  503  504  0.32276206178E+02 -0.95155254203E+00 -0.20993372449E+02  0.38514680633E+02  0.00000000000E+00 0.  1.
         21    1    1    2  504  502 -0.32276206178E+02  0.95155254203E+00 -0.55993703288E+03  0.56086731026E+03  0.00000000000E+00 0. -1.
</event>
<event>
 4    1  0.2939002E+006  0.2638858E+02  0.7546771E-02  0.1453848E+00
         21   -1    0    0  503  501  0.00000000000E+00  0.00000000000E+00  0.71573922396E+00  0.71573922396E+00  0.00000000000E+00 0. -1.
         21   -1    0    0  501  502 -0.00000000000E+00 -0.00000000000E+00 -0.11208332111E+04  0.11208332111E+04  0.00000000000E+00 0. -1.
         21    1    1    2  503  504 -0.94218257991E+01  0.24649271197E+02 -0.35634492479E+03  0.35732067222E+03  0.00000000000E+00 0. -1.
         21    1    1    2  504  502  0.94218257991E+01 -0.24649271197E+02 -0.76377254707E+03  0.76422827809E+03  0.00000000000E+00 0. -1.
</event>
<event>
 4    1  0.2939002E+006  0.5503561E+02  0.7546771E-02  0.1277701E+00
         21   -1    0    0  503  501  0.00000000000E+00  0.00000000000E+00  0.46066104001E+02  0.46066104001E+02  0.00000000000E+00 0.  1.
         21   -1    0    0  501  502 -0.00000000000E+00 -0.00000000000E+00 -0.91638583878E+02  0.91638583878E+02  0.00000000000E+00 0.  1.
         21    1    1    2  503  504 -0.52010957690E+02 -0.17993855649E+02  0.13808658106E+02  0.56741498038E+02  0.00000000000E+00 0.  1.
         21    1    1    2  504  502  0.52010957690E+02  0.17993855649E+02 -0.59381137983E+02  0.80963189840E+02  0.00000000000E+00 0.  1.
</event>
<event>
 4    1  0.2939002E+006  0.2152770E+02  0.7546771E-02  0.1511862E+00
         21   -1    0    0  503  501  0.00000000000E+00  0.00000000000E+00  0.11261599849E+03  0.11261599849E+03  0.00000000000E+00 0.  1.
         21   -1    0    0  504  502 -0.00000000000E+00 -0.00000000000E+00 -0.41155049805E+01  0.41155049805E+01  0.00000000000E+00 0. -1.
         21    1    1    2  503  502 -0.74739581994E+01  0.20188651225E+02  0.54719927527E+02  0.58802314223E+02  0.00000000000E+00 0.  1.
         21    1    1    2  504  501  0.74739581994E+01 -0.20188651225E+02  0.53780565982E+02  0.57929189247E+02  0.00000000000E+00 0. -1.
</event>
<event>
 4    1  0.2939002E+006  0.2947190E+02  0.7546771E-02  0.1424242E+00
         21   -1    0    0  503  501  0.00000000000E+00  0.00000000000E+00  0.59246148279E+02  0.59246148279E+02  0.00000000000E+00 0. -1.
         21   -1    0    0  504  502 -0.00000000000E+00 -0.00000000000E+00 -0.14665891179E+02  0.14665891179E+02  0.00000000000E+00 0. -1.
         21    1    1    2  503  502 -0.12495099992E+02 -0.26692042945E+02  0.22982385795E+02  0.37373556658E+02  0.00000000000E+00 0. -1.
         21    1    1    2  504  501  0.12495099992E+02  0.26692042945E+02  0.21597871306E+02  0.36538482800E+02  0.00000000000E+00 0. -1.
</event>
<event>
 4    1  0.2939002E+006  0.2300466E+02  0.7546771E-02  0.1492440E+00
         21   -1    0    0  502  501  0.00000000000E+00  0.00000000000E+00  0.91654133248E+00  0.91654133248E+00  0.00000000000E+00 0. -1.
         21   -1    0    0  503  502 -0.00000000000E+00 -0.00000000000E+00 -0.10465330038E+04  0.10465330038E+04  0.00000000000E+00 0. -1.
         21    1    1    2  503  504 -0.22675721984E+02 -0.38763389335E+01 -0.87345749061E+03  0.87376038036E+03  0.00000000000E+00 0. -1.
         21    1    1    2  504  501  0.22675721984E+02  0.38763389335E+01 -0.17215897188E+03  0.17368916480E+03  0.00000000000E+00 0. -1.
</event>
<event>
 4    1  0.2939002E+006  0.2020449E+02  0.7546771E-02  0.1530932E+00
         21   -1    0    0  503  501  0.00000000000E+00  0.00000000000E+00  0.27407280460E+03  0.27407280460E+03  0.00000000000E+00 0. -1.
         21   -1    0    0  501  502 -0.00000000000E+00 -0.00000000000E+00 -0.24540020642E+01  0.24540020642E+01  0.00000000000E+00 0. -1.
         21    1    1    2  503  504  0.10402002913E+02 -0.17321081875E+02  0.22249151527E+03  0.22340701849E+03  0.00000000000E+00 0. -1.
         21    1    1    2  504  502 -0.10402002913E+02  0.17321081875E+02  0.49127287265E+02  0.53119788177E+02  0.00000000000E+00 0. -1.
</event>
<event>
 4    1  0.2939002E+006  0.2037131E+02  0.7546771E-02  0.1528433E+00
         21   -1    0    0  502  501  0.00000000000E+00  0.00000000000E+00  0.47631484899E+02  0.47631484899E+02  0.00000000000E+00 0. -1.
         21   -1    0    0  504  502 -0.00000000000E+00 -0.00000000000E+00 -0.26515439799E+02  0.26515439799E+02  0.00000000000E+00 0. -1.
         21    1    1    2  503  501 -0.77562696991E+00  0.20356542921E+02  0.40936031346E+02  0.45724709942E+02  0.00000000000E+00 0. -1.
         21    1    1    2  504  503  0.77562696991E+00 -0.20356542921E+02 -0.19819986246E+02  0.28422214757E+02  0.00000000000E+00 0. -1.
</event>
<event>
 4    1  0.2939002E+006  0.4751703E+02  0.7546771E-02  0.1309312E+00
         21   -1    0    0  503  501  0.00000000000E+00  0.00000000000E+00  0.25436757191E+03  0.25436757191E+03  0.00000000000E+00 0.  1.
         21   -1    0    0  504  502 -0.00000000000E+00 -0.00000000000E+00 -0.89539796518E+01  0.89539796518E+01  0.00000000000E+00 0.  1.
         21    1    1    2  503  502  0.18344040775E+02  0.43833367791E+02  0.11045143427E+03  0.12023887598E+03  0.00000000000E+00 0.  1.
         21    1    1    2  504  501 -0.18344040775E+02 -0.43833367791E+02  0.13496215798E+03  0.14308267558E+03  0.00000000000E+00 0.  1.
</event>
<event>
 4    1  0.2939002E+006  0.2758455E+02  0.7546771E-02  0.1441823E+00
         21   -1    0    0  504  501  0.00000000000E+00  0.00000000000E+00  0.32500235624E+02  0.32500235624E+02  0.00000000000E+00 0. -1.
         21   -1    0    0  503  502 -0.00000000000E+00 -0.00000000000E+00 -0.41784837558E+02  0.41784837558E+02  0.00000000000E+00 0. -1.
         21    1    1    2  503  501 -0.26673148361E+02 -0.70321176237E+01 -0.29271254114E+02  0.40220813507E+02  0.00000000000E+00 0. -1.
         21    1    1    2  504  502  0.26673148361E+02  0.70321176237E+01  0.19986652181E+02  0.34064259674E+02  0.00000000000E+00 0. -1.
</event>
<event>
 4    1  0.2939002E+006  0.3020459E+02  0.7546771E-02  0.1417827E+00
         21   -1    0    0  504  501  0.00000000000E+00  0.00000000000E+00  0.25582990671E+02  0.25582990671E+02  0.00000000000E+00 0.  1.
         21   -1    0    0  503  502 -0.00000000000E+00 -0.00000000000E+00 -0.44865292296E+02  0.44865292296E+02  0.00000000000E+00 0. -1.
         21    1    1    2  503  501 -0.17706523504E+02  0.24470311044E+02  0.63131751571E+01  0.30857305095E+02  0.00000000000E+00 0.  1.
         21    1    1    2  504  502  0.17706523504E+02 -0.24470311044E+02 -0.25595476782E+02  0.39590977872E+02  0.00000000000E+00 0. -1.
</event>
<event>
 4    1  0.2939002E+006  0.3464874E+02  0.7546771E-02  0.1383050E+00
         21   -1    0    0  502  501  0.00000000000E+00  0.00000000000E+00  0.20236578996E+01  0.20236578996E+01  0.00000000000E+00 0.  1.
         21   -1    0    0  503  502 -0.00000000000E+00 -0.00000000000E+00 -0.85441142346E+03  0.85441142346E+03  0.00000000000E+00 0.  1.
         21    1    1    2  503  504  0.34037521241E+02  0.64794000452E+01 -0.66294130959E+03  0.66384615345E+03  0.00000000000E+00 0.  1.
         21    1    1    2  504  501 -0.34037521241E+02 -0.64794000452E+01 -0.18944645596E+03  0.19258892791E+03  0.00000000000E+00 0.  1.
</event>
<event>
 4    1  0.2939002E+006  0.3854923E+02  0.7546771E-02  0.1357204E+00
         21   -1    0    0  503  501  0.00000000000E+00  0.00000000000E+00  0.11985331185E+02  0.11985331185E+02  0.00000000000E+00 0. -1.
         21   -1    0    0  504  502 -0.00000000000E+00 -0.00000000000E+00 -0.15183327606E+03  0.15183327606E+03  0.00000000000E+00 0. -1.
         21    1    1    2  503  502  0.36197958658E+02 -0.13257099393E+02 -0.10500092362E+03  0.11185364033E+03  0.00000000000E+00 0. -1.
         21    1    1    2  504  501 -0.36197958658E+02  0.13257099393E+02 -0.34847021251E+02  0.51964966905E+02  0.00000000000E+00 0. -1.
</event>
<event>
 4    1  0.2939002E+006  0.2488721E+02  0.7546771E-02  0.1470069E+00
         21   -1    0    0  502  501  0.00000000000E+00  0.00000000000E+00  0.27788315411E+03  0.27788315411E+03  0.00000000000E+00 0.  1.
         21   -1    0    0  504  502 -0.00000000000E+00 -0.00000000000E+00 -0.96206342800E+01  0.96206342800E+01  0.00000000000E+00 0.  1.
         21    1    1    2  503  501  0.51669111445E+01 -0.24344943769E+02  0.26013543912E+03  0.26132320974E+03  0.00000000000E+00 0.  1.
         21    1    1    2  504  503 -0.51669111445E+01  0.24344943769E+02  0.81270807056E+01  0.26180578655E+02  0.00000000000E+00 0.  1.
</event>
<event>
 4    1  0.2939002E+006  0.2815292E+02  0.7546771E-02  0.1436358E+00
         21   -1    0    0  503  501  0.00000000000E+00  0.00000000000E+00  0.51322275140E+02  0.51322275140E+02  0.00000000000E+00 0.  1.
         21   -1    0    0  504  502 -0.00000000000E+00 -0.00000000000E+00 -0.38328224074E+02  0.38328224074E+02  0.00000000000E+00 0. -1.
         21    1    1    2  503  502 -0.35000852070E+01 -0.27934500851E+02 -0.28139777699E+02  0.39804949732E+02  0.00000000000E+00 0. -1.
         21    1    1    2  504  501  0.35000852070E+01  0.27934500851E+02  0.41133828765E+02  0.49845549482E+02  0.00000000000E+00 0.  1.
</event>
<event>
 4    1  0.2939002E+006  0.2975127E+02  0.7546771E-02  0.1421770E+00
         21   -1    0    0  502  501  0.00000000000E+00  0.00000000000E+00  0.78556241068E+03  0.78556241068E+03  0.00000000000E+00 0. -1.
         21   -1    0    0  503  502 -0.00000000000E+00 -0.00000000000E+00 -0.39599969774E+01  0.39599969774E+01  0.00000000000E+00 0. -1.
         21    1    1    2  503  504 -0.25539499750E+02  0.15260138694E+02  0.56891745999E+02  0.64201313408E+02  0.00000000000E+00 0. -1.
         21    1    1    2  504  501  0.25539499750E+02 -0.15260138694E+02  0.72471066770E+03  0.72532109425E+03  0.00000000000E+00 0. -1.
</event>
<event>
 4    1  0.2939002E+006  0.2101900E+02  0.7546771E-02  0.1518994E+00
         21   -1    0    0  502  501  0.00000000000E+00  0.00000000000E+00  0.45932507499E+00  0.45932507499E+00  0.00000000000E+00 0. -1.
         21   -1    0    0  504  502 -0.00000000000E+00 -0.00000000000E+00 -0.10382377470E+04  0.10382377470E+04  0.00000000000E+00 0. -1.
         21    1    1    2  503  501 -0.42814731407E+01  0.20578325017E+02 -0.37801123909E+03  0.37859516023E+03  0.00000000000E+00 0. -1.
         21    1    1    2  504  503  0.42814731407E+01 -0.20578325017E+02 -0.65976718288E+03  0.66010191189E+03  0.00000000000E+00 0. -1.
</event>
<event>
 4    1  0.2939002E+006  0.2294498E+02  0.7546771E-02  0.1493190E+00
         21   -1    0    0  504  501  0.00000000000E+00  0.00000000000E+00  0.54310604592E+01  0.54310604592E+01  0.00000000000E+00 0. -1.
         21   -1    0    0  503  502 -0.00000000000E+00 -0.00000000000E+00 -0.36222182064E+03  0.36222182064E+03  0.00000000000E+00 0.  1.
         21    1    1    2  503  501 -0.20951273025E+02  0.93550216819E+01 -0.33571273585E+03  0.33649593353E+03  0.00000000000E+00 0.  1.
         21    1    1    2  504  502  0.20951273025E+02 -0.93550216819E+01 -0.21078024334E+02  0.31156947570E+02  0.00000000000E+00 0. -1.
</event>
<event>
 4    1  0.2939002E+006  0.2444583E+02  0.7546771E-02  0.1475099E+00
         21   -1    0    0  504  501  0.00000000000E+00  0.00000000000E+00  0.64018573483E+02  0.64018573483E+02  0.00000000000E+00 0.  1.
         21   -1    0    0  503  502 -0.00000000000E+00 -0.00000000000E+00 -0.44164056080E+03  0.44164056080E+03  0.00000000000E+00 0. -1.
         21    1    1    2  503  501  0.24372437577E+02 -0.18928386089E+01  0.61332327760E+02  0.66024639188E+02  0.00000000000E+00 0.  1.
         21    1    1    2  504  502 -0.24372437577E+02  0.18928386089E+01 -0.43895431508E+03  0.43963449509E+03  0.00000000000E+00 0. -1.
</event>
<event>
 4    1  0.2939002E+006  0.2906306E+02  0.7546771E-02  0.1427917E+00
         21   -1    0    0  503  501  0.00000000000E+00  0.00000000000E+00  0.34020233200E+03  0.34020233200E+03  0.00000000000E+00 0.  1.
         21   -1    0    0  501  502 -0.00000000000E+00 -0.00000000000E+00 -0.43914276518E+01  0.43914276518E+01  0.00000000000E+00 0.  1.
         21    1    1    2  503  504 -0.81574618208E+01  0.27894757414E+02  0.28149351758E+03  0.28298986221E+03  0.00000000000E+00 0.  1.
         21    1    1    2  504  502  0.81574618208E+01 -0.27894757414E+02  0.54317386764E+02  0.61603897437E+02  0.00000000000E+00 0.  1.
</event>
<event>
 4    1  0.2939002E+006  0.2011215E+02  0.7546771E-02  0.1532328E+00
         21   -1    0    0  504  501  0.00000000000E+00  0.00000000000E+00  0.23334513340E+03  0.23334513340E+03  0.00000000000E+00 0.  1.
         21   -1    0    0  503  502 -0.00000000000E+00 -0.00000000000E+00 -0.35734948928E+01  0.35734948928E+01  0.00000000000E+00 0.  1.
         21    1    1    2  503  501 -0.19253269218E+02  0.58146501677E+01  0.19988869101E+03  0.20089795252E+03  0.00000000000E+00 0.  1.
         21    1    1    2  504  502  0.19253269218E+02 -0.58146501677E+01  0.29882947495E+02  0.36020675773E+02  0.00000000000E+00 0.  1.
</event>
<event>
 4    1  0.2939002E+006  0.3295222E+02  0.7546771E-02  0.1395561E+00
         21   -1    0    0  502  501  0.00000000000E+00  0.00000000000E+00  0.97727934605E+02  0.97727934605E+02  0.00000000000E+00 0.  1.
         21   -1    0    0  503  502 -0.00000000000E+00 -0.00000000000E+00 -0.51118796517E+02  0.51118796517E+02  0.00000000000E+00 0.  1.
         21    1    1    2  503  504 -0.17458535417E+01 -0.32905937732E+02 -0.42535710138E+02  0.53806462247E+02  0.00000000000E+00 0.  1.
         21    1    1    2  504  501  0.17458535417E+01  0.32905937732E+02  0.89144848226E+02  0.95040268875E+02  0.00000000000E+00 0.  1.
</event>
<event>
 4    1  0.2939002E+006  0.2933950E+02  0.7546771E-02  0.1425424E+00
         21   -1    0    0  502  501  0.00000000000E+00  0.00000000000E+00  0.15932555709E+03  0.15932555709E+03  0.00000000000E+00 0.  1.
         21   -1    0    0  503  502 -0.00000000000E+00 -0.00000000000E+00 -0.18244798173E+02  0.18244798173E+02  0.00000000000E+00 0. -1.
         21    1    1    2  503  504 -0.20080086250E+02 -0.21391504044E+02 -0.39477392459E+01  0.29603900997E+02  0.00000000000E+00 0. -1.
         21    1    1    2  504  501  0.20080086250E+02  0.21391504044E+02  0.14502849816E+03  0.14796645426E+03  0.00000000000E+00 0.  1.
</event>
<event>
 4    1  0.2939002E+006  0.2391727E+02  0.7546771E-02  0.1481290E+00
         21   -1    0    0  504  501  0.00000000000E+00  0.00000000000E+00  0.88401920165E+02  0.88401920165E+02  0.00000000000E+00 0.  1.
         21   -1    0    0  503  502 -0.00000000000E+00 -0.00000000000E+00 -0.95337155203E+01  0.95337155203E+01  0.00000000000E+00 0.  1.
         21    1    1    2  503  501 -0.19117759923E+02  0.14371748312E+02  0.67189238164E+02  0.71319209327E+02  0.00000000000E+00 0.  1.
         21    1    1    2  504  502  0.19117759923E+02 -0.14371748312E+02  0.11678966481E+02  0.26616426358E+02  0.00000000000E+00 0.  1.
</event>
<event>
 4    1  0.2939002E+006  0.2476626E+02  0.7546771E-02  0.1471435E+00
         21   -1    0    0  503  501  0.00000000000E+00  0.00000000000E+00  0.34612279917E+03  0.34612279917E+03  0.00000000000E+00 0.  1.
         21   -1    0    0  501  502 -0.00000000000E+00 -0.00000000000E+00 -0.35829206884E+03  0.35829206884E+03  0.00000000000E+00 0. -1.
         21    1    1    2  503  504  0.24083452534E+02  0.57753751619E+01  0.34525071182E+03  0.34613786510E+03  0.00000000000E+00 0.  1.
         21    1    1    2  504  502 -0.24083452534E+02 -0.57753751619E+01 -0.35741998149E+03  0.35827700290E+03  0.00000000000E+00 0. -1.
</event>
<event>
 4    1  0.2939002E+006  0.2290114E+02  0.7546771E-02  0.1493743E+00
         21   -1    0    0  503  501  0.00000000000E+00  0.00000000000E+00  0.20553514985E+03  0.20553514985E+03  0.00000000000E+00 0. -1.
         21   -1    0    0  504  502 -0.00000000000E+00 -0.00000000000E+00 -0.19172374866E+02  0.19172374866E+02  0.00000000000E+00 0.  1.
         21    1    1    2  503  502  0.22821176912E+02 -0.19120804641E+01 -0.11428831257E+02  0.25594537528E+02  0.00000000000E+00 0.  1.
         21    1    1    2  504  501 -0.22821176912E+02  0.19120804641E+01  0.19779160624E+03  0.19911298719E+03  0.00000000000E+00 0. -1.
</event>
<event>
 4    1  0.2939002E+006  0.2222132E+02  0.7546771E-02  0.1502515E+00
         21   -1    0    0  504  501  0.00000000000E+00  0.00000000000E+00  0.24777181571E+02  0.24777181571E+02  0.00000000000E+00 0.  1.
         21   -1    0    0  503  502 -0.00000000000E+00 -0.00000000000E+00 -0.20434173031E+02  0.20434173031E+02  0.00000000000E+00 0.  1.
         21    1    1    2  503  501 -0.60445761158E+01  0.21383409519E+02  0.57254685957E+01  0.22947071571E+02  0.00000000000E+00 0.  1.
         21    1    1    2  504  502  0.60445761158E+01 -0.21383409519E+02 -0.13824600552E+01  0.22264283031E+02  0.00000000000E+00 0.  1.
</event>
<event>
 4    1  0.2939002E+006  0.3739655E+02  0.7546771E-02  0.1364456E+00
         21   -1    0    0  502  501  0.00000000000E+00  0.00000000000E+00  0.83681672907E+03  0.83681672907E+03  0.00000000000E+00 0. -1.
         21   -1    0    0  503  502 -0.00000000000E+00 -0.00000000000E+00 -0.98763076580E+01  0.98763076580E+01  0.00000000000E+00 0. -1.
         21    1    1    2  503  504 -0.31289816393E+02  0.20480453791E+02  0.27600754606E+02  0.46479062515E+02  0.00000000000E+00 0. -1.
         21    1    1    2  504  501  0.31289816393E+02 -0.20480453791E+02  0.79933966681E+03  0.80021397422E+03  0.00000000000E+00 0. -1.
</event>
<event>
 4    1  0.2939002E+006  0.2315410E+02  0.7546771E-02  0.1490572E+00
         21   -1    0    0  502  501  0.00000000000E+00  0.00000000000E+00  0.57779913672E+02  0.57779913672E+02  0.00000000000E+00 0.  1.
         21   -1    0    0  504  502 -0.00000000000E+00 -0.00000000000E+00 -0.41113985173E+02  0.41113985173E+02  0.00000000000E+00 0.  1.
         21    1    1    2  503  501 -0.22140614795E+02  0.67753579901E+01  0.51844087077E+02  0.56779588447E+02  0.00000000000E+00 0.  1.
         21    1    1    2  504  503  0.22140614795E+02 -0.67753579901E+01 -0.35178158578E+02  0.42114310398E+02  0.00000000000E+00 0.  1.
</event>
<event>
 4    1  0.2939002E+006  0.2369712E+02  0.7546771E-02  0.1483925E+00
         21   -1    0    0  504  501  0.00000000000E+00  0.00000000000E+00  0.55978702889E+02  0.55978702889E+02  0.00000000000E+00 0.  1.
         21   -1    0    0  503  502 -0.00000000000E+00 -0.00000000000E+00 -0.51193847476E+02  0.51193847476E+02  0.00000000000E+00 0.  1.
         21    1    1    2  503  501  0.21712689849E+02 -0.94927700420E+01  0.50442544559E+02  0.55731534028E+02  0.00000000000E+00 0.  1.
         21    1    1    2  504  502 -0.21712689849E+02  0.94927700420E+01 -0.45657689146E+02  0.51441016336E+02  0.00000000000E+00 0.  1.
</event>
<event>
 4    1  0.2939002E+006  0.3101472E+02  0.7546771E-02  0.1410979E+00
         21   -1    0    0  504  501  0.00000000000E+00  0.00000000000E+00  0.19418522000E+03  0.19418522000E+03  0.00000000000E+00 0. -1.
         21   -1    0    0  503  502 -0.00000000000E+00 -0.00000000000E+00 -0.96375751585E+02  0.96375751585E+02  0.00000000000E+00 0. -1.
         21    1    1    2  503  501  0.29238415168E+02 -0.10345445425E+02 -0.92592889682E+02  0.97649149419E+02  0.00000000000E+00 0. -1.
         21    1    1    2  504  502 -0.29238415168E+02  0.10345445425E+02  0.19040235809E+03  0.19291182216E+03  0.00000000000E+00 0. -1.
</event>
<event>
 4    1  0.2939002E+006  0.2245832E+02  0.7546771E-02  0.1499414E+00
         21   -1    0    0  503  501  0.00000000000E+00  0.00000000000E+00  0.28925413550E+03  0.28925413550E+03  0.00000000000E+00 0.  1.
         21   -1    0    0  501  502 -0.00000000000E+00 -0.00000000000E+00 -0.55341628443E+02  0.55341628443E+02  0.00000000000E+00 0.  1.
         21    1    1    2  503  504 -0.21457900894E+02 -0.66283208885E+01  0.28651801594E+03  0.28739685038E+03  0.00000000000E+00 0.  1.
         21    1    1    2  504  502  0.21457900894E+02  0.66283208885E+01 -0.52605508881E+02  0.57198913567E+02  0.00000000000E+00 0.  1.
</event>
<event>
 4    1  0.2939002E+006  0.3028784E+02  0.7546771E-02  0.1417111E+00
         21   -1    0    0  503  501  0.00000000000E+00  0.00000000000E+00  0.10497418432E+02  0.10497418432E+02  0.00000000000E+00 0. -1.
         21   -1    0    0  501  502 -0.00000000000E+00 -0.00000000000E+00 -0.11434844469E+03  0.11434844469E+03  0.00000000000E+00 0. -1.
         21    1    1    2  503  504 -0.57364993163E+00  0.30282411860E+02 -0.21615326454E+02  0.37209889545E+02  0.00000000000E+00 0. -1.
         21    1    1    2  504  502  0.57364993163E+00 -0.30282411860E+02 -0.82235699803E+02  0.87635973575E+02  0.00000000000E+00 0. -1.
</event>
<event>
 4    1  0.2939002E+006  0.2671487E+02  0.7546771E-02  0.1450493E+00
         21   -1    0    0  504  501  0.00000000000E+00  0.00000000000E+00  0.47922632732E+02  0.47922632732E+02  0.00000000000E+00 0.  1.
         21   -1    0    0  503  502 -0.00000000000E+00 -0.00000000000E+00 -0.10179672362E+03  0.10179672362E+03  0.00000000000E+00 0.  1.
         21    1    1    2  503  501 -0.20833394586E+02 -0.16722862774E+02 -0.96104480614E+02  0.99748461960E+02  0.00000000000E+00 0.  1.
         21    1    1    2  504  502  0.20833394586E+02  0.16722862774E+02  0.42230389729E+02  0.49970894388E+02  0.00000000000E+00 0.  1.
</event>
<event>
 4    1  0.2939002E+006  0.2089826E+02  0.7546771E-02  0.1520722E+00
         21   -1    0    0  503  501  0.00000000000E+00  0.00000000000E+00  0.64988099034E+01  0.64988099034E+01  0.00000000000E+00 0. -1.
         21   -1    0    0  504  502 -0.00000000000E+00 -0.00000000000E+00 -0.20825588171E+03  0.20825588171E+03  0.00000000000E+00 0. -1.
         21    1    1    2  503  502 -0.14748248447E+02  0.14806301078E+02 -0.18924867017E+03  0.19039904555E+03  0.00000000000E+00 0. -1.
         21    1    1    2  504  501  0.14748248447E+02 -0.14806301078E+02 -0.12508401638E+02  0.24355646069E+02  0.00000000000E+00 0. -1.
</event>
<event>
 4    1  0.2939002E+006  0.2364336E+02  0.7546771E-02  0.1484574E+00
         21   -1    0    0  502  501  0.00000000000E+00  0.00000000000E+00  0.17197796266E+03  0.17197796266E+03  0.00000000000E+00 0. -1.
         21   -1    0    0  504  502 -0.00000000000E+00 -0.00000000000E+00 -0.20078194677E+02  0.20078194677E+02  0.00000000000E+00 0.  1.
         21    1    1    2  503  501  0.23643363629E+02  0.21952412334E-02  0.16386198312E+03  0.16555892655E+03  0.00000000000E+00 0. -1.
         21    1    1    2  504  503 -0.23643363629E+02 -0.21952412334E-02 -0.11962215136E+02  0.26497230788E+02  0.00000000000E+00 0.  1.
</event>
<event>
 4    1  0.2939002E+006  0.2071807E+02  0.7546771E-02  0.1523328E+00
         21   -1    0    0  503  501  0.00000000000E+00  0.00000000000E+00  0.71928574603E+02  0.71928574603E+02  0.00000000000E+00 0. -1.
         21   -1    0    0  501  502 -0.00000000000E+00 -0.00000000000E+00 -0.36502560481E+03  0.36502560481E+03  0.00000000000E+00 0. -1.
         21    1    1    2  503  504  0.20662565630E+02  0.15154535828E+01  0.70135346707E+02  0.73131423313E+02  0.00000000000E+00 0. -1.
         21    1    1    2  504  502 -0.20662565630E+02 -0.15154535828E+01 -0.36323237692E+03  0.36382275610E+03  0.00000000000E+00 0. -1.
</event>
<event>
 4    1  0.2939002E+006  0.2134106E+02  0.7546771E-02  0.1514451E+00
         21   -1    0    0  502  501  0.00000000000E+00  0.00000000000E+00  0.70554468867E+03  0.70554468867E+03  0.00000000000E+00 0.  1.
         21   -1    0    0  503  502 -0.00000000000E+00 -0.00000000000E+00 -0.11377861415E+01  0.11377861415E+01  0.00000000000E+00 0. -1.
         21    1    1    2  503  504 -0.94691463062E+01 -0.19125278547E+02  0.11978780490E+03  0.12167398742E+03  0.00000000000E+00 0. -1.
         21    1    1    2  504  501  0.94691463062E+01  0.19125278547E+02  0.58461909763E+03  0.58500848739E+03  0.00000000000E+00 0.  1.
</event>
<event>
 4    1  0.2939002E+006  0.3161146E+02  0.7546771E-02  0.1406091E+00
         21   -1    0    0  503  501  0.00000000000E+00  0.00000000000E+00  0.76892369643E+00  0.76892369643E+00  0.00000000000E+00 0.  1.
         21   -1    0    0  504  502 -0.00000000000E+00 -0.00000000000E+00 -0.13951330922E+04  0.13951330922E+04  0.00000000000E+00 0.  1.
         21    1    1    2  503  502  0.27352693246E+02 -0.15846595776E+02 -0.87983225341E+03  0.88039995376E+03  0.00000000000E+00 0.  1.
         21    1    1    2  504  501 -0.27352693246E+02  0.15846595776E+02 -0.51453191506E+03  0.51550206211E+03  0.00000000000E+00 0.  1.
</event>
<event>
 4    1  0.2939002E+006  0.3525251E+02  0.7546771E-02  0.1378797E+00
         21   -1    0    0  504  501  0.00000000000E+00  0.00000000000E+00  0.22484769367E+03  0.22484769367E+03  0.00000000000E+00 0.  1.
         21   -1    0    0  501  502 -0.00000000000E+00 -0.00000000000E+00 -0.31004412639E+02  0.31004412639E+02  0.00000000000E+00 0. -1.
         21    1    1    2  503  502 -0.21641429600E+02 -0.27827832456E+02 -0.19042752681E+02  0.40067020903E+02  0.00000000000E+00 0. -1.
         21    1    1    2  504  503  0.21641429600E+02  0.27827832456E+02  0.21288603371E+03  0.21578508541E+03  0.00000000000E+00 0.  1.
</event>
<event>
 4    1  0.2939002E+006  0.2440799E+02  0.7546771E-02  0.1475536E+00
         21   -1    0    0  503  501  0.00000000000E+00  0.00000000000E+00  0.64349926225E+02  0.64349926225E+02  0.00000000000E+00 0.  1.
         21   -1    0    0  504  502 -0.00000000000E+00 -0.00000000000E+00 -0.15296509998E+02  0.15296509998E+02  0.00000000000E+00 0. -1.
         21    1    1    2  503  502  0.23624428784E+02 -0.61348611946E+01  0.49547778554E+02  0.55233436584E+02  0.00000000000E+00 0.  1.
         21    1    1    2  504  501 -0.23624428784E+02  0.61348611946E+01 -0.49436232702E+00  0.24412999638E+02  0.00000000000E+00 0. -1.
</event>
<event>
 4    1  0.2939002E+006  0.2791471E+02  0.7546771E-02  0.1438630E+00
         21   -1    0    0  504  501  0.00000000000E+00  0.00000000000E+00  0.11770480459E+01  0.11770480459E+01  0.00000000000E+00 0. -1.
         21   -1    0    0  503  502 -0.00000000000E+00 -0.00000000000E+00 -0.69293911584E+03  0.69293911584E+03  0.00000000000E+00 0. -1.
         21    1    1    2  503  501  0.19328287216E+02  0.20140714448E+02 -0.27257193070E+03  0.27399760669E+03  0.00000000000E+00 0. -1.
         21    1    1    2  504  502 -0.19328287216E+02 -0.20140714448E+02 -0.41919013710E+03  0.42011855720E+03  0.00000000000E+00 0. -1.
</event>
<event>
 4    1  0.2939002E+006  0.2006961E+02  0.7546771E-02  0.1532974E+00
         21   -1    0    0  504  501  0.00000000000E+00  0.00000000000E+00  0.78913641413E+01  0.78913641413E+01  0.00000000000E+00 0.  1.
         21   -1    0    0  503  502 -0.00000000000E+00 -0.00000000000E+00 -0.68201357395E+03  0.68201357395E+03  0.00000000000E+00 0.  1.
         21    1    1    2  503  501 -0.10601642154E+02  0.17040962469E+02 -0.52677194586E+01  0.20749411715E+02  0.00000000000E+00 0.  1.
         21    1    1    2  504  502  0.10601642154E+02 -0.17040962469E+02 -0.66885449035E+03  0.66915552638E+03  0.00000000000E+00 0.  1.
</event>
<event>
 4    1  0.2939002E+006  0.2055289E+02  0.7546771E-02  0.1525745E+00
         21   -1    0    0  502  501  0.00000000000E+00  0.00000000000E+00  0.23612733702E+03  0.23612733702E+03  0.00000000000E+00 0.  1.
         21   -1    0    0  503  502 -0.00000000000E+00 -0.00000000000E+00 -0.94281483236E+01  0.94281483236E+01  0.00000000000E+00 0. -1.
         21    1    1    2  503  504  0.15074182483E+02  0.13971048733E+02  0.28323133421E+01  0.20747124598E+02  0.00000000000E+00 0. -1.
         21    1    1    2  504  501 -0.15074182483E+02 -0.13971048733E+02  0.22386687536E+03  0.22480836075E+03  0.00000000000E+00 0.  1.
</event>
<event>
 4    1  0.2939002E+006  0.3102607E+02  0.7546771E-02  0.1410884E+00
         21   -1    0    0  504  501  0.00000000000E+00  0.00000000000E+00  0.29156111066E+03  0.29156111066E+03  0.00000000000E+00 0. -1.
         21   -1    0    0  501  502 -0.00000000000E+00 -0.00000000000E+00 -0.44667619058E+02  0.44667619058E+02  0.00000000000E+00 0. -1.
         21    1    1    2  503  502 -0.15850820635E+02 -0.26671492947E+02 -0.38335293765E+02  0.49317459371E+02  0.00000000000E+00 0. -1.
         21    1    1    2  504  503  0.15850820635E+02  0.26671492947E+02  0.28522878536E+03  0.28691127034E+03  0.00000000000E+00 0. -1.
</event>
<event>
 4    1  0.2939002E+006  0.2724025E+02  0.7546771E-02  0.1445210E+00
         21   -1    0    0  502  501  0.00000000000E+00  0.00000000000E+00  0.61283331234E+02  0.61283331234E+02  0.00000000000E+00 0. -1.
         21   -1    0    0  503  502 -0.00000000000E+00 -0.00000000000E+00 -0.21100393974E+03  0.21100393974E+03  0.00000000000E+00 0.  1.
         21    1    1    2  503  504 -0.65364047192E+01 -0.26444411264E+02 -0.20704001294E+03  0.20882432433E+03  0.00000000000E+00 0.  1.
         21    1    1    2  504  501  0.65364047192E+01  0.26444411264E+02  0.57319404427E+02  0.63462946650E+02  0.00000000000E+00 0. -1.
</event>
<event>
 4    1  0.2939002E+006  0.2037352E+02  0.7546771E-02  0.1528400E+00
         21   -1    0    0  503  501  0.00000000000E+00  0.00000000000E+00  0.11268021924E+02  0.11268021924E+02  0.00000000000E+00 0. -1.
         21   -1    0    0  504  502 -0.00000000000E+00 -0.00000000000E+00 -0.87581579152E+02  0.87581579152E+02  0.00000000000E+00 0. -1.
         21    1    1    2  503  502  0.20112446104E+02  0.32511323119E+01 -0.53552341793E+00  0.20380557768E+02  0.00000000000E+00 0. -1.
         21    1    1    2  504  501 -0.20112446104E+02 -0.32511323119E+01 -0.75778033810E+02  0.78469043308E+02  0.00000000000E+00 0. -1.
</event>
<event>
 4    1  0.2939002E+006  0.2031431E+02  0.7546771E-02  0.1529284E+00
         21   -1    0    0  502  501  0.00000000000E+00  0.00000000000E+00  0.12370786501E+03  0.12370786501E+03  0.00000000000E+00 0. -1.
         21   -1    0    0  503  502 -0.00000000000E+00 -0.00000000000E+00 -0.14528271564E+03  0.14528271564E+03  0.00000000000E+00 0. -1.
         21    1    1    2  503  504  0.19977863298E+02  0.36818798934E+01 -0.14372966806E+03  0.14515815079E+03  0.00000000000E+00 0. -1.
         21    1    1    2  504  501 -0.19977863298E+02 -0.36818798934E+01  0.12215481743E+03  0.12383242985E+03  0.00000000000E+00 0. -1.
</event>
<event>
 4    1  0.2939002E+006  0.4130350E+02  0.7546771E-02  0.1341012E+00
         21   -1    0    0  504  501  0.00000000000E+00  0.00000000000E+00  0.12593769251E+03  0.12593769251E+03  0.00000000000E+00 0. -1.
         21   -1    0    0  503  502 -0.00000000000E+00 -0.00000000000E+00 -0.49989542960E+02  0.49989542960E+02  0.00000000000E+00 0.  1.
         21    1    1    2  503  501  0.38562599111E+02  0.14795441404E+02  0.11307970773E+03  0.12038687403E+03  0.00000000000E+00 0. -1.
         21    1    1    2  504  502 -0.38562599111E+02 -0.14795441404E+02 -0.37131558182E+02  0.55540361446E+02  0.00000000000E+00 0.  1.
</event>
<event>
 4    1  0.2939002E+006  0.2129415E+02  0.7546771E-02  0.1515106E+00
         21   -1    0    0  504  501  0.00000000000E+00  0.00000000000E+00  0.52456200573E+01  0.52456200573E+01  0.00000000000E+00 0. -1.
         21   -1    0    0  503  502 -0.00000000000E+00 -0.00000000000E+00 -0.51000610298E+03  0.51000610298E+03  0.00000000000E+00 0. -1.
         21    1    1    2  503  501  0.87392291730E+01  0.19418205384E+02 -0.48716043033E+03  0.48762559992E+03  0.00000000000E+00 0. -1.
         21    1    1    2  504  502 -0.87392291730E+01 -0.19418205384E+02 -0.17600052601E+02  0.27626123116E+02  0.00000000000E+00 0. -1.
</event>
<event>
 4    1  0.2939002E+006  0.2274089E+02  0.7546771E-02  0.1495778E+00
         21   -1    0    0  504  501  0.00000000000E+00  0.00000000000E+00  0.10968171955E+03  0.10968171955E+03  0.00000000000E+00 0.  1.
         21   -1    0    0  503  502 -0.00000000000E+00 -0.00000000000E+00 -0.16586999883E+03  0.16586999883E+03  0.00000000000E+00 0.  1.
         21    1    1    2  503  501  0.21528835654E+02  0.73251145642E+01  0.10770940732E+03  0.11008389752E+03  0.00000000000E+00 0.  1.
         21    1    1    2  504  502 -0.21528835654E+02 -0.73251145642E+01 -0.16389768660E+03  0.16546782087E+03  0.00000000000E+00 0.  1.
</event>
<event>
 4    1  0.2939002E+006  0.2473682E+02  0.7546771E-02  0.1471769E+00
         21   -1    0    0  503  501  0.00000000000E+00  0.00000000000E+00  0.42285331526E+03  0.42285331526E+03  0.00000000000E+00 0.  1.
         21   -1    0    0  504  502 -0.00000000000E+00 -0.00000000000E+00 -0.19611353165E+01  0.19611353165E+01  0.00000000000E+00 0.  1.
         21    1    1    2  503  502  0.81782673389E+01 -0.23345795830E+02  0.31919196109E+03  0.32014905632E+03  0.00000000000E+00 0.  1.
         21    1    1    2  504  501 -0.81782673389E+01  0.23345795830E+02  0.10170021886E+03  0.10466539426E+03  0.00000000000E+00 0.  1.
</event>
<event>
 4    1  0.2939002E+006  0.2708276E+02  0.7546771E-02  0.1446779E+00
         21   -1    0    0  503  501  0.00000000000E+00  0.00000000000E+00  0.53098173543E+02  0.53098173543E+02  0.00000000000E+00 0. -1.
         21   -1    0    0  504  502 -0.00000000000E+00 -0.00000000000E+00 -0.35407951611E+02  0.35407951611E+02  0.00000000000E+00 0. -1.
         21    1    1    2  503  502  0.17185915763E+02  0.20931321505E+02  0.43404273182E+02  0.51160598619E+02  0.00000000000E+00 0. -1.
         21    1    1    2  504  501 -0.17185915763E+02 -0.20931321505E+02 -0.25714051250E+02  0.37345526536E+02  0.00000000000E+00 0. -1.
</event>
<event>
 4    1  0.2939002E+006  0.2115419E+02  0.7546771E-02  0.1517075E+00
         21   -1    0    0  504  501  0.00000000000E+00  0.00000000000E+00  0.74818433171E+01  0.74818433171E+01  0.00000000000E+00 0.  1.
         21   -1    0    0  503  502 -0.00000000000E+00 -0.00000000000E+00 -0.68641285177E+02  0.68641285177E+02  0.00000000000E+00 0.  1.
         21    1    1    2  503  501 -0.20875681439E+02  0.34213741847E+01 -0.44230904158E+02  0.49029305110E+02  0.00000000000E+00 0.  1.
         21    1    1    2  504  502  0.20875681439E+02 -0.34213741847E+01 -0.16928537701E+02  0.27093823384E+02  0.00000000000E+00 0.  1.
</event>
<event>
 4    1  0.2939002E+006  0.2363292E+02  0.7546771E-02  0.1484700E+00
         21   -1    0    0  503  501  0.00000000000E+00  0.00000000000E+00  0.61170353686E+02  0.61170353686E+02  0.00000000000E+00 0. -1.
         21   -1    0    0  504  502 -0.00000000000E+00 -0.00000000000E+00 -0.19282628155E+03  0.19282628155E+03  0.00000000000E+00 0. -1.
         21    1    1    2  503  502  0.23628507907E+02 -0.45644382018E+00  0.58127155769E+02  0.62747756651E+02  0.00000000000E+00 0. -1.
         21    1    1    2  504  501 -0.23628507907E+02  0.45644382018E+00 -0.18978308364E+03  0.19124887859E+03  0.00000000000E+00 0. -1.
</event>
<event>
 4    1  0.2939002E+006  0.2113155E+02  0.7546771E-02  0.1517395E+00
         21   -1    0    0  503  501  0.00000000000E+00  0.00000000000E+00  0.48160188515E+01  0.48160188515E+01  0.00000000000E+00 0. -1.
         21   -1    0    0  504  502 -0.00000000000E+00 -0.00000000000E+00 -0.15231512459E+03  0.15231512459E+03  0.00000000000E+00 0. -1.
         21    1    1    2  503  502 -0.16069816597E+02  0.13722360936E+02 -0.24606127439E+02  0.32434606559E+02  0.00000000000E+00 0. -1.
         21    1    1    2  504  501  0.16069816597E+02 -0.13722360936E+02 -0.12289297830E+03  0.12469653688E+03  0.00000000000E+00 0. -1.
</event>
<event>
 4    1  0.2939002E+006  0.2162276E+02  0.7546771E-02  0.1510556E+00
         21   -1    0    0  502  501  0.00000000000E+00  0.00000000000E+00  0.27337917602E+03  0.27337917602E+03  0.00000000000E+00 0. -1.
         21   -1    0    0  504  502 -0.00000000000E+00 -0.00000000000E+00 -0.17227293112E+01  0.17227293112E+01  0.00000000000E+00 0. -1.
         21    1    1    2  503  501  0.20388794433E+02 -0.72000486505E+01  0.14754066417E+03  0.14911670337E+03  0.00000000000E+00 0. -1.
         21    1    1    2  504  503 -0.20388794433E+02  0.72000486505E+01  0.12411578254E+03  0.12598520197E+03  0.00000000000E+00 0. -1.
</event>
<event>
 4    1  0.2939002E+006  0.2371903E+02  0.7546771E-02  0.1483661E+00
         21   -1    0    0  503  501  0.00000000000E+00  0.00000000000E+00  0.47382125115E+02  0.47382125115E+02  0.00000000000E+00 0.  1.
         21   -1    0    0  504  502 -0.00000000000E+00 -0.00000000000E+00 -0.15048040267E+02  0.15048040267E+02  0.00000000000E+00 0.  1.
         21    1    1    2  503  502  0.23717719397E+02  0.24952360848E+00  0.30504223292E+02  0.38640653644E+02  0.00000000000E+00 0.  1.
         21    1    1    2  504  501 -0.23717719397E+02 -0.24952360848E+00  0.18298615562E+01  0.23789511738E+02  0.00000000000E+00 0.  1.
</event>
<event>
 4    1  0.2939002E+006  0.3635359E+02  0.7546771E-02  0.1371289E+00
         21   -1    0    0  503  501  0.00000000000E+00  0.00000000000E+00  0.62744643696E+01  0.62744643696E+01  0.00000000000E+00 0. -1.
         21   -1    0    0  504  502 -0.00000000000E+00 -0.00000000000E+00 -0.21177457268E+03  0.21177457268E+03  0.00000000000E+00 0. -1.
         21    1    1    2  503  502 -0.14962894142E+02  0.33131483519E+02 -0.11076907577E+03  0.11658203784E+03  0.00000000000E+00 0. -1.
         21    1    1    2  504  501  0.14962894142E+02 -0.33131483519E+02 -0.94731032538E+02  0.10146699920E+03  0.00000000000E+00 0. -1.
</event>
<event>
 4    1  0.2939002E+006  0.2610848E+02  0.7546771E-02  0.1456775E+00
         21   -1    0    0  503  501  0.00000000000E+00  0.00000000000E+00  0.35116823168E+02  0.35116823168E+02  0.00000000000E+00 0.  1.
         21   -1    0    0  504  502 -0.00000000000E+00 -0.00000000000E+00 -0.21631895398E+02  0.21631895398E+02  0.00000000000E+00 0.  1.
         21    1    1    2  503  502 -0.87091965123E+01 -0.24613063151E+02 -0.23491695675E+01  0.26213957718E+02  0.00000000000E+00 0.  1.
         21    1    1    2  504  501  0.87091965123E+01  0.24613063151E+02  0.15834097337E+02  0.30534760848E+02  0.00000000000E+00 0.  1.
</event>
<event>
 4    1  0.2939002E+006  0.5755355E+02  0.7546771E-02  0.1268379E+00
         21   -1    0    0  504  501  0.00000000000E+00  0.00000000000E+00  0.47673417446E+02  0.47673417446E+02  0.00000000000E+00 0.  1.
         21   -1    0    0  501  502 -0.00000000000E+00 -0.00000000000E+00 -0.11042013539E+03  0.11042013539E+03  0.00000000000E+00 0.  1.
         21    1    1    2  503  502 -0.54770464653E+02  0.17680697870E+02 -0.79504680281E+02  0.98149911167E+02  0.00000000000E+00 0.  1.
         21    1    1    2  504  503  0.54770464653E+02 -0.17680697870E+02  0.16757962333E+02  0.59943641673E+02  0.00000000000E+00 0.  1.
</event>
<event>
 4    1  0.2939002E+006  0.2458795E+02  0.7546771E-02  0.1473466E+00
         21   -1    0    0  503  501  0.00000000000E+00  0.00000000000E+00  0.16701149486E+03  0.16701149486E+03  0.00000000000E+00 0. -1.
         21   -1    0    0  504  502 -0.00000000000E+00 -0.00000000000E+00 -0.88017015738E+01  0.88017015738E+01  0.00000000000E+00 0. -1.
         21    1    1    2  503  502  0.23901738355E+02 -0.57683730317E+01  0.14655427684E+03  0.14860256822E+03  0.00000000000E+00 0. -1.
         21    1    1    2  504  501 -0.23901738355E+02  0.57683730317E+01  0.11655516450E+02  0.27210628210E+02  0.00000000000E+00 0. -1.
</event>
<event>
 4    1  0.2939002E+006  0.3023302E+02  0.7546771E-02  0.1417582E+00
         21   -1    0    0  504  501  0.00000000000E+00  0.00000000000E+00  0.19490935153E+02  0.19490935153E+02  0.00000000000E+00 0. -1.
         21   -1    0    0  503  502 -0.00000000000E+00 -0.00000000000E+00 -0.98630245968E+02  0.98630245968E+02  0.00000000000E+00 0.  1.
         21    1    1    2  503  501 -0.20592550727E+02 -0.22135547165E+02  0.32047737737E+01  0.30402403996E+02  0.00000000000E+00 0. -1.
         21    1    1    2  504  502  0.20592550727E+02  0.22135547165E+02 -0.82344084588E+02  0.87718777126E+02  0.00000000000E+00 0.  1.
</event>
<event>
 4    1  0.2939002E+006  0.2048711E+02  0.7546771E-02  0.1526715E+00
         21   -1    0    0  504  501  0.00000000000E+00  0.00000000000E+00  0.73412468187E+02  0.73412468187E+02  0.00000000000E+00 0.  1.
         21   -1    0    0  503  502 -0.00000000000E+00 -0.00000000000E+00 -0.82303434577E+01  0.82303434577E+01  0.00000000000E+00 0. -1.
         21    1    1    2  503  501  0.19259434564E+02  0.69854166297E+01  0.55147893141E+02  0.58830366165E+02  0.00000000000E+00 0.  1.
         21    1    1    2  504  502 -0.19259434564E+02 -0.69854166297E+01  0.10034231589E+02  0.22812445480E+02  0.00000000000E+00 0. -1.
</event>
<event>
 4    1  0.2939002E+006  0.4301781E+02  0.7546771E-02  0.1331655E+00
         21   -1    0    0  504  501  0.00000000000E+00  0.00000000000E+00  0.26819450557E+02  0.26819450557E+02  0.00000000000E+00 0.  1.
         21   -1    0    0  503  502 -0.00000000000E+00 -0.00000000000E+00 -0.29027834476E+03  0.29027834476E+03  0.00000000000E+00 0.  1.
         21    1    1    2  503  501 -0.22157233212E+02  0.36872604146E+02 -0.27015801851E+03  0.27356148648E+03  0.00000000000E+00 0.  1.
         21    1    1    2  504  502  0.22157233212E+02 -0.36872604146E+02  0.66991243112E+01  0.43536308832E+02  0.00000000000E+00 0.  1.
</event>
<event>
 4    1  0.2939002E+006  0.2190772E+02  0.7546771E-02  0.1506689E+00
         21   -1    0    0  503  501  0.00000000000E+00  0.00000000000E+00  0.88390176260E+02  0.88390176260E+02  0.00000000000E+00 0.  1.
         21   -1    0    0  501  502 -0.00000000000E+00 -0.00000000000E+00 -0.18030431263E+03  0.18030431263E+03  0.00000000000E+00 0.  1.
         21    1    1    2  503  504 -0.41567385218E+01 -0.21509754526E+02  0.86351772968E+02  0.89087466625E+02  0.00000000000E+00 0.  1.
         21    1    1    2  504  502  0.41567385218E+01  0.21509754526E+02 -0.17826590934E+03  0.17960702226E+03  0.00000000000E+00 0.  1.
</event>
<event>
 4    1  0.2939002E+006  0.2090041E+02  0.7546771E-02  0.1520691E+00
         21   -1    0    0  503  501  0.00000000000E+00  0.00000000000E+00  0.21178676125E+03  0.21178676125E+03  0.00000000000E+00 0.  1.
         21   -1    0    0  504  502 -0.00000000000E+00 -0.00000000000E+00 -0.10103932427E+03  0.10103932427E+03  0.00000000000E+00 0. -1.
         21    1    1    2  503  502  0.16830190116E+01  0.20832540685E+02 -0.99434612463E+02  0.10160742817E+03  0.00000000000E+00 0. -1.
         21    1    1    2  504  501 -0.16830190116E+01 -0.20832540685E+02  0.21018204944E+03  0.21121865735E+03  0.00000000000E+00 0.  1.
</event>
<event>
 4    1  0.2939002E+006  0.5474363E+02  0.7546771E-02  0.1278819E+00
         21   -1    0    0  504  501  0.00000000000E+00  0.00000000000E+00  0.51144683752E+01  0.51144683752E+01  0.00000000000E+00 0.  1.
         21   -1    0    0  503  502 -0.00000000000E+00 -0.00000000000E+00 -0.83945426148E+03  0.83945426148E+03  0.00000000000E+00 0. -1.
         21    1    1    2  503  501  0.18070638330E+02  0.51675111220E+02 -0.18511431278E+03  0.19303930658E+03  0.00000000000E+00 0.  1.
         21    1    1    2  504  502 -0.18070638330E+02 -0.51675111220E+02 -0.64922548032E+03  0.65152942327E+03  0.00000000000E+00 0. -1.
</event>
<event>
 4    1  0.2939002E+006  0.2616566E+02  0.7546771E-02  0.1456174E+00
         21   -1    0    0  504  501  0.00000000000E+00  0.00000000000E+00  0.10104672764E+03  0.10104672764E+03  0.00000000000E+00 0. -1.
         21   -1    0    0  501  502 -0.00000000000E+00 -0.00000000000E+00 -0.83258174147E+01  0.83258174147E+01  0.00000000000E+00 0. -1.
         21    1    1    2  503  502  0.23497924589E+02 -0.11510397282E+02  0.22762425328E+02  0.34680970464E+02  0.00000000000E+00 0. -1.
         21    1    1    2  504  503 -0.23497924589E+02  0.11510397282E+02  0.69958484895E+02  0.74691574588E+02  0.00000000000E+00 0. -1.
</event>
<event>
 4    1  0.2939002E+006  0.2419061E+02  0.7546771E-02  0.1478065E+00
         21   -1    0    0  503  501  0.00000000000E+00  0.00000000000E+00  0.18730599230E+03  0.18730599230E+03  0.00000000000E+00 0. -1.
         21   -1    0    0  501  502 -0.00000000000E+00 -0.00000000000E+00 -0.72954152990E+01  0.72954152990E+01  0.00000000000E+00 0. -1.
         21    1    1    2  503  504 -0.23412567551E+02 -0.60858144160E+01  0.16357874208E+03  0.16535776461E+03  0.00000000000E+00 0. -1.
         21    1    1    2  504  502  0.23412567551E+02  0.60858144160E+01  0.16431834923E+02  0.29243642991E+02  0.00000000000E+00 0. -1.
</event>
<event>
 4    1  0.2939002E+006  0.2000854E+02  0.7546771E-02  0.1533905E+00
         21   -1    0    0  504  501  0.00000000000E+00  0.00000000000E+00  0.19019263285E+02  0.19019263285E+02  0.00000000000E+00 0. -1.
         21   -1    0    0  503  502 -0.00000000000E+00 -0.00000000000E+00 -0.33931590471E+02  0.33931590471E+02  0.00000000000E+00 0. -1.
         21    1    1    2  503  501  0.19627370497E+02  0.38868882650E+01  0.88569906807E+01  0.21881221559E+02  0.00000000000E+00 0. -1.
         21    1    1    2  504  502 -0.19627370497E+02 -0.38868882650E+01 -0.23769317866E+02  0.31069632197E+02  0.00000000000E+00 0. -1.
</event>
<event>
 4    1  0.2939002E+006  0.8792179E+02  0.7546771E-02  0.1186562E+00
         21   -1    0    0  503  501  0.00000000000E+00  0.00000000000E+00  0.15982448668E+03  0.15982448668E+03  0.00000000000E+00 0. -1.
         21   -1    0    0  504  502 -0.00000000000E+00 -0.00000000000E+00 -0.77816963104E+02  0.77816963104E+02  0.00000000000E+00 0.  1.
         21    1    1    2  503  502  0.52867620385E+02 -0.70251370151E+02 -0.32092809292E+02  0.93595879725E+02  0.00000000000E+00 0.  1.
         21    1    1    2  504  501 -0.52867620385E+02  0.70251370151E+02  0.11410033287E+03  0.14404557006E+03  0.00000000000E+00 0. -1.
</event>
<event>
 4    1  0.2939002E+006  0.4593203E+02  0.7546771E-02  0.1316844E+00
         21   -1    0    0  503  501  0.00000000000E+00  0.00000000000E+00  0.52356146943E+02  0.52356146943E+02  0.00000000000E+00 0.  1.
         21   -1    0    0  501  502 -0.00000000000E+00 -0.00000000000E+00 -0.69377013985E+03  0.69377013985E+03  0.00000000000E+00 0. -1.
         21    1    1    2  503  504 -0.26515044601E+01  0.45855433411E+02  0.41359796990E+02  0.61809255426E+02  0.00000000000E+00 0.  1.
         21    1    1    2  504  502  0.26515044601E+01 -0.45855433411E+02 -0.68277378990E+03  0.68431703137E+03  0.00000000000E+00 0. -1.
</event>
<event>
 4    1  0.2939002E+006  0.3414831E+02  0.7546771E-02  0.1386652E+00
         21   -1    0    0  503  501  0.00000000000E+00  0.00000000000E+00  0.89227876083E+01  0.89227876083E+01  0.00000000000E+00 0. -1.
         21   -1    0    0  504  502 -0.00000000000E+00 -0.00000000000E+00 -0.11608551532E+04  0.11608551532E+04  0.00000000000E+00 0.  1.
         21    1    1    2  503  502  0.46144779033E+01  0.33835099365E+02 -0.24983283205E+02  0.42311603551E+02  0.00000000000E+00 0. -1.
         21    1    1    2  504  501 -0.46144779033E+01 -0.33835099365E+02 -0.11269490824E+04  0.11274663373E+04  0.00000000000E+00 0.  1.
</event>
<event>
 4    1  0.2939002E+006  0.2988059E+02  0.7546771E-02  0.1420637E+00
         21   -1    0    0  504  501  0.00000000000E+00  0.00000000000E+00  0.43411399514E+02  0.43411399514E+02  0.00000000000E+00 0.  1.
         21   -1    0    0  501  502 -0.00000000000E+00 -0.00000000000E+00 -0.66152386842E+02  0.66152386842E+02  0.00000000000E+00 0.  1.
         21    1    1    2  503  502 -0.59457903063E+01  0.29283048858E+02 -0.56845871758E+02  0.64220732701E+02  0.00000000000E+00 0.  1.
         21    1    1    2  504  503  0.59457903063E+01 -0.29283048858E+02  0.34104884430E+02  0.45343053655E+02  0.00000000000E+00 0.  1.
</event>
<event>
 4    1  0.2939002E+006  0.2877419E+02  0.7546771E-02  0.1430556E+00
         21   -1    0    0  503  501  0.00000000000E+00  0.00000000000E+00  0.69404485801E+02  0.69404485801E+02  0.00000000000E+00 0. -1.
         21   -1    0    0  501  502 -0.00000000000E+00 -0.00000000000E+00 -0.42413789196E+02  0.42413789196E+02  0.00000000000E+00 0. -1.
         21    1    1    2  503  504 -0.39287771071E+01 -0.28504712130E+02  0.60894219760E+02  0.67350277678E+02  0.00000000000E+00 0. -1.
         21    1    1    2  504  502  0.39287771071E+01  0.28504712130E+02 -0.33903523156E+02  0.44467997319E+02  0.00000000000E+00 0. -1.
</event>
<event>
 4    1  0.2939002E+006  0.2354244E+02  0.7546771E-02  0.1485797E+00
         21   -1    0    0  504  501  0.00000000000E+00  0.00000000000E+00  0.36074436761E+03  0.36074436761E+03  0.00000000000E+00 0. -1.
         21   -1    0    0  503  502 -0.00000000000E+00 -0.00000000000E+00 -0.24589593029E+02  0.24589593029E+02  0.00000000000E+00 0. -1.
         21    1    1    2  503  501  0.27187907448E+01  0.23384922558E+02 -0.18473446919E+02  0.29925151081E+02  0.00000000000E+00 0. -1.
         21    1    1    2  504  502 -0.27187907448E+01 -0.23384922558E+02  0.35462822150E+03  0.35540880956E+03  0.00000000000E+00 0. -1.
</event>
<event>
 4    1  0.2939002E+006  0.2054926E+02  0.7546771E-02  0.1525799E+00
         21   -1    0    0  503  501  0.00000000000E+00  0.00000000000E+00  0.56641784723E+02  0.56641784723E+02  0.00000000000E+00 0.  1.
         21   -1    0    0  504  502 -0.00000000000E+00 -0.00000000000E+00 -0.26510631801E+03  0.26510631801E+03  0.00000000000E+00 0.  1.
         21    1    1    2  503  502  0.19205756745E+02  0.73082723672E+01 -0.26282819507E+03  0.26363029428E+03  0.00000000000E+00 0.  1.
         21    1    1    2  504  501 -0.19205756745E+02 -0.73082723672E+01  0.54363661783E+02  0.58117808455E+02  0.00000000000E+00 0.  1.
</event>
<event>
 4    1  0.2939002E+006  0.5738594E+02  0.7546771E-02  0.1268983E+00
         21   -1    0    0  503  501  0.00000000000E+00  0.00000000000E+00  0.22676202478E+02  0.22676202478E+02  0.00000000000E+00 0. -1.
         21   -1    0    0  504  502 -0.00000000000E+00 -0.00000000000E+00 -0.23760777047E+03  0.23760777047E+03  0.00000000000E+00 0. -1.
         21    1    1    2  503  502 -0.15937897157E+01 -0.57363806768E+02 -0.18861477467E+03  0.19715141317E+03  0.00000000000E+00 0. -1.
         21    1    1    2  504  501  0.15937897157E+01  0.57363806768E+02 -0.26316793317E+02  0.63132559770E+02  0.00000000000E+00 0. -1.
</event>
<event>
 4    1  0.2939002E+006  0.2188471E+02  0.7546771E-02  0.1506999E+00
         21   -1    0    0  504  501  0.00000000000E+00  0.00000000000E+00  0.33643585020E+02  0.33643585020E+02  0.00000000000E+00 0.  1.
         21   -1    0    0  501  502 -0.00000000000E+00 -0.00000000000E+00 -0.40345125424E+02  0.40345125424E+02  0.00000000000E+00 0.  1.
         21    1    1    2  503  502 -0.17747364767E+02 -0.12805133489E+02 -0.33111150851E+02  0.39689906910E+02  0.00000000000E+00 0.  1.
         21    1    1    2  504  503  0.17747364767E+02  0.12805133489E+02  0.26409610448E+02  0.34298803534E+02  0.00000000000E+00 0.  1.
</event>
<event>
 4    1  0.2939002E+006  0.2286673E+02  0.7546771E-02  0.1494178E+00
         21   -1    0    0  503  501  0.00000000000E+00  0.00000000000E+00  0.27125330589E+03  0.27125330589E+03  0.00000000000E+00 0. -1.
         21   -1    0    0  501  502 -0.00000000000E+00 -0.00000000000E+00 -0.46148708436E+01  0.46148708436E+01  0.00000000000E+00 0.  1.
         21    1    1    2  503  504 -0.21268295552E+01  0.22767609363E+02  0.23857397242E+03  0.23966732726E+03  0.00000000000E+00 0. -1.
         21    1    1    2  504  502  0.21268295552E+01 -0.22767609363E+02  0.28064462627E+02  0.36200849473E+02  0.00000000000E+00 0.  1.
</event>
<event>
 4    1  0.2939002E+006  0.3514210E+02  0.7546771E-02  0.1379567E+00
         21   -1    0    0  502  501  0.00000000000E+00  0.00000000000E+00  0.32545909190E+01  0.32545909190E+01  0.00000000000E+00 0.  1.
         21   -1    0    0  503  502 -0.00000000000E+00 -0.00000000000E+00 -0.47746658453E+03  0.47746658453E+03  0.00000000000E+00 0.  1.
         21    1    1    2  503  504  0.29026824555E+02 -0.19809354826E+02 -0.34600728067E+03  0.34778729902E+03  0.00000000000E+00 0.  1.
         21    1    1    2  504  501 -0.29026824555E+02  0.19809354826E+02 -0.12820471294E+03  0.13293387643E+03  0.00000000000E+00 0.  1.
</event>
<event>
 4    1  0.2939002E+006  0.2121173E+02  0.7546771E-02  0.1516263E+00
         21   -1    0    0  503  501  0.00000000000E+00  0.00000000000E+00  0.11928221867E+02  0.11928221867E+02  0.00000000000E+00 0. -1.
         21   -1    0    0  504  502 -0.00000000000E+00 -0.00000000000E+00 -0.38204302417E+02  0.38204302417E+02  0.00000000000E+00 0. -1.
         21    1    1    2  503  502  0.12948769950E+02  0.16800801668E+02 -0.15959031981E+02  0.26544835311E+02  0.00000000000E+00 0. -1.
         21    1    1    2  504  501 -0.12948769950E+02 -0.16800801668E+02 -0.10317048569E+02  0.23587688973E+02  0.00000000000E+00 0. -1.
</event>
<event>
 4    1  0.2939002E+006  0.3642664E+02  0.7546771E-02  0.1370802E+00
         21   -1    0    0  504  501  0.00000000000E+00  0.00000000000E+00  0.36769557877E+02  0.36769557877E+02  0.00000000000E+00 0.  1.
         21   -1    0    0  503  502 -0.00000000000E+00 -0.00000000000E+00 -0.42147663720E+02  0.42147663720E+02  0.00000000000E+00 0. -1.
         21    1    1    2  503  501 -0.23969535545E+02 -0.27429212359E+02 -0.17652021801E+02  0.40478317635E+02  0.00000000000E+00 0. -1.
         21    1    1    2  504  502  0.23969535545E+02  0.27429212359E+02  0.12273915958E+02  0.38438903963E+02  0.00000000000E+00 0.  1.
</event>
<event>
 4    1  0.2939002E+006  0.2336907E+02  0.7546771E-02  0.1487915E+00
         21   -1    0    0  504  501  0.00000000000E+00  0.00000000000E+00  0.30140528269E+03  0.30140528269E+03  0.00000000000E+00 0.  1.
         21   -1    0    0  503  502 -0.00000000000E+00 -0.00000000000E+00 -0.88498024270E+02  0.88498024270E+02  0.00000000000E+00 0.  1.
         21    1    1    2  503  501  0.86716553594E+01 -0.21700599032E+02 -0.86492002383E+02  0.89593415390E+02  0.00000000000E+00 0.  1.
         21    1    1    2  504  502 -0.86716553594E+01  0.21700599032E+02  0.29939926081E+03  0.30030989157E+03  0.00000000000E+00 0.  1.
</event>
<event>
 4    1  0.2939002E+006  0.2198385E+02  0.7546771E-02  0.1505668E+00
         21   -1    0    0  503  501  0.00000000000E+00  0.00000000000E+00  0.11010725981E+03  0.11010725981E+03  0.00000000000E+00 0.  1.
         21   -1    0    0  504  502 -0.00000000000E+00 -0.00000000000E+00 -0.81952290451E+01  0.81952290451E+01  0.00000000000E+00 0.  1.
         21    1    1    2  503  502  0.31875821923E+00  0.21981542193E+02  0.10645741423E+02  0.24425839074E+02  0.00000000000E+00 0.  1.
         21    1    1    2  504  501 -0.31875821923E+00 -0.21981542193E+02  0.91266289340E+02  0.93876649780E+02  0.00000000000E+00 0.  1.
</event>
<event>
 4    1  0.2939002E+006  0.4321766E+02  0.7546771E-02  0.1330596E+00
         21   -1    0    0  504  501  0.00000000000E+00  0.00000000000E+00  0.10393092526E+02  0.10393092526E+02  0.00000000000E+00 0. -1.
         21   -1    0    0  503  502 -0.00000000000E+00 -0.00000000000E+00 -0.27993929019E+03  0.27993929019E+03  0.00000000000E+00 0. -1.
         21    1    1    2  503  501 -0.21752501549E+02  0.37344268721E+02 -0.47911849432E+02  0.64523724675E+02  0.00000000000E+00 0. -1.
         21    1    1    2  504  502  0.21752501549E+02 -0.37344268721E+02 -0.22163434823E+03  0.22580865804E+03  0.00000000000E+00 0. -1.
</event>
<event>
 4    1  0.2939002E+006  0.2382900E+02  0.7546771E-02  0.1482343E+00
         21   -1    0    0  504  501  0.00000000000E+00  0.00000000000E+00  0.69486595879E+02  0.69486595879E+02  0.00000000000E+00 0.  1.
         21   -1    0    0  503  502 -0.00000000000E+00 -0.00000000000E+00 -0.91172784617E+01  0.91172784617E+01  0.00000000000E+00 0.  1.
         21    1    1    2  503  501 -0.23373975301E+02  0.46344768184E+01  0.42841882453E+02  0.49022933295E+02  0.00000000000E+00 0.  1.
         21    1    1    2  504  502  0.23373975301E+02 -0.46344768184E+01  0.17527434965E+02  0.29580941046E+02  0.00000000000E+00 0.  1.
</event>
<event>
 4    1  0.2939002E+006  0.4225695E+02  0.7546771E-02  0.1335745E+00
         21   -1    0    0  504  501  0.00000000000E+00  0.00000000000E+00  0.31774824390E+03  0.31774824390E+03  0.00000000000E+00 0. -1.
         21   -1    0    0  501  502 -0.00000000000E+00 -0.00000000000E+00 -0.13022935121E+03  0.13022935121E+03  0.00000000000E+00 0.  1.
         21    1    1    2  503  502 -0.42256346187E+02 -0.22680539295E+00 -0.12534323767E+03  0.13227462895E+03  0.00000000000E+00 0.  1.
         21    1    1    2  504  503  0.42256346187E+02  0.22680539295E+00  0.31286213036E+03  0.31570296617E+03  0.00000000000E+00 0. -1.
</event>
<event>
 4    1  0.2939002E+006  0.3182720E+02  0.7546771E-02  0.1404356E+00
         21   -1    0    0  503  501  0.00000000000E+00  0.00000000000E+00  0.15701833360E+03  0.15701833360E+03  0.00000000000E+00 0.  1.
         21   -1    0    0  504  502 -0.00000000000E+00 -0.00000000000E+00 -0.30073118155E+02  0.30073118155E+02  0.00000000000E+00 0.  1.
         21    1    1    2  503  502  0.22197588624E+02 -0.22808713375E+02  0.14637966466E+03  0.14979978830E+03  0.00000000000E+00 0.  1.
         21    1    1    2  504  501 -0.22197588624E+02  0.22808713375E+02 -0.19434449224E+02  0.37291663454E+02  0.00000000000E+00 0.  1.
</event>
<event>
 4    1  0.2939002E+006  0.2019642E+02  0.7546771E-02  0.1531054E+00
         21   -1    0    0  503  501  0.00000000000E+00  0.00000000000E+00  0.90632803675E+02  0.90632803675E+02  0.00000000000E+00 0.  1.
         21   -1    0    0  504  502 -0.00000000000E+00 -0.00000000000E+00 -0.45702054849E+01  0.45702054849E+01  0.00000000000E+00 0.  1.
         21    1    1    2  503  502 -0.19449546036E+02 -0.54415595071E+01  0.37153684513E+02  0.42288197925E+02  0.00000000000E+00 0.  1.
         21    1    1    2  504  501  0.19449546036E+02  0.54415595071E+01  0.48908913678E+02  0.52914811235E+02  0.00000000000E+00 0.  1.
</event>
<event>
 4    1  0.2939002E+006  0.3268073E+02  0.7546771E-02  0.1397645E+00
         21   -1    0    0  503  501  0.00000000000E+00  0.00000000000E+00  0.11963507776E+02  0.11963507776E+02  0.00000000000E+00 0.  1.
         21   -1    0    0  504  502 -0.00000000000E+00 -0.00000000000E+00 -0.89279231191E+02  0.89279231191E+02  0.00000000000E+00 0.  1.
         21    1    1    2  503  502  0.21028406088E+02 -0.25016718894E+02 -0.39045679526E+02  0.50917533095E+02  0.00000000000E+00 0.  1.
         21    1    1    2  504  501 -0.21028406088E+02  0.25016718894E+02 -0.38270043889E+02  0.50325205872E+02  0.00000000000E+00 0.  1.
</event>
<event>
 4    1  0.2939002E+006  0.2529046E+02  0.7546771E-02  0.1465580E+00
         21   -1    0    0  504  501  0.00000000000E+00  0.00000000000E+00  0.99023032972E+01  0.99023032972E+01  0.00000000000E+00 0. -1.
         21   -1    0    0  503  502 -0.00000000000E+00 -0.00000000000E+00 -0.15937826670E+03  0.15937826670E+03  0.00000000000E+00 0.  1.
         21    1    1    2  503  501  0.23364747802E+02  0.96796661733E+01 -0.94646493675E+01  0.27003462088E+02  0.00000000000E+00 0. -1.
         21    1    1    2  504  502 -0.23364747802E+02 -0.96796661733E+01 -0.14001131403E+03  0.14227710791E+03  0.00000000000E+00 0.  1.
</event>
<event>
 4    1  0.2939002E+006  0.2701393E+02  0.7546771E-02  0.1447468E+00
         21   -1    0    0  502  501  0.00000000000E+00  0.00000000000E+00  0.61925190490E+01  0.61925190490E+01  0.00000000000E+00 0. -1.
         21   -1    0    0  504  502 -0.00000000000E+00 -0.00000000000E+00 -0.14199811066E+03  0.14199811066E+03  0.00000000000E+00 0. -1.
         21    1    1    2  503  501 -0.25007019622E+02 -0.10217691220E+02 -0.37343489174E+02  0.46090003557E+02  0.00000000000E+00 0. -1.
         21    1    1    2  504  503  0.25007019622E+02  0.10217691220E+02 -0.98462102432E+02  0.10210062615E+03  0.00000000000E+00 0. -1.
</event>
<event>
 4    1  0.2939002E+006  0.4960289E+02  0.7546771E-02  0.1299903E+00
         21   -1    0    0  503  501  0.00000000000E+00  0.00000000000E+00  0.17114047304E+03  0.17114047304E+03  0.00000000000E+00 0. -1.
         21   -1    0    0  501  502 -0.00000000000E+00 -0.00000000000E+00 -0.16297611643E+02  0.16297611643E+02  0.00000000000E+00 0. -1.
         21    1    1    2  503  504 -0.27441346317E+02  0.41320923766E+02  0.10959596688E+03  0.12029847125E+03  0.00000000000E+00 0. -1.
         21    1    1    2  504  502  0.27441346317E+02 -0.41320923766E+02  0.45246894518E+02  0.67139613434E+02  0.00000000000E+00 0. -1.
</event>
<event>
 4    1  0.2939002E+006  0.2974033E+02  0.7546771E-02  0.1421867E+00
         21   -1    0    0  503  501  0.00000000000E+00  0.00000000000E+00  0.21548876808E+03  0.21548876808E+03  0.00000000000E+00 0. -1.
         21   -1    0    0  501  502 -0.00000000000E+00 -0.00000000000E+00 -0.38495480068E+02  0.38495480068E+02  0.00000000000E+00 0. -1.
         21    1    1    2  503  504 -0.23322902005E+02 -0.18453444259E+02  0.20852774554E+03  0.21063785990E+03  0.00000000000E+00 0. -1.
         21    1    1    2  504  502  0.23322902005E+02  0.18453444259E+02 -0.31534457526E+02  0.43346388251E+02  0.00000000000E+00 0. -1.
</event>
<event>
 4    1  0.2939002E+006  0.2192810E+02  0.7546771E-02  0.1506415E+00
         21   -1    0    0  503  501  0.00000000000E+00  0.00000000000E+00  0.47551909421E+03  0.47551909421E+03  0.00000000000E+00 0.  1.
         21   -1    0    0  504  502 -0.00000000000E+00 -0.00000000000E+00 -0.10666339873E+01  0.10666339873E+01  0.00000000000E+00 0.  1.
         21    1    1    2  503  502  0.21282244651E+02  0.52827881930E+01  0.29155340032E+03  0.29237685788E+03  0.00000000000E+00 0.  1.
         21    1    1    2  504  501 -0.21282244651E+02 -0.52827881930E+01  0.18289905990E+03  0.18420887031E+03  0.00000000000E+00 0.  1.
</event>
<event>
 4    1  0.2939002E+006  0.2298413E+02  0.7546771E-02  0.1492698E+00
         21   -1    0    0  504  501  0.00000000000E+00  0.00000000000E+00  0.11816713945E+03  0.11816713945E+03  0.00000000000E+00 0. -1.
         21   -1    0    0  503  502 -0.00000000000E+00 -0.00000000000E+00 -0.10510335546E+02  0.10510335546E+02  0.00000000000E+00 0. -1.
         21    1    1    2  503  501  0.33793672190E+01 -0.22734339134E+02  0.10260096208E+03  0.10514384299E+03  0.00000000000E+00 0. -1.
         21    1    1    2  504  502 -0.33793672190E+01  0.22734339134E+02  0.50558418172E+01  0.23533632000E+02  0.00000000000E+00 0. -1.
</event>
<event>
 4    1  0.2939002E+006  0.2076544E+02  0.7546771E-02  0.1522640E+00
         21   -1    0    0  504  501  0.00000000000E+00  0.00000000000E+00  0.65580316056E+02  0.65580316056E+02  0.00000000000E+00 0.  1.
         21   -1    0    0  503  502 -0.00000000000E+00 -0.00000000000E+00 -0.11934786444E+02  0.11934786444E+02  0.00000000000E+00 0. -1.
         21    1    1    2  503  501  0.19707459546E+02  0.65436683776E+01  0.52795323009E+02  0.56732263213E+02  0.00000000000E+00 0.  1.
         21    1    1    2  504  502 -0.19707459546E+02 -0.65436683776E+01  0.85020660347E+00  0.20782839288E+02  0.00000000000E+00 0. -1.
</event>
<event>
 4    1  0.2939002E+006  0.2463870E+02  0.7546771E-02  0.1472886E+00
         21   -1    0    0  503  501  0.00000000000E+00  0.00000000000E+00  0.19816922334E+01  0.19816922334E+01  0.00000000000E+00 0.  1.
         21   -1    0    0  504  502 -0.00000000000E+00 -0.00000000000E+00 -0.13925709991E+04  0.13925709991E+04  0.00000000000E+00 0. -1.
         21    1    1    2  503  502 -0.10229436113E+02  0.22414824325E+02 -0.79468754742E+02  0.83200653200E+02  0.00000000000E+00 0.  1.
         21    1    1    2  504  501  0.10229436113E+02 -0.22414824325E+02 -0.13111205521E+04  0.13113520381E+04  0.00000000000E+00 0. -1.
</event>
<event>
 4    1  0.2939002E+006  0.2333490E+02  0.7546771E-02  0.1488335E+00
         21   -1    0    0  504  501  0.00000000000E+00  0.00000000000E+00  0.11254764216E+03  0.11254764216E+03  0.00000000000E+00 0. -1.
         21   -1    0    0  501  502 -0.00000000000E+00 -0.00000000000E+00 -0.74299923771E+01  0.74299923771E+01  0.00000000000E+00 0.  1.
         21    1    1    2  503  502  0.14614302987E+01 -0.23289090975E+02  0.17127775939E+02  0.28946126607E+02  0.00000000000E+00 0.  1.
         21    1    1    2  504  503 -0.14614302987E+01  0.23289090975E+02  0.87989873846E+02  0.91031507932E+02  0.00000000000E+00 0. -1.
</event>
<event>
 4    1  0.2939002E+006  0.2103576E+02  0.7546771E-02  0.1518755E+00
         21   -1    0    0  503  501  0.00000000000E+00  0.00000000000E+00  0.11316953364E+02  0.11316953364E+02  0.00000000000E+00 0. -1.
         21   -1    0    0  501  502 -0.00000000000E+00 -0.00000000000E+00 -0.17103394036E+03  0.17103394036E+03  0.00000000000E+00 0. -1.
         21    1    1    2  503  504  0.53517470918E+01  0.20343599214E+02  0.21956062907E+00  0.21036906445E+02  0.00000000000E+00 0. -1.
         21    1    1    2  504  502 -0.53517470918E+01 -0.20343599214E+02 -0.15993654763E+03  0.16131398728E+03  0.00000000000E+00 0. -1.
</event>
<event>
 4    1  0.2939002E+006  0.2655553E+02  0.7546771E-02  0.1452125E+00
         21   -1    0    0  503  501  0.00000000000E+00  0.00000000000E+00  0.21359823016E+03  0.21359823016E+03  0.00000000000E+00 0. -1.
         21   -1    0    0  504  502 -0.00000000000E+00 -0.00000000000E+00 -0.56659914445E+02  0.56659914445E+02  0.00000000000E+00 0.  1.
         21    1    1    2  503  502 -0.25137166279E+02 -0.85626621227E+01  0.20960223808E+03  0.21127776627E+03  0.00000000000E+00 0. -1.
         21    1    1    2  504  501  0.25137166279E+02  0.85626621227E+01 -0.52663922359E+02  0.58980378342E+02  0.00000000000E+00 0.  1.
</event>
<event>
 4    1  0.2939002E+006  0.2242747E+02  0.7546771E-02  0.1499815E+00
         21   -1    0    0  503  501  0.00000000000E+00  0.00000000000E+00  0.20852123077E+01  0.20852123077E+01  0.00000000000E+00 0. -1.
         21   -1    0    0  504  502 -0.00000000000E+00 -0.00000000000E+00 -0.25073319747E+03  0.25073319747E+03  0.00000000000E+00 0. -1.
         21    1    1    2  503  502  0.53132751785E+01 -0.21788999068E+02 -0.99699075511E+02  0.10219049384E+03  0.00000000000E+00 0. -1.
         21    1    1    2  504  501 -0.53132751785E+01  0.21788999068E+02 -0.14894890965E+03  0.15062791594E+03  0.00000000000E+00 0. -1.
</event>
<event>
 4    1  0.2939002E+006  0.2125758E+02  0.7546771E-02  0.1515619E+00
         21   -1    0    0  503  501  0.00000000000E+00  0.00000000000E+00  0.42547302851E+03  0.42547302851E+03  0.00000000000E+00 0.  1.
         21   -1    0    0  504  502 -0.00000000000E+00 -0.00000000000E+00 -0.65292292364E+01  0.65292292364E+01  0.00000000000E+00 0.  1.
         21    1    1    2  503  502  0.20030751883E+02 -0.71171276989E+01  0.11817857069E+02  0.24321724309E+02  0.00000000000E+00 0.  1.
         21    1    1    2  504  501 -0.20030751883E+02  0.71171276989E+01  0.40712594221E+03  0.40768053344E+03  0.00000000000E+00 0.  1.
</event>
<event>
 4    1  0.2939002E+006  0.2362538E+02  0.7546771E-02  0.1484791E+00
         21   -1    0    0  503  501  0.00000000000E+00  0.00000000000E+00  0.31048506038E+01  0.31048506038E+01  0.00000000000E+00 0.  1.
         21   -1    0    0  504  502 -0.00000000000E+00 -0.00000000000E+00 -0.24566836167E+03  0.24566836167E+03  0.00000000000E+00 0.  1.
         21    1    1    2  503  502  0.88700341788E+01  0.21897056006E+02 -0.56859375811E+02  0.61572292353E+02  0.00000000000E+00 0.  1.
         21    1    1    2  504  501 -0.88700341788E+01 -0.21897056006E+02 -0.18570413526E+03  0.18720091993E+03  0.00000000000E+00 0.  1.
</event>
<event>
 4    1  0.2939002E+006  0.2207401E+02  0.7546771E-02  0.1504465E+00
         21   -1    0    0  504  501  0.00000000000E+00  0.00000000000E+00  0.16514278236E+01  0.16514278236E+01  0.00000000000E+00 0. -1.
         21   -1    0    0  503  502 -0.00000000000E+00 -0.00000000000E+00 -0.30030094980E+03  0.30030094980E+03  0.00000000000E+00 0. -1.
         21    1    1    2  503  501 -0.92589800312E+01  0.20038295402E+02 -0.16927937075E+03  0.17071252840E+03  0.00000000000E+00 0. -1.
         21    1    1    2  504  502  0.92589800312E+01 -0.20038295402E+02 -0.12937015123E+03  0.13123984922E+03  0.00000000000E+00 0. -1.
</event>
<event>
 4    1  0.2939002E+006  0.2843082E+02  0.7546771E-02  0.1433742E+00
         21   -1    0    0  504  501  0.00000000000E+00  0.00000000000E+00  0.26110228435E+01  0.26110228435E+01  0.00000000000E+00 0. -1.
         21   -1    0    0  503  502 -0.00000000000E+00 -0.00000000000E+00 -0.79881535081E+03  0.79881535081E+03  0.00000000000E+00 0. -1.
         21    1    1    2  503  501  0.24582816871E+02  0.14282729446E+02 -0.71169845225E+03  0.71226610068E+03  0.00000000000E+00 0. -1.
         21    1    1    2  504  502 -0.24582816871E+02 -0.14282729446E+02 -0.84505875719E+02  0.89160272973E+02  0.00000000000E+00 0. -1.
</event>
<event>
 4    1  0.2939002E+006  0.2239183E+02  0.7546771E-02  0.1500279E+00
         21   -1    0    0  503  501  0.00000000000E+00  0.00000000000E+00  0.28152425521E+01  0.28152425521E+01  0.00000000000E+00 0. -1.
         21   -1    0    0  501  502 -0.00000000000E+00 -0.00000000000E+00 -0.45751362699E+03  0.45751362699E+03  0.00000000000E+00 0.  1.
         21    1    1    2  503  504 -0.22108293240E+02 -0.35521048161E+01 -0.47478600889E+02  0.52493919848E+02  0.00000000000E+00 0. -1.
         21    1    1    2  504  502  0.22108293240E+02  0.35521048161E+01 -0.40721978354E+03  0.40783494969E+03  0.00000000000E+00 0.  1.
</event>
<event>
 4    1  0.2939002E+006  0.2274144E+02  0.7546771E-02  0.1495771E+00
         21   -1    0    0  504  501  0.00000000000E+00  0.00000000000E+00  0.11297998299E+02  0.11297998299E+02  0.00000000000E+00 0.  1.
         21   -1    0    0  503  502 -0.00000000000E+00 -0.00000000000E+00 -0.14573071544E+03  0.14573071544E+03  0.00000000000E+00 0.  1.
         21    1    1    2  503  501  0.94536910046E+01 -0.20683343563E+02 -0.21920145806E+01  0.22846835722E+02  0.00000000000E+00 0.  1.
         21    1    1    2  504  502 -0.94536910046E+01  0.20683343563E+02 -0.13224070256E+03  0.13418187801E+03  0.00000000000E+00 0.  1.
</event>
<event>
 4    1  0.2939002E+006  0.3368875E+02  0.7546771E-02  0.1390024E+00
         21   -1    0    0  502  501  0.00000000000E+00  0.00000000000E+00  0.10523617667E+04  0.10523617667E+04  0.00000000000E+00 0. -1.
         21   -1    0    0  504  502 -0.00000000000E+00 -0.00000000000E+00 -0.11910769421E+02  0.11910769421E+02  0.00000000000E+00 0. -1.
         21    1    1    2  503  501  0.33468939818E+02  0.38421555439E+01  0.10276990832E+04  0.10282511063E+04  0.00000000000E+00 0. -1.
         21    1    1    2  504  503 -0.33468939818E+02 -0.38421555439E+01  0.12751914109E+02  0.36021429805E+02  0.00000000000E+00 0. -1.
</event>
<event>
 4    1  0.2939002E+006  0.2661779E+02  0.7546771E-02  0.1451486E+00
         21   -1    0    0  504  501  0.00000000000E+00  0.00000000000E+00  0.42482446997E+02  0.42482446997E+02  0.00000000000E+00 0. -1.
         21   -1    0    0  503  502 -0.00000000000E+00 -0.00000000000E+00 -0.42403541387E+02  0.42403541387E+02  0.00000000000E+00 0.  1.
         21    1    1    2  503  501 -0.39330914880E+01 -0.26325601807E+02  0.33098500351E+02  0.42473724167E+02  0.00000000000E+00 0. -1.
         21    1    1    2  504  502  0.39330914880E+01  0.26325601807E+02 -0.33019594741E+02  0.42412264217E+02  0.00000000000E+00 0.  1.
</event>
<event>
 4    1  0.2939002E+006  0.2069775E+02  0.7546771E-02  0.1523624E+00
         21   -1    0    0  504  501  0.00000000000E+00  0.00000000000E+00  0.53822421667E+02  0.53822421667E+02  0.00000000000E+00 0. -1.
         21   -1    0    0  503  502 -0.00000000000E+00 -0.00000000000E+00 -0.98128324521E+01  0.98128324521E+01  0.00000000000E+00 0. -1.
         21    1    1    2  503  501  0.17204190497E+02  0.11507069850E+02  0.35832598792E+02  0.41380816369E+02  0.00000000000E+00 0. -1.
         21    1    1    2  504  502 -0.17204190497E+02 -0.11507069850E+02  0.81769904236E+01  0.22254437750E+02  0.00000000000E+00 0. -1.
</event>
<event>
 4    1  0.2939002E+006  0.2709583E+02  0.7546771E-02  0.1446648E+00
         21   -1    0    0  502  501  0.00000000000E+00  0.00000000000E+00  0.10427296911E+02  0.10427296911E+02  0.00000000000E+00 0.  1.
         21   -1    0    0  503  502 -0.00000000000E+00 -0.00000000000E+00 -0.24851879145E+03  0.24851879145E+03  0.00000000000E+00 0.  1.
         21    1    1    2  503  504 -0.14901414257E+02  0.22630325208E+02 -0.22865385484E+03  0.23025370594E+03  0.00000000000E+00 0.  1.
         21    1    1    2  504  501  0.14901414257E+02 -0.22630325208E+02 -0.94376396992E+01  0.28692382421E+02  0.00000000000E+00 0.  1.
</event>
<event>
 4    1  0.2939002E+006  0.2189507E+02  0.7546771E-02  0.1506859E+00
         21   -1    0    0  504  501  0.00000000000E+00  0.00000000000E+00  0.44817445820E+01  0.44817445820E+01  0.00000000000E+00 0.  1.
         21   -1    0    0  503  502 -0.00000000000E+00 -0.00000000000E+00 -0.43499035167E+03  0.43499035167E+03  0.00000000000E+00 0.  1.
         21    1    1    2  503  501  0.12135676871E+02 -0.18224141836E+02 -0.24438393209E+02  0.32812026171E+02  0.00000000000E+00 0.  1.
         21    1    1    2  504  502 -0.12135676871E+02  0.18224141836E+02 -0.40607021388E+03  0.40666007008E+03  0.00000000000E+00 0.  1.
</event>
<event>
 4    1  0.2939002E+006  0.2318843E+02  0.7546771E-02  0.1490146E+00
         21   -1    0    0  504  501  0.00000000000E+00  0.00000000000E+00  0.74813900685E+02  0.74813900685E+02  0.00000000000E+00 0. -1.
         21   -1    0    0  501  502 -0.00000000000E+00 -0.00000000000E+00 -0.71872183950E+01  0.71872183950E+01  0.00000000000E+00 0. -1.
         21    1    1    2  503  502 -0.23160725296E+02 -0.11331289976E+01  0.33858959446E+02  0.41038181153E+02  0.00000000000E+00 0. -1.
         21    1    1    2  504  503  0.23160725296E+02  0.11331289976E+01  0.33767722844E+02  0.40962937927E+02  0.00000000000E+00 0. -1.
</event>
<event>
 4    1  0.2939002E+006  0.2328383E+02  0.7546771E-02  0.1488964E+00
         21   -1    0    0  504  501  0.00000000000E+00  0.00000000000E+00  0.50644902964E+02  0.50644902964E+02  0.00000000000E+00 0. -1.
         21   -1    0    0  501  502 -0.00000000000E+00 -0.00000000000E+00 -0.11031220799E+03  0.11031220799E+03  0.00000000000E+00 0. -1.
         21    1    1    2  503  502  0.17108033228E+02 -0.15794048828E+02 -0.10630777373E+03  0.10882775167E+03  0.00000000000E+00 0. -1.
         21    1    1    2  504  503 -0.17108033228E+02  0.15794048828E+02  0.46640468697E+02  0.52129359286E+02  0.00000000000E+00 0. -1.
</event>
<event>
 4    1  0.2939002E+006  0.3091916E+02  0.7546771E-02  0.1411773E+00
         21   -1    0    0  503  501  0.00000000000E+00  0.00000000000E+00  0.19075433495E+01  0.19075433495E+01  0.00000000000E+00 0. -1.
         21   -1    0    0  504  502 -0.00000000000E+00 -0.00000000000E+00 -0.66004108477E+03  0.66004108477E+03  0.00000000000E+00 0.  1.
         21    1    1    2  503  502 -0.30020200239E+02 -0.74014930701E+01 -0.16668485162E+03  0.16952826986E+03  0.00000000000E+00 0. -1.
         21    1    1    2  504  501  0.30020200239E+02  0.74014930701E+01 -0.49144868980E+03  0.49242035826E+03  0.00000000000E+00 0.  1.
</event>
<event>
 4    1  0.2939002E+006  0.3226726E+02  0.7546771E-02  0.1400865E+00
         21   -1    0    0  502  501  0.00000000000E+00  0.00000000000E+00  0.52136479591E+02  0.52136479591E+02  0.00000000000E+00 0. -1.
         21   -1    0    0  503  502 -0.00000000000E+00 -0.00000000000E+00 -0.10711063746E+03  0.10711063746E+03  0.00000000000E+00 0.  1.
         21    1    1    2  503  504  0.22539359848E+02 -0.23090112239E+02 -0.99305382813E+02  0.10441616293E+03  0.00000000000E+00 0.  1.
         21    1    1    2  504  501 -0.22539359848E+02  0.23090112239E+02  0.44331224940E+02  0.54830954125E+02  0.00000000000E+00 0. -1.
</event>
<event>
 4    1  0.2939002E+006  0.2002969E+02  0.7546771E-02  0.1533582E+00
         21   -1    0    0  504  501  0.00000000000E+00  0.00000000000E+00  0.69479839408E+02  0.69479839408E+02  0.00000000000E+00 0. -1.
         21   -1    0    0  503  502 -0.00000000000E+00 -0.00000000000E+00 -0.11799329711E+02  0.11799329711E+02  0.00000000000E+00 0.  1.
         21    1    1    2  503  501 -0.14461692983E+02 -0.13858133634E+02 -0.20029658798E+00  0.20030690215E+02  0.00000000000E+00 0.  1.
         21    1    1    2  504  502  0.14461692983E+02  0.13858133634E+02  0.57880806285E+02  0.61248478903E+02  0.00000000000E+00 0. -1.
</event>
<event>
 4    1  0.2939002E+006  0.7083600E+02  0.7546771E-02  0.1226886E+00
         21   -1    0    0  504  501  0.00000000000E+00  0.00000000000E+00  0.19804218458E+03  0.19804218458E+03  0.00000000000E+00 0. -1.
         21   -1    0    0  503  502 -0.00000000000E+00 -0.00000000000E+00 -0.26500363642E+02  0.26500363642E+02  0.00000000000E+00 0. -1.
         21    1    1    2  503  501 -0.49473047400E+02  0.50696711901E+02  0.62244640493E+02  0.94298113908E+02  0.00000000000E+00 0. -1.
         21    1    1    2  504  502  0.49473047400E+02 -0.50696711901E+02  0.10929718044E+03  0.13024443431E+03  0.00000000000E+00 0. -1.
</event>
<event>
 4    1  0.2939002E+006  0.7481035E+02  0.7546771E-02  0.1216437E+00
         21   -1    0    0  502  501  0.00000000000E+00  0.00000000000E+00  0.46277248530E+03  0.46277248530E+03  0.00000000000E+00 0.  1.
         21   -1    0    0  504  502 -0.00000000000E+00 -0.00000000000E+00 -0.20296702701E+02  0.20296702701E+02  0.00000000000E+00 0.  1.
         21    1    1    2  503  501 -0.44034908068E+02  0.60477391009E+02  0.37478990666E+03  0.38218328337E+03  0.00000000000E+00 0.  1.
         21    1    1    2  504  503  0.44034908068E+02 -0.60477391009E+02  0.67685875936E+02  0.10088590463E+03  0.00000000000E+00 0.  1.
</event>
<event>
 4    1  0.2939002E+006  0.2019065E+02  0.7546771E-02  0.1531141E+00
         21   -1    0    0  503  501  0.00000000000E+00  0.00000000000E+00  0.35137792271E+03  0.35137792271E+03  0.00000000000E+00 0.  1.
         21   -1    0    0  501  502 -0.00000000000E+00 -0.00000000000E+00 -0.12622765628E+01  0.12622765628E+01  0.00000000000E+00 0. -1.
         21    1    1    2  503  504  0.10111640748E+02  0.17476188537E+02  0.22520254706E+03  0.22610583726E+03  0.00000000000E+00 0.  1.
         21    1    1    2  504  502 -0.10111640748E+02 -0.17476188537E+02  0.12491309909E+03  0.12653436201E+03  0.00000000000E+00 0. -1.
</event>
<event>
 4    1  0.2939002E+006  0.2425078E+02  0.7546771E-02  0.1477362E+00
         21   -1    0    0  504  501  0.00000000000E+00  0.00000000000E+00  0.10710196416E+03  0.10710196416E+03  0.00000000000E+00 0. -1.
         21   -1    0    0  503  502 -0.00000000000E+00 -0.00000000000E+00 -0.56076380393E+01  0.56076380393E+01  0.00000000000E+00 0. -1.
         21    1    1    2  503  501  0.76158070713E+01 -0.23023900921E+02  0.42620773122E+02  0.49037035315E+02  0.00000000000E+00 0. -1.
         21    1    1    2  504  502 -0.76158070713E+01  0.23023900921E+02  0.58873553003E+02  0.63672566888E+02  0.00000000000E+00 0. -1.
</event>
<event>
 4    1  0.2939002E+006  0.2888335E+02  0.7546771E-02  0.1429555E+00
         21   -1    0    0  504  501  0.00000000000E+00  0.00000000000E+00  0.10620891768E+03  0.10620891768E+03  0.00000000000E+00 0. -1.
         21   -1    0    0  503  502 -0.00000000000E+00 -0.00000000000E+00 -0.81544644345E+01  0.81544644345E+01  0.00000000000E+00 0. -1.
         21    1    1    2  503  501 -0.70992376246E+01 -0.27997294248E+02  0.38065183176E+02  0.47782903117E+02  0.00000000000E+00 0. -1.
         21    1    1    2  504  502  0.70992376246E+01  0.27997294248E+02  0.59989270065E+02  0.66580478993E+02  0.00000000000E+00 0. -1.
</event>
<event>
 4    1  0.2939002E+006  0.2533320E+02  0.7546771E-02  0.1465110E+00
         21   -1    0    0  503  501  0.00000000000E+00  0.00000000000E+00  0.32289850516E+01  0.32289850516E+01  0.00000000000E+00 0. -1.
         21   -1    0    0  501  502 -0.00000000000E+00 -0.00000000000E+00 -0.19876493687E+03  0.19876493687E+03  0.00000000000E+00 0. -1.
         21    1    1    2  503  504  0.69837699035E+01  0.24351546454E+02 -0.96989274799E+02  0.10024315579E+03  0.00000000000E+00 0. -1.
         21    1    1    2  504  502 -0.69837699035E+01 -0.24351546454E+02 -0.98546677020E+02  0.10175076613E+03  0.00000000000E+00 0. -1.
</event>
<event>
 4    1  0.2939002E+006  0.2612023E+02  0.7546771E-02  0.1456651E+00
         21   -1    0    0  504  501  0.00000000000E+00  0.00000000000E+00  0.57740010779E+02  0.57740010779E+02  0.00000000000E+00 0. -1.
         21   -1    0    0  503  502 -0.00000000000E+00 -0.00000000000E+00 -0.32938340978E+02  0.32938340978E+02  0.00000000000E+00 0.  1.
         21    1    1    2  503  501  0.25200505861E+02 -0.68702800870E+01  0.48707967896E+02  0.55269633441E+02  0.00000000000E+00 0. -1.
         21    1    1    2  504  502 -0.25200505861E+02  0.68702800870E+01 -0.23906298095E+02  0.35408718316E+02  0.00000000000E+00 0.  1.
</event>
<event>
 4    1  0.2939002E+006  0.2385785E+02  0.7546771E-02  0.1481998E+00
         21   -1    0    0  504  501  0.00000000000E+00  0.00000000000E+00  0.38804270259E+02  0.38804270259E+02  0.00000000000E+00 0.  1.
         21   -1    0    0  503  502 -0.00000000000E+00 -0.00000000000E+00 -0.15724162237E+02  0.15724162237E+02  0.00000000000E+00 0.  1.
         21    1    1    2  503  501 -0.22883971951E+02  0.67468980526E+01  0.44753981875E+01  0.24273977723E+02  0.00000000000E+00 0.  1.
         21    1    1    2  504  502  0.22883971951E+02 -0.67468980526E+01  0.18604709835E+02  0.30254454773E+02  0.00000000000E+00 0.  1.
</event>
<event>
 4    1  0.2939002E+006  0.2308126E+02  0.7546771E-02  0.1491480E+00
         21   -1    0    0  503  501  0.00000000000E+00  0.00000000000E+00  0.58577707403E+02  0.58577707403E+02  0.00000000000E+00 0. -1.
         21   -1    0    0  504  502 -0.00000000000E+00 -0.00000000000E+00 -0.73921529027E+02  0.73921529027E+02  0.00000000000E+00 0.  1.
         21    1    1    2  503  502 -0.81025938056E+01  0.21612320169E+02  0.54368609026E+02  0.59065134021E+02  0.00000000000E+00 0. -1.
         21    1    1    2  504  501  0.81025938056E+01 -0.21612320169E+02 -0.69712430651E+02  0.73434102409E+02  0.00000000000E+00 0.  1.
</event>
<event>
 4    1  0.2939002E+006  0.2594431E+02  0.7546771E-02  0.1458511E+00
         21   -1    0    0  503  501  0.00000000000E+00  0.00000000000E+00  0.27030510354E+02  0.27030510354E+02  0.00000000000E+00 0. -1.
         21   -1    0    0  504  502 -0.00000000000E+00 -0.00000000000E+00 -0.26525956473E+02  0.26525956473E+02  0.00000000000E+00 0. -1.
         21    1    1    2  503  502 -0.52527626114E+01  0.25407004382E+02  0.68784863641E+01  0.26840658736E+02  0.00000000000E+00 0. -1.
         21    1    1    2  504  501  0.52527626114E+01 -0.25407004382E+02 -0.63739324826E+01  0.26715808092E+02  0.00000000000E+00 0. -1.
</event>
<event>
 4    1  0.2939002E+006  0.3123605E+02  0.7546771E-02  0.1409151E+00
         21   -1    0    0  504  501  0.00000000000E+00  0.00000000000E+00  0.20665011460E+01  0.20665011460E+01  0.00000000000E+00 0.  1.
         21   -1    0    0  503  502 -0.00000000000E+00 -0.00000000000E+00 -0.50649196118E+03  0.50649196118E+03  0.00000000000E+00 0.  1.
         21    1    1    2  503  501 -0.25185651752E+02  0.18476298004E+02 -0.31842847188E+03  0.31995684450E+03  0.00000000000E+00 0.  1.
         21    1    1    2  504  502  0.25185651752E+02 -0.18476298004E+02 -0.18599698815E+03  0.18860161782E+03  0.00000000000E+00 0.  1.
</event>
<event>
 4    1  0.2939002E+006  0.2258203E+02  0.7546771E-02  0.1497814E+00
         21   -1    0    0  504  501  0.00000000000E+00  0.00000000000E+00  0.26542154562E+02  0.26542154562E+02  0.00000000000E+00 0.  1.
         21   -1    0    0  503  502 -0.00000000000E+00 -0.00000000000E+00 -0.92489286293E+02  0.92489286293E+02  0.00000000000E+00 0.  1.
         21    1    1    2  503  501  0.14086899334E+02 -0.17649572734E+02  0.20001121922E+02  0.30166090709E+02  0.00000000000E+00 0.  1.
         21    1    1    2  504  502 -0.14086899334E+02  0.17649572734E+02 -0.85948253653E+02  0.88865350146E+02  0.00000000000E+00 0.  1.
</event>
<event>
 4    1  0.2939002E+006  0.2658156E+02  0.7546771E-02  0.1451857E+00
         21   -1    0    0  504  501  0.00000000000E+00  0.00000000000E+00  0.26570326580E+03  0.26570326580E+03  0.00000000000E+00 0.  1.
         21   -1    0    0  503  502 -0.00000000000E+00 -0.00000000000E+00 -0.81173005356E+01  0.81173005356E+01  0.00000000000E+00 0. -1.
         21    1    1    2  503  501 -0.88135887981E+01 -0.25077881225E+02  0.24105887288E+03  0.24252001911E+03  0.00000000000E+00 0.  1.
         21    1    1    2  504  502  0.88135887981E+01  0.25077881225E+02  0.16527092391E+02  0.31300547233E+02  0.00000000000E+00 0. -1.
</event>
<event>
 4    1  0.2939002E+006  0.2492346E+02  0.7546771E-02  0.1469661E+00
         21   -1    0    0  504  501  0.00000000000E+00  0.00000000000E+00  0.47734895535E+03  0.47734895535E+03  0.00000000000E+00 0.  1.
         21   -1    0    0  501  502 -0.00000000000E+00 -0.00000000000E+00 -0.13586668265E+01  0.13586668265E+01  0.00000000000E+00 0.  1.
         21    1    1    2  503  502  0.23795572830E+02  0.74128118325E+01  0.18881660184E+03  0.19045442551E+03  0.00000000000E+00 0.  1.
         21    1    1    2  504  503 -0.23795572830E+02 -0.74128118325E+01  0.28717368668E+03  0.28825319667E+03  0.00000000000E+00 0.  1.
</event>
<event>
 4    1  0.2939002E+006  0.2750626E+02  0.7546771E-02  0.1442588E+00
         21   -1    0    0  503  501  0.00000000000E+00  0.00000000000E+00  0.71177964231E+00  0.71177964231E+00  0.00000000000E+00 0. -1.
         21   -1    0    0  504  502 -0.00000000000E+00 -0.00000000000E+00 -0.10909633739E+04  0.10909633739E+04  0.00000000000E+00 0. -1.
         21    1    1    2  503  502  0.26428757082E+02 -0.76233168648E+01 -0.63257463066E+03  0.63317237583E+03  0.00000000000E+00 0. -1.
         21    1    1    2  504  501 -0.26428757082E+02  0.76233168648E+01 -0.45767696357E+03  0.45850277768E+03  0.00000000000E+00 0. -1.
</event>
<event>
 4    1  0.2939002E+006  0.2092359E+02  0.7546771E-02  0.1520359E+00
         21   -1    0    0  502  501  0.00000000000E+00  0.00000000000E+00  0.25870796830E+03  0.25870796830E+03  0.00000000000E+00 0.  1.
         21   -1    0    0  504  502 -0.00000000000E+00 -0.00000000000E+00 -0.19402692370E+02  0.19402692370E+02  0.00000000000E+00 0.  1.
         21    1    1    2  503  501  0.75082949606E+01  0.19530031201E+02  0.25250566034E+03  0.25337108185E+03  0.00000000000E+00 0.  1.
         21    1    1    2  504  503 -0.75082949606E+01 -0.19530031201E+02 -0.13200384409E+02  0.24739578826E+02  0.00000000000E+00 0.  1.
</event>
<event>
 4    1  0.2939002E+006  0.2720804E+02  0.7546771E-02  0.1445529E+00
         21   -1    0    0  502  501  0.00000000000E+00  0.00000000000E+00  0.52554949647E+01  0.52554949647E+01  0.00000000000E+00 0. -1.
         21   -1    0    0  503  502 -0.00000000000E+00 -0.00000000000E+00 -0.21932239506E+03  0.21932239506E+03  0.00000000000E+00 0. -1.
         21    1    1    2  503  504  0.17558072853E+02 -0.20784403954E+02 -0.17419681199E+03  0.17630883891E+03  0.00000000000E+00 0. -1.
         21    1    1    2  504  501 -0.17558072853E+02  0.20784403954E+02 -0.39870088102E+02  0.48269051112E+02  0.00000000000E+00 0. -1.
</event>
<event>
 4    1  0.2939002E+006  0.2187096E+02  0.7546771E-02  0.1507184E+00
         21   -1    0    0  503  501  0.00000000000E+00  0.00000000000E+00  0.10914771903E+04  0.10914771903E+04  0.00000000000E+00 0. -1.
         21   -1    0    0  501  502 -0.00000000000E+00 -0.00000000000E+00 -0.24934093217E+02  0.24934093217E+02  0.00000000000E+00 0.  1.
         21    1    1    2  503  504  0.19084110753E+02  0.10683433761E+02  0.10865498468E+04  0.10867699428E+04  0.00000000000E+00 0. -1.
         21    1    1    2  504  502 -0.19084110753E+02 -0.10683433761E+02 -0.20006749755E+02  0.29641340657E+02  0.00000000000E+00 0.  1.
</event>
<event>
 4    1  0.2939002E+006  0.2476730E+02  0.7546771E-02  0.1471423E+00
         21   -1    0    0  504  501  0.00000000000E+00  0.00000000000E+00  0.25914853627E+01  0.25914853627E+01  0.00000000000E+00 0.  1.
         21   -1    0    0  501  502 -0.00000000000E+00 -0.00000000000E+00 -0.34678758380E+03  0.34678758380E+03  0.00000000000E+00 0.  1.
         21    1    1    2  503  502 -0.14596855365E+02 -0.20008777635E+02 -0.27052024165E+03  0.27165165288E+03  0.00000000000E+00 0.  1.
         21    1    1    2  504  503  0.14596855365E+02  0.20008777635E+02 -0.73675856792E+02  0.77727416289E+02  0.00000000000E+00 0.  1.
</event>
<event>
 4    1  0.2939002E+006  0.2212020E+02  0.7546771E-02  0.1503852E+00
         21   -1    0    0  504  501  0.00000000000E+00  0.00000000000E+00  0.85611098706E+02  0.85611098706E+02  0.00000000000E+00 0.  1.
         21   -1    0    0  501  502 -0.00000000000E+00 -0.00000000000E+00 -0.14706269736E+02  0.14706269736E+02  0.00000000000E+00 0.  1.
         21    1    1    2  503  502 -0.17417486051E+02  0.13635776435E+02 -0.37664746632E+01  0.22438572832E+02  0.00000000000E+00 0.  1.
         21    1    1    2  504  503  0.17417486051E+02 -0.13635776435E+02  0.74671303633E+02  0.77878795610E+02  0.00000000000E+00 0.  1.
</event>
<event>
 4    1  0.2939002E+006  0.3354402E+02  0.7546771E-02  0.1391099E+00
         21   -1    0    0  502  501  0.00000000000E+00  0.00000000000E+00  0.28360446638E+03  0.28360446638E+03  0.00000000000E+00 0. -1.
         21   -1    0    0  504  502 -0.00000000000E+00 -0.00000000000E+00 -0.56279106544E+02  0.56279106544E+02  0.00000000000E+00 0. -1.
         21    1    1    2  503  501 -0.32879342250E+02 -0.66445416908E+01  0.27750481769E+03  0.27952481986E+03  0.00000000000E+00 0. -1.
         21    1    1    2  504  503  0.32879342250E+02  0.66445416908E+01 -0.50179457848E+02  0.60358753061E+02  0.00000000000E+00 0. -1.
</event>
<event>
 4    1  0.2939002E+006  0.2371977E+02  0.7546771E-02  0.1483652E+00
         21   -1    0    0  503  501  0.00000000000E+00  0.00000000000E+00  0.95653674821E+02  0.95653674821E+02  0.00000000000E+00 0. -1.
         21   -1    0    0  504  502 -0.00000000000E+00 -0.00000000000E+00 -0.32232140268E+02  0.32232140268E+02  0.00000000000E+00 0.  1.
         21    1    1    2  503  502 -0.20366444960E+02 -0.12158759931E+02  0.89525684813E+02  0.92614662795E+02  0.00000000000E+00 0. -1.
         21    1    1    2  504  501  0.20366444960E+02  0.12158759931E+02 -0.26104150260E+02  0.35271152294E+02  0.00000000000E+00 0.  1.
</event>
<event>
 4    1  0.2939002E+006  0.6809755E+02  0.7546771E-02  0.1234552E+00
         21   -1    0    0  503  501  0.00000000000E+00  0.00000000000E+00  0.53950985993E+03  0.53950985993E+03  0.00000000000E+00 0.  1.
         21   -1    0    0  504  502 -0.00000000000E+00 -0.00000000000E+00 -0.92675608147E+01  0.92675608147E+01  0.00000000000E+00 0. -1.
         21    1    1    2  503  502  0.15984020635E+02  0.66195066499E+02  0.19122250690E+03  0.20298601649E+03  0.00000000000E+00 0.  1.
         21    1    1    2  504  501 -0.15984020635E+02 -0.66195066499E+02  0.33901979222E+03  0.34579140426E+03  0.00000000000E+00 0. -1.
</event>
<event>
 4    1  0.2939002E+006  0.3577396E+02  0.7546771E-02  0.1375202E+00
         21   -1    0    0  503  501  0.00000000000E+00  0.00000000000E+00  0.23750700162E+03  0.23750700162E+03  0.00000000000E+00 0. -1.
         21   -1    0    0  501  502 -0.00000000000E+00 -0.00000000000E+00 -0.12641535794E+02  0.12641535794E+02  0.00000000000E+00 0.  1.
         21    1    1    2  503  504  0.15543234243E+02  0.32220860872E+02  0.20717238912E+03  0.21023837619E+03  0.00000000000E+00 0. -1.
         21    1    1    2  504  502 -0.15543234243E+02 -0.32220860872E+02  0.17693076702E+02  0.39910161228E+02  0.00000000000E+00 0.  1.
</event>
<event>
 4    1  0.2939002E+006  0.2583976E+02  0.7546771E-02  0.1459624E+00
         21   -1    0    0  504  501  0.00000000000E+00  0.00000000000E+00  0.60887932273E+01  0.60887932273E+01  0.00000000000E+00 0.  1.
         21   -1    0    0  501  502 -0.00000000000E+00 -0.00000000000E+00 -0.16266896907E+03  0.16266896907E+03  0.00000000000E+00 0. -1.
         21    1    1    2  503  502 -0.21820230153E+02 -0.13840909866E+02 -0.12645809353E+03  0.12907107596E+03  0.00000000000E+00 0. -1.
         21    1    1    2  504  503  0.21820230153E+02  0.13840909866E+02 -0.30122082319E+02  0.39686686345E+02  0.00000000000E+00 0.  1.
</event>
<event>
 4    1  0.2939002E+006  0.2238152E+02  0.7546771E-02  0.1500414E+00
         21   -1    0    0  503  501  0.00000000000E+00  0.00000000000E+00  0.11570681174E+03  0.11570681174E+03  0.00000000000E+00 0.  1.
         21   -1    0    0  504  502 -0.00000000000E+00 -0.00000000000E+00 -0.31116794208E+02  0.31116794208E+02  0.00000000000E+00 0.  1.
         21    1    1    2  503  502 -0.18997734956E+02  0.11832941626E+02  0.11040868263E+03  0.11265438136E+03  0.00000000000E+00 0.  1.
         21    1    1    2  504  501  0.18997734956E+02 -0.11832941626E+02 -0.25818665098E+02  0.34169224580E+02  0.00000000000E+00 0.  1.
</event>
<event>
 4    1  0.2939002E+006  0.2231870E+02  0.7546771E-02  0.1501235E+00
         21   -1    0    0  503  501  0.00000000000E+00  0.00000000000E+00  0.11798271653E+04  0.11798271653E+04  0.00000000000E+00 0. -1.
         21   -1    0    0  501  502 -0.00000000000E+00 -0.00000000000E+00 -0.15293932637E+01  0.15293932637E+01  0.00000000000E+00 0. -1.
         21    1    1    2  503  504  0.10421595715E+02  0.19736125809E+02  0.10917262424E+04  0.10919543547E+04  0.00000000000E+00 0. -1.
         21    1    1    2  504  502 -0.10421595715E+02 -0.19736125809E+02  0.86571529661E+02  0.89402203927E+02  0.00000000000E+00 0. -1.
</event>
<event>
 4    1  0.2939002E+006  0.3787228E+02  0.7546771E-02  0.1361426E+00
         21   -1    0    0  502  501  0.00000000000E+00  0.00000000000E+00  0.22294443793E+03  0.22294443793E+03  0.00000000000E+00 0.  1.
         21   -1    0    0  503  502 -0.00000000000E+00 -0.00000000000E+00 -0.96226544821E+01  0.96226544821E+01  0.00000000000E+00 0.  1.
         21    1    1    2  503  504 -0.27326444503E+02 -0.26221653590E+02  0.39717205207E+02  0.54879559726E+02  0.00000000000E+00 0.  1.
         21    1    1    2  504  501  0.27326444503E+02  0.26221653590E+02  0.17360457824E+03  0.17768753268E+03  0.00000000000E+00 0.  1.
</event>
<event>
 4    1  0.2939002E+006  0.4329328E+02  0.7546771E-02  0.1330198E+00
         21   -1    0    0  503  501  0.00000000000E+00  0.00000000000E+00  0.12779170849E+01  0.12779170849E+01  0.00000000000E+00 0. -1.
         21   -1    0    0  501  502 -0.00000000000E+00 -0.00000000000E+00 -0.19958634935E+04  0.19958634935E+04  0.00000000000E+00 0.  1.
         21    1    1    2  503  504  0.42241660186E+02  0.94842121423E+01 -0.48311599811E+03  0.48505193099E+03  0.00000000000E+00 0. -1.
         21    1    1    2  504  502 -0.42241660186E+02 -0.94842121423E+01 -0.15114695783E+04  0.15120894796E+04  0.00000000000E+00 0.  1.
</event>
<event>
 4    1  0.2939002E+006  0.3612177E+02  0.7546771E-02  0.1372844E+00
         21   -1    0    0  503  501  0.00000000000E+00  0.00000000000E+00  0.34392784712E+03  0.34392784712E+03  0.00000000000E+00 0. -1.
         21   -1    0    0  504  502 -0.00000000000E+00 -0.00000000000E+00 -0.39153379721E+01  0.39153379721E+01  0.00000000000E+00 0. -1.
         21    1    1    2  503  502  0.14901889025E+02 -0.32904644220E+02  0.13935947069E+03  0.14396473172E+03  0.00000000000E+00 0. -1.
         21    1    1    2  504  501 -0.14901889025E+02  0.32904644220E+02  0.20065303846E+03  0.20387845337E+03  0.00000000000E+00 0. -1.
</event>
<event>
 4    1  0.2939002E+006  0.2069204E+02  0.7546771E-02  0.1523707E+00
         21   -1    0    0  503  501  0.00000000000E+00  0.00000000000E+00  0.49090712398E+01  0.49090712398E+01  0.00000000000E+00 0.  1.
         21   -1    0    0  504  502 -0.00000000000E+00 -0.00000000000E+00 -0.88323859440E+02  0.88323859440E+02  0.00000000000E+00 0.  1.
         21    1    1    2  503  502  0.19031266844E+02 -0.81222815753E+01 -0.46922970004E+02  0.51282801110E+02  0.00000000000E+00 0.  1.
         21    1    1    2  504  501 -0.19031266844E+02  0.81222815753E+01 -0.36491818197E+02  0.41950129570E+02  0.00000000000E+00 0.  1.
</event>
<event>
 4    1  0.2939002E+006  0.2215039E+02  0.7546771E-02  0.1503452E+00
         21   -1    0    0  503  501  0.00000000000E+00  0.00000000000E+00  0.55294072191E+02  0.55294072191E+02  0.00000000000E+00 0.  1.
         21   -1    0    0  501  502 -0.00000000000E+00 -0.00000000000E+00 -0.12788100596E+02  0.12788100596E+02  0.00000000000E+00 0.  1.
         21    1    1    2  503  504  0.16657042787E+02  0.14600772113E+02  0.40087589504E+02  0.45800157783E+02  0.00000000000E+00 0.  1.
         21    1    1    2  504  502 -0.16657042787E+02 -0.14600772113E+02  0.24183820906E+01  0.22282015004E+02  0.00000000000E+00 0.  1.
</event>
<event>
 4    1  0.2939002E+006  0.2810409E+02  0.7546771E-02  0.1436822E+00
         21   -1    0    0  503  501  0.00000000000E+00  0.00000000000E+00  0.33006196089E+02  0.33006196089E+02  0.00000000000E+00 0.  1.
         21   -1    0    0  504  502 -0.00000000000E+00 -0.00000000000E+00 -0.24022610092E+02  0.24022610092E+02  0.00000000000E+00 0. -1.
         21    1    1    2  503  502 -0.26385820294E+02 -0.96761688058E+01  0.27217738242E+01  0.28235576993E+02  0.00000000000E+00 0. -1.
         21    1    1    2  504  501  0.26385820294E+02  0.96761688058E+01  0.62618121727E+01  0.28793229188E+02  0.00000000000E+00 0.  1.
</event>
<event>
 4    1  0.2939002E+006  0.2004279E+02  0.7546771E-02  0.1533382E+00
         21   -1    0    0  503  501  0.00000000000E+00  0.00000000000E+00  0.64878801175E+03  0.64878801175E+03  0.00000000000E+00 0. -1.
         21   -1    0    0  504  502 -0.00000000000E+00 -0.00000000000E+00 -0.37500742675E+01  0.37500742675E+01  0.00000000000E+00 0.  1.
         21    1    1    2  503  502  0.35311870938E+01 -0.19729275666E+02  0.24399422211E+02  0.31576025792E+02  0.00000000000E+00 0.  1.
         21    1    1    2  504  501 -0.35311870938E+01  0.19729275666E+02  0.62063851527E+03  0.62096206022E+03  0.00000000000E+00 0. -1.
</event>
<event>
 4    1  0.2939002E+006  0.2070375E+02  0.7546771E-02  0.1523537E+00
         21   -1    0    0  503  501  0.00000000000E+00  0.00000000000E+00  0.19492138105E+03  0.19492138105E+03  0.00000000000E+00 0.  1.
         21   -1    0    0  501  502 -0.00000000000E+00 -0.00000000000E+00 -0.81513283624E+01  0.81513283624E+01  0.00000000000E+00 0.  1.
         21    1    1    2  503  504 -0.20523229883E+02 -0.27280823689E+01  0.18015077698E+03  0.18133655959E+03  0.00000000000E+00 0.  1.
         21    1    1    2  504  502  0.20523229883E+02  0.27280823689E+01  0.66192757117E+01  0.21736149824E+02  0.00000000000E+00 0.  1.
</event>
<event>
 4    1  0.2939002E+006  0.2842507E+02  0.7546771E-02  0.1433795E+00
         21   -1    0    0  503  501  0.00000000000E+00  0.00000000000E+00  0.40187838113E+02  0.40187838113E+02  0.00000000000E+00 0. -1.
         21   -1    0    0  504  502 -0.00000000000E+00 -0.00000000000E+00 -0.18270588293E+03  0.18270588293E+03  0.00000000000E+00 0. -1.
         21    1    1    2  503  502  0.27974893196E+02 -0.50388269937E+01  0.33877294515E+02  0.44222794015E+02  0.00000000000E+00 0. -1.
         21    1    1    2  504  501 -0.27974893196E+02  0.50388269937E+01 -0.17639533933E+03  0.17867092702E+03  0.00000000000E+00 0. -1.
</event>
<event>
 4    1  0.2939002E+006  0.2016914E+02  0.7546771E-02  0.1531466E+00
         21   -1    0    0  503  501  0.00000000000E+00  0.00000000000E+00  0.54631988892E+02  0.54631988892E+02  0.00000000000E+00 0.  1.
         21   -1    0    0  504  502 -0.00000000000E+00 -0.00000000000E+00 -0.80879490691E+01  0.80879490691E+01  0.00000000000E+00 0.  1.
         21    1    1    2  503  502 -0.61750508537E+01  0.19200596789E+02  0.14437568612E+02  0.24803982695E+02  0.00000000000E+00 0.  1.
         21    1    1    2  504  501  0.61750508537E+01 -0.19200596789E+02  0.32106471210E+02  0.37915955266E+02  0.00000000000E+00 0.  1.
</event>
<event>
 4    1  0.2939002E+006  0.2073049E+02  0.7546771E-02  0.1523148E+00
         21   -1    0    0  504  501  0.00000000000E+00  0.00000000000E+00  0.24630934573E+03  0.24630934573E+03  0.00000000000E+00 0.  1.
         21   -1    0    0  503  502 -0.00000000000E+00 -0.00000000000E+00 -0.38462712886E+01  0.38462712886E+01  0.00000000000E+00 0.  1.
         21    1    1    2  503  501  0.14197039305E+02 -0.15106194484E+02  0.21368542697E+03  0.21468864603E+03  0.00000000000E+00 0.  1.
         21    1    1    2  504  502 -0.14197039305E+02  0.15106194484E+02  0.28777647474E+02  0.35466970986E+02  0.00000000000E+00 0.  1.
</event>
<event>
 4    1  0.2939002E+006  0.2011085E+02  0.7546771E-02  0.1532348E+00
         21   -1    0    0  502  501  0.00000000000E+00  0.00000000000E+00  0.11322497212E+02  0.11322497212E+02  0.00000000000E+00 0.  1.
         21   -1    0    0  503  502 -0.00000000000E+00 -0.00000000000E+00 -0.35720587228E+02  0.35720587228E+02  0.00000000000E+00 0.  1.
         21    1    1    2  503  504  0.20084662331E+02 -0.10259527415E+01 -0.12202617894E+02  0.23523395236E+02  0.00000000000E+00 0.  1.
         21    1    1    2  504  501 -0.20084662331E+02  0.10259527415E+01 -0.12195472121E+02  0.23519689204E+02  0.00000000000E+00 0.  1.
</event>
<event>
 4    1  0.2939002E+006  0.2086443E+02  0.7546771E-02  0.1521209E+00
         21   -1    0    0  504  501  0.00000000000E+00  0.00000000000E+00  0.16848206639E+02  0.16848206639E+02  0.00000000000E+00 0. -1.
         21   -1    0    0  503  502 -0.00000000000E+00 -0.00000000000E+00 -0.38897426851E+02  0.38897426851E+02  0.00000000000E+00 0. -1.
         21    1    1    2  503  501  0.98275984483E+01 -0.18404960280E+02 -0.27174969622E+02  0.34260811843E+02  0.00000000000E+00 0. -1.
         21    1    1    2  504  502 -0.98275984483E+01  0.18404960280E+02  0.51257494095E+01  0.21484821647E+02  0.00000000000E+00 0. -1.
</event>
<event>
 4    1  0.2939002E+006  0.2250206E+02  0.7546771E-02  0.1498847E+00
         21   -1    0    0  502  501  0.00000000000E+00  0.00000000000E+00  0.15595628236E+03  0.15595628236E+03  0.00000000000E+00 0.  1.
         21   -1    0    0  504  502 -0.00000000000E+00 -0.00000000000E+00 -0.89921269770E+01  0.89921269770E+01  0.00000000000E+00 0.  1.
         21    1    1    2  503  501  0.22502057320E+02  0.13055506221E-01  0.13940678319E+03  0.14121116795E+03  0.00000000000E+00 0.  1.
         21    1    1    2  504  503 -0.22502057320E+02 -0.13055506221E-01  0.75573721880E+01  0.23737241383E+02  0.00000000000E+00 0.  1.
</event>
<event>
 4    1  0.2939002E+006  0.2151449E+02  0.7546771E-02  0.1512045E+00
         21   -1    0    0  502  501  0.00000000000E+00  0.00000000000E+00  0.57599389246E+02  0.57599389246E+02  0.00000000000E+00 0. -1.
         21   -1    0    0  503  502 -0.00000000000E+00 -0.00000000000E+00 -0.40152062791E+02  0.40152062791E+02  0.00000000000E+00 0. -1.
         21    1    1    2  503  504  0.16377165274E+02 -0.13952121768E+02 -0.34988259054E+02  0.41073732675E+02  0.00000000000E+00 0. -1.
         21    1    1    2  504  501 -0.16377165274E+02  0.13952121768E+02  0.52435585510E+02  0.56677719361E+02  0.00000000000E+00 0. -1.
</event>
<event>
 4    1  0.2939002E+006  0.2106584E+02  0.7546771E-02  0.1518327E+00
         21   -1    0    0  504  501  0.00000000000E+00  0.00000000000E+00  0.34150146457E+03  0.34150146457E+03  0.00000000000E+00 0.  1.
         21   -1    0    0  503  502 -0.00000000000E+00 -0.00000000000E+00 -0.17888989486E+01  0.17888989486E+01  0.00000000000E+00 0. -1.
         21    1    1    2  503  501  0.15072328420E+02 -0.14717152621E+02  0.25963743073E+03  0.26049062382E+03  0.00000000000E+00 0.  1.
         21    1    1    2  504  502 -0.15072328420E+02  0.14717152621E+02  0.80075134893E+02  0.82799739694E+02  0.00000000000E+00 0. -1.
</event>
<event>
 4    1  0.2939002E+006  0.2287338E+02  0.7546771E-02  0.1494094E+00
         21   -1    0    0  503  501  0.00000000000E+00  0.00000000000E+00  0.53764300642E+03  0.53764300642E+03  0.00000000000E+00 0.  1.
         21   -1    0    0  504  502 -0.00000000000E+00 -0.00000000000E+00 -0.20557141174E+01  0.20557141174E+01  0.00000000000E+00 0.  1.
         21    1    1    2  503  502  0.34625264363E+01 -0.22609788270E+02  0.71966589547E+02  0.75514115408E+02  0.00000000000E+00 0.  1.
         21    1    1    2  504  501 -0.34625264363E+01  0.22609788270E+02  0.46362070276E+03  0.46418460513E+03  0.00000000000E+00 0.  1.
</event>
<event>
 4    1  0.2939002E+006  0.2161668E+02  0.7546771E-02  0.1510640E+00
         21   -1    0    0  502  501  0.00000000000E+00  0.00000000000E+00  0.91597540830E+02  0.91597540830E+02  0.00000000000E+00 0.  1.
         21   -1    0    0  503  502 -0.00000000000E+00 -0.00000000000E+00 -0.59832230937E+01  0.59832230937E+01  0.00000000000E+00 0.  1.
         21    1    1    2  503  504 -0.78304607221E+01  0.20148564566E+02  0.24076902939E+02  0.32357039796E+02  0.00000000000E+00 0.  1.
         21    1    1    2  504  501  0.78304607221E+01 -0.20148564566E+02  0.61537414797E+02  0.65223724128E+02  0.00000000000E+00 0.  1.
</event>
<event>
 4    1  0.2939002E+006  0.2026534E+02  0.7546771E-02  0.1530017E+00
         21   -1    0    0  504  501  0.00000000000E+00  0.00000000000E+00  0.17724113752E+02  0.17724113752E+02  0.00000000000E+00 0.  1.
         21   -1    0    0  501  502 -0.00000000000E+00 -0.00000000000E+00 -0.27696512274E+02  0.27696512274E+02  0.00000000000E+00 0.  1.
         21    1    1    2  503  502 -0.16228726837E+02  0.12137238101E+02 -0.14166312014E+02  0.24725867418E+02  0.00000000000E+00 0.  1.
         21    1    1    2  504  503  0.16228726837E+02 -0.12137238101E+02  0.41939134924E+01  0.20694758608E+02  0.00000000000E+00 0.  1.
</event>
<event>
 4    1  0.2939002E+006  0.2646502E+02  0.7546771E-02  0.1453057E+00
         21   -1    0    0  502  501  0.00000000000E+00  0.00000000000E+00  0.36811241436E+03  0.36811241436E+03  0.00000000000E+00 0.  1.
         21   -1    0    0  504  502 -0.00000000000E+00 -0.00000000000E+00 -0.44386600886E+01  0.44386600886E+01  0.00000000000E+00 0. -1.
         21    1    1    2  503  501  0.35256352811E+01 -0.26229126887E+02  0.32263714501E+03  0.32372075087E+03  0.00000000000E+00 0.  1.
         21    1    1    2  504  503 -0.35256352811E+01  0.26229126887E+02  0.41036609256E+02  0.48830323577E+02  0.00000000000E+00 0. -1.
</event>
<event>
 4    1  0.2939002E+006  0.2983440E+02  0.7546771E-02  0.1421041E+00
         21   -1    0    0  504  501  0.00000000000E+00  0.00000000000E+00  0.53775843363E+01  0.53775843363E+01  0.00000000000E+00 0. -1.
         21   -1    0    0  501  502 -0.00000000000E+00 -0.00000000000E+00 -0.28116377701E+03  0.28116377701E+03  0.00000000000E+00 0. -1.
         21    1    1    2  503  502 -0.12570574143E+02 -0.27056832369E+02 -0.22977732100E+03  0.23170608269E+03  0.00000000000E+00 0. -1.
         21    1    1    2  504  503  0.12570574143E+02  0.27056832369E+02 -0.46008871678E+02  0.54835278655E+02  0.00000000000E+00 0. -1.
</event>
<event>
 4    1  0.2939002E+006  0.2037159E+02  0.7546771E-02  0.1528429E+00
         21   -1    0    0  504  501  0.00000000000E+00  0.00000000000E+00  0.52848144379E+03  0.52848144379E+03  0.00000000000E+00 0. -1.
         21   -1    0    0  501  502 -0.00000000000E+00 -0.00000000000E+00 -0.80696219979E+00  0.80696219979E+00  0.00000000000E+00 0.  1.
         21    1    1    2  503  502 -0.92025145676E+01 -0.18174583111E+02  0.30722491083E+03  0.30789957385E+03  0.00000000000E+00 0. -1.
         21    1    1    2  504  503  0.92025145676E+01  0.18174583111E+02  0.22044957076E+03  0.22138883214E+03  0.00000000000E+00 0.  1.
</event>
<event>
 4    1  0.2939002E+006  0.2089217E+02  0.7546771E-02  0.1520810E+00
         21   -1    0    0  502  501  0.00000000000E+00  0.00000000000E+00  0.89227274689E+01  0.89227274689E+01  0.00000000000E+00 0. -1.
         21   -1    0    0  503  502 -0.00000000000E+00 -0.00000000000E+00 -0.23450824081E+03  0.23450824081E+03  0.00000000000E+00 0. -1.
         21    1    1    2  503  504  0.95247463687E+01 -0.18594675453E+02 -0.22107175852E+03  0.22205676113E+03  0.00000000000E+00 0. -1.
         21    1    1    2  504  501 -0.95247463687E+01  0.18594675453E+02 -0.45137548200E+01  0.21374207147E+02  0.00000000000E+00 0. -1.
</event>
<event>
 4    1  0.2939002E+006  0.2081546E+02  0.7546771E-02  0.1521916E+00
         21   -1    0    0  504  501  0.00000000000E+00  0.00000000000E+00  0.12658227410E+02  0.12658227410E+02  0.00000000000E+00 0.  1.
         21   -1    0    0  503  502 -0.00000000000E+00 -0.00000000000E+00 -0.13304319833E+03  0.13304319833E+03  0.00000000000E+00 0. -1.
         21    1    1    2  503  501 -0.20747274709E+02 -0.16834869810E+01 -0.12297609249E+03  0.12472530962E+03  0.00000000000E+00 0. -1.
         21    1    1    2  504  502  0.20747274709E+02  0.16834869810E+01  0.25911215733E+01  0.20976116115E+02  0.00000000000E+00 0.  1.
</event>
<event>
 4    1  0.2939002E+006  0.4185287E+02  0.7546771E-02  0.1337957E+00
         21   -1    0    0  504  501  0.00000000000E+00  0.00000000000E+00  0.30189907161E+02  0.30189907161E+02  0.00000000000E+00 0. -1.
         21   -1    0    0  503  502 -0.00000000000E+00 -0.00000000000E+00 -0.14583702865E+03  0.14583702865E+03  0.00000000000E+00 0.  1.
         21    1    1    2  503  501  0.28870787755E+02  0.30300832082E+02  0.10473334709E+02  0.43143406801E+02  0.00000000000E+00 0. -1.
         21    1    1    2  504  502 -0.28870787755E+02 -0.30300832082E+02 -0.12612045620E+03  0.13288352901E+03  0.00000000000E+00 0.  1.
</event>
<event>
 4    1  0.2939002E+006  0.3027503E+02  0.7546771E-02  0.1417221E+00
         21   -1    0    0  504  501  0.00000000000E+00  0.00000000000E+00  0.29038524395E+02  0.29038524395E+02  0.00000000000E+00 0. -1.
         21   -1    0    0  503  502 -0.00000000000E+00 -0.00000000000E+00 -0.50737126889E+03  0.50737126889E+03  0.00000000000E+00 0.  1.
         21    1    1    2  503  501 -0.30247068889E+02  0.13008695994E+01 -0.49889463923E+03  0.49981240330E+03  0.00000000000E+00 0.  1.
         21    1    1    2  504  502  0.30247068889E+02 -0.13008695994E+01  0.20561894740E+02  0.36597389981E+02  0.00000000000E+00 0. -1.
</event>
<event>
 4    1  0.2939002E+006  0.2261974E+02  0.7546771E-02  0.1497329E+00
         21   -1    0    0  503  501  0.00000000000E+00  0.00000000000E+00  0.54771053200E+01  0.54771053200E+01  0.00000000000E+00 0. -1.
         21   -1    0    0  504  502 -0.00000000000E+00 -0.00000000000E+00 -0.94372574749E+02  0.94372574749E+02  0.00000000000E+00 0. -1.
         21    1    1    2  503  502  0.22617242414E+02 -0.33631000657E+00 -0.39423052351E+02  0.45451400589E+02  0.00000000000E+00 0. -1.
         21    1    1    2  504  501 -0.22617242414E+02  0.33631000657E+00 -0.49472417078E+02  0.54398279480E+02  0.00000000000E+00 0. -1.
</event>
<event>
 4    1  0.2939002E+006  0.2187531E+02  0.7546771E-02  0.1507125E+00
         21   -1    0    0  502  501  0.00000000000E+00  0.00000000000E+00  0.69708887273E+01  0.69708887273E+01  0.00000000000E+00 0.  1.
         21   -1    0    0  503  502 -0.00000000000E+00 -0.00000000000E+00 -0.78615627024E+02  0.78615627024E+02  0.00000000000E+00 0.  1.
         21    1    1    2  503  504 -0.14644061380E+02  0.16250557156E+02 -0.51060901300E+02  0.55549480494E+02  0.00000000000E+00 0.  1.
         21    1    1    2  504  501  0.14644061380E+02 -0.16250557156E+02 -0.20583836996E+02  0.30037035257E+02  0.00000000000E+00 0.  1.
</event>
<event>
 4    1  0.2939002E+006  0.2704438E+02  0.7546771E-02  0.1447163E+00
         21   -1    0    0  503  501  0.00000000000E+00  0.00000000000E+00  0.46251254242E+01  0.46251254242E+01  0.00000000000E+00 0. -1.
         21   -1    0    0  501  502 -0.00000000000E+00 -0.00000000000E+00 -0.59940358377E+03  0.59940358377E+03  0.00000000000E+00 0. -1.
         21    1    1    2  503  504  0.43379132021E+01 -0.26694216038E+02 -0.38258481329E+02  0.46852001605E+02  0.00000000000E+00 0. -1.
         21    1    1    2  504  502 -0.43379132021E+01  0.26694216038E+02 -0.55651997701E+03  0.55717670759E+03  0.00000000000E+00 0. -1.
</event>
<event>
 4    1  0.2939002E+006  0.2859592E+02  0.7546771E-02  0.1432203E+00
         21   -1    0    0  503  501  0.00000000000E+00  0.00000000000E+00  0.28885378839E+01  0.28885378839E+01  0.00000000000E+00 0. -1.
         21   -1    0    0  504  502 -0.00000000000E+00 -0.00000000000E+00 -0.36203426646E+03  0.36203426646E+03  0.00000000000E+00 0. -1.
         21    1    1    2  503  502  0.27794763702E+02 -0.67214415580E+01 -0.26477421687E+03  0.26631393614E+03  0.00000000000E+00 0. -1.
         21    1    1    2  504  501 -0.27794763702E+02  0.67214415580E+01 -0.94371511714E+02  0.98608868207E+02  0.00000000000E+00 0. -1.
</event>
<event>
 4    1  0.2939002E+006  0.2002469E+02  0.7546771E-02  0.1533658E+00
         21   -1    0    0  503  501  0.00000000000E+00  0.00000000000E+00  0.23029688184E+02  0.23029688184E+02  0.00000000000E+00 0.  1.
         21   -1    0    0  504  502 -0.00000000000E+00 -0.00000000000E+00 -0.20082409775E+03  0.20082409775E+03  0.00000000000E+00 0. -1.
         21    1    1    2  503  502  0.11202875451E+02  0.16597710082E+02 -0.19586197387E+03  0.19688296322E+03  0.00000000000E+00 0. -1.
         21    1    1    2  504  501 -0.11202875451E+02 -0.16597710082E+02  0.18067564299E+02  0.26970822717E+02  0.00000000000E+00 0.  1.
</event>
<event>
 4    1  0.2939002E+006  0.3898368E+02  0.7546771E-02  0.1354547E+00
         21   -1    0    0  503  501  0.00000000000E+00  0.00000000000E+00  0.24316427303E+02  0.24316427303E+02  0.00000000000E+00 0.  1.
         21   -1    0    0  504  502 -0.00000000000E+00 -0.00000000000E+00 -0.66543713620E+02  0.66543713620E+02  0.00000000000E+00 0. -1.
         21    1    1    2  503  502 -0.20282760270E+02 -0.33291694232E+02 -0.99118064374E+01  0.40224012429E+02  0.00000000000E+00 0.  1.
         21    1    1    2  504  501  0.20282760270E+02  0.33291694232E+02 -0.32315479879E+02  0.50636128494E+02  0.00000000000E+00 0. -1.
</event>
<event>
 4    1  0.2939002E+006  0.3897188E+02  0.7546771E-02  0.1354618E+00
         21   -1    0    0  504  501  0.00000000000E+00  0.00000000000E+00  0.28733845908E+02  0.28733845908E+02  0.00000000000E+00 0. -1.
         21   -1    0    0  503  502 -0.00000000000E+00 -0.00000000000E+00 -0.70946060387E+02  0.70946060387E+02  0.00000000000E+00 0. -1.
         21    1    1    2  503  501 -0.37623133477E+02 -0.10164030849E+02  0.40597634630E+01  0.39182768855E+02  0.00000000000E+00 0. -1.
         21    1    1    2  504  502  0.37623133477E+02  0.10164030849E+02 -0.46271977942E+02  0.60497137440E+02  0.00000000000E+00 0. -1.
</event>
<event>
 4    1  0.2939002E+006  0.2117615E+02  0.7546771E-02  0.1516765E+00
         21   -1    0    0  502  501  0.00000000000E+00  0.00000000000E+00  0.13332418238E+02  0.13332418238E+02  0.00000000000E+00 0. -1.
         21   -1    0    0  503  502 -0.00000000000E+00 -0.00000000000E+00 -0.29896042971E+03  0.29896042971E+03  0.00000000000E+00 0. -1.
         21    1    1    2  503  504  0.40526259173E+00 -0.21172268520E+02 -0.28991480660E+03  0.29068715878E+03  0.00000000000E+00 0. -1.
         21    1    1    2  504  501 -0.40526259173E+00  0.21172268520E+02  0.42867951289E+01  0.21605689171E+02  0.00000000000E+00 0. -1.
</event>
<event>
 4    1  0.2939002E+006  0.2522919E+02  0.7546771E-02  0.1466256E+00
         21   -1    0    0  504  501  0.00000000000E+00  0.00000000000E+00  0.17149756350E+04  0.17149756350E+04  0.00000000000E+00 0. -1.
         21   -1    0    0  503  502 -0.00000000000E+00 -0.00000000000E+00 -0.65061103923E+00  0.65061103923E+00  0.00000000000E+00 0.  1.
         21    1    1    2  503  501 -0.24646496456E+02  0.53909509498E+01  0.14193654235E+04  0.14195896299E+04  0.00000000000E+00 0. -1.
         21    1    1    2  504  502  0.24646496456E+02 -0.53909509498E+01  0.29495960053E+03  0.29603661612E+03  0.00000000000E+00 0.  1.
</event>
<event>
 4    1  0.2939002E+006  0.2156237E+02  0.7546771E-02  0.1511385E+00
         21   -1    0    0  503  501  0.00000000000E+00  0.00000000000E+00  0.69064421187E+02  0.69064421187E+02  0.00000000000E+00 0.  1.
         21   -1    0    0  504  502 -0.00000000000E+00 -0.00000000000E+00 -0.75652522931E+01  0.75652522931E+01  0.00000000000E+00 0.  1.
         21    1    1    2  503  502  0.18501584548E+02  0.11073712001E+02  0.43466037718E+02  0.48520430369E+02  0.00000000000E+00 0.  1.
         21    1    1    2  504  501 -0.18501584548E+02 -0.11073712001E+02  0.18033131175E+02  0.28109243111E+02  0.00000000000E+00 0.  1.
</event>
<event>
 4    1  0.2939002E+006  0.2196516E+02  0.7546771E-02  0.1505918E+00
         21   -1    0    0  503  501  0.00000000000E+00  0.00000000000E+00  0.25570174982E+03  0.25570174982E+03  0.00000000000E+00 0.  1.
         21   -1    0    0  501  502 -0.00000000000E+00 -0.00000000000E+00 -0.60611270309E+01  0.60611270309E+01  0.00000000000E+00 0.  1.
         21    1    1    2  503  504 -0.21480390453E+02  0.45892208117E+01  0.23343599871E+03  0.23446712694E+03  0.00000000000E+00 0.  1.
         21    1    1    2  504  502  0.21480390453E+02 -0.45892208117E+01  0.16204624080E+02  0.27295749912E+02  0.00000000000E+00 0.  1.
</event>
<event>
 4    1  0.2939002E+006  0.2713812E+02  0.7546771E-02  0.1446226E+00
         21   -1    0    0  504  501  0.00000000000E+00  0.00000000000E+00  0.29906240666E+02  0.29906240666E+02  0.00000000000E+00 0. -1.
         21   -1    0    0  503  502 -0.00000000000E+00 -0.00000000000E+00 -0.50958663806E+02  0.50958663806E+02  0.00000000000E+00 0. -1.
         21    1    1    2  503  501 -0.16561319059E+02  0.21498848215E+02  0.18538540411E+02  0.32865715329E+02  0.00000000000E+00 0. -1.
         21    1    1    2  504  502  0.16561319059E+02 -0.21498848215E+02 -0.39590963550E+02  0.47999189143E+02  0.00000000000E+00 0. -1.
</event>
<event>
 4    1  0.2939002E+006  0.2053312E+02  0.7546771E-02  0.1526036E+00
         21   -1    0    0  503  501  0.00000000000E+00  0.00000000000E+00  0.73649900451E+01  0.73649900451E+01  0.00000000000E+00 0.  1.
         21   -1    0    0  504  502 -0.00000000000E+00 -0.00000000000E+00 -0.60281028014E+02  0.60281028014E+02  0.00000000000E+00 0.  1.
         21    1    1    2  503  502 -0.19357212993E+02 -0.68489065827E+01 -0.18867503037E+02  0.27885334624E+02  0.00000000000E+00 0.  1.
         21    1    1    2  504  501  0.19357212993E+02  0.68489065827E+01 -0.34048534932E+02  0.39760683436E+02  0.00000000000E+00 0.  1.
</event>
<event>
 4    1  0.2939002E+006  0.2108958E+02  0.7546771E-02  0.1517990E+00
         21   -1    0    0  504  501  0.00000000000E+00  0.00000000000E+00  0.14174451891E+03  0.14174451891E+03  0.00000000000E+00 0.  1.
         21   -1    0    0  501  502 -0.00000000000E+00 -0.00000000000E+00 -0.52980248848E+01  0.52980248848E+01  0.00000000000E+00 0.  1.
         21    1    1    2  503  502  0.18216021415E+02  0.10627641710E+02  0.21276826899E+02  0.29957863198E+02  0.00000000000E+00 0.  1.
         21    1    1    2  504  503 -0.18216021415E+02 -0.10627641710E+02  0.11516966713E+03  0.11708468060E+03  0.00000000000E+00 0.  1.
</event>
<event>
 4    1  0.2939002E+006  0.3904115E+02  0.7546771E-02  0.1354198E+00
         21   -1    0    0  503  501  0.00000000000E+00  0.00000000000E+00  0.14107240870E+02  0.14107240870E+02  0.00000000000E+00 0. -1.
         21   -1    0    0  504  502 -0.00000000000E+00 -0.00000000000E+00 -0.11790135953E+03  0.11790135953E+03  0.00000000000E+00 0. -1.
         21    1    1    2  503  502 -0.36357412777E+02 -0.14224974301E+02 -0.70981509584E+02  0.81009789905E+02  0.00000000000E+00 0. -1.
         21    1    1    2  504  501  0.36357412777E+02  0.14224974301E+02 -0.32812609079E+02  0.50998810498E+02  0.00000000000E+00 0. -1.
</event>
<event>
 4    1  0.2939002E+006  0.2028520E+02  0.7546771E-02  0.1529720E+00
         21   -1    0    0  504  501  0.00000000000E+00  0.00000000000E+00  0.21259116624E+03  0.21259116624E+03  0.00000000000E+00 0. -1.
         21   -1    0    0  503  502 -0.00000000000E+00 -0.00000000000E+00 -0.30044796375E+01  0.30044796375E+01  0.00000000000E+00 0.  1.
         21    1    1    2  503  501  0.19800205801E+02 -0.44092357162E+01  0.40496207858E+02  0.45292740701E+02  0.00000000000E+00 0.  1.
         21    1    1    2  504  502 -0.19800205801E+02  0.44092357162E+01  0.16909047875E+03  0.17030290518E+03  0.00000000000E+00 0. -1.
</event>
<event>
 4    1  0.2939002E+006  0.2008256E+02  0.7546771E-02  0.1532777E+00
         21   -1    0    0  503  501  0.00000000000E+00  0.00000000000E+00  0.85327953900E+02  0.85327953900E+02  0.00000000000E+00 0. -1.
         21   -1    0    0  504  502 -0.00000000000E+00 -0.00000000000E+00 -0.58242085906E+01  0.58242085906E+01  0.00000000000E+00 0.  1.
         21    1    1    2  503  502  0.20080611090E+02  0.28006018483E+00  0.59537338653E+02  0.62833144672E+02  0.00000000000E+00 0. -1.
         21    1    1    2  504  501 -0.20080611090E+02 -0.28006018483E+00  0.19966406657E+02  0.28319017819E+02  0.00000000000E+00 0.  1.
</event>
<event>
 4    1  0.2939002E+006  0.7729648E+02  0.7546771E-02  0.1210267E+00
         21   -1    0    0  504  501  0.00000000000E+00  0.00000000000E+00  0.13765450135E+02  0.13765450135E+02  0.00000000000E+00 0.  1.
         21   -1    0    0  503  502 -0.00000000000E+00 -0.00000000000E+00 -0.58970896673E+03  0.58970896673E+03  0.00000000000E+00 0. -1.
         21    1    1    2  503  501 -0.76916693005E+02 -0.76529397848E+01 -0.13294305273E+03  0.15378101450E+03  0.00000000000E+00 0.  1.
         21    1    1    2  504  502  0.76916693005E+02  0.76529397848E+01 -0.44300046386E+03  0.44969340237E+03  0.00000000000E+00 0. -1.
</event>
<event>
 4    1  0.2939002E+006  0.2806042E+02  0.7546771E-02  0.1437237E+00
         21   -1    0    0  504  501  0.00000000000E+00  0.00000000000E+00  0.63370961049E+01  0.63370961049E+01  0.00000000000E+00 0. -1.
         21   -1    0    0  503  502 -0.00000000000E+00 -0.00000000000E+00 -0.18668207523E+03  0.18668207523E+03  0.00000000000E+00 0. -1.
         21    1    1    2  503  501 -0.11225872653E+02  0.25717058677E+02 -0.14598368273E+03  0.14865605587E+03  0.00000000000E+00 0. -1.
         21    1    1    2  504  502  0.11225872653E+02 -0.25717058677E+02 -0.34361296403E+02  0.44363115471E+02  0.00000000000E+00 0. -1.
</event>
<event>
 4    1  0.2939002E+006  0.2335424E+02  0.7546771E-02  0.1488097E+00
         21   -1    0    0  503  501  0.00000000000E+00  0.00000000000E+00  0.26274248387E+02  0.26274248387E+02  0.00000000000E+00 0. -1.
         21   -1    0    0  504  502 -0.00000000000E+00 -0.00000000000E+00 -0.15037336108E+03  0.15037336108E+03  0.00000000000E+00 0.  1.
         21    1    1    2  503  502  0.10435985668E+02 -0.20892843859E+02 -0.14405058215E+03  0.14593145973E+03  0.00000000000E+00 0.  1.
         21    1    1    2  504  501 -0.10435985668E+02  0.20892843859E+02  0.19951469455E+02  0.30716149739E+02  0.00000000000E+00 0. -1.
</event>
<event>
 4    1  0.2939002E+006  0.2080089E+02  0.7546771E-02  0.1522127E+00
         21   -1    0    0  504  501  0.00000000000E+00  0.00000000000E+00  0.16524995548E+02  0.16524995548E+02  0.00000000000E+00 0. -1.
         21   -1    0    0  503  502 -0.00000000000E+00 -0.00000000000E+00 -0.11091982523E+03  0.11091982523E+03  0.00000000000E+00 0. -1.
         21    1    1    2  503  501  0.12673855510E+02  0.16493946942E+02 -0.10289331728E+03  0.10497481431E+03  0.00000000000E+00 0. -1.
         21    1    1    2  504  502 -0.12673855510E+02 -0.16493946942E+02  0.84984875964E+01  0.22470006467E+02  0.00000000000E+00 0. -1.
</event>
<event>
 4    1  0.2939002E+006  0.2003777E+02  0.7546771E-02  0.1533459E+00
         21   -1    0    0  503  501  0.00000000000E+00  0.00000000000E+00  0.11431114173E+01  0.11431114173E+01  0.00000000000E+00 0. -1.
         21   -1    0    0  504  502 -0.00000000000E+00 -0.00000000000E+00 -0.70480540815E+03  0.70480540815E+03  0.00000000000E+00 0. -1.
         21    1    1    2  503  502 -0.31629144853E+00 -0.20035277542E+02 -0.60183121192E+03  0.60216469510E+03  0.00000000000E+00 0. -1.
         21    1    1    2  504  501  0.31629144853E+00  0.20035277542E+02 -0.10183108481E+03  0.10378382447E+03  0.00000000000E+00 0. -1.
</event>
<event>
 4    1  0.2939002E+006  0.2595827E+02  0.7546771E-02  0.1458363E+00
         21   -1    0    0  504  501  0.00000000000E+00  0.00000000000E+00  0.74567319347E+02  0.74567319347E+02  0.00000000000E+00 0. -1.
         21   -1    0    0  501  502 -0.00000000000E+00 -0.00000000000E+00 -0.19415451032E+02  0.19415451032E+02  0.00000000000E+00 0. -1.
         21    1    1    2  503  502 -0.15384041360E+02  0.20908449581E+02 -0.67814427313E+01  0.26829460635E+02  0.00000000000E+00 0. -1.
         21    1    1    2  504  503  0.15384041360E+02 -0.20908449581E+02  0.61933311046E+02  0.67153309744E+02  0.00000000000E+00 0. -1.
</event>
<event>
 4    1  0.2939002E+006  0.2412146E+02  0.7546771E-02  0.1478876E+00
         21   -1    0    0  504  501  0.00000000000E+00  0.00000000000E+00  0.48732418140E+01  0.48732418140E+01  0.00000000000E+00 0.  1.
         21   -1    0    0  501  502 -0.00000000000E+00 -0.00000000000E+00 -0.12201791651E+03  0.12201791651E+03  0.00000000000E+00 0.  1.
         21    1    1    2  503  502  0.10426924714E+01  0.24098913602E+02 -0.67872948514E+02  0.72031812308E+02  0.00000000000E+00 0.  1.
         21    1    1    2  504  503 -0.10426924714E+01 -0.24098913602E+02 -0.49271726184E+02  0.54859346018E+02  0.00000000000E+00 0.  1.
</event>
<event>
 4    1  0.2939002E+006  0.2297533E+02  0.7546771E-02  0.1492808E+00
         21   -1    0    0  504  501  0.00000000000E+00  0.00000000000E+00  0.49286404463E+02  0.49286404463E+02  0.00000000000E+00 0. -1.
         21   -1    0    0  503  502 -0.00000000000E+00 -0.00000000000E+00 -0.11501335558E+02  0.11501335558E+02  0.00000000000E+00 0. -1.
         21    1    1    2  503  501  0.26986751537E+00 -0.22973748151E+02  0.10920950060E+02  0.25438810561E+02  0.00000000000E+00 0. -1.
         21    1    1    2  504  502 -0.26986751537E+00  0.22973748151E+02  0.26864118846E+02  0.35348929459E+02  0.00000000000E+00 0. -1.
</event>
<event>
 4    1  0.2939002E+006  0.2953804E+02  0.7546771E-02  0.1423654E+00
         21   -1    0    0  504  501  0.00000000000E+00  0.00000000000E+00  0.26809594224E+02  0.26809594224E+02  0.00000000000E+00 0. -1.
         21   -1    0    0  503  502 -0.00000000000E+00 -0.00000000000E+00 -0.74073213828E+02  0.74073213828E+02  0.00000000000E+00 0.  1.
         21    1    1    2  503  501 -0.25667708164E+02  0.14617277306E+02 -0.61400552671E+02  0.68136069057E+02  0.00000000000E+00 0.  1.
         21    1    1    2  504  502  0.25667708164E+02 -0.14617277306E+02  0.14136933067E+02  0.32746738994E+02  0.00000000000E+00 0. -1.
</event>
<event>
 4    1  0.2939002E+006  0.2866265E+02  0.7546771E-02  0.1431585E+00
         21   -1    0    0  504  501  0.00000000000E+00  0.00000000000E+00  0.37230829981E+03  0.37230829981E+03  0.00000000000E+00 0. -1.
         21   -1    0    0  503  502 -0.00000000000E+00 -0.00000000000E+00 -0.11723432333E+02  0.11723432333E+02  0.00000000000E+00 0.  1.
         21    1    1    2  503  501  0.14432541307E+02  0.24763872739E+02  0.72888141663E+01  0.29574895665E+02  0.00000000000E+00 0.  1.
         21    1    1    2  504  502 -0.14432541307E+02 -0.24763872739E+02  0.35329605331E+03  0.35445683648E+03  0.00000000000E+00 0. -1.
</event>
<event>
 4    1  0.2939002E+006  0.2687696E+02  0.7546771E-02  0.1448848E+00
         21   -1    0    0  504  501  0.00000000000E+00  0.00000000000E+00  0.14705773033E+03  0.14705773033E+03  0.00000000000E+00 0. -1.
         21   -1    0    0  503  502 -0.00000000000E+00 -0.00000000000E+00 -0.60559654083E+01  0.60559654083E+01  0.00000000000E+00 0. -1.
         21    1    1    2  503  501  0.53952557458E+01  0.26329875986E+02  0.10377207401E+03  0.10719614964E+03  0.00000000000E+00 0. -1.
         21    1    1    2  504  502 -0.53952557458E+01 -0.26329875986E+02  0.37229690912E+02  0.45917546096E+02  0.00000000000E+00 0. -1.
</event>
<event>
 4    1  0.2939002E+006  0.3183912E+02  0.7546771E-02  0.1404260E+00
         21   -1    0    0  504  501  0.00000000000E+00  0.00000000000E+00  0.32264080364E+03  0.32264080364E+03  0.00000000000E+00 0.  1.
         21   -1    0    0  501  502 -0.00000000000E+00 -0.00000000000E+00 -0.14096915881E+02  0.14096915881E+02  0.00000000000E+00 0.  1.
         21    1    1    2  503  502 -0.30687896418E+02  0.84842695412E+01  0.58477474201E+01  0.32371684635E+02  0.00000000000E+00 0.  1.
         21    1    1    2  504  503  0.30687896418E+02 -0.84842695412E+01  0.30269614034E+03  0.30436603489E+03  0.00000000000E+00 0.  1.
</event>
<event>
 4    1  0.2939002E+006  0.2368334E+02  0.7546771E-02  0.1484091E+00
         21   -1    0    0  504  501  0.00000000000E+00  0.00000000000E+00  0.61502581943E+02  0.61502581943E+02  0.00000000000E+00 0.  1.
         21   -1    0    0  503  502 -0.00000000000E+00 -0.00000000000E+00 -0.54484594324E+02  0.54484594324E+02  0.00000000000E+00 0. -1.
         21    1    1    2  503  501  0.13686370789E+02  0.19328317800E+02  0.56426803869E+02  0.61195463959E+02  0.00000000000E+00 0.  1.
         21    1    1    2  504  502 -0.13686370789E+02 -0.19328317800E+02 -0.49408816250E+02  0.54791712307E+02  0.00000000000E+00 0. -1.
</event>
<event>
 4    1  0.2939002E+006  0.4856380E+02  0.7546771E-02  0.1304522E+00
         21   -1    0    0  504  501  0.00000000000E+00  0.00000000000E+00  0.11805825088E+02  0.11805825088E+02  0.00000000000E+00 0.  1.
         21   -1    0    0  503  502 -0.00000000000E+00 -0.00000000000E+00 -0.19979233478E+03  0.19979233478E+03  0.00000000000E+00 0.  1.
         21    1    1    2  503  501  0.38517267021E+02  0.29578076885E+02 -0.95127018863E+02  0.10680633038E+03  0.00000000000E+00 0.  1.
         21    1    1    2  504  502 -0.38517267021E+02 -0.29578076885E+02 -0.92859490825E+02  0.10479182949E+03  0.00000000000E+00 0.  1.
</event>
<event>
 4    1  0.2939002E+006  0.5074514E+02  0.7546771E-02  0.1294974E+00
         21   -1    0    0  503  501  0.00000000000E+00  0.00000000000E+00  0.32217770552E+03  0.32217770552E+03  0.00000000000E+00 0. -1.
         21   -1    0    0  504  502 -0.00000000000E+00 -0.00000000000E+00 -0.36715682939E+02  0.36715682939E+02  0.00000000000E+00 0. -1.
         21    1    1    2  503  502  0.48833663907E+02  0.13796476877E+02 -0.15986349244E+02  0.53203692230E+02  0.00000000000E+00 0. -1.
         21    1    1    2  504  501 -0.48833663907E+02 -0.13796476877E+02  0.30144837183E+03  0.30568969623E+03  0.00000000000E+00 0. -1.
</event>
<event>
 4    1  0.2939002E+006  0.2703833E+02  0.7546771E-02  0.1447223E+00
         21   -1    0    0  503  501  0.00000000000E+00  0.00000000000E+00  0.26459695582E+02  0.26459695582E+02  0.00000000000E+00 0. -1.
         21   -1    0    0  504  502 -0.00000000000E+00 -0.00000000000E+00 -0.27829562760E+02  0.27829562760E+02  0.00000000000E+00 0. -1.
         21    1    1    2  503  502 -0.22244377025E+02 -0.15370716658E+02  0.16159118214E+01  0.27086572518E+02  0.00000000000E+00 0. -1.
         21    1    1    2  504  501  0.22244377025E+02  0.15370716658E+02 -0.29857789986E+01  0.27202685824E+02  0.00000000000E+00 0. -1.
</event>
<event>
 4    1  0.2939002E+006  0.2393102E+02  0.7546771E-02  0.1481127E+00
         21   -1    0    0  504  501  0.00000000000E+00  0.00000000000E+00  0.14284301711E+04  0.14284301711E+04  0.00000000000E+00 0.  1.
         21   -1    0    0  503  502 -0.00000000000E+00 -0.00000000000E+00 -0.10948663870E+01  0.10948663870E+01  0.00000000000E+00 0.  1.
         21    1    1    2  503  501  0.23655697197E+02 -0.36196480065E+01  0.14462804563E+03  0.14659456145E+03  0.00000000000E+00 0.  1.
         21    1    1    2  504  502 -0.23655697197E+02  0.36196480065E+01  0.12827072591E+04  0.12829304760E+04  0.00000000000E+00 0.  1.
</event>
<event>
 4    1  0.2939002E+006  0.2335666E+02  0.7546771E-02  0.1488067E+00
         21   -1    0    0  504  501  0.00000000000E+00  0.00000000000E+00  0.21490165220E+03  0.21490165220E+03  0.00000000000E+00 0. -1.
         21   -1    0    0  503  502 -0.00000000000E+00 -0.00000000000E+00 -0.36510308260E+01  0.36510308260E+01  0.00000000000E+00 0. -1.
         21    1    1    2  503  501  0.19814666878E+02  0.12365778384E+02  0.16594641558E+03  0.16758205853E+03  0.00000000000E+00 0. -1.
         21    1    1    2  504  502 -0.19814666878E+02 -0.12365778384E+02  0.45304205795E+02  0.50970624493E+02  0.00000000000E+00 0. -1.
</event>
<event>
 4    1  0.2939002E+006  0.2312745E+02  0.7546771E-02  0.1490904E+00
         21   -1    0    0  503  501  0.00000000000E+00  0.00000000000E+00  0.23604140332E+01  0.23604140332E+01  0.00000000000E+00 0. -1.
         21   -1    0    0  501  502 -0.00000000000E+00 -0.00000000000E+00 -0.22922697265E+03  0.22922697265E+03  0.00000000000E+00 0. -1.
         21    1    1    2  503  504 -0.22877704693E+02 -0.33896157872E+01 -0.10104637565E+03  0.10365929239E+03  0.00000000000E+00 0. -1.
         21    1    1    2  504  502  0.22877704693E+02  0.33896157872E+01 -0.12582018297E+03  0.12792809429E+03  0.00000000000E+00 0. -1.
</event>
<event>
 4    1  0.2939002E+006  0.2563385E+02  0.7546771E-02  0.1461836E+00
         21   -1    0    0  502  501  0.00000000000E+00  0.00000000000E+00  0.10007579668E+03  0.10007579668E+03  0.00000000000E+00 0.  1.
         21   -1    0    0  504  502 -0.00000000000E+00 -0.00000000000E+00 -0.17013837801E+02  0.17013837801E+02  0.00000000000E+00 0.  1.
         21    1    1    2  503  501  0.12567555573E+02 -0.22341684247E+02  0.87408635572E+02  0.91089867058E+02  0.00000000000E+00 0.  1.
         21    1    1    2  504  503 -0.12567555573E+02  0.22341684247E+02 -0.43466766891E+01  0.25999767428E+02  0.00000000000E+00 0.  1.
</event>
<event>
 4    1  0.2939002E+006  0.4789607E+02  0.7546771E-02  0.1307561E+00
         21   -1    0    0  503  501  0.00000000000E+00  0.00000000000E+00  0.54670313053E+03  0.54670313053E+03  0.00000000000E+00 0.  1.
         21   -1    0    0  504  502 -0.00000000000E+00 -0.00000000000E+00 -0.10055330172E+02  0.10055330172E+02  0.00000000000E+00 0. -1.
         21    1    1    2  503  502 -0.47867618520E+01 -0.47656277037E+02  0.55824322028E+02  0.73555344877E+02  0.00000000000E+00 0. -1.
         21    1    1    2  504  501  0.47867618520E+01  0.47656277037E+02  0.48082347833E+03  0.48320311583E+03  0.00000000000E+00 0.  1.
</event>
<event>
 4    1  0.2939002E+006  0.2658263E+02  0.7546771E-02  0.1451846E+00
         21   -1    0    0  503  501  0.00000000000E+00  0.00000000000E+00  0.19847372445E+02  0.19847372445E+02  0.00000000000E+00 0.  1.
         21   -1    0    0  504  502 -0.00000000000E+00 -0.00000000000E+00 -0.11011656732E+03  0.11011656732E+03  0.00000000000E+00 0.  1.
         21    1    1    2  503  502  0.25018794441E+02 -0.89830890896E+01 -0.98588910773E+02  0.10210979038E+03  0.00000000000E+00 0.  1.
         21    1    1    2  504  501 -0.25018794441E+02  0.89830890896E+01  0.83197159013E+01  0.27854149378E+02  0.00000000000E+00 0.  1.
</event>
<event>
 4    1  0.2939002E+006  0.3204937E+02  0.7546771E-02  0.1402585E+00
         21   -1    0    0  504  501  0.00000000000E+00  0.00000000000E+00  0.18459580024E+02  0.18459580024E+02  0.00000000000E+00 0.  1.
         21   -1    0    0  503  502 -0.00000000000E+00 -0.00000000000E+00 -0.26923380069E+03  0.26923380069E+03  0.00000000000E+00 0.  1.
         21    1    1    2  503  501  0.31736542210E+02  0.44669768906E+01  0.27354169334E+01  0.32165890315E+02  0.00000000000E+00 0.  1.
         21    1    1    2  504  502 -0.31736542210E+02 -0.44669768906E+01 -0.25350963760E+03  0.25552749040E+03  0.00000000000E+00 0.  1.
</event>
<event>
 4    1  0.2939002E+006  0.2131072E+02  0.7546771E-02  0.1514875E+00
         21   -1    0    0  504  501  0.00000000000E+00  0.00000000000E+00  0.51421159218E+02  0.51421159218E+02  0.00000000000E+00 0.  1.
         21   -1    0    0  503  502 -0.00000000000E+00 -0.00000000000E+00 -0.11721295028E+02  0.11721295028E+02  0.00000000000E+00 0.  1.
         21    1    1    2  503  501 -0.12025009242E+02 -0.17593912807E+02  0.41749516042E+01  0.21715819948E+02  0.00000000000E+00 0.  1.
         21    1    1    2  504  502  0.12025009242E+02  0.17593912807E+02  0.35524912586E+02  0.41426634299E+02  0.00000000000E+00 0.  1.
</event>
<event>
 4    1  0.2939002E+006  0.3466395E+02  0.7546771E-02  0.1382941E+00
         21   -1    0    0  502  501  0.00000000000E+00  0.00000000000E+00  0.33459193741E+02  0.33459193741E+02  0.00000000000E+00 0.  1.
         21   -1    0    0  503  502 -0.00000000000E+00 -0.00000000000E+00 -0.36088494474E+02  0.36088494474E+02  0.00000000000E+00 0.  1.
         21    1    1    2  503  504  0.26951226175E+02 -0.21799557626E+02  0.11166192574E+01  0.34681928199E+02  0.00000000000E+00 0.  1.
         21    1    1    2  504  501 -0.26951226175E+02  0.21799557626E+02 -0.37459199903E+01  0.34865760017E+02  0.00000000000E+00 0.  1.
</event>
<event>
 4    1  0.2939002E+006  0.2183293E+02  0.7546771E-02  0.1507697E+00
         21   -1    0    0  503  501  0.00000000000E+00  0.00000000000E+00  0.53842609041E+02  0.53842609041E+02  0.00000000000E+00 0. -1.
         21   -1    0    0  504  502 -0.00000000000E+00 -0.00000000000E+00 -0.28610955825E+02  0.28610955825E+02  0.00000000000E+00 0. -1.
         21    1    1    2  503  502  0.68491312026E+01  0.20730802223E+02  0.46875451315E+02  0.51710585908E+02  0.00000000000E+00 0. -1.
         21    1    1    2  504  501 -0.68491312026E+01 -0.20730802223E+02 -0.21643798099E+02  0.30742978957E+02  0.00000000000E+00 0. -1.
</event>
<event>
 4    1  0.2939002E+006  0.2367561E+02  0.7546771E-02  0.1484184E+00
         21   -1    0    0  502  501  0.00000000000E+00  0.00000000000E+00  0.28351515088E+03  0.28351515088E+03  0.00000000000E+00 0. -1.
         21   -1    0    0  504  502 -0.00000000000E+00 -0.00000000000E+00 -0.14482921325E+02  0.14482921325E+02  0.00000000000E+00 0. -1.
         21    1    1    2  503  501  0.23511362420E+02 -0.27839238117E+01  0.27297208643E+03  0.27399688751E+03  0.00000000000E+00 0. -1.
         21    1    1    2  504  503 -0.23511362420E+02  0.27839238117E+01 -0.39398568748E+01  0.24001184697E+02  0.00000000000E+00 0. -1.
</event>
<event>
 4    1  0.2939002E+006  0.2280282E+02  0.7546771E-02  0.1494989E+00
         21   -1    0    0  504  501  0.00000000000E+00  0.00000000000E+00  0.30636598288E+03  0.30636598288E+03  0.00000000000E+00 0. -1.
         21   -1    0    0  503  502 -0.00000000000E+00 -0.00000000000E+00 -0.26346730545E+01  0.26346730545E+01  0.00000000000E+00 0.  1.
         21    1    1    2  503  501  0.16529145079E+02  0.15708471552E+02  0.24402558447E+03  0.24508866680E+03  0.00000000000E+00 0. -1.
         21    1    1    2  504  502 -0.16529145079E+02 -0.15708471552E+02  0.59705725359E+02  0.63911989143E+02  0.00000000000E+00 0.  1.
</event>
<event>
 4    1  0.2939002E+006  0.2633051E+02  0.7546771E-02  0.1454452E+00
         21   -1    0    0  503  501  0.00000000000E+00  0.00000000000E+00  0.14656312819E+04  0.14656312819E+04  0.00000000000E+00 0. -1.
         21   -1    0    0  504  502 -0.00000000000E+00 -0.00000000000E+00 -0.87359338479E+01  0.87359338479E+01  0.00000000000E+00 0.  1.
         21    1    1    2  503  502 -0.25299046228E+02 -0.72975504701E+01  0.14453949184E+04  0.14456347278E+04  0.00000000000E+00 0. -1.
         21    1    1    2  504  501  0.25299046228E+02  0.72975504701E+01  0.11500429634E+02  0.28732487966E+02  0.00000000000E+00 0.  1.
</event>
<event>
 4    1  0.2939002E+006  0.2264782E+02  0.7546771E-02  0.1496968E+00
         21   -1    0    0  503  501  0.00000000000E+00  0.00000000000E+00  0.14036061795E+02  0.14036061795E+02  0.00000000000E+00 0.  1.
         21   -1    0    0  501  502 -0.00000000000E+00 -0.00000000000E+00 -0.50074360564E+02  0.50074360564E+02  0.00000000000E+00 0.  1.
         21    1    1    2  503  504  0.18466728357E+02 -0.13111208667E+02 -0.13560015491E+01  0.22688380046E+02  0.00000000000E+00 0.  1.
         21    1    1    2  504  502 -0.18466728357E+02  0.13111208667E+02 -0.34682297220E+02  0.41422042313E+02  0.00000000000E+00 0.  1.
</event>
<event>
 4    1  0.2939002E+006  0.2761735E+02  0.7546771E-02  0.1441503E+00
         21   -1    0    0  504  501  0.00000000000E+00  0.00000000000E+00  0.42136520294E+02  0.42136520294E+02  0.00000000000E+00 0.  1.
         21   -1    0    0  503  502 -0.00000000000E+00 -0.00000000000E+00 -0.18119313372E+02  0.18119313372E+02  0.00000000000E+00 0.  1.
         21    1    1    2  503  501 -0.39398788660E+01  0.27334871436E+02  0.11053700727E+02  0.29747304780E+02  0.00000000000E+00 0.  1.
         21    1    1    2  504  502  0.39398788660E+01 -0.27334871436E+02  0.12963506196E+02  0.30508528886E+02  0.00000000000E+00 0.  1.
</event>
<event>
 4    1  0.2939002E+006  0.2139563E+02  0.7546771E-02  0.1513691E+00
         21   -1    0    0  503  501  0.00000000000E+00  0.00000000000E+00  0.38985254947E+02  0.38985254947E+02  0.00000000000E+00 0. -1.
         21   -1    0    0  504  502 -0.00000000000E+00 -0.00000000000E+00 -0.37694463584E+02  0.37694463584E+02  0.00000000000E+00 0. -1.
         21    1    1    2  503  502  0.19440881537E+02  0.89344791573E+01  0.32458007344E+02  0.38875378242E+02  0.00000000000E+00 0. -1.
         21    1    1    2  504  501 -0.19440881537E+02 -0.89344791573E+01 -0.31167215980E+02  0.37804340289E+02  0.00000000000E+00 0. -1.
</event>
<event>
 4    1  0.2939002E+006  0.3850446E+02  0.7546771E-02  0.1357480E+00
         21   -1    0    0  503  501  0.00000000000E+00  0.00000000000E+00  0.65677487580E+02  0.65677487580E+02  0.00000000000E+00 0. -1.
         21   -1    0    0  504  502 -0.00000000000E+00 -0.00000000000E+00 -0.62314562284E+02  0.62314562284E+02  0.00000000000E+00 0.  1.
         21    1    1    2  503  502 -0.37441818780E+02  0.89835027224E+01 -0.49425032822E+02  0.62653228043E+02  0.00000000000E+00 0.  1.
         21    1    1    2  504  501  0.37441818780E+02 -0.89835027224E+01  0.52787958118E+02  0.65338821822E+02  0.00000000000E+00 0. -1.
</event>
<event>
 4    1  0.2939002E+006  0.4243499E+02  0.7546771E-02  0.1334779E+00
         21   -1    0    0  504  501  0.00000000000E+00  0.00000000000E+00  0.37108677301E+01  0.37108677301E+01  0.00000000000E+00 0.  1.
         21   -1    0    0  503  502 -0.00000000000E+00 -0.00000000000E+00 -0.48533130581E+03  0.48533130581E+03  0.00000000000E+00 0.  1.
         21    1    1    2  503  501  0.37403740171E+02  0.20042180851E+02 -0.24381239147E+03  0.24747769803E+03  0.00000000000E+00 0.  1.
         21    1    1    2  504  502 -0.37403740171E+02 -0.20042180851E+02 -0.23780804661E+03  0.24156447550E+03  0.00000000000E+00 0.  1.
</event>
<event>
 4    1  0.2939002E+006  0.2326754E+02  0.7546771E-02  0.1489166E+00
         21   -1    0    0  504  501  0.00000000000E+00  0.00000000000E+00  0.18124185308E+01  0.18124185308E+01  0.00000000000E+00 0.  1.
         21   -1    0    0  503  502 -0.00000000000E+00 -0.00000000000E+00 -0.30206480120E+03  0.30206480120E+03  0.00000000000E+00 0.  1.
         21    1    1    2  503  501 -0.11972422266E+02 -0.19950923776E+02 -0.13410175271E+03  0.13610532074E+03  0.00000000000E+00 0.  1.
         21    1    1    2  504  502  0.11972422266E+02  0.19950923776E+02 -0.16615062996E+03  0.16777189899E+03  0.00000000000E+00 0.  1.
</event>
<event>
 4    1  0.2939002E+006  0.2158837E+02  0.7546771E-02  0.1511028E+00
         21   -1    0    0  503  501  0.00000000000E+00  0.00000000000E+00  0.15362523864E+01  0.15362523864E+01  0.00000000000E+00 0.  1.
         21   -1    0    0  504  502 -0.00000000000E+00 -0.00000000000E+00 -0.32665131660E+03  0.32665131660E+03  0.00000000000E+00 0.  1.
         21    1    1    2  503  502 -0.13674563934E+02  0.16705203250E+02 -0.20636272464E+03  0.20748887111E+03  0.00000000000E+00 0.  1.
         21    1    1    2  504  501  0.13674563934E+02 -0.16705203250E+02 -0.11875233957E+03  0.12069869787E+03  0.00000000000E+00 0.  1.
</event>
<event>
 4    1  0.2939002E+006  0.2402645E+02  0.7546771E-02  0.1479996E+00
         21   -1    0    0  503  501  0.00000000000E+00  0.00000000000E+00  0.25000875890E+03  0.25000875890E+03  0.00000000000E+00 0.  1.
         21   -1    0    0  501  502 -0.00000000000E+00 -0.00000000000E+00 -0.22064799793E+03  0.22064799793E+03  0.00000000000E+00 0. -1.
         21    1    1    2  503  504  0.21277949332E+01 -0.23932045777E+02  0.24877420802E+03  0.24993174448E+03  0.00000000000E+00 0.  1.
         21    1    1    2  504  502 -0.21277949332E+01  0.23932045777E+02 -0.21941344705E+03  0.22072501234E+03  0.00000000000E+00 0. -1.
</event>
<event>
 4    1  0.2939002E+006  0.2209891E+02  0.7546771E-02  0.1504134E+00
         21   -1    0    0  502  501  0.00000000000E+00  0.00000000000E+00  0.11341082713E+03  0.11341082713E+03  0.00000000000E+00 0. -1.
         21   -1    0    0  504  502 -0.00000000000E+00 -0.00000000000E+00 -0.62149568223E+02  0.62149568223E+02  0.00000000000E+00 0.  1.
         21    1    1    2  503  501 -0.12527115629E+02 -0.18205302461E+02  0.11031525076E+03  0.11250696074E+03  0.00000000000E+00 0. -1.
         21    1    1    2  504  503  0.12527115629E+02  0.18205302461E+02 -0.59053991852E+02  0.63053434620E+02  0.00000000000E+00 0.  1.
</event>
<event>
 4    1  0.2939002E+006  0.2399455E+02  0.7546771E-02  0.1480373E+00
         21   -1    0    0  503  501  0.00000000000E+00  0.00000000000E+00  0.30486676170E+02  0.30486676170E+02  0.00000000000E+00 0. -1.
         21   -1    0    0  504  502 -0.00000000000E+00 -0.00000000000E+00 -0.18944858377E+02  0.18944858377E+02  0.00000000000E+00 0. -1.
         21    1    1    2  503  502 -0.12258333696E+02 -0.20626969298E+02  0.71610570005E+01  0.25040354327E+02  0.00000000000E+00 0. -1.
         21    1    1    2  504  501  0.12258333696E+02  0.20626969298E+02  0.43807607928E+01  0.24391180221E+02  0.00000000000E+00 0. -1.
</event>
<event>
 4    1  0.2939002E+006  0.6547095E+02  0.7546771E-02  0.1242297E+00
         21   -1    0    0  503  501  0.00000000000E+00  0.00000000000E+00  0.54261700640E+03  0.54261700640E+03  0.00000000000E+00 0.  1.
         21   -1    0    0  501  502 -0.00000000000E+00 -0.00000000000E+00 -0.17532595491E+02  0.17532595491E+02  0.00000000000E+00 0.  1.
         21    1    1    2  503  504  0.15027556653E+02  0.63722976740E+02  0.47014448115E+03  0.47468123870E+03  0.00000000000E+00 0.  1.
         21    1    1    2  504  502 -0.15027556653E+02 -0.63722976740E+02  0.54939929756E+02  0.85468363183E+02  0.00000000000E+00 0.  1.
</event>
<event>
 4    1  0.2939002E+006  0.2178969E+02  0.7546771E-02  0.1508282E+00
         21   -1    0    0  503  501  0.00000000000E+00  0.00000000000E+00  0.20563405087E+01  0.20563405087E+01  0.00000000000E+00 0.  1.
         21   -1    0    0  504  502 -0.00000000000E+00 -0.00000000000E+00 -0.27489564089E+03  0.27489564089E+03  0.00000000000E+00 0.  1.
         21    1    1    2  503  502 -0.21711571762E+02 -0.18434037428E+01 -0.81015809926E+02  0.83894886279E+02  0.00000000000E+00 0.  1.
         21    1    1    2  504  501  0.21711571762E+02  0.18434037428E+01 -0.19182349045E+03  0.19305709512E+03  0.00000000000E+00 0.  1.
</event>
<event>
 4    1  0.2939002E+006  0.2010583E+02  0.7546771E-02  0.1532424E+00
         21   -1    0    0  504  501  0.00000000000E+00  0.00000000000E+00  0.11919567931E+02  0.11919567931E+02  0.00000000000E+00 0. -1.
         21   -1    0    0  503  502 -0.00000000000E+00 -0.00000000000E+00 -0.11901026954E+03  0.11901026954E+03  0.00000000000E+00 0. -1.
         21    1    1    2  503  501 -0.10265923889E+02 -0.17287427735E+02 -0.10890212719E+03  0.11074257382E+03  0.00000000000E+00 0. -1.
         21    1    1    2  504  502  0.10265923889E+02  0.17287427735E+02  0.18114255785E+01  0.20187263649E+02  0.00000000000E+00 0. -1.
</event>
<event>
 4    1  0.2939002E+006  0.2122388E+02  0.7546771E-02  0.1516092E+00
         21   -1    0    0  503  501  0.00000000000E+00  0.00000000000E+00  0.12863400102E+03  0.12863400102E+03  0.00000000000E+00 0.  1.
         21   -1    0    0  504  502 -0.00000000000E+00 -0.00000000000E+00 -0.20650940807E+03  0.20650940807E+03  0.00000000000E+00 0. -1.
         21    1    1    2  503  502 -0.10441401772E+02 -0.18477827008E+02 -0.20508256096E+03  0.20617785956E+03  0.00000000000E+00 0. -1.
         21    1    1    2  504  501  0.10441401772E+02  0.18477827008E+02  0.12720715391E+03  0.12896554954E+03  0.00000000000E+00 0.  1.
</event>
<event>
 4    1  0.2939002E+006  0.2956914E+02  0.7546771E-02  0.1423378E+00
         21   -1    0    0  504  501  0.00000000000E+00  0.00000000000E+00  0.53343918277E+03  0.53343918277E+03  0.00000000000E+00 0.  1.
         21   -1    0    0  501  502 -0.00000000000E+00 -0.00000000000E+00 -0.31952945870E+02  0.31952945870E+02  0.00000000000E+00 0. -1.
         21    1    1    2  503  502  0.22142526250E+02  0.19597006485E+02 -0.24606943864E+02  0.38468634213E+02  0.00000000000E+00 0. -1.
         21    1    1    2  504  503 -0.22142526250E+02 -0.19597006485E+02  0.52609318077E+03  0.52692349443E+03  0.00000000000E+00 0.  1.
</event>
<event>
 4    1  0.2939002E+006  0.2477486E+02  0.7546771E-02  0.1471338E+00
         21   -1    0    0  502  501  0.00000000000E+00  0.00000000000E+00  0.76055944867E+02  0.76055944867E+02  0.00000000000E+00 0.  1.
         21   -1    0    0  503  502 -0.00000000000E+00 -0.00000000000E+00 -0.26107021650E+02  0.26107021650E+02  0.00000000000E+00 0.  1.
         21    1    1    2  503  504 -0.24046577873E+02  0.59628487093E+01 -0.17483952263E+02  0.30322962567E+02  0.00000000000E+00 0.  1.
         21    1    1    2  504  501  0.24046577873E+02 -0.59628487093E+01  0.67432875480E+02  0.71840003950E+02  0.00000000000E+00 0.  1.
</event>
<event>
 4    1  0.2939002E+006  0.2890667E+02  0.7546771E-02  0.1429341E+00
         21   -1    0    0  503  501  0.00000000000E+00  0.00000000000E+00  0.96359371234E+03  0.96359371234E+03  0.00000000000E+00 0. -1.
         21   -1    0    0  501  502 -0.00000000000E+00 -0.00000000000E+00 -0.10964212535E+02  0.10964212535E+02  0.00000000000E+00 0.  1.
         21    1    1    2  503  504  0.22702839366E+02  0.17893474737E+02  0.94392726472E+03  0.94436977738E+03  0.00000000000E+00 0. -1.
         21    1    1    2  504  502 -0.22702839366E+02 -0.17893474737E+02  0.87022350844E+01  0.30188147490E+02  0.00000000000E+00 0.  1.
</event>
<event>
 4    1  0.2939002E+006  0.4956949E+02  0.7546771E-02  0.1300050E+00
         21   -1    0    0  503  501  0.00000000000E+00  0.00000000000E+00  0.12349715928E+03  0.12349715928E+03  0.00000000000E+00 0.  1.
         21   -1    0    0  504  502 -0.00000000000E+00 -0.00000000000E+00 -0.21802761396E+02  0.21802761396E+02  0.00000000000E+00 0.  1.
         21    1    1    2  503  502 -0.44889485732E+01  0.49365816266E+02  0.29364168989E+02  0.57614137981E+02  0.00000000000E+00 0.  1.
         21    1    1    2  504  501  0.44889485732E+01 -0.49365816266E+02  0.72330228897E+02  0.87685782697E+02  0.00000000000E+00 0.  1.
</event>
<event>
 4    1  0.2939002E+006  0.2857516E+02  0.7546771E-02  0.1432396E+00
         21   -1    0    0  502  501  0.00000000000E+00  0.00000000000E+00  0.58903844463E+01  0.58903844463E+01  0.00000000000E+00 0. -1.
         21   -1    0    0  503  502 -0.00000000000E+00 -0.00000000000E+00 -0.95461063761E+03  0.95461063761E+03  0.00000000000E+00 0.  1.
         21    1    1    2  503  504 -0.22771289775E+02  0.17262918078E+02 -0.91837407790E+03  0.91881852775E+03  0.00000000000E+00 0.  1.
         21    1    1    2  504  501  0.22771289775E+02 -0.17262918078E+02 -0.30346175268E+02  0.41682494311E+02  0.00000000000E+00 0. -1.
</event>
<event>
 4    1  0.2939002E+006  0.3028450E+02  0.7546771E-02  0.1417140E+00
         21   -1    0    0  503  501  0.00000000000E+00  0.00000000000E+00  0.33567217794E+02  0.33567217794E+02  0.00000000000E+00 0. -1.
         21   -1    0    0  504  502 -0.00000000000E+00 -0.00000000000E+00 -0.76143882091E+02  0.76143882091E+02  0.00000000000E+00 0.  1.
         21    1    1    2  503  502  0.15094982082E+02  0.26254383974E+02  0.22636151268E+02  0.37809344164E+02  0.00000000000E+00 0. -1.
         21    1    1    2  504  501 -0.15094982082E+02 -0.26254383974E+02 -0.65212815565E+02  0.71901755721E+02  0.00000000000E+00 0.  1.
</event>
<event>
 4    1  0.2939002E+006  0.2198706E+02  0.7546771E-02  0.1505625E+00
         21   -1    0    0  502  501  0.00000000000E+00  0.00000000000E+00  0.10768784108E+03  0.10768784108E+03  0.00000000000E+00 0.  1.
         21   -1    0    0  504  502 -0.00000000000E+00 -0.00000000000E+00 -0.18964161645E+02  0.18964161645E+02  0.00000000000E+00 0. -1.
         21    1    1    2  503  501  0.21198628783E+02  0.58351326056E+01  0.99687190782E+02  0.10208313593E+03  0.00000000000E+00 0.  1.
         21    1    1    2  504  503 -0.21198628783E+02 -0.58351326056E+01 -0.10963511346E+02  0.24568866800E+02  0.00000000000E+00 0. -1.
</event>
<event>
 4    1  0.2939002E+006  0.2015381E+02  0.7546771E-02  0.1531697E+00
         21   -1    0    0  504  501  0.00000000000E+00  0.00000000000E+00  0.59680352366E+02  0.59680352366E+02  0.00000000000E+00 0. -1.
         21   -1    0    0  501  502 -0.00000000000E+00 -0.00000000000E+00 -0.14907493446E+03  0.14907493446E+03  0.00000000000E+00 0. -1.
         21    1    1    2  503  502  0.19398000074E+02  0.54674962143E+01 -0.14666447654E+03  0.14804271208E+03  0.00000000000E+00 0. -1.
         21    1    1    2  504  503 -0.19398000074E+02 -0.54674962143E+01  0.57269894448E+02  0.60712574743E+02  0.00000000000E+00 0. -1.
</event>
<event>
 4    1  0.2939002E+006  0.2167084E+02  0.7546771E-02  0.1509899E+00
         21   -1    0    0  503  501  0.00000000000E+00  0.00000000000E+00  0.46340012945E+01  0.46340012945E+01  0.00000000000E+00 0.  1.
         21   -1    0    0  504  502 -0.00000000000E+00 -0.00000000000E+00 -0.12796154249E+03  0.12796154249E+03  0.00000000000E+00 0. -1.
         21    1    1    2  503  502 -0.99838663832E+01 -0.19234027764E+02 -0.31426113769E+02  0.38173630147E+02  0.00000000000E+00 0.  1.
         21    1    1    2  504  501  0.99838663832E+01  0.19234027764E+02 -0.91901427422E+02  0.94421913633E+02  0.00000000000E+00 0. -1.
</event>
<event>
 4    1  0.2939002E+006  0.2013581E+02  0.7546771E-02  0.1531970E+00
         21   -1    0    0  503  501  0.00000000000E+00  0.00000000000E+00  0.32091884597E+02  0.32091884597E+02  0.00000000000E+00 0.  1.
         21   -1    0    0  504  502 -0.00000000000E+00 -0.00000000000E+00 -0.53585530655E+02  0.53585530655E+02  0.00000000000E+00 0. -1.
         21    1    1    2  503  502 -0.12519332013E+02  0.15770774557E+02  0.26702787840E+02  0.33443831757E+02  0.00000000000E+00 0.  1.
         21    1    1    2  504  501  0.12519332013E+02 -0.15770774557E+02 -0.48196433898E+02  0.52233583495E+02  0.00000000000E+00 0. -1.
</event>
<event>
 4    1  0.2939002E+006  0.6009377E+02  0.7546771E-02  0.1259514E+00
         21   -1    0    0  503  501  0.00000000000E+00  0.00000000000E+00  0.16781799370E+03  0.16781799370E+03  0.00000000000E+00 0.  1.
         21   -1    0    0  501  502 -0.00000000000E+00 -0.00000000000E+00 -0.21014917173E+03  0.21014917173E+03  0.00000000000E+00 0. -1.
         21    1    1    2  503  504 -0.47961471830E+02 -0.36207164202E+02  0.15788094239E+03  0.16893091336E+03  0.00000000000E+00 0.  1.
         21    1    1    2  504  502  0.47961471830E+02  0.36207164202E+02 -0.20021212042E+03  0.20903625207E+03  0.00000000000E+00 0. -1.
</event>
<event>
 4    1  0.2939002E+006  0.2664962E+02  0.7546771E-02  0.1451160E+00
         21   -1    0    0  503  501  0.00000000000E+00  0.00000000000E+00  0.22990895963E+02  0.22990895963E+02  0.00000000000E+00 0.  1.
         21   -1    0    0  501  502 -0.00000000000E+00 -0.00000000000E+00 -0.10080941312E+03  0.10080941312E+03  0.00000000000E+00 0. -1.
         21    1    1    2  503  504  0.18895665524E+02 -0.18792446730E+02  0.12641879784E+02  0.29496090490E+02  0.00000000000E+00 0.  1.
         21    1    1    2  504  502 -0.18895665524E+02  0.18792446730E+02 -0.90460396938E+02  0.94304218590E+02  0.00000000000E+00 0. -1.
</event>
<event>
 4    1  0.2939002E+006  0.2390975E+02  0.7546771E-02  0.1481380E+00
         21   -1    0    0  504  501  0.00000000000E+00  0.00000000000E+00  0.28342444964E+03  0.28342444964E+03  0.00000000000E+00 0.  1.
         21   -1    0    0  501  502 -0.00000000000E+00 -0.00000000000E+00 -0.12479482464E+02  0.12479482464E+02  0.00000000000E+00 0. -1.
         21    1    1    2  503  502 -0.20608077261E+02  0.12123673357E+02  0.37247856416E-02  0.23909753615E+02  0.00000000000E+00 0. -1.
         21    1    1    2  504  503  0.20608077261E+02 -0.12123673357E+02  0.27094124239E+03  0.27199417849E+03  0.00000000000E+00 0.  1.
</event>
<event>
 4    1  0.2939002E+006  0.2575797E+02  0.7546771E-02  0.1460500E+00
         21   -1    0    0  503  501  0.00000000000E+00  0.00000000000E+00  0.49812712547E+02  0.49812712547E+02  0.00000000000E+00 0. -1.
         21   -1    0    0  504  502 -0.00000000000E+00 -0.00000000000E+00 -0.50337783074E+03  0.50337783074E+03  0.00000000000E+00 0. -1.
         21    1    1    2  503  502 -0.15955288403E+02 -0.20221314459E+02 -0.49969395157E+03  0.50035739029E+03  0.00000000000E+00 0. -1.
         21    1    1    2  504  501  0.15955288403E+02  0.20221314459E+02  0.46128833377E+02  0.52833152993E+02  0.00000000000E+00 0. -1.
</event>
<event>
 4    1  0.2939002E+006  0.2035327E+02  0.7546771E-02  0.1528702E+00
         21   -1    0    0  503  501  0.00000000000E+00  0.00000000000E+00  0.22824451846E+03  0.22824451846E+03  0.00000000000E+00 0. -1.
         21   -1    0    0  504  502 -0.00000000000E+00 -0.00000000000E+00 -0.23920549166E+02  0.23920549166E+02  0.00000000000E+00 0.  1.
         21    1    1    2  503  502 -0.56205173072E+01 -0.19561834922E+02  0.22336693619E+03  0.22429231770E+03  0.00000000000E+00 0. -1.
         21    1    1    2  504  501  0.56205173072E+01  0.19561834922E+02 -0.19042966890E+02  0.27872749924E+02  0.00000000000E+00 0.  1.
</event>
<event>
 4    1  0.2939002E+006  0.2225884E+02  0.7546771E-02  0.1502021E+00
         21   -1    0    0  503  501  0.00000000000E+00  0.00000000000E+00  0.31086678870E+03  0.31086678870E+03  0.00000000000E+00 0. -1.
         21   -1    0    0  504  502 -0.00000000000E+00 -0.00000000000E+00 -0.56436448402E+01  0.56436448402E+01  0.00000000000E+00 0.  1.
         21    1    1    2  503  502 -0.11416309107E+02  0.19108217437E+02  0.28667118954E+03  0.28753404494E+03  0.00000000000E+00 0. -1.
         21    1    1    2  504  501  0.11416309107E+02 -0.19108217437E+02  0.18551954320E+02  0.28976388600E+02  0.00000000000E+00 0.  1.
</event>
<event>
 4    1  0.2939002E+006  0.2313792E+02  0.7546771E-02  0.1490773E+00
         21   -1    0    0  504  501  0.00000000000E+00  0.00000000000E+00  0.43862830559E+01  0.43862830559E+01  0.00000000000E+00 0.  1.
         21   -1    0    0  503  502 -0.00000000000E+00 -0.00000000000E+00 -0.15638527553E+03  0.15638527553E+03  0.00000000000E+00 0.  1.
         21    1    1    2  503  501 -0.19827026528E+02 -0.11926963820E+02 -0.11366347421E+03  0.11599460684E+03  0.00000000000E+00 0.  1.
         21    1    1    2  504  502  0.19827026528E+02  0.11926963820E+02 -0.38335518262E+02  0.44776951742E+02  0.00000000000E+00 0.  1.
</event>
<event>
 4    1  0.2939002E+006  0.3214935E+02  0.7546771E-02  0.1401794E+00
         21   -1    0    0  503  501  0.00000000000E+00  0.00000000000E+00  0.37601528456E+03  0.37601528456E+03  0.00000000000E+00 0.  1.
         21   -1    0    0  504  502 -0.00000000000E+00 -0.00000000000E+00 -0.79024245350E+02  0.79024245350E+02  0.00000000000E+00 0.  1.
         21    1    1    2  503  502 -0.19408361004E+02 -0.25629981577E+02  0.37202324893E+03  0.37340979925E+03  0.00000000000E+00 0.  1.
         21    1    1    2  504  501  0.19408361004E+02  0.25629981577E+02 -0.75032209718E+02  0.81629730660E+02  0.00000000000E+00 0.  1.
</event>
<event>
 4    1  0.2939002E+006  0.4750439E+02  0.7546771E-02  0.1309371E+00
         21   -1    0    0  503  501  0.00000000000E+00  0.00000000000E+00  0.29441230281E+03  0.29441230281E+03  0.00000000000E+00 0. -1.
         21   -1    0    0  501  502 -0.00000000000E+00 -0.00000000000E+00 -0.12017255239E+02  0.12017255239E+02  0.00000000000E+00 0. -1.
         21    1    1    2  503  504 -0.37057248822E+02  0.29722504604E+02  0.23340279705E+03  0.23818801952E+03  0.00000000000E+00 0. -1.
         21    1    1    2  504  502  0.37057248822E+02 -0.29722504604E+02  0.48992250520E+02  0.68241538532E+02  0.00000000000E+00 0. -1.
</event>
<event>
 4    1  0.2939002E+006  0.2235771E+02  0.7546771E-02  0.1500725E+00
         21   -1    0    0  502  501  0.00000000000E+00  0.00000000000E+00  0.10809784661E+03  0.10809784661E+03  0.00000000000E+00 0. -1.
         21   -1    0    0  504  502 -0.00000000000E+00 -0.00000000000E+00 -0.80353189502E+01  0.80353189502E+01  0.00000000000E+00 0. -1.
         21    1    1    2  503  501 -0.29491006755E+01  0.22162355578E+02  0.87864411083E+02  0.90664336619E+02  0.00000000000E+00 0. -1.
         21    1    1    2  504  503  0.29491006755E+01 -0.22162355578E+02  0.12198116574E+02  0.25468828939E+02  0.00000000000E+00 0. -1.
</event>
<event>
 4    1  0.2939002E+006  0.3132457E+02  0.7546771E-02  0.1408425E+00
         21   -1    0    0  503  501  0.00000000000E+00  0.00000000000E+00  0.23327549143E+02  0.23327549143E+02  0.00000000000E+00 0.  1.
         21   -1    0    0  504  502 -0.00000000000E+00 -0.00000000000E+00 -0.28950547865E+03  0.28950547865E+03  0.00000000000E+00 0. -1.
         21    1    1    2  503  502 -0.48395003878E+01  0.30948467600E+02  0.11518686846E+02  0.33375268650E+02  0.00000000000E+00 0.  1.
         21    1    1    2  504  501  0.48395003878E+01 -0.30948467600E+02 -0.27769661635E+03  0.27945775914E+03  0.00000000000E+00 0. -1.
</event>
<event>
 4    1  0.2939002E+006  0.2080629E+02  0.7546771E-02  0.1522049E+00
         21   -1    0    0  503  501  0.00000000000E+00  0.00000000000E+00  0.20857209948E+03  0.20857209948E+03  0.00000000000E+00 0. -1.
         21   -1    0    0  504  502 -0.00000000000E+00 -0.00000000000E+00 -0.27005815081E+01  0.27005815081E+01  0.00000000000E+00 0.  1.
         21    1    1    2  503  502  0.17967055566E+01 -0.20728565120E+02  0.15375592607E+03  0.15515729556E+03  0.00000000000E+00 0. -1.
         21    1    1    2  504  501 -0.17967055566E+01  0.20728565120E+02  0.52115591897E+02  0.56115385427E+02  0.00000000000E+00 0.  1.
</event>
<event>
 4    1  0.2939002E+006  0.2474955E+02  0.7546771E-02  0.1471625E+00
         21   -1    0    0  503  501  0.00000000000E+00  0.00000000000E+00  0.13864775670E+03  0.13864775670E+03  0.00000000000E+00 0.  1.
         21   -1    0    0  504  502 -0.00000000000E+00 -0.00000000000E+00 -0.57564025256E+01  0.57564025256E+01  0.00000000000E+00 0.  1.
         21    1    1    2  503  502  0.23488739330E+02 -0.77986776911E+01  0.10126128523E+03  0.10424196916E+03  0.00000000000E+00 0.  1.
         21    1    1    2  504  501 -0.23488739330E+02  0.77986776911E+01  0.31630068948E+02  0.40162190064E+02  0.00000000000E+00 0.  1.
</event>
<event>
 4    1  0.2939002E+006  0.2727535E+02  0.7546771E-02  0.1444862E+00
         21   -1    0    0  503  501  0.00000000000E+00  0.00000000000E+00  0.17365118361E+03  0.17365118361E+03  0.00000000000E+00 0. -1.
         21   -1    0    0  504  502 -0.00000000000E+00 -0.00000000000E+00 -0.66703837317E+01  0.66703837317E+01  0.00000000000E+00 0. -1.
         21    1    1    2  503  502 -0.99830453028E+01 -0.25382735649E+02  0.13741668027E+03  0.14009742495E+03  0.00000000000E+00 0. -1.
         21    1    1    2  504  501  0.99830453028E+01  0.25382735649E+02  0.29564119609E+02  0.40224142387E+02  0.00000000000E+00 0. -1.
</event>
<event>
 4    1  0.2939002E+006  0.2054250E+02  0.7546771E-02  0.1525898E+00
         21   -1    0    0  504  501  0.00000000000E+00  0.00000000000E+00  0.42106182354E+03  0.42106182354E+03  0.00000000000E+00 0. -1.
         21   -1    0    0  503  502 -0.00000000000E+00 -0.00000000000E+00 -0.67016814414E+01  0.67016814414E+01  0.00000000000E+00 0.  1.
         21    1    1    2  503  501 -0.11626093548E+02  0.16936001607E+02  0.40442187644E+03  0.40494326559E+03  0.00000000000E+00 0. -1.
         21    1    1    2  504  502  0.11626093548E+02 -0.16936001607E+02  0.99382656558E+01  0.22820239391E+02  0.00000000000E+00 0.  1.
</event>
<event>
 4    1  0.2939002E+006  0.3647552E+02  0.7546771E-02  0.1370476E+00
         21   -1    0    0  504  501  0.00000000000E+00  0.00000000000E+00  0.15158772779E+03  0.15158772779E+03  0.00000000000E+00 0. -1.
         21   -1    0    0  503  502 -0.00000000000E+00 -0.00000000000E+00 -0.20680619655E+02  0.20680619655E+02  0.00000000000E+00 0.  1.
         21    1    1    2  503  501  0.70459517732E+01  0.35788519702E+02  0.13080209202E+03  0.13579267601E+03  0.00000000000E+00 0. -1.
         21    1    1    2  504  502 -0.70459517732E+01 -0.35788519702E+02  0.10501611396E+00  0.36475671443E+02  0.00000000000E+00 0.  1.
</event>
<event>
 4    1  0.2939002E+006  0.3804546E+02  0.7546771E-02  0.1360336E+00
         21   -1    0    0  504  501  0.00000000000E+00  0.00000000000E+00  0.81068514103E+02  0.81068514103E+02  0.00000000000E+00 0. -1.
         21   -1    0    0  503  502 -0.00000000000E+00 -0.00000000000E+00 -0.57823897830E+02  0.57823897830E+02  0.00000000000E+00 0. -1.
         21    1    1    2  503  501  0.28643810447E+02  0.25039746112E+02 -0.46115111820E+02  0.59783445037E+02  0.00000000000E+00 0. -1.
         21    1    1    2  504  502 -0.28643810447E+02 -0.25039746112E+02  0.69359728093E+02  0.79108966897E+02  0.00000000000E+00 0. -1.
</event>
<event>
 4    1  0.2939002E+006  0.4171221E+02  0.7546771E-02  0.1338734E+00
         21   -1    0    0  502  501  0.00000000000E+00  0.00000000000E+00  0.39341970411E+02  0.39341970411E+02  0.00000000000E+00 0. -1.
         21   -1    0    0  503  502 -0.00000000000E+00 -0.00000000000E+00 -0.14703987246E+03  0.14703987246E+03  0.00000000000E+00 0. -1.
         21    1    1    2  503  504 -0.18310374373E+02  0.37478504823E+02 -0.13177515272E+03  0.13821938724E+03  0.00000000000E+00 0. -1.
         21    1    1    2  504  501  0.18310374373E+02 -0.37478504823E+02  0.24077250667E+02  0.48162455639E+02  0.00000000000E+00 0. -1.
</event>
<event>
 4    1  0.2939002E+006  0.2575742E+02  0.7546771E-02  0.1460506E+00
         21   -1    0    0  502  501  0.00000000000E+00  0.00000000000E+00  0.40661231992E+03  0.40661231992E+03  0.00000000000E+00 0. -1.
         21   -1    0    0  504  502 -0.00000000000E+00 -0.00000000000E+00 -0.33699523065E+03  0.33699523065E+03  0.00000000000E+00 0.  1.
         21    1    1    2  503  501 -0.25685616213E+02  0.19219408466E+01  0.40571114125E+03  0.40652795091E+03  0.00000000000E+00 0. -1.
         21    1    1    2  504  503  0.25685616213E+02 -0.19219408466E+01 -0.33609405198E+03  0.33707959967E+03  0.00000000000E+00 0.  1.
</event>
<event>
 4    1  0.2939002E+006  0.2982799E+02  0.7546771E-02  0.1421097E+00
         21   -1    0    0  504  501  0.00000000000E+00  0.00000000000E+00  0.69080273071E+01  0.69080273071E+01  0.00000000000E+00 0.  1.
         21   -1    0    0  503  502 -0.00000000000E+00 -0.00000000000E+00 -0.57691586845E+03  0.57691586845E+03  0.00000000000E+00 0. -1.
         21    1    1    2  503  501 -0.26923720586E+02 -0.12838307767E+02 -0.27731075262E+02  0.40727403694E+02  0.00000000000E+00 0.  1.
         21    1    1    2  504  502  0.26923720586E+02  0.12838307767E+02 -0.54227676589E+03  0.54309649207E+03  0.00000000000E+00 0. -1.
</event>
<event>
 4    1  0.2939002E+006  0.2125948E+02  0.7546771E-02  0.1515592E+00
         21   -1    0    0  504  501  0.00000000000E+00  0.00000000000E+00  0.94831971032E+03  0.94831971032E+03  0.00000000000E+00 0.  1.
         21   -1    0    0  503  502 -0.00000000000E+00 -0.00000000000E+00 -0.71353115022E+00  0.71353115022E+00  0.00000000000E+00 0. -1.
         21    1    1    2  503  501 -0.17724899669E+02 -0.11738538113E+02  0.74724163912E+03  0.74754400043E+03  0.00000000000E+00 0.  1.
         21    1    1    2  504  502  0.17724899669E+02  0.11738538113E+02  0.20036454005E+03  0.20148924104E+03  0.00000000000E+00 0. -1.
</event>
<event>
 4    1  0.2939002E+006  0.2221556E+02  0.7546771E-02  0.1502590E+00
         21   -1    0    0  503  501  0.00000000000E+00  0.00000000000E+00  0.28474129630E+03  0.28474129630E+03  0.00000000000E+00 0.  1.
         21   -1    0    0  504  502 -0.00000000000E+00 -0.00000000000E+00 -0.75712189629E+02  0.75712189629E+02  0.00000000000E+00 0.  1.
         21    1    1    2  503  502  0.39993983591E+01  0.21852596202E+02 -0.73637301405E+02  0.76915429572E+02  0.00000000000E+00 0.  1.
         21    1    1    2  504  501 -0.39993983591E+01 -0.21852596202E+02  0.28266640808E+03  0.28353805636E+03  0.00000000000E+00 0.  1.
</event>
<event>
 4    1  0.2939002E+006  0.3983036E+02  0.7546771E-02  0.1349483E+00
         21   -1    0    0  502  501  0.00000000000E+00  0.00000000000E+00  0.11018189342E+02  0.11018189342E+02  0.00000000000E+00 0. -1.
         21   -1    0    0  503  502 -0.00000000000E+00 -0.00000000000E+00 -0.29093414326E+03  0.29093414326E+03  0.00000000000E+00 0.  1.
         21    1    1    2  503  504 -0.20378225817E+02 -0.34222593162E+02 -0.24725657389E+03  0.25044414807E+03  0.00000000000E+00 0.  1.
         21    1    1    2  504  501  0.20378225817E+02  0.34222593162E+02 -0.32659380029E+02  0.51508184535E+02  0.00000000000E+00 0. -1.
</event>
<event>
 4    1  0.2939002E+006  0.2611694E+02  0.7546771E-02  0.1456686E+00
         21   -1    0    0  502  501  0.00000000000E+00  0.00000000000E+00  0.15492721464E+02  0.15492721464E+02  0.00000000000E+00 0. -1.
         21   -1    0    0  504  502 -0.00000000000E+00 -0.00000000000E+00 -0.49257891830E+02  0.49257891830E+02  0.00000000000E+00 0. -1.
         21    1    1    2  503  501 -0.21658436313E+02  0.14594755939E+02 -0.63320947597E+01  0.26873596494E+02  0.00000000000E+00 0. -1.
         21    1    1    2  504  503  0.21658436313E+02 -0.14594755939E+02 -0.27433075606E+02  0.37877016800E+02  0.00000000000E+00 0. -1.
</event>
<event>
 4    1  0.2939002E+006  0.2301074E+02  0.7546771E-02  0.1492363E+00
         21   -1    0    0  502  501  0.00000000000E+00  0.00000000000E+00  0.14365380435E+03  0.14365380435E+03  0.00000000000E+00 0.  1.
         21   -1    0    0  504  502 -0.00000000000E+00 -0.00000000000E+00 -0.13507705649E+02  0.13507705649E+02  0.00000000000E+00 0. -1.
         21    1    1    2  503  501  0.13288086505E+02 -0.18786192705E+02  0.13208017057E+03  0.13406963018E+03  0.00000000000E+00 0.  1.
         21    1    1    2  504  503 -0.13288086505E+02  0.18786192705E+02 -0.19340718714E+01  0.23091879814E+02  0.00000000000E+00 0. -1.
</event>
<event>
 4    1  0.2939002E+006  0.2044241E+02  0.7546771E-02  0.1527377E+00
         21   -1    0    0  503  501  0.00000000000E+00  0.00000000000E+00  0.94409373136E+00  0.94409373136E+00  0.00000000000E+00 0. -1.
         21   -1    0    0  501  502 -0.00000000000E+00 -0.00000000000E+00 -0.12304115659E+04  0.12304115659E+04  0.00000000000E+00 0. -1.
         21    1    1    2  503  504 -0.48936768458E+01 -0.19848023563E+02 -0.12209459761E+03  0.12379411488E+03  0.00000000000E+00 0. -1.
         21    1    1    2  504  502  0.48936768458E+01  0.19848023563E+02 -0.11073728745E+04  0.11075615447E+04  0.00000000000E+00 0. -1.
</event>
<event>
 4    1  0.2939002E+006  0.2593698E+02  0.7546771E-02  0.1458589E+00
         21   -1    0    0  502  501  0.00000000000E+00  0.00000000000E+00  0.20236345129E+03  0.20236345129E+03  0.00000000000E+00 0.  1.
         21   -1    0    0  503  502 -0.00000000000E+00 -0.00000000000E+00 -0.37039307479E+01  0.37039307479E+01  0.00000000000E+00 0.  1.
         21    1    1    2  503  504 -0.19320648886E+02  0.17304320754E+02  0.66346029736E+02  0.71235683838E+02  0.00000000000E+00 0.  1.
         21    1    1    2  504  501  0.19320648886E+02 -0.17304320754E+02  0.13231349081E+03  0.13483169820E+03  0.00000000000E+00 0.  1.
</event>
<event>
 4    1  0.2939002E+006  0.2057174E+02  0.7546771E-02  0.1525468E+00
         21   -1    0    0  502  501  0.00000000000E+00  0.00000000000E+00  0.28114963002E+03  0.28114963002E+03  0.00000000000E+00 0. -1.
         21   -1    0    0  503  502 -0.00000000000E+00 -0.00000000000E+00 -0.41126094953E+01  0.41126094953E+01  0.00000000000E+00 0.  1.
         21    1    1    2  503  504 -0.20221141513E+02  0.37818120680E+01  0.24950205823E+02  0.32337430900E+02  0.00000000000E+00 0.  1.
         21    1    1    2  504  501  0.20221141513E+02 -0.37818120680E+01  0.25208681470E+03  0.25292480862E+03  0.00000000000E+00 0. -1.
</event>
<event>
 4    1  0.2939002E+006  0.2509933E+02  0.7546771E-02  0.1467695E+00
         21   -1    0    0  504  501  0.00000000000E+00  0.00000000000E+00  0.25592532763E+01  0.25592532763E+01  0.00000000000E+00 0.  1.
         21   -1    0    0  503  502 -0.00000000000E+00 -0.00000000000E+00 -0.49190317273E+03  0.49190317273E+03  0.00000000000E+00 0.  1.
         21    1    1    2  503  501 -0.24717868083E+02  0.43593082683E+01 -0.41941802278E+03  0.42016836436E+03  0.00000000000E+00 0.  1.
         21    1    1    2  504  502  0.24717868083E+02 -0.43593082683E+01 -0.69925896670E+02  0.74294061649E+02  0.00000000000E+00 0.  1.
</event>
<event>
 4    1  0.2939002E+006  0.2310498E+02  0.7546771E-02  0.1491184E+00
         21   -1    0    0  503  501  0.00000000000E+00  0.00000000000E+00  0.15126563258E+03  0.15126563258E+03  0.00000000000E+00 0.  1.
         21   -1    0    0  501  502 -0.00000000000E+00 -0.00000000000E+00 -0.20378383530E+03  0.20378383530E+03  0.00000000000E+00 0.  1.
         21    1    1    2  503  504  0.22554082792E+02 -0.50153011649E+01  0.14972172064E+03  0.15149400492E+03  0.00000000000E+00 0.  1.
         21    1    1    2  504  502 -0.22554082792E+02  0.50153011649E+01 -0.20223992336E+03  0.20355546295E+03  0.00000000000E+00 0.  1.
</event>
<event>
 4    1  0.2939002E+006  0.4516485E+02  0.7546771E-02  0.1320617E+00
         21   -1    0    0  503  501  0.00000000000E+00  0.00000000000E+00  0.26343069279E+02  0.26343069279E+02  0.00000000000E+00 0. -1.
         21   -1    0    0  504  502 -0.00000000000E+00 -0.00000000000E+00 -0.64371318905E+03  0.64371318905E+03  0.00000000000E+00 0.  1.
         21    1    1    2  503  502  0.45148695180E+02 -0.12079072111E+01 -0.62291687803E+03  0.62455208002E+03  0.00000000000E+00 0.  1.
         21    1    1    2  504  501 -0.45148695180E+02  0.12079072111E+01  0.55467582644E+01  0.45504178308E+02  0.00000000000E+00 0. -1.
</event>
<event>
 4    1  0.2939002E+006  0.2810303E+02  0.7546771E-02  0.1436832E+00
         21   -1    0    0  503  501  0.00000000000E+00  0.00000000000E+00  0.79956984772E+02  0.79956984772E+02  0.00000000000E+00 0.  1.
         21   -1    0    0  504  502 -0.00000000000E+00 -0.00000000000E+00 -0.10614596809E+02  0.10614596809E+02  0.00000000000E+00 0.  1.
         21    1    1    2  503  502 -0.20354266542E+01  0.28029223043E+02  0.22738092030E+02  0.36149704497E+02  0.00000000000E+00 0.  1.
         21    1    1    2  504  501  0.20354266542E+01 -0.28029223043E+02  0.46604295933E+02  0.54421877085E+02  0.00000000000E+00 0.  1.
</event>
<event>
 4    1  0.2939002E+006  0.2369209E+02  0.7546771E-02  0.1483986E+00
         21   -1    0    0  503  501  0.00000000000E+00  0.00000000000E+00  0.92398453182E+03  0.92398453182E+03  0.00000000000E+00 0. -1.
         21   -1    0    0  504  502 -0.00000000000E+00 -0.00000000000E+00 -0.98251501941E+01  0.98251501941E+01  0.00000000000E+00 0.  1.
         21    1    1    2  503  502  0.31727930034E+01 -0.23478681130E+02  0.90931975071E+03  0.90962834395E+03  0.00000000000E+00 0. -1.
         21    1    1    2  504  501 -0.31727930034E+01  0.23478681130E+02  0.48396309107E+01  0.24181338060E+02  0.00000000000E+00 0.  1.
</event>
<event>
 4    1  0.2939002E+006  0.3672988E+02  0.7546771E-02  0.1368793E+00
         21   -1    0    0  504  501  0.00000000000E+00  0.00000000000E+00  0.56403849008E+02  0.56403849008E+02  0.00000000000E+00 0.  1.
         21   -1    0    0  501  502 -0.00000000000E+00 -0.00000000000E+00 -0.89058162392E+02  0.89058162392E+02  0.00000000000E+00 0. -1.
         21    1    1    2  503  502 -0.29870081407E+02  0.21374338160E+02 -0.78529414873E+02  0.86694596691E+02  0.00000000000E+00 0. -1.
         21    1    1    2  504  503  0.29870081407E+02 -0.21374338160E+02  0.45875101488E+02  0.58767414709E+02  0.00000000000E+00 0.  1.
</event>
<event>
 4    1  0.2939002E+006  0.2450930E+02  0.7546771E-02  0.1474368E+00
         21   -1    0    0  503  501  0.00000000000E+00  0.00000000000E+00  0.59974128757E+03  0.59974128757E+03  0.00000000000E+00 0. -1.
         21   -1    0    0  501  502 -0.00000000000E+00 -0.00000000000E+00 -0.69212408274E+01  0.69212408274E+01  0.00000000000E+00 0.  1.
         21    1    1    2  503  504  0.15513772584E+02 -0.18974425529E+02  0.57693566328E+03  0.57745602909E+03  0.00000000000E+00 0. -1.
         21    1    1    2  504  502 -0.15513772584E+02  0.18974425529E+02  0.15884383460E+02  0.29206499309E+02  0.00000000000E+00 0.  1.
</event>
<event>
 4    1  0.2939002E+006  0.2668246E+02  0.7546771E-02  0.1450824E+00
         21   -1    0    0  502  501  0.00000000000E+00  0.00000000000E+00  0.12570033785E+02  0.12570033785E+02  0.00000000000E+00 0. -1.
         21   -1    0    0  504  502 -0.00000000000E+00 -0.00000000000E+00 -0.59149276240E+02  0.59149276240E+02  0.00000000000E+00 0. -1.
         21    1    1    2  503  501 -0.20538485963E+02 -0.17033027900E+02 -0.15902130411E+02  0.31061732030E+02  0.00000000000E+00 0. -1.
         21    1    1    2  504  503  0.20538485963E+02  0.17033027900E+02 -0.30677112045E+02  0.40657577996E+02  0.00000000000E+00 0. -1.
</event>
<event>
 4    1  0.2939002E+006  0.2410826E+02  0.7546771E-02  0.1479032E+00
         21   -1    0    0  504  501  0.00000000000E+00  0.00000000000E+00  0.84362544155E+01  0.84362544155E+01  0.00000000000E+00 0.  1.
         21   -1    0    0  501  502 -0.00000000000E+00 -0.00000000000E+00 -0.10224594512E+03  0.10224594512E+03  0.00000000000E+00 0. -1.
         21    1    1    2  503  502  0.24100181695E+02  0.62398480943E+00 -0.78511949137E+02  0.82129984001E+02  0.00000000000E+00 0. -1.
         21    1    1    2  504  503 -0.24100181695E+02 -0.62398480943E+00 -0.15297741565E+02  0.28552215531E+02  0.00000000000E+00 0.  1.
</event>
<event>
 4    1  0.2939002E+006  0.3500548E+02  0.7546771E-02  0.1380525E+00
         21   -1    0    0  502  501  0.00000000000E+00  0.00000000000E+00  0.36005235029E+03  0.36005235029E+03  0.00000000000E+00 0.  1.
         21   -1    0    0  504  502 -0.00000000000E+00 -0.00000000000E+00 -0.10387398706E+03  0.10387398706E+03  0.00000000000E+00 0.  1.
         21    1    1    2  503  501  0.14987476524E+02  0.31634776471E+02  0.35622065933E+03  0.35793650508E+03  0.00000000000E+00 0.  1.
         21    1    1    2  504  503 -0.14987476524E+02 -0.31634776471E+02 -0.10004229610E+03  0.10598983227E+03  0.00000000000E+00 0.  1.
</event>
<event>
 4    1  0.2939002E+006  0.2592484E+02  0.7546771E-02  0.1458718E+00
         21   -1    0    0  503  501  0.00000000000E+00  0.00000000000E+00  0.28203502769E+02  0.28203502769E+02  0.00000000000E+00 0.  1.
         21   -1    0    0  504  502 -0.00000000000E+00 -0.00000000000E+00 -0.53237733201E+02  0.53237733201E+02  0.00000000000E+00 0. -1.
         21    1    1    2  503  502 -0.15621222543E+02 -0.20689972241E+02 -0.42781597110E+02  0.50023620384E+02  0.00000000000E+00 0. -1.
         21    1    1    2  504  501  0.15621222543E+02  0.20689972241E+02  0.17747366678E+02  0.31417615585E+02  0.00000000000E+00 0.  1.
</event>
<event>
 4    1  0.2939002E+006  0.3545247E+02  0.7546771E-02  0.1377410E+00
         21   -1    0    0  503  501  0.00000000000E+00  0.00000000000E+00  0.21101229279E+03  0.21101229279E+03  0.00000000000E+00 0. -1.
         21   -1    0    0  504  502 -0.00000000000E+00 -0.00000000000E+00 -0.10039942735E+02  0.10039942735E+02  0.00000000000E+00 0. -1.
         21    1    1    2  503  502  0.12886655788E+02  0.33027435594E+02  0.29997897517E+02  0.46440836068E+02  0.00000000000E+00 0. -1.
         21    1    1    2  504  501 -0.12886655788E+02 -0.33027435594E+02  0.17097445254E+03  0.17461139946E+03  0.00000000000E+00 0. -1.
</event>
<event>
 4    1  0.2939002E+006  0.2029520E+02  0.7546771E-02  0.1529570E+00
         21   -1    0    0  502  501  0.00000000000E+00  0.00000000000E+00  0.91066270157E+01  0.91066270157E+01  0.00000000000E+00 0.  1.
         21   -1    0    0  504  502 -0.00000000000E+00 -0.00000000000E+00 -0.22476034641E+03  0.22476034641E+03  0.00000000000E+00 0. -1.
         21    1    1    2  503  501  0.17474866286E+02  0.10321056773E+02 -0.33193099229E+01  0.20564848237E+02  0.00000000000E+00 0.  1.
         21    1    1    2  504  503 -0.17474866286E+02 -0.10321056773E+02 -0.21233440947E+03  0.21330212519E+03  0.00000000000E+00 0. -1.
</event>
<event>
 4    1  0.2939002E+006  0.2542685E+02  0.7546771E-02  0.1464084E+00
         21   -1    0    0  504  501  0.00000000000E+00  0.00000000000E+00  0.12400026852E+03  0.12400026852E+03  0.00000000000E+00 0.  1.
         21   -1    0    0  503  502 -0.00000000000E+00 -0.00000000000E+00 -0.72164459458E+02  0.72164459458E+02  0.00000000000E+00 0. -1.
         21    1    1    2  503  501 -0.14977409714E+02 -0.20547548025E+02 -0.68554802687E+02  0.73118298005E+02  0.00000000000E+00 0. -1.
         21    1    1    2  504  502  0.14977409714E+02  0.20547548025E+02  0.12039061175E+03  0.12304642997E+03  0.00000000000E+00 0.  1.
</event>
<event>
 4    1  0.2939002E+006  0.2214427E+02  0.7546771E-02  0.1503533E+00
         21   -1    0    0  502  501  0.00000000000E+00  0.00000000000E+00  0.36247816221E+02  0.36247816221E+02  0.00000000000E+00 0. -1.
         21   -1    0    0  503  502 -0.00000000000E+00 -0.00000000000E+00 -0.38464226064E+02  0.38464226064E+02  0.00000000000E+00 0. -1.
         21    1    1    2  503  504 -0.19461446497E+02  0.10565069315E+02 -0.31185967233E+02  0.38248309004E+02  0.00000000000E+00 0. -1.
         21    1    1    2  504  501  0.19461446497E+02 -0.10565069315E+02  0.28969557390E+02  0.36463733281E+02  0.00000000000E+00 0. -1.
</event>
<event>
 4    1  0.2939002E+006  0.3378649E+02  0.7546771E-02  0.1389301E+00
         21   -1    0    0  504  501  0.00000000000E+00  0.00000000000E+00  0.15834586841E+03  0.15834586841E+03  0.00000000000E+00 0. -1.
         21   -1    0    0  501  502 -0.00000000000E+00 -0.00000000000E+00 -0.22884918769E+02  0.22884918769E+02  0.00000000000E+00 0.  1.
         21    1    1    2  503  502  0.32204641309E+02  0.10217031666E+02 -0.72663380843E+01  0.34559026709E+02  0.00000000000E+00 0.  1.
         21    1    1    2  504  503 -0.32204641309E+02 -0.10217031666E+02  0.14272728773E+03  0.14667176047E+03  0.00000000000E+00 0. -1.
</event>
<event>
 4    1  0.2939002E+006  0.2462558E+02  0.7546771E-02  0.1473036E+00
         21   -1    0    0  504  501  0.00000000000E+00  0.00000000000E+00  0.11973411234E+02  0.11973411234E+02  0.00000000000E+00 0. -1.
         21   -1    0    0  501  502 -0.00000000000E+00 -0.00000000000E+00 -0.63871583580E+02  0.63871583580E+02  0.00000000000E+00 0. -1.
         21    1    1    2  503  502 -0.21899165672E+02 -0.11262591393E+02 -0.43204733727E+02  0.49729955142E+02  0.00000000000E+00 0. -1.
         21    1    1    2  504  503  0.21899165672E+02  0.11262591393E+02 -0.86934386193E+01  0.26115039671E+02  0.00000000000E+00 0. -1.
</event>
<event>
 4    1  0.2939002E+006  0.2352453E+02  0.7546771E-02  0.1486015E+00
         21   -1    0    0  502  501  0.00000000000E+00  0.00000000000E+00  0.94594506415E+01  0.94594506415E+01  0.00000000000E+00 0.  1.
         21   -1    0    0  504  502 -0.00000000000E+00 -0.00000000000E+00 -0.31938334281E+03  0.31938334281E+03  0.00000000000E+00 0. -1.
         21    1    1    2  503  501 -0.23242991005E+02 -0.36286392917E+01 -0.63604752768E+01  0.24369228542E+02  0.00000000000E+00 0.  1.
         21    1    1    2  504  503  0.23242991005E+02  0.36286392917E+01 -0.30356341690E+03  0.30447356491E+03  0.00000000000E+00 0. -1.
</event>
<event>
 4    1  0.2939002E+006  0.2458523E+02  0.7546771E-02  0.1473497E+00
         21   -1    0    0  503  501  0.00000000000E+00  0.00000000000E+00  0.13408722441E+02  0.13408722441E+02  0.00000000000E+00 0. -1.
         21   -1    0    0  501  502 -0.00000000000E+00 -0.00000000000E+00 -0.26129899583E+03  0.26129899583E+03  0.00000000000E+00 0. -1.
         21    1    1    2  503  504 -0.17823124376E+02 -0.16934282948E+02  0.10005529207E+01  0.24605584887E+02  0.00000000000E+00 0. -1.
         21    1    1    2  504  502  0.17823124376E+02  0.16934282948E+02 -0.24889082631E+03  0.25010213339E+03  0.00000000000E+00 0. -1.
</event>
<event>
 4    1  0.2939002E+006  0.6525519E+02  0.7546771E-02  0.1242952E+00
         21   -1    0    0  504  501  0.00000000000E+00  0.00000000000E+00  0.20250935404E+03  0.20250935404E+03  0.00000000000E+00 0.  1.
         21   -1    0    0  501  502 -0.00000000000E+00 -0.00000000000E+00 -0.55109776298E+02  0.55109776298E+02  0.00000000000E+00 0.  1.
         21    1    1    2  503  502  0.63932019394E+02 -0.13074289846E+02 -0.27597747229E+02  0.70851081931E+02  0.00000000000E+00 0.  1.
         21    1    1    2  504  503 -0.63932019394E+02  0.13074289846E+02  0.17499732497E+03  0.18676804840E+03  0.00000000000E+00 0.  1.
</event>
<event>
 4    1  0.2939002E+006  0.2554778E+02  0.7546771E-02  0.1462768E+00
         21   -1    0    0  503  501  0.00000000000E+00  0.00000000000E+00  0.58329576259E+01  0.58329576259E+01  0.00000000000E+00 0. -1.
         21   -1    0    0  504  502 -0.00000000000E+00 -0.00000000000E+00 -0.44163895458E+03  0.44163895458E+03  0.00000000000E+00 0. -1.
         21    1    1    2  503  502  0.23839577046E+02  0.91849726472E+01 -0.24577406493E+02  0.35450501635E+02  0.00000000000E+00 0. -1.
         21    1    1    2  504  501 -0.23839577046E+02 -0.91849726472E+01 -0.41122859046E+03  0.41202141057E+03  0.00000000000E+00 0. -1.
</event>
<event>
 4    1  0.2939002E+006  0.3496011E+02  0.7546771E-02  0.1380844E+00
         21   -1    0    0  503  501  0.00000000000E+00  0.00000000000E+00  0.56391008439E+02  0.56391008439E+02  0.00000000000E+00 0. -1.
         21   -1    0    0  501  502 -0.00000000000E+00 -0.00000000000E+00 -0.31076267345E+02  0.31076267345E+02  0.00000000000E+00 0. -1.
         21    1    1    2  503  504  0.29169718491E+00  0.34958892716E+02  0.36713256065E+02  0.50695881865E+02  0.00000000000E+00 0. -1.
         21    1    1    2  504  502 -0.29169718491E+00 -0.34958892716E+02 -0.11398514971E+02  0.36771393918E+02  0.00000000000E+00 0. -1.
</event>
<event>
 4    1  0.2939002E+006  0.2199946E+02  0.7546771E-02  0.1505459E+00
         21   -1    0    0  503  501  0.00000000000E+00  0.00000000000E+00  0.30921687301E+03  0.30921687301E+03  0.00000000000E+00 0.  1.
         21   -1    0    0  501  502 -0.00000000000E+00 -0.00000000000E+00 -0.17574565696E+02  0.17574565696E+02  0.00000000000E+00 0.  1.
         21    1    1    2  503  504  0.11245166609E+01 -0.21970704244E+02  0.30177132969E+03  0.30257215967E+03  0.00000000000E+00 0.  1.
         21    1    1    2  504  502 -0.11245166609E+01  0.21970704244E+02 -0.10129022378E+02  0.24219279036E+02  0.00000000000E+00 0.  1.
</event>
<event>
 4    1  0.2939002E+006  0.3152069E+02  0.7546771E-02  0.1406826E+00
         21   -1    0    0  504  501  0.00000000000E+00  0.00000000000E+00  0.58763149636E+02  0.58763149636E+02  0.00000000000E+00 0.  1.
         21   -1    0    0  501  502 -0.00000000000E+00 -0.00000000000E+00 -0.35311445851E+02  0.35311445851E+02  0.00000000000E+00 0. -1.
         21    1    1    2  503  502 -0.26089998575E+02  0.17688007104E+02 -0.22231744412E+02  0.38572063472E+02  0.00000000000E+00 0. -1.
         21    1    1    2  504  503  0.26089998575E+02 -0.17688007104E+02  0.45683448196E+02  0.55502532014E+02  0.00000000000E+00 0.  1.
</event>
<event>
 4    1  0.2939002E+006  0.2066403E+02  0.7546771E-02  0.1524116E+00
         21   -1    0    0  504  501  0.00000000000E+00  0.00000000000E+00  0.25890380818E+02  0.25890380818E+02  0.00000000000E+00 0.  1.
         21   -1    0    0  503  502 -0.00000000000E+00 -0.00000000000E+00 -0.20519791683E+02  0.20519791683E+02  0.00000000000E+00 0.  1.
         21    1    1    2  503  501 -0.20378647031E+02 -0.34224140904E+01  0.12965284807E+02  0.24394687601E+02  0.00000000000E+00 0.  1.
         21    1    1    2  504  502  0.20378647031E+02  0.34224140904E+01 -0.75946956724E+01  0.22015484900E+02  0.00000000000E+00 0.  1.
</event>
<event>
 4    1  0.2939002E+006  0.2599310E+02  0.7546771E-02  0.1457993E+00
         21   -1    0    0  503  501  0.00000000000E+00  0.00000000000E+00  0.20223638754E+03  0.20223638754E+03  0.00000000000E+00 0. -1.
         21   -1    0    0  501  502 -0.00000000000E+00 -0.00000000000E+00 -0.92220485603E+01  0.92220485603E+01  0.00000000000E+00 0. -1.
         21    1    1    2  503  504 -0.24339696463E+02  0.91225156749E+01  0.18094057325E+03  0.18279806389E+03  0.00000000000E+00 0. -1.
         21    1    1    2  504  502  0.24339696463E+02 -0.91225156749E+01  0.12073765735E+02  0.28660372209E+02  0.00000000000E+00 0. -1.
</event>
<event>
 4    1  0.2939002E+006  0.3342208E+02  0.7546771E-02  0.1392009E+00
         21   -1    0    0  503  501  0.00000000000E+00  0.00000000000E+00  0.16338220484E+02  0.16338220484E+02  0.00000000000E+00 0.  1.
         21   -1    0    0  501  502 -0.00000000000E+00 -0.00000000000E+00 -0.19263391249E+03  0.19263391249E+03  0.00000000000E+00 0.  1.
         21    1    1    2  503  504 -0.11901691715E+02  0.31231156490E+02 -0.42278503016E+01  0.33688427086E+02  0.00000000000E+00 0.  1.
         21    1    1    2  504  502  0.11901691715E+02 -0.31231156490E+02 -0.17206784170E+03  0.17528370589E+03  0.00000000000E+00 0.  1.
</event>
<event>
 4    1  0.2939002E+006  0.2424005E+02  0.7546771E-02  0.1477487E+00
         21   -1    0    0  503  501  0.00000000000E+00  0.00000000000E+00  0.16937625974E+03  0.16937625974E+03  0.00000000000E+00 0. -1.
         21   -1    0    0  504  502 -0.00000000000E+00 -0.00000000000E+00 -0.10254971156E+02  0.10254971156E+02  0.00000000000E+00 0.  1.
         21    1    1    2  503  502  0.20217540141E+02 -0.13372776375E+02  0.15262204935E+03  0.15453501229E+03  0.00000000000E+00 0. -1.
         21    1    1    2  504  501 -0.20217540141E+02  0.13372776375E+02  0.64992392320E+01  0.25096218598E+02  0.00000000000E+00 0.  1.
</event>
<event>
 4    1  0.2939002E+006  0.2280516E+02  0.7546771E-02  0.1494959E+00
         21   -1    0    0  502  501  0.00000000000E+00  0.00000000000E+00  0.60845558073E+02  0.60845558073E+02  0.00000000000E+00 0. -1.
         21   -1    0    0  504  502 -0.00000000000E+00 -0.00000000000E+00 -0.15290582771E+02  0.15290582771E+02  0.00000000000E+00 0. -1.
         21    1    1    2  503  501  0.10568154674E+01  0.22780661367E+02  0.48057609188E+02  0.53194071024E+02  0.00000000000E+00 0. -1.
         21    1    1    2  504  503 -0.10568154674E+01 -0.22780661367E+02 -0.25026338863E+01  0.22942069820E+02  0.00000000000E+00 0. -1.
</event>
<event>
 4    1  0.2939002E+006  0.2058160E+02  0.7546771E-02  0.1525323E+00
         21   -1    0    0  503  501  0.00000000000E+00  0.00000000000E+00  0.11736945024E+03  0.11736945024E+03  0.00000000000E+00 0.  1.
         21   -1    0    0  504  502 -0.00000000000E+00 -0.00000000000E+00 -0.54017383467E+02  0.54017383467E+02  0.00000000000E+00 0. -1.
         21    1    1    2  503  502 -0.10586463567E+02 -0.17650186191E+02 -0.51105122875E+02  0.55093882305E+02  0.00000000000E+00 0. -1.
         21    1    1    2  504  501  0.10586463567E+02  0.17650186191E+02  0.11445718964E+03  0.11629295140E+03  0.00000000000E+00 0.  1.
</event>
<event>
 4    1  0.2939002E+006  0.2485605E+02  0.7546771E-02  0.1470420E+00
         21   -1    0    0  503  501  0.00000000000E+00  0.00000000000E+00  0.79889112364E+02  0.79889112364E+02  0.00000000000E+00 0.  1.
         21   -1    0    0  501  502 -0.00000000000E+00 -0.00000000000E+00 -0.15518972234E+02  0.15518972234E+02  0.00000000000E+00 0.  1.
         21    1    1    2  503  504  0.17289964019E+02  0.17857219815E+02  0.65973338622E+02  0.70500386979E+02  0.00000000000E+00 0.  1.
         21    1    1    2  504  502 -0.17289964019E+02 -0.17857219815E+02 -0.16031984919E+01  0.24907697620E+02  0.00000000000E+00 0.  1.
</event>
<event>
 4    1  0.2939002E+006  0.2078377E+02  0.7546771E-02  0.1522375E+00
         21   -1    0    0  504  501  0.00000000000E+00  0.00000000000E+00  0.51255934967E+02  0.51255934967E+02  0.00000000000E+00 0. -1.
         21   -1    0    0  501  502 -0.00000000000E+00 -0.00000000000E+00 -0.95462096805E+01  0.95462096805E+01  0.00000000000E+00 0.  1.
         21    1    1    2  503  502  0.13068816499E+02 -0.16160788784E+02  0.10448219684E+02  0.23262208695E+02  0.00000000000E+00 0.  1.
         21    1    1    2  504  503 -0.13068816499E+02  0.16160788784E+02  0.31261505603E+02  0.37539935953E+02  0.00000000000E+00 0. -1.
</event>
<event>
 4    1  0.2939002E+006  0.2575493E+02  0.7546771E-02  0.1460533E+00
         21   -1    0    0  502  501  0.00000000000E+00  0.00000000000E+00  0.30525938026E+02  0.30525938026E+02  0.00000000000E+00 0. -1.
         21   -1    0    0  503  502 -0.00000000000E+00 -0.00000000000E+00 -0.44383354472E+02  0.44383354472E+02  0.00000000000E+00 0.  1.
         21    1    1    2  503  504 -0.77086995844E+01 -0.24574216437E+02 -0.33687457754E+02  0.42404728188E+02  0.00000000000E+00 0.  1.
         21    1    1    2  504  501  0.77086995844E+01  0.24574216437E+02  0.19830041308E+02  0.32504564311E+02  0.00000000000E+00 0. -1.
</event>
<event>
 4    1  0.2939002E+006  0.4538629E+02  0.7546771E-02  0.1319519E+00
         21   -1    0    0  504  501  0.00000000000E+00  0.00000000000E+00  0.41585522421E+02  0.41585522421E+02  0.00000000000E+00 0.  1.
         21   -1    0    0  503  502 -0.00000000000E+00 -0.00000000000E+00 -0.80637977250E+02  0.80637977250E+02  0.00000000000E+00 0.  1.
         21    1    1    2  503  501 -0.42938342252E+02 -0.14704216429E+02 -0.57480428674E+02  0.73238752697E+02  0.00000000000E+00 0.  1.
         21    1    1    2  504  502  0.42938342252E+02  0.14704216429E+02  0.18427973845E+02  0.48984746974E+02  0.00000000000E+00 0.  1.
</event>
<event>
 4    1  0.2939002E+006  0.2045524E+02  0.7546771E-02  0.1527187E+00
         21   -1    0    0  502  501  0.00000000000E+00  0.00000000000E+00  0.21438000787E+03  0.21438000787E+03  0.00000000000E+00 0.  1.
         21   -1    0    0  503  502 -0.00000000000E+00 -0.00000000000E+00 -0.62193583758E+02  0.62193583758E+02  0.00000000000E+00 0.  1.
         21    1    1    2  503  504 -0.49474440746E+00 -0.20449251566E+02 -0.60006437231E+02  0.63397075412E+02  0.00000000000E+00 0.  1.
         21    1    1    2  504  501  0.49474440746E+00  0.20449251566E+02  0.21219286135E+03  0.21317651622E+03  0.00000000000E+00 0.  1.
</event>
<event>
 4    1  0.2939002E+006  0.2129573E+02  0.7546771E-02  0.1515084E+00
         21   -1    0    0  502  501  0.00000000000E+00  0.00000000000E+00  0.50453171541E+01  0.50453171541E+01  0.00000000000E+00 0.  1.
         21   -1    0    0  503  502 -0.00000000000E+00 -0.00000000000E+00 -0.13975763021E+03  0.13975763021E+03  0.00000000000E+00 0.  1.
         21    1    1    2  503  504 -0.20171488492E+02 -0.68278210197E+01 -0.11060578285E+03  0.11263723757E+03  0.00000000000E+00 0.  1.
         21    1    1    2  504  501  0.20171488492E+02  0.68278210197E+01 -0.24106530205E+02  0.32165709791E+02  0.00000000000E+00 0.  1.
</event>
<event>
 4    1  0.2939002E+006  0.2479525E+02  0.7546771E-02  0.1471107E+00
         21   -1    0    0  502  501  0.00000000000E+00  0.00000000000E+00  0.10394749495E+02  0.10394749495E+02  0.00000000000E+00 0. -1.
         21   -1    0    0  504  502 -0.00000000000E+00 -0.00000000000E+00 -0.62106202145E+02  0.62106202145E+02  0.00000000000E+00 0. -1.
         21    1    1    2  503  501 -0.11839266163E+02  0.21786149121E+02 -0.17941099251E+02  0.30605351806E+02  0.00000000000E+00 0. -1.
         21    1    1    2  504  503  0.11839266163E+02 -0.21786149121E+02 -0.33770353399E+02  0.41895599835E+02  0.00000000000E+00 0. -1.
</event>
<event>
 4    1  0.2939002E+006  0.2036708E+02  0.7546771E-02  0.1528496E+00
         21   -1    0    0  504  501  0.00000000000E+00  0.00000000000E+00  0.26139772137E+02  0.26139772137E+02  0.00000000000E+00 0.  1.
         21   -1    0    0  501  502 -0.00000000000E+00 -0.00000000000E+00 -0.14159915042E+03  0.14159915042E+03  0.00000000000E+00 0. -1.
         21    1    1    2  503  502  0.10916572650E+02  0.17194376420E+02 -0.13675984610E+03  0.13826812230E+03  0.00000000000E+00 0. -1.
         21    1    1    2  504  503 -0.10916572650E+02 -0.17194376420E+02  0.21300467814E+02  0.29470800260E+02  0.00000000000E+00 0.  1.
</event>
<event>
 4    1  0.2939002E+006  0.2208790E+02  0.7546771E-02  0.1504280E+00
         21   -1    0    0  503  501  0.00000000000E+00  0.00000000000E+00  0.55247547697E+00  0.55247547697E+00  0.00000000000E+00 0.  1.
         21   -1    0    0  504  502 -0.00000000000E+00 -0.00000000000E+00 -0.88390139698E+03  0.88390139698E+03  0.00000000000E+00 0.  1.
         21    1    1    2  503  502 -0.21825620018E+02 -0.33937376002E+01 -0.42812094349E+03  0.42869035141E+03  0.00000000000E+00 0.  1.
         21    1    1    2  504  501  0.21825620018E+02  0.33937376002E+01 -0.45522797801E+03  0.45576352104E+03  0.00000000000E+00 0.  1.
</event>
<event>
 4    1  0.2939002E+006  0.2273056E+02  0.7546771E-02  0.1495910E+00
         21   -1    0    0  502  501  0.00000000000E+00  0.00000000000E+00  0.77366138163E+02  0.77366138163E+02  0.00000000000E+00 0. -1.
         21   -1    0    0  503  502 -0.00000000000E+00 -0.00000000000E+00 -0.29637482055E+02  0.29637482055E+02  0.00000000000E+00 0.  1.
         21    1    1    2  503  504 -0.19673926071E+02  0.11384850402E+02 -0.23225331659E+02  0.32497603241E+02  0.00000000000E+00 0.  1.
         21    1    1    2  504  501  0.19673926071E+02 -0.11384850402E+02  0.70953987767E+02  0.74506016977E+02  0.00000000000E+00 0. -1.
</event>
<event>
 4    1  0.2939002E+006  0.3838730E+02  0.7546771E-02  0.1358204E+00
         21   -1    0    0  503  501  0.00000000000E+00  0.00000000000E+00  0.86813003944E+02  0.86813003944E+02  0.00000000000E+00 0. -1.
         21   -1    0    0  504  502 -0.00000000000E+00 -0.00000000000E+00 -0.19617037194E+02  0.19617037194E+02  0.00000000000E+00 0. -1.
         21    1    1    2  503  502  0.16958656039E+02  0.34438184655E+02  0.53130114096E+02  0.65546880939E+02  0.00000000000E+00 0. -1.
         21    1    1    2  504  501 -0.16958656039E+02 -0.34438184655E+02  0.14065852654E+02  0.40883160199E+02  0.00000000000E+00 0. -1.
</event>
<event>
 4    1  0.2939002E+006  0.2563032E+02  0.7546771E-02  0.1461874E+00
         21   -1    0    0  503  501  0.00000000000E+00  0.00000000000E+00  0.14980091201E+02  0.14980091201E+02  0.00000000000E+00 0. -1.
         21   -1    0    0  504  502 -0.00000000000E+00 -0.00000000000E+00 -0.82859200014E+02  0.82859200014E+02  0.00000000000E+00 0. -1.
         21    1    1    2  503  502 -0.24665218681E+02  0.69670734142E+01 -0.67504274646E+02  0.72206233941E+02  0.00000000000E+00 0. -1.
         21    1    1    2  504  501  0.24665218681E+02 -0.69670734142E+01 -0.37483416728E+00  0.25633057274E+02  0.00000000000E+00 0. -1.
</event>
<event>
 4    1  0.2939002E+006  0.2577261E+02  0.7546771E-02  0.1460343E+00
         21   -1    0    0  503  501  0.00000000000E+00  0.00000000000E+00  0.16083056312E+03  0.16083056312E+03  0.00000000000E+00 0.  1.
         21   -1    0    0  504  502 -0.00000000000E+00 -0.00000000000E+00 -0.62442653063E+03  0.62442653063E+03  0.00000000000E+00 0. -1.
         21    1    1    2  503  502  0.24717632888E+02  0.72983722493E+01 -0.62312594553E+03  0.62365869802E+03  0.00000000000E+00 0. -1.
         21    1    1    2  504  501 -0.24717632888E+02 -0.72983722493E+01  0.15952997803E+03  0.16159839573E+03  0.00000000000E+00 0.  1.
</event>
<event>
 4    1  0.2939002E+006  0.2144575E+02  0.7546771E-02  0.1512995E+00
         21   -1    0    0  503  501  0.00000000000E+00  0.00000000000E+00  0.13415933238E+02  0.13415933238E+02  0.00000000000E+00 0. -1.
         21   -1    0    0  504  502 -0.00000000000E+00 -0.00000000000E+00 -0.36065591400E+02  0.36065591400E+02  0.00000000000E+00 0. -1.
         21    1    1    2  503  502  0.80298848829E+01 -0.19885706429E+02 -0.16827283371E+02  0.27259454086E+02  0.00000000000E+00 0. -1.
         21    1    1    2  504  501 -0.80298848829E+01  0.19885706429E+02 -0.58223747907E+01  0.22222070552E+02  0.00000000000E+00 0. -1.
</event>
<event>
 4    1  0.2939002E+006  0.2943529E+02  0.7546771E-02  0.1424568E+00
         21   -1    0    0  503  501  0.00000000000E+00  0.00000000000E+00  0.14922789472E+03  0.14922789472E+03  0.00000000000E+00 0. -1.
         21   -1    0    0  504  502 -0.00000000000E+00 -0.00000000000E+00 -0.71802510368E+01  0.71802510368E+01  0.00000000000E+00 0. -1.
         21    1    1    2  503  502  0.16752760341E+02  0.24202921820E+02  0.10523532951E+03  0.10927447543E+03  0.00000000000E+00 0. -1.
         21    1    1    2  504  501 -0.16752760341E+02 -0.24202921820E+02  0.36812314178E+02  0.47133670330E+02  0.00000000000E+00 0. -1.
</event>
<event>
 4    1  0.2939002E+006  0.2516766E+02  0.7546771E-02  0.1466936E+00
         21   -1    0    0  504  501  0.00000000000E+00  0.00000000000E+00  0.13589574788E+03  0.13589574788E+03  0.00000000000E+00 0.  1.
         21   -1    0    0  503  502 -0.00000000000E+00 -0.00000000000E+00 -0.58561023912E+01  0.58561023912E+01  0.00000000000E+00 0. -1.
         21    1    1    2  503  501 -0.16556378720E+02 -0.18955138483E+02  0.97037940967E+02  0.10024855579E+03  0.00000000000E+00 0.  1.
         21    1    1    2  504  502  0.16556378720E+02  0.18955138483E+02  0.33001704517E+02  0.41503294475E+02  0.00000000000E+00 0. -1.
</event>
<event>
 4    1  0.2939002E+006  0.2183686E+02  0.7546771E-02  0.1507644E+00
         21   -1    0    0  503  501  0.00000000000E+00  0.00000000000E+00  0.70332803978E+01  0.70332803978E+01  0.00000000000E+00 0.  1.
         21   -1    0    0  504  502 -0.00000000000E+00 -0.00000000000E+00 -0.88451760854E+02  0.88451760854E+02  0.00000000000E+00 0.  1.
         21    1    1    2  503  502 -0.14264180585E+02 -0.16534259165E+02 -0.63778962305E+02  0.67413682637E+02  0.00000000000E+00 0.  1.
         21    1    1    2  504  501  0.14264180585E+02  0.16534259165E+02 -0.17639518151E+02  0.28071358615E+02  0.00000000000E+00 0.  1.
</event>
<event>
 4    1  0.2939002E+006  0.2016742E+02  0.7546771E-02  0.1531492E+00
         21   -1    0    0  503  501  0.00000000000E+00  0.00000000000E+00  0.60157199139E+03  0.60157199139E+03  0.00000000000E+00 0. -1.
         21   -1    0    0  504  502 -0.00000000000E+00 -0.00000000000E+00 -0.15979683839E+01  0.15979683839E+01  0.00000000000E+00 0. -1.
         21    1    1    2  503  502  0.97112193146E+01  0.17675319848E+02  0.70921694243E+02  0.73733380680E+02  0.00000000000E+00 0. -1.
         21    1    1    2  504  501 -0.97112193146E+01 -0.17675319848E+02  0.52905232876E+03  0.52943657909E+03  0.00000000000E+00 0. -1.
</event>
<event>
 4    1  0.2939002E+006  0.2704101E+02  0.7546771E-02  0.1447197E+00
         21   -1    0    0  503  501  0.00000000000E+00  0.00000000000E+00  0.16535095602E+01  0.16535095602E+01  0.00000000000E+00 0.  1.
         21   -1    0    0  504  502 -0.00000000000E+00 -0.00000000000E+00 -0.54914339737E+03  0.54914339737E+03  0.00000000000E+00 0.  1.
         21    1    1    2  503  502  0.17803117749E+02 -0.20353505658E+02 -0.15222333265E+03  0.15460646558E+03  0.00000000000E+00 0.  1.
         21    1    1    2  504  501 -0.17803117749E+02  0.20353505658E+02 -0.39526655516E+03  0.39619044135E+03  0.00000000000E+00 0.  1.
</event>
<event>
 4    1  0.2939002E+006  0.2018891E+02  0.7546771E-02  0.1531167E+00
         21   -1    0    0  504  501  0.00000000000E+00  0.00000000000E+00  0.10258733356E+03  0.10258733356E+03  0.00000000000E+00 0. -1.
         21   -1    0    0  503  502 -0.00000000000E+00 -0.00000000000E+00 -0.21722919896E+02  0.21722919896E+02  0.00000000000E+00 0. -1.
         21    1    1    2  503  501  0.89664858997E+01  0.18088508868E+02  0.96616453028E+02  0.98703247252E+02  0.00000000000E+00 0. -1.
         21    1    1    2  504  502 -0.89664858997E+01 -0.18088508868E+02 -0.15752039365E+02  0.25607006202E+02  0.00000000000E+00 0. -1.
</event>
<event>
 4    1  0.2939002E+006  0.2246623E+02  0.7546771E-02  0.1499312E+00
         21   -1    0    0  503  501  0.00000000000E+00  0.00000000000E+00  0.21896683955E+01  0.21896683955E+01  0.00000000000E+00 0.  1.
         21   -1    0    0  501  502 -0.00000000000E+00 -0.00000000000E+00 -0.38051147754E+03  0.38051147754E+03  0.00000000000E+00 0.  1.
         21    1    1    2  503  504 -0.22040864394E+02  0.43510872289E+01 -0.69017628060E+02  0.72582123463E+02  0.00000000000E+00 0.  1.
         21    1    1    2  504  502  0.22040864394E+02 -0.43510872289E+01 -0.30930418108E+03  0.31011902247E+03  0.00000000000E+00 0.  1.
</event>
<event>
 4    1  0.2939002E+006  0.2951121E+02  0.7546771E-02  0.1423892E+00
         21   -1    0    0  504  501  0.00000000000E+00  0.00000000000E+00  0.61464791517E+02  0.61464791517E+02  0.00000000000E+00 0. -1.
         21   -1    0    0  503  502 -0.00000000000E+00 -0.00000000000E+00 -0.34117817742E+02  0.34117817742E+02  0.00000000000E+00 0.  1.
         21    1    1    2  503  501  0.28601588895E+02  0.72705180002E+01 -0.22870328614E+02  0.37335817257E+02  0.00000000000E+00 0.  1.
         21    1    1    2  504  502 -0.28601588895E+02 -0.72705180002E+01  0.50217302390E+02  0.58246792003E+02  0.00000000000E+00 0. -1.
</event>
<event>
 4    1  0.2939002E+006  0.2346203E+02  0.7546771E-02  0.1486776E+00
         21   -1    0    0  502  501  0.00000000000E+00  0.00000000000E+00  0.20884683766E+03  0.20884683766E+03  0.00000000000E+00 0. -1.
         21   -1    0    0  504  502 -0.00000000000E+00 -0.00000000000E+00 -0.19508706330E+03  0.19508706330E+03  0.00000000000E+00 0. -1.
         21    1    1    2  503  501  0.62696431129E+01 -0.22608812682E+02  0.20747785017E+03  0.20880020389E+03  0.00000000000E+00 0. -1.
         21    1    1    2  504  503 -0.62696431129E+01  0.22608812682E+02 -0.19371807581E+03  0.19513369706E+03  0.00000000000E+00 0. -1.
</event>
<event>
 4    1  0.2939002E+006  0.2296497E+02  0.7546771E-02  0.1492939E+00
         21   -1    0    0  503  501  0.00000000000E+00  0.00000000000E+00  0.12450767685E+03  0.12450767685E+03  0.00000000000E+00 0.  1.
         21   -1    0    0  504  502 -0.00000000000E+00 -0.00000000000E+00 -0.19266892356E+02  0.19266892356E+02  0.00000000000E+00 0.  1.
         21    1    1    2  503  502 -0.16706923200E+01  0.22904116759E+02  0.11611568018E+03  0.11836486371E+03  0.00000000000E+00 0.  1.
         21    1    1    2  504  501  0.16706923200E+01 -0.22904116759E+02 -0.10874895684E+02  0.25409705497E+02  0.00000000000E+00 0.  1.
</event>
<event>
 4    1  0.2939002E+006  0.2237142E+02  0.7546771E-02  0.1500546E+00
         21   -1    0    0  503  501  0.00000000000E+00  0.00000000000E+00  0.43069324126E+02  0.43069324126E+02  0.00000000000E+00 0. -1.
         21   -1    0    0  504  502 -0.00000000000E+00 -0.00000000000E+00 -0.18428232010E+02  0.18428232010E+02  0.00000000000E+00 0. -1.
         21    1    1    2  503  502 -0.21574505356E+02  0.59178760700E+01 -0.63687135677E+01  0.23260289143E+02  0.00000000000E+00 0. -1.
         21    1    1    2  504  501  0.21574505356E+02 -0.59178760700E+01  0.31009805684E+02  0.38237266993E+02  0.00000000000E+00 0. -1.
</event>
<event>
 4    1  0.2939002E+006  0.2659193E+02  0.7546771E-02  0.1451751E+00
         21   -1    0    0  502  501  0.00000000000E+00  0.00000000000E+00  0.32703046347E+02  0.32703046347E+02  0.00000000000E+00 0. -1.
         21   -1    0    0  503  502 -0.00000000000E+00 -0.00000000000E+00 -0.42936050441E+02  0.42936050441E+02  0.00000000000E+00 0.  1.
         21    1    1    2  503  504 -0.14661601396E+02 -0.22184861424E+02 -0.31762401529E+02  0.41424398400E+02  0.00000000000E+00 0.  1.
         21    1    1    2  504  501  0.14661601396E+02  0.22184861424E+02  0.21529397434E+02  0.34214698388E+02  0.00000000000E+00 0. -1.
</event>
<event>
 4    1  0.2939002E+006  0.2290030E+02  0.7546771E-02  0.1493754E+00
         21   -1    0    0  504  501  0.00000000000E+00  0.00000000000E+00  0.13509848850E+03  0.13509848850E+03  0.00000000000E+00 0.  1.
         21   -1    0    0  503  502 -0.00000000000E+00 -0.00000000000E+00 -0.52555485676E+01  0.52555485676E+01  0.00000000000E+00 0.  1.
         21    1    1    2  503  501 -0.21986242886E+02 -0.64053866448E+01  0.10080054340E+03  0.10336911243E+03  0.00000000000E+00 0.  1.
         21    1    1    2  504  502  0.21986242886E+02  0.64053866448E+01  0.29042396534E+02  0.36984924642E+02  0.00000000000E+00 0.  1.
</event>
<event>
 4    1  0.2939002E+006  0.2460556E+02  0.7546771E-02  0.1473265E+00
         21   -1    0    0  504  501  0.00000000000E+00  0.00000000000E+00  0.29156579145E+02  0.29156579145E+02  0.00000000000E+00 0.  1.
         21   -1    0    0  503  502 -0.00000000000E+00 -0.00000000000E+00 -0.18845867531E+03  0.18845867531E+03  0.00000000000E+00 0. -1.
         21    1    1    2  503  501  0.68070286901E+00 -0.24596146410E+02 -0.18228941406E+03  0.18394255693E+03  0.00000000000E+00 0. -1.
         21    1    1    2  504  502 -0.68070286901E+00  0.24596146410E+02  0.22987317890E+02  0.33672697522E+02  0.00000000000E+00 0.  1.
</event>
<event>
 4    1  0.2939002E+006  0.2299469E+02  0.7546771E-02  0.1492565E+00
         21   -1    0    0  504  501  0.00000000000E+00  0.00000000000E+00  0.38403086154E+03  0.38403086154E+03  0.00000000000E+00 0. -1.
         21   -1    0    0  503  502 -0.00000000000E+00 -0.00000000000E+00 -0.11753707741E+03  0.11753707741E+03  0.00000000000E+00 0.  1.
         21    1    1    2  503  501 -0.11449392817E+02 -0.19941593647E+02  0.38255766277E+03  0.38324811949E+03  0.00000000000E+00 0. -1.
         21    1    1    2  504  502  0.11449392817E+02  0.19941593647E+02 -0.11606387863E+03  0.11831981946E+03  0.00000000000E+00 0.  1.
</event>
<event>
 4    1  0.2939002E+006  0.2723567E+02  0.7546771E-02  0.1445255E+00
         21   -1    0    0  502  501  0.00000000000E+00  0.00000000000E+00  0.57527277396E+01  0.57527277396E+01  0.00000000000E+00 0.  1.
         21   -1    0    0  503  502 -0.00000000000E+00 -0.00000000000E+00 -0.14496084808E+03  0.14496084808E+03  0.00000000000E+00 0.  1.
         21    1    1    2  503  504  0.20484977674E+02  0.17948465977E+02 -0.94652506651E+02  0.98493039128E+02  0.00000000000E+00 0.  1.
         21    1    1    2  504  501 -0.20484977674E+02 -0.17948465977E+02 -0.44555613693E+02  0.52220536696E+02  0.00000000000E+00 0.  1.
</event>
<event>
 4    1  0.2939002E+006  0.2050616E+02  0.7546771E-02  0.1526434E+00
         21   -1    0    0  503  501  0.00000000000E+00  0.00000000000E+00  0.93485149572E+02  0.93485149572E+02  0.00000000000E+00 0.  1.
         21   -1    0    0  501  502 -0.00000000000E+00 -0.00000000000E+00 -0.48382351293E+01  0.48382351293E+01  0.00000000000E+00 0.  1.
         21    1    1    2  503  504  0.17861388260E+02 -0.10073409231E+02  0.31287944533E+02  0.37409066243E+02  0.00000000000E+00 0.  1.
         21    1    1    2  504  502 -0.17861388260E+02  0.10073409231E+02  0.57358969910E+02  0.60914318458E+02  0.00000000000E+00 0.  1.
</event>
<event>
 4    1  0.2939002E+006  0.2916069E+02  0.7546771E-02  0.1427033E+00
         21   -1    0    0  502  501  0.00000000000E+00  0.00000000000E+00  0.31137353127E+01  0.31137353127E+01  0.00000000000E+00 0. -1.
         21   -1    0    0  504  502 -0.00000000000E+00 -0.00000000000E+00 -0.35774595809E+03  0.35774595809E+03  0.00000000000E+00 0. -1.
         21    1    1    2  503  501 -0.15722864783E+02  0.24558849409E+02 -0.89547962661E+02  0.94176340862E+02  0.00000000000E+00 0. -1.
         21    1    1    2  504  503  0.15722864783E+02 -0.24558849409E+02 -0.26508426011E+03  0.26668335254E+03  0.00000000000E+00 0. -1.
</event>
<event>
 4    1  0.2939002E+006  0.3782311E+02  0.7546771E-02  0.1361737E+00
         21   -1    0    0  504  501  0.00000000000E+00  0.00000000000E+00  0.38576694855E+02  0.38576694855E+02  0.00000000000E+00 0.  1.
         21   -1    0    0  501  502 -0.00000000000E+00 -0.00000000000E+00 -0.10738893958E+03  0.10738893958E+03  0.00000000000E+00 0.  1.
         21    1    1    2  503  502 -0.36220295820E+02 -0.10893933231E+02 -0.93457904525E+02  0.10082146363E+03  0.00000000000E+00 0.  1.
         21    1    1    2  504  503  0.36220295820E+02  0.10893933231E+02  0.24645659800E+02  0.45144170804E+02  0.00000000000E+00 0.  1.
</event>
<event>
 4    1  0.2939002E+006  0.3203372E+02  0.7546771E-02  0.1402709E+00
         21   -1    0    0  504  501  0.00000000000E+00  0.00000000000E+00  0.48745932344E+02  0.48745932344E+02  0.00000000000E+00 0.  1.
         21   -1    0    0  503  502 -0.00000000000E+00 -0.00000000000E+00 -0.21062419616E+02  0.21062419616E+02  0.00000000000E+00 0.  1.
         21    1    1    2  503  501 -0.21281167973E+02 -0.23943083936E+02  0.14648073479E+02  0.35223932706E+02  0.00000000000E+00 0.  1.
         21    1    1    2  504  502  0.21281167973E+02  0.23943083936E+02  0.13035439249E+02  0.34584419253E+02  0.00000000000E+00 0.  1.
</event>
<event>
 4    1  0.2939002E+006  0.2810252E+02  0.7546771E-02  0.1436837E+00
         21   -1    0    0  503  501  0.00000000000E+00  0.00000000000E+00  0.49207061857E+03  0.49207061857E+03  0.00000000000E+00 0. -1.
         21   -1    0    0  504  502 -0.00000000000E+00 -0.00000000000E+00 -0.18668577339E+01  0.18668577339E+01  0.00000000000E+00 0. -1.
         21    1    1    2  503  502  0.69786547090E+01 -0.27222230786E+02  0.15259885637E+03  0.15516495234E+03  0.00000000000E+00 0. -1.
         21    1    1    2  504  501 -0.69786547090E+01  0.27222230786E+02  0.33760490447E+03  0.33877252396E+03  0.00000000000E+00 0. -1.
</event>
<event>
 4    1  0.2939002E+006  0.2873654E+02  0.7546771E-02  0.1430903E+00
         21   -1    0    0  503  501  0.00000000000E+00  0.00000000000E+00  0.20840876069E+02  0.20840876069E+02  0.00000000000E+00 0. -1.
         21   -1    0    0  504  502 -0.00000000000E+00 -0.00000000000E+00 -0.44670800083E+02  0.44670800083E+02  0.00000000000E+00 0. -1.
         21    1    1    2  503  502  0.16424502158E+02 -0.23580169571E+02 -0.22925434817E+02  0.36760906269E+02  0.00000000000E+00 0. -1.
         21    1    1    2  504  501 -0.16424502158E+02  0.23580169571E+02 -0.90448919717E+00  0.28750769883E+02  0.00000000000E+00 0. -1.
</event>
<event>
 4    1  0.2939002E+006  0.3125008E+02  0.7546771E-02  0.1409036E+00
         21   -1    0    0  503  501  0.00000000000E+00  0.00000000000E+00  0.16363875094E+02  0.16363875094E+02  0.00000000000E+00 0.  1.
         21   -1    0    0  504  502 -0.00000000000E+00 -0.00000000000E+00 -0.14032819616E+03  0.14032819616E+03  0.00000000000E+00 0.  1.
         21    1    1    2  503  502  0.13432597462E+02 -0.28215822178E+02 -0.25876076726E+01  0.31357024878E+02  0.00000000000E+00 0.  1.
         21    1    1    2  504  501 -0.13432597462E+02  0.28215822178E+02 -0.12137671340E+03  0.12533504638E+03  0.00000000000E+00 0.  1.
</event>
<event>
 4    1  0.2939002E+006  0.2403595E+02  0.7546771E-02  0.1479884E+00
         21   -1    0    0  504  501  0.00000000000E+00  0.00000000000E+00  0.15373249862E+03  0.15373249862E+03  0.00000000000E+00 0.  1.
         21   -1    0    0  503  502 -0.00000000000E+00 -0.00000000000E+00 -0.42487855990E+01  0.42487855990E+01  0.00000000000E+00 0.  1.
         21    1    1    2  503  501  0.23085980337E+02  0.66906153357E+01  0.47895282170E+02  0.53588103865E+02  0.00000000000E+00 0.  1.
         21    1    1    2  504  502 -0.23085980337E+02 -0.66906153357E+01  0.10158843085E+03  0.10439318035E+03  0.00000000000E+00 0.  1.
</event>
<event>
 4    1  0.2939002E+006  0.2907497E+02  0.7546771E-02  0.1427809E+00
         21   -1    0    0  504  501  0.00000000000E+00  0.00000000000E+00  0.82747569834E+02  0.82747569834E+02  0.00000000000E+00 0. -1.
         21   -1    0    0  503  502 -0.00000000000E+00 -0.00000000000E+00 -0.27547371678E+02  0.27547371678E+02  0.00000000000E+00 0. -1.
         21    1    1    2  503  501 -0.20076078523E+01  0.29005571242E+02  0.71342367827E+02  0.77039516480E+02  0.00000000000E+00 0. -1.
         21    1    1    2  504  502  0.20076078523E+01 -0.29005571242E+02 -0.16142169671E+02  0.33255425032E+02  0.00000000000E+00 0. -1.
</event>
<event>
 4    1  0.2939002E+006  0.3104875E+02  0.7546771E-02  0.1410696E+00
         21   -1    0    0  503  501  0.00000000000E+00  0.00000000000E+00  0.19040744020E+02  0.19040744020E+02  0.00000000000E+00 0. -1.
         21   -1    0    0  504  502 -0.00000000000E+00 -0.00000000000E+00 -0.36317494410E+03  0.36317494410E+03  0.00000000000E+00 0. -1.
         21    1    1    2  503  502  0.24043647020E+02  0.19645055637E+02 -0.34935418278E+03  0.35073119365E+03  0.00000000000E+00 0. -1.
         21    1    1    2  504  501 -0.24043647020E+02 -0.19645055637E+02  0.52199826952E+01  0.31484494475E+02  0.00000000000E+00 0. -1.
</event>
<event>
 4    1  0.2939002E+006  0.2835798E+02  0.7546771E-02  0.1434424E+00
         21   -1    0    0  504  501  0.00000000000E+00  0.00000000000E+00  0.10927978204E+03  0.10927978204E+03  0.00000000000E+00 0.  1.
         21   -1    0    0  501  502 -0.00000000000E+00 -0.00000000000E+00 -0.89996583152E+02  0.89996583152E+02  0.00000000000E+00 0. -1.
         21    1    1    2  503  502  0.21327163428E+02  0.18690291732E+02 -0.85836101168E+02  0.90399176814E+02  0.00000000000E+00 0. -1.
         21    1    1    2  504  503 -0.21327163428E+02 -0.18690291732E+02  0.10511930005E+03  0.10887718837E+03  0.00000000000E+00 0.  1.
</event>
<event>
 4    1  0.2939002E+006  0.2518741E+02  0.7546771E-02  0.1466718E+00
         21   -1    0    0  504  501  0.00000000000E+00  0.00000000000E+00  0.57688944658E+03  0.57688944658E+03  0.00000000000E+00 0. -1.
         21   -1    0    0  503  502 -0.00000000000E+00 -0.00000000000E+00 -0.60035965412E+01  0.60035965412E+01  0.00000000000E+00 0.  1.
         21    1    1    2  503  501 -0.96017420955E+00 -0.25169104278E+02  0.22038088925E+02  0.33467642704E+02  0.00000000000E+00 0.  1.
         21    1    1    2  504  502  0.96017420955E+00  0.25169104278E+02  0.54884776111E+03  0.54942540042E+03  0.00000000000E+00 0. -1.
</event>
<event>
 4    1  0.2939002E+006  0.2145650E+02  0.7546771E-02  0.1512846E+00
         21   -1    0    0  502  501  0.00000000000E+00  0.00000000000E+00  0.23955545336E+02  0.23955545336E+02  0.00000000000E+00 0.  1.
         21   -1    0    0  504  502 -0.00000000000E+00 -0.00000000000E+00 -0.11735302341E+03  0.11735302341E+03  0.00000000000E+00 0.  1.
         21    1    1    2  503  501 -0.21431213792E+02 -0.10414683221E+01  0.17911747954E+02  0.27950175234E+02  0.00000000000E+00 0.  1.
         21    1    1    2  504  503  0.21431213792E+02  0.10414683221E+01 -0.11130922602E+03  0.11335839351E+03  0.00000000000E+00 0.  1.
</event>
<event>
 4    1  0.2939002E+006  0.2049379E+02  0.7546771E-02  0.1526616E+00
         21   -1    0    0  503  501  0.00000000000E+00  0.00000000000E+00  0.14088402188E+03  0.14088402188E+03  0.00000000000E+00 0.  1.
         21   -1    0    0  504  502 -0.00000000000E+00 -0.00000000000E+00 -0.36311241956E+01  0.36311241956E+01  0.00000000000E+00 0. -1.
         21    1    1    2  503  502  0.75102424532E+01 -0.19068084326E+02  0.99197672444E+02  0.10129251601E+03  0.00000000000E+00 0.  1.
         21    1    1    2  504  501 -0.75102424532E+01  0.19068084326E+02  0.38055225238E+02  0.43222630062E+02  0.00000000000E+00 0. -1.
</event>
<event>
 4    1  0.2939002E+006  0.2178221E+02  0.7546771E-02  0.1508384E+00
         21   -1    0    0  503  501  0.00000000000E+00  0.00000000000E+00  0.36675732527E+01  0.36675732527E+01  0.00000000000E+00 0.  1.
         21   -1    0    0  504  502 -0.00000000000E+00 -0.00000000000E+00 -0.14170066137E+03  0.14170066137E+03  0.00000000000E+00 0.  1.
         21    1    1    2  503  502 -0.19191613096E+02 -0.10302747805E+02 -0.47573247908E+02  0.52322830027E+02  0.00000000000E+00 0.  1.
         21    1    1    2  504  501  0.19191613096E+02  0.10302747805E+02 -0.90459840214E+02  0.93045404600E+02  0.00000000000E+00 0.  1.
</event>
<event>
 4    1  0.2939002E+006  0.2271711E+02  0.7546771E-02  0.1496081E+00
         21   -1    0    0  504  501  0.00000000000E+00  0.00000000000E+00  0.30844298029E+02  0.30844298029E+02  0.00000000000E+00 0.  1.
         21   -1    0    0  503  502 -0.00000000000E+00 -0.00000000000E+00 -0.17712439531E+02  0.17712439531E+02  0.00000000000E+00 0.  1.
         21    1    1    2  503  501 -0.84769287500E+01  0.21076257882E+02  0.12279834636E+02  0.25823657875E+02  0.00000000000E+00 0.  1.
         21    1    1    2  504  502  0.84769287500E+01 -0.21076257882E+02  0.85202386206E+00  0.22733079686E+02  0.00000000000E+00 0.  1.
</event>
<event>
 4    1  0.2939002E+006  0.2012548E+02  0.7546771E-02  0.1532126E+00
         21   -1    0    0  504  501  0.00000000000E+00  0.00000000000E+00  0.55979483499E+02  0.55979483499E+02  0.00000000000E+00 0.  1.
         21   -1    0    0  503  502 -0.00000000000E+00 -0.00000000000E+00 -0.42978912864E+02  0.42978912864E+02  0.00000000000E+00 0.  1.
         21    1    1    2  503  501 -0.65546779355E+01 -0.19028166636E+02  0.51622816204E+02  0.55407130238E+02  0.00000000000E+00 0.  1.
         21    1    1    2  504  502  0.65546779355E+01  0.19028166636E+02 -0.38622245569E+02  0.43551266125E+02  0.00000000000E+00 0.  1.
</event>
<event>
 4    1  0.2939002E+006  0.2531241E+02  0.7546771E-02  0.1465339E+00
         21   -1    0    0  504  501  0.00000000000E+00  0.00000000000E+00  0.14346097271E+02  0.14346097271E+02  0.00000000000E+00 0. -1.
         21   -1    0    0  503  502 -0.00000000000E+00 -0.00000000000E+00 -0.76784543230E+02  0.76784543230E+02  0.00000000000E+00 0. -1.
         21    1    1    2  503  501  0.27634062381E+01  0.25161114691E+02 -0.60690972707E+02  0.65757982593E+02  0.00000000000E+00 0. -1.
         21    1    1    2  504  502 -0.27634062381E+01 -0.25161114691E+02 -0.17474732515E+01  0.25372657908E+02  0.00000000000E+00 0. -1.
</event>
<event>
 4    1  0.2939002E+006  0.2029893E+02  0.7546771E-02  0.1529514E+00
         21   -1    0    0  504  501  0.00000000000E+00  0.00000000000E+00  0.71103978790E+02  0.71103978790E+02  0.00000000000E+00 0.  1.
         21   -1    0    0  503  502 -0.00000000000E+00 -0.00000000000E+00 -0.58879295788E+01  0.58879295788E+01  0.00000000000E+00 0.  1.
         21    1    1    2  503  501 -0.20298619813E+02  0.11197394818E+00  0.27771366841E+02  0.34399059881E+02  0.00000000000E+00 0.  1.
         21    1    1    2  504  502  0.20298619813E+02 -0.11197394818E+00  0.37444682369E+02  0.42592848487E+02  0.00000000000E+00 0.  1.
</event>
<event>
 4    1  0.2939002E+006  0.2387458E+02  0.7546771E-02  0.1481799E+00
         21   -1    0    0  503  501  0.00000000000E+00  0.00000000000E+00  0.86039908697E+02  0.86039908697E+02  0.00000000000E+00 0.  1.
         21   -1    0    0  504  502 -0.00000000000E+00 -0.00000000000E+00 -0.66248421878E+01  0.66248421878E+01  0.00000000000E+00 0.  1.
         21    1    1    2  503  502 -0.13719829013E+02 -0.19538724168E+02  0.39565365801E+02  0.46210535825E+02  0.00000000000E+00 0.  1.
         21    1    1    2  504  501  0.13719829013E+02  0.19538724168E+02  0.39849700708E+02  0.46454215060E+02  0.00000000000E+00 0.  1.
</event>
<event>
 4    1  0.2939002E+006  0.2084300E+02  0.7546771E-02  0.1521518E+00
         21   -1    0    0  503  501  0.00000000000E+00  0.00000000000E+00  0.24829295018E+03  0.24829295018E+03  0.00000000000E+00 0.  1.
         21   -1    0    0  501  502 -0.00000000000E+00 -0.00000000000E+00 -0.38633802911E+02  0.38633802911E+02  0.00000000000E+00 0. -1.
         21    1    1    2  503  504  0.17597630434E+02 -0.11169342359E+02  0.24500668475E+03  0.24589165577E+03  0.00000000000E+00 0.  1.
         21    1    1    2  504  502 -0.17597630434E+02  0.11169342359E+02 -0.35347537484E+02  0.41035097317E+02  0.00000000000E+00 0. -1.
</event>
<event>
 4    1  0.2939002E+006  0.3718469E+02  0.7546771E-02  0.1365823E+00
         21   -1    0    0  503  501  0.00000000000E+00  0.00000000000E+00  0.30718773789E+02  0.30718773789E+02  0.00000000000E+00 0. -1.
         21   -1    0    0  504  502 -0.00000000000E+00 -0.00000000000E+00 -0.12096422136E+03  0.12096422136E+03  0.00000000000E+00 0. -1.
         21    1    1    2  503  502  0.37181199451E+02 -0.50937802781E+00 -0.10521931321E+03  0.11159661702E+03  0.00000000000E+00 0. -1.
         21    1    1    2  504  501 -0.37181199451E+02  0.50937802781E+00  0.14973865643E+02  0.40086378121E+02  0.00000000000E+00 0. -1.
</event>
<event>
 4    1  0.2939002E+006  0.2270014E+02  0.7546771E-02  0.1496298E+00
         21   -1    0    0  503  501  0.00000000000E+00  0.00000000000E+00  0.39353376543E+03  0.39353376543E+03  0.00000000000E+00 0.  1.
         21   -1    0    0  504  502 -0.00000000000E+00 -0.00000000000E+00 -0.12977694490E+03  0.12977694490E+03  0.00000000000E+00 0. -1.
         21    1    1    2  503  502 -0.12742726771E+02  0.18786141745E+02 -0.12845358896E+03  0.13044393709E+03  0.00000000000E+00 0. -1.
         21    1    1    2  504  501  0.12742726771E+02 -0.18786141745E+02  0.39221040949E+03  0.39286677324E+03  0.00000000000E+00 0.  1.
</event>
<event>
 4    1  0.2939002E+006  0.2314528E+02  0.7546771E-02  0.1490682E+00
         21   -1    0    0  503  501  0.00000000000E+00  0.00000000000E+00  0.10498491528E+04  0.10498491528E+04  0.00000000000E+00 0.  1.
         21   -1    0    0  504  502 -0.00000000000E+00 -0.00000000000E+00 -0.68187285499E+00  0.68187285499E+00  0.00000000000E+00 0.  1.
         21    1    1    2  503  502 -0.19253725461E+02 -0.12845163023E+02  0.26107655442E+03  0.26210049871E+03  0.00000000000E+00 0.  1.
         21    1    1    2  504  501  0.19253725461E+02  0.12845163023E+02  0.78809072557E+03  0.78843052698E+03  0.00000000000E+00 0.  1.
</event>
<event>
 4    1  0.2939002E+006  0.2068820E+02  0.7546771E-02  0.1523764E+00
         21   -1    0    0  504  501  0.00000000000E+00  0.00000000000E+00  0.11198970185E+02  0.11198970185E+02  0.00000000000E+00 0.  1.
         21   -1    0    0  503  502 -0.00000000000E+00 -0.00000000000E+00 -0.38929336527E+02  0.38929336527E+02  0.00000000000E+00 0.  1.
         21    1    1    2  503  501 -0.15855190231E+02 -0.13289635030E+02 -0.10476948222E+02  0.23189823211E+02  0.00000000000E+00 0.  1.
         21    1    1    2  504  502  0.15855190231E+02  0.13289635030E+02 -0.17253418120E+02  0.26938483501E+02  0.00000000000E+00 0.  1.
</event>
<event>
 4    1  0.2939002E+006  0.2358836E+02  0.7546771E-02  0.1485239E+00
         21   -1    0    0  502  501  0.00000000000E+00  0.00000000000E+00  0.97723869595E+01  0.97723869595E+01  0.00000000000E+00 0. -1.
         21   -1    0    0  503  502 -0.00000000000E+00 -0.00000000000E+00 -0.88498836982E+02  0.88498836982E+02  0.00000000000E+00 0. -1.
         21    1    1    2  503  504 -0.15064157234E+01 -0.23540211855E+02 -0.68706487303E+02  0.72642909221E+02  0.00000000000E+00 0. -1.
         21    1    1    2  504  501  0.15064157234E+01  0.23540211855E+02 -0.10019962720E+02  0.25628314721E+02  0.00000000000E+00 0. -1.
</event>
<event>
 4    1  0.2939002E+006  0.2212551E+02  0.7546771E-02  0.1503781E+00
         21   -1    0    0  503  501  0.00000000000E+00  0.00000000000E+00  0.30327432813E+02  0.30327432813E+02  0.00000000000E+00 0.  1.
         21   -1    0    0  504  502 -0.00000000000E+00 -0.00000000000E+00 -0.29377596198E+02  0.29377596198E+02  0.00000000000E+00 0. -1.
         21    1    1    2  503  502  0.72544471080E+01  0.20902423365E+02  0.20512642431E+02  0.30171291070E+02  0.00000000000E+00 0.  1.
         21    1    1    2  504  501 -0.72544471080E+01 -0.20902423365E+02 -0.19562805816E+02  0.29533737941E+02  0.00000000000E+00 0. -1.
</event>
<event>
 4    1  0.2939002E+006  0.2750962E+02  0.7546771E-02  0.1442555E+00
         21   -1    0    0  504  501  0.00000000000E+00  0.00000000000E+00  0.24341845191E+02  0.24341845191E+02  0.00000000000E+00 0.  1.
         21   -1    0    0  503  502 -0.00000000000E+00 -0.00000000000E+00 -0.14586352287E+03  0.14586352287E+03  0.00000000000E+00 0.  1.
         21    1    1    2  503  501  0.44215082610E+01 -0.27151969827E+02 -0.13625119001E+03  0.13900059705E+03  0.00000000000E+00 0.  1.
         21    1    1    2  504  502 -0.44215082610E+01  0.27151969827E+02  0.14729512326E+02  0.31204771016E+02  0.00000000000E+00 0.  1.
</event>
<event>
 4    1  0.2939002E+006  0.2325354E+02  0.7546771E-02  0.1489339E+00
         21   -1    0    0  504  501  0.00000000000E+00  0.00000000000E+00  0.19308270031E+02  0.19308270031E+02  0.00000000000E+00 0. -1.
         21   -1    0    0  503  502 -0.00000000000E+00 -0.00000000000E+00 -0.43905164623E+02  0.43905164623E+02  0.00000000000E+00 0. -1.
         21    1    1    2  503  501  0.43532156562E+01  0.22842433705E+02  0.67220991888E+01  0.24205658050E+02  0.00000000000E+00 0. -1.
         21    1    1    2  504  502 -0.43532156562E+01 -0.22842433705E+02 -0.31318993781E+02  0.39007776604E+02  0.00000000000E+00 0. -1.
</event>
<event>
 4    1  0.2939002E+006  0.2252556E+02  0.7546771E-02  0.1498543E+00
         21   -1    0    0  504  501  0.00000000000E+00  0.00000000000E+00  0.12572069397E+02  0.12572069397E+02  0.00000000000E+00 0. -1.
         21   -1    0    0  501  502 -0.00000000000E+00 -0.00000000000E+00 -0.83017786525E+02  0.83017786525E+02  0.00000000000E+00 0. -1.
         21    1    1    2  503  502 -0.13780942869E+02 -0.17818151427E+02 -0.69483742111E+02  0.73043763077E+02  0.00000000000E+00 0. -1.
         21    1    1    2  504  503  0.13780942869E+02  0.17818151427E+02 -0.96197501667E+00  0.22546092845E+02  0.00000000000E+00 0. -1.
</event>
<event>
 4    1  0.2939002E+006  0.2212011E+02  0.7546771E-02  0.1503853E+00
         21   -1    0    0  504  501  0.00000000000E+00  0.00000000000E+00  0.64334224121E+01  0.64334224121E+01  0.00000000000E+00 0. -1.
         21   -1    0    0  503  502 -0.00000000000E+00 -0.00000000000E+00 -0.98437320866E+02  0.98437320866E+02  0.00000000000E+00 0. -1.
         21    1    1    2  503  501  0.18416602175E+02 -0.12252670623E+02 -0.20999121579E+02  0.30500201313E+02  0.00000000000E+00 0. -1.
         21    1    1    2  504  502 -0.18416602175E+02  0.12252670623E+02 -0.71004776875E+02  0.74370541965E+02  0.00000000000E+00 0. -1.
</event>
<event>
 4    1  0.2939002E+006  0.2124749E+02  0.7546771E-02  0.1515760E+00
         21   -1    0    0  503  501  0.00000000000E+00  0.00000000000E+00  0.36754304954E+03  0.36754304954E+03  0.00000000000E+00 0.  1.
         21   -1    0    0  504  502 -0.00000000000E+00 -0.00000000000E+00 -0.55044988791E+01  0.55044988791E+01  0.00000000000E+00 0.  1.
         21    1    1    2  503  502 -0.46019227297E+01  0.20743149796E+02  0.34542004925E+03  0.34607292062E+03  0.00000000000E+00 0.  1.
         21    1    1    2  504  501  0.46019227297E+01 -0.20743149796E+02  0.16618501411E+02  0.26974627809E+02  0.00000000000E+00 0.  1.
</event>
<event>
 4    1  0.2939002E+006  0.2200818E+02  0.7546771E-02  0.1505343E+00
         21   -1    0    0  504  501  0.00000000000E+00  0.00000000000E+00  0.18822760341E+01  0.18822760341E+01  0.00000000000E+00 0.  1.
         21   -1    0    0  503  502 -0.00000000000E+00 -0.00000000000E+00 -0.70175368978E+03  0.70175368978E+03  0.00000000000E+00 0.  1.
         21    1    1    2  503  501 -0.16375667803E+02  0.14703661406E+02 -0.62991494244E+03  0.63029928991E+03  0.00000000000E+00 0.  1.
         21    1    1    2  504  502  0.16375667803E+02 -0.14703661406E+02 -0.69956471303E+02  0.73336675898E+02  0.00000000000E+00 0.  1.
</event>
<event>
 4    1  0.2939002E+006  0.3493360E+02  0.7546771E-02  0.1381031E+00
         21   -1    0    0  502  501  0.00000000000E+00  0.00000000000E+00  0.16430583655E+03  0.16430583655E+03  0.00000000000E+00 0. -1.
         21   -1    0    0  503  502 -0.00000000000E+00 -0.00000000000E+00 -0.23067515109E+03  0.23067515109E+03  0.00000000000E+00 0. -1.
         21    1    1    2  503  504  0.31544006154E+02  0.15011063082E+02 -0.22746970909E+03  0.23013653532E+03  0.00000000000E+00 0. -1.
         21    1    1    2  504  501 -0.31544006154E+02 -0.15011063082E+02  0.16110039454E+03  0.16484445232E+03  0.00000000000E+00 0. -1.
</event>
<event>
 4    1  0.2939002E+006  0.2529870E+02  0.7546771E-02  0.1465489E+00
         21   -1    0    0  504  501  0.00000000000E+00  0.00000000000E+00  0.12877437889E+03  0.12877437889E+03  0.00000000000E+00 0.  1.
         21   -1    0    0  503  502 -0.00000000000E+00 -0.00000000000E+00 -0.22539307340E+03  0.22539307340E+03  0.00000000000E+00 0. -1.
         21    1    1    2  503  501 -0.20935768636E+01 -0.25211924074E+02  0.12681106745E+03  0.12930998031E+03  0.00000000000E+00 0.  1.
         21    1    1    2  504  502  0.20935768636E+01  0.25211924074E+02 -0.22342976196E+03  0.22485747198E+03  0.00000000000E+00 0. -1.
</event>
<event>
 4    1  0.2939002E+006  0.2152035E+02  0.7546771E-02  0.1511964E+00
         21   -1    0    0  503  501  0.00000000000E+00  0.00000000000E+00  0.35846911804E+03  0.35846911804E+03  0.00000000000E+00 0.  1.
         21   -1    0    0  504  502 -0.00000000000E+00 -0.00000000000E+00 -0.91995276897E+02  0.91995276897E+02  0.00000000000E+00 0. -1.
         21    1    1    2  503  502 -0.76628770063E+01  0.20109839804E+02 -0.90408139178E+02  0.92934153951E+02  0.00000000000E+00 0. -1.
         21    1    1    2  504  501  0.76628770063E+01 -0.20109839804E+02  0.35688198032E+03  0.35753024098E+03  0.00000000000E+00 0.  1.
</event>
<event>
 4    1  0.2939002E+006  0.2754833E+02  0.7546771E-02  0.1442176E+00
         21   -1    0    0  502  501  0.00000000000E+00  0.00000000000E+00  0.27135228353E+03  0.27135228353E+03  0.00000000000E+00 0. -1.
         21   -1    0    0  503  502 -0.00000000000E+00 -0.00000000000E+00 -0.40996911489E+01  0.40996911489E+01  0.00000000000E+00 0. -1.
         21    1    1    2  503  504 -0.65169991735E+01  0.26766383833E+02  0.55983889578E+02  0.62394763194E+02  0.00000000000E+00 0. -1.
         21    1    1    2  504  501  0.65169991735E+01 -0.26766383833E+02  0.21126870280E+03  0.21305721148E+03  0.00000000000E+00 0. -1.
</event>
<event>
 4    1  0.2939002E+006  0.2290007E+02  0.7546771E-02  0.1493757E+00
         21   -1    0    0  503  501  0.00000000000E+00  0.00000000000E+00  0.20721076267E+01  0.20721076267E+01  0.00000000000E+00 0.  1.
         21   -1    0    0  504  502 -0.00000000000E+00 -0.00000000000E+00 -0.28977833387E+03  0.28977833387E+03  0.00000000000E+00 0.  1.
         21    1    1    2  503  502  0.20257081190E+02 -0.10680067651E+02 -0.91924272612E+02  0.94733758917E+02  0.00000000000E+00 0.  1.
         21    1    1    2  504  501 -0.20257081190E+02  0.10680067651E+02 -0.19578195363E+03  0.19711668258E+03  0.00000000000E+00 0.  1.
</event>
<event>
 4    1  0.2939002E+006  0.2563139E+02  0.7546771E-02  0.1461863E+00
         21   -1    0    0  503  501  0.00000000000E+00  0.00000000000E+00  0.65204884261E+02  0.65204884261E+02  0.00000000000E+00 0.  1.
         21   -1    0    0  501  502 -0.00000000000E+00 -0.00000000000E+00 -0.16029153150E+03  0.16029153150E+03  0.00000000000E+00 0.  1.
         21    1    1    2  503  504  0.60448026686E+01 -0.24908400485E+02  0.61603872555E+02  0.66723347996E+02  0.00000000000E+00 0.  1.
         21    1    1    2  504  502 -0.60448026686E+01  0.24908400485E+02 -0.15669051980E+03  0.15877306777E+03  0.00000000000E+00 0.  1.
</event>
<event>
 4    1  0.2939002E+006  0.2340556E+02  0.7546771E-02  0.1487467E+00
         21   -1    0    0  504  501  0.00000000000E+00  0.00000000000E+00  0.36143795233E+02  0.36143795233E+02  0.00000000000E+00 0. -1.
         21   -1    0    0  503  502 -0.00000000000E+00 -0.00000000000E+00 -0.98947938617E+02  0.98947938617E+02  0.00000000000E+00 0. -1.
         21    1    1    2  503  501  0.18184806235E+02 -0.14735438309E+02 -0.93559742801E+02  0.96442966529E+02  0.00000000000E+00 0. -1.
         21    1    1    2  504  502 -0.18184806235E+02  0.14735438309E+02  0.30755599417E+02  0.38648767321E+02  0.00000000000E+00 0. -1.
</event>
<event>
 4    1  0.2939002E+006  0.2075025E+02  0.7546771E-02  0.1522861E+00
         21   -1    0    0  504  501  0.00000000000E+00  0.00000000000E+00  0.83235736751E+01  0.83235736751E+01  0.00000000000E+00 0. -1.
         21   -1    0    0  503  502 -0.00000000000E+00 -0.00000000000E+00 -0.60549256305E+02  0.60549256305E+02  0.00000000000E+00 0. -1.
         21    1    1    2  503  501  0.20094053880E+02 -0.51770430654E+01 -0.39255896734E+02  0.44402682403E+02  0.00000000000E+00 0. -1.
         21    1    1    2  504  502 -0.20094053880E+02  0.51770430654E+01 -0.12969785896E+02  0.24470147577E+02  0.00000000000E+00 0. -1.
</event>
<event>
 4    1  0.2939002E+006  0.2711126E+02  0.7546771E-02  0.1446494E+00
         21   -1    0    0  502  501  0.00000000000E+00  0.00000000000E+00  0.11869706874E+03  0.11869706874E+03  0.00000000000E+00 0. -1.
         21   -1    0    0  503  502 -0.00000000000E+00 -0.00000000000E+00 -0.30215115958E+02  0.30215115958E+02  0.00000000000E+00 0. -1.
         21    1    1    2  503  504  0.22626965786E+02 -0.14934549338E+02 -0.22148480085E+02  0.35008220673E+02  0.00000000000E+00 0. -1.
         21    1    1    2  504  501 -0.22626965786E+02  0.14934549338E+02  0.11063043286E+03  0.11390396402E+03  0.00000000000E+00 0. -1.
</event>
<event>
 4    1  0.2939002E+006  0.2519689E+02  0.7546771E-02  0.1466613E+00
         21   -1    0    0  502  501  0.00000000000E+00  0.00000000000E+00  0.29668591526E+03  0.29668591526E+03  0.00000000000E+00 0. -1.
         21   -1    0    0  503  502 -0.00000000000E+00 -0.00000000000E+00 -0.35905991918E+01  0.35905991918E+01  0.00000000000E+00 0.  1.
         21    1    1    2  503  504 -0.17576163943E+02 -0.18054409057E+02  0.51115652648E+02  0.56988535434E+02  0.00000000000E+00 0.  1.
         21    1    1    2  504  501  0.17576163943E+02  0.18054409057E+02  0.24197966342E+03  0.24328797901E+03  0.00000000000E+00 0. -1.
</event>
<event>
 4    1  0.2939002E+006  0.3352205E+02  0.7546771E-02  0.1391262E+00
         21   -1    0    0  504  501  0.00000000000E+00  0.00000000000E+00  0.78492124130E+02  0.78492124130E+02  0.00000000000E+00 0.  1.
         21   -1    0    0  503  502 -0.00000000000E+00 -0.00000000000E+00 -0.48849904022E+02  0.48849904022E+02  0.00000000000E+00 0.  1.
         21    1    1    2  503  501 -0.30645305929E+02 -0.13586510464E+02 -0.38712922790E+02  0.51209554118E+02  0.00000000000E+00 0.  1.
         21    1    1    2  504  502  0.30645305929E+02  0.13586510464E+02  0.68355142897E+02  0.76132474034E+02  0.00000000000E+00 0.  1.
</event>
<event>
 4    1  0.2939002E+006  0.5028465E+02  0.7546771E-02  0.1296943E+00
         21   -1    0    0  504  501  0.00000000000E+00  0.00000000000E+00  0.97297100860E+01  0.97297100860E+01  0.00000000000E+00 0. -1.
         21   -1    0    0  503  502 -0.00000000000E+00 -0.00000000000E+00 -0.26404908218E+03  0.26404908218E+03  0.00000000000E+00 0. -1.
         21    1    1    2  503  501 -0.46956313458E+02  0.17990297529E+02 -0.14436275502E+03  0.15286971975E+03  0.00000000000E+00 0. -1.
         21    1    1    2  504  502  0.46956313458E+02 -0.17990297529E+02 -0.10995661707E+03  0.12090907251E+03  0.00000000000E+00 0. -1.
</event>
<event>
 4    1  0.2939002E+006  0.2046770E+02  0.7546771E-02  0.1527002E+00
         21   -1    0    0  502  501  0.00000000000E+00  0.00000000000E+00  0.24491972975E+03  0.24491972975E+03  0.00000000000E+00 0.  1.
         21   -1    0    0  503  502 -0.00000000000E+00 -0.00000000000E+00 -0.19351453714E+01  0.19351453714E+01  0.00000000000E+00 0.  1.
         21    1    1    2  503  504 -0.97625710513E+01 -0.17989414705E+02  0.79435450538E+02  0.82029980112E+02  0.00000000000E+00 0.  1.
         21    1    1    2  504  501  0.97625710513E+01  0.17989414705E+02  0.16354913384E+03  0.16482489501E+03  0.00000000000E+00 0.  1.
</event>
<event>
 4    1  0.2939002E+006  0.2536061E+02  0.7546771E-02  0.1464809E+00
         21   -1    0    0  503  501  0.00000000000E+00  0.00000000000E+00  0.88054437318E+02  0.88054437318E+02  0.00000000000E+00 0.  1.
         21   -1    0    0  504  502 -0.00000000000E+00 -0.00000000000E+00 -0.67010212718E+02  0.67010212718E+02  0.00000000000E+00 0.  1.
         21    1    1    2  503  502 -0.23831242720E+02  0.86736578654E+01  0.83707035729E+02  0.87464440208E+02  0.00000000000E+00 0.  1.
         21    1    1    2  504  501  0.23831242720E+02 -0.86736578654E+01 -0.62662811128E+02  0.67600209829E+02  0.00000000000E+00 0.  1.
</event>
<event>
 4    1  0.2939002E+006  0.2449221E+02  0.7546771E-02  0.1474565E+00
         21   -1    0    0  503  501  0.00000000000E+00  0.00000000000E+00  0.77393353618E+02  0.77393353618E+02  0.00000000000E+00 0. -1.
         21   -1    0    0  504  502 -0.00000000000E+00 -0.00000000000E+00 -0.32817200071E+02  0.32817200071E+02  0.00000000000E+00 0. -1.
         21    1    1    2  503  502  0.22690277242E+02 -0.92206211612E+01 -0.25872036485E+02  0.35626265700E+02  0.00000000000E+00 0. -1.
         21    1    1    2  504  501 -0.22690277242E+02  0.92206211612E+01  0.70448190032E+02  0.74584287989E+02  0.00000000000E+00 0. -1.
</event>
<event>
 4    1  0.2939002E+006  0.2860187E+02  0.7546771E-02  0.1432148E+00
         21   -1    0    0  504  501  0.00000000000E+00  0.00000000000E+00  0.15090582860E+03  0.15090582860E+03  0.00000000000E+00 0. -1.
         21   -1    0    0  503  502 -0.00000000000E+00 -0.00000000000E+00 -0.29392618315E+02  0.29392618315E+02  0.00000000000E+00 0.  1.
         21    1    1    2  503  501 -0.22661106003E+02  0.17451114600E+02  0.14216911273E+03  0.14501766699E+03  0.00000000000E+00 0. -1.
         21    1    1    2  504  502  0.22661106003E+02 -0.17451114600E+02 -0.20655902444E+02  0.35280779921E+02  0.00000000000E+00 0.  1.
</event>
<event>
 4    1  0.2939002E+006  0.2000415E+02  0.7546771E-02  0.1533972E+00
         21   -1    0    0  503  501  0.00000000000E+00  0.00000000000E+00  0.14264297015E+02  0.14264297015E+02  0.00000000000E+00 0.  1.
         21   -1    0    0  501  502 -0.00000000000E+00 -0.00000000000E+00 -0.31451990148E+02  0.31451990148E+02  0.00000000000E+00 0.  1.
         21    1    1    2  503  504 -0.24930983513E+01  0.19848190132E+02 -0.10802538669E+01  0.20033300759E+02  0.00000000000E+00 0.  1.
         21    1    1    2  504  502  0.24930983513E+01 -0.19848190132E+02 -0.16107439266E+02  0.25682986403E+02  0.00000000000E+00 0.  1.
</event>
<event>
 4    1  0.2939002E+006  0.2265312E+02  0.7546771E-02  0.1496901E+00
         21   -1    0    0  504  501  0.00000000000E+00  0.00000000000E+00  0.47359000196E+02  0.47359000196E+02  0.00000000000E+00 0.  1.
         21   -1    0    0  503  502 -0.00000000000E+00 -0.00000000000E+00 -0.12316003551E+02  0.12316003551E+02  0.00000000000E+00 0.  1.
         21    1    1    2  503  501  0.21625621674E+02 -0.67450828237E+01  0.71768399718E+01  0.23762800489E+02  0.00000000000E+00 0.  1.
         21    1    1    2  504  502 -0.21625621674E+02  0.67450828237E+01  0.27866156674E+02  0.35912203258E+02  0.00000000000E+00 0.  1.
</event>
<event>
 4    1  0.2939002E+006  0.4206292E+02  0.7546771E-02  0.1336803E+00
         21   -1    0    0  503  501  0.00000000000E+00  0.00000000000E+00  0.18798954421E+03  0.18798954421E+03  0.00000000000E+00 0. -1.
         21   -1    0    0  501  502 -0.00000000000E+00 -0.00000000000E+00 -0.26663141551E+02  0.26663141551E+02  0.00000000000E+00 0. -1.
         21    1    1    2  503  504 -0.24966785083E+02  0.33851863228E+02  0.16699368695E+03  0.17220969915E+03  0.00000000000E+00 0. -1.
         21    1    1    2  504  502  0.24966785083E+02 -0.33851863228E+02 -0.56672842860E+01  0.42442986612E+02  0.00000000000E+00 0. -1.
</event>
<event>
 4    1  0.2939002E+006  0.2090046E+02  0.7546771E-02  0.1520691E+00
         21   -1    0    0  503  501  0.00000000000E+00  0.00000000000E+00  0.77721293505E+03  0.77721293505E+03  0.00000000000E+00 0. -1.
         21   -1    0    0  504  502 -0.00000000000E+00 -0.00000000000E+00 -0.81221891360E+00  0.81221891360E+00  0.00000000000E+00 0.  1.
         21    1    1    2  503  502 -0.20292496377E+02  0.50044002370E+01  0.60409766537E+03  0.60445911254E+03  0.00000000000E+00 0. -1.
         21    1    1    2  504  501  0.20292496377E+02 -0.50044002370E+01  0.17230305076E+03  0.17356604142E+03  0.00000000000E+00 0.  1.
</event>
<event>
 4    1  0.2939002E+006  0.2169811E+02  0.7546771E-02  0.1509527E+00
         21   -1    0    0  502  501  0.00000000000E+00  0.00000000000E+00  0.73521093330E+01  0.73521093330E+01  0.00000000000E+00 0. -1.
         21   -1    0    0  503  502 -0.00000000000E+00 -0.00000000000E+00 -0.13376009972E+03  0.13376009972E+03  0.00000000000E+00 0. -1.
         21    1    1    2  503  504 -0.28005492165E+01 -0.21516622403E+02 -0.11414402380E+03  0.11618806429E+03  0.00000000000E+00 0. -1.
         21    1    1    2  504  501  0.28005492165E+01  0.21516622403E+02 -0.12263966591E+02  0.24924144761E+02  0.00000000000E+00 0. -1.
</event>
<event>
 4    1  0.2939002E+006  0.2635960E+02  0.7546771E-02  0.1454149E+00
         21   -1    0    0  503  501  0.00000000000E+00  0.00000000000E+00  0.35314562064E+01  0.35314562064E+01  0.00000000000E+00 0.  1.
         21   -1    0    0  504  502 -0.00000000000E+00 -0.00000000000E+00 -0.58792463522E+03  0.58792463522E+03  0.00000000000E+00 0.  1.
         21    1    1    2  503  502 -0.16018051240E+02  0.20934432148E+02 -0.53341739463E+03  0.53406829649E+03  0.00000000000E+00 0.  1.
         21    1    1    2  504  501  0.16018051240E+02 -0.20934432148E+02 -0.50975784384E+02  0.57387794944E+02  0.00000000000E+00 0.  1.
</event>
<event>
 4    1  0.2939002E+006  0.2232935E+02  0.7546771E-02  0.1501096E+00
         21   -1    0    0  503  501  0.00000000000E+00  0.00000000000E+00  0.65563232431E+01  0.65563232431E+01  0.00000000000E+00 0.  1.
         21   -1    0    0  501  502 -0.00000000000E+00 -0.00000000000E+00 -0.15887171092E+03  0.15887171092E+03  0.00000000000E+00 0.  1.
         21    1    1    2  503  504  0.14031810396E+02 -0.17369742628E+02 -0.16436096744E+02  0.27726249983E+02  0.00000000000E+00 0.  1.
         21    1    1    2  504  502 -0.14031810396E+02  0.17369742628E+02 -0.13587929094E+03  0.13770178418E+03  0.00000000000E+00 0.  1.
</event>
<event>
 4    1  0.2939002E+006  0.2421307E+02  0.7546771E-02  0.1477803E+00
         21   -1    0    0  504  501  0.00000000000E+00  0.00000000000E+00  0.24518577532E+01  0.24518577532E+01  0.00000000000E+00 0.  1.
         21   -1    0    0  503  502 -0.00000000000E+00 -0.00000000000E+00 -0.23913045078E+03  0.23913045078E+03  0.00000000000E+00 0.  1.
         21    1    1    2  503  501 -0.24213069690E+02  0.12531285678E-01 -0.11934876166E+03  0.12178012897E+03  0.00000000000E+00 0.  1.
         21    1    1    2  504  502  0.24213069690E+02 -0.12531285678E-01 -0.11732983136E+03  0.11980217956E+03  0.00000000000E+00 0.  1.
</event>
<event>
 4    1  0.2939002E+006  0.3262879E+02  0.7546771E-02  0.1398046E+00
         21   -1    0    0  504  501  0.00000000000E+00  0.00000000000E+00  0.61644865898E+02  0.61644865898E+02  0.00000000000E+00 0.  1.
         21   -1    0    0  501  502 -0.00000000000E+00 -0.00000000000E+00 -0.25079785777E+03  0.25079785777E+03  0.00000000000E+00 0.  1.
         21    1    1    2  503  502  0.32366319258E+02 -0.41303300515E+01 -0.24532304604E+03  0.24748340383E+03  0.00000000000E+00 0.  1.
         21    1    1    2  504  503 -0.32366319258E+02  0.41303300515E+01  0.56170054173E+02  0.64959319843E+02  0.00000000000E+00 0.  1.
</event>
<event>
 4    1  0.2939002E+006  0.2236486E+02  0.7546771E-02  0.1500631E+00
         21   -1    0    0  503  501  0.00000000000E+00  0.00000000000E+00  0.68688889919E+03  0.68688889919E+03  0.00000000000E+00 0. -1.
         21   -1    0    0  504  502 -0.00000000000E+00 -0.00000000000E+00 -0.74153681121E+00  0.74153681121E+00  0.00000000000E+00 0. -1.
         21    1    1    2  503  502 -0.22354463698E+02  0.68178747339E+00  0.38919670748E+03  0.38983876666E+03  0.00000000000E+00 0. -1.
         21    1    1    2  504  501  0.22354463698E+02 -0.68178747339E+00  0.29695065490E+03  0.29779166934E+03  0.00000000000E+00 0. -1.
</event>
<event>
 4    1  0.2939002E+006  0.2078942E+02  0.7546771E-02  0.1522293E+00
         21   -1    0    0  504  501  0.00000000000E+00  0.00000000000E+00  0.12685390721E+02  0.12685390721E+02  0.00000000000E+00 0. -1.
         21   -1    0    0  503  502 -0.00000000000E+00 -0.00000000000E+00 -0.34282555219E+02  0.34282555219E+02  0.00000000000E+00 0. -1.
         21    1    1    2  503  501  0.38169807315E+01  0.20436014201E+02 -0.12644721797E+02  0.24332879148E+02  0.00000000000E+00 0. -1.
         21    1    1    2  504  502 -0.38169807315E+01 -0.20436014201E+02 -0.89524427007E+01  0.22635066791E+02  0.00000000000E+00 0. -1.
</event>
<event>
 4    1  0.2939002E+006  0.2610557E+02  0.7546771E-02  0.1456806E+00
         21   -1    0    0  504  501  0.00000000000E+00  0.00000000000E+00  0.20813914471E+02  0.20813914471E+02  0.00000000000E+00 0. -1.
         21   -1    0    0  501  502 -0.00000000000E+00 -0.00000000000E+00 -0.16182660384E+03  0.16182660384E+03  0.00000000000E+00 0.  1.
         21    1    1    2  503  502 -0.96831344168E+01  0.24243302750E+02 -0.15206657778E+03  0.15429110440E+03  0.00000000000E+00 0.  1.
         21    1    1    2  504  503  0.96831344168E+01 -0.24243302750E+02  0.11053888405E+02  0.28349413913E+02  0.00000000000E+00 0. -1.
</event>
<event>
 4    1  0.2939002E+006  0.2262475E+02  0.7546771E-02  0.1497265E+00
         21   -1    0    0  504  501  0.00000000000E+00  0.00000000000E+00  0.18629724236E+01  0.18629724236E+01  0.00000000000E+00 0.  1.
         21   -1    0    0  503  502 -0.00000000000E+00 -0.00000000000E+00 -0.46396729769E+03  0.46396729769E+03  0.00000000000E+00 0.  1.
         21    1    1    2  503  501 -0.15904127298E+02 -0.16091555700E+02 -0.82315735847E+02  0.85368377037E+02  0.00000000000E+00 0.  1.
         21    1    1    2  504  502  0.15904127298E+02  0.16091555700E+02 -0.37978858942E+03  0.38046189307E+03  0.00000000000E+00 0.  1.
</event>
<event>
 4    1  0.2939002E+006  0.3247015E+02  0.7546771E-02  0.1399278E+00
         21   -1    0    0  504  501  0.00000000000E+00  0.00000000000E+00  0.16832272631E+03  0.16832272631E+03  0.00000000000E+00 0. -1.
         21   -1    0    0  503  502 -0.00000000000E+00 -0.00000000000E+00 -0.57167879004E+02  0.57167879004E+02  0.00000000000E+00 0. -1.
         21    1    1    2  503  501 -0.24993452496E+02 -0.20727712113E+02  0.16196709039E+03  0.16518973663E+03  0.00000000000E+00 0. -1.
         21    1    1    2  504  502  0.24993452496E+02  0.20727712113E+02 -0.50812243085E+02  0.60300868687E+02  0.00000000000E+00 0. -1.
</event>
<event>
 4    1  0.2939002E+006  0.3013180E+02  0.7546771E-02  0.1418454E+00
         21   -1    0    0  504  501  0.00000000000E+00  0.00000000000E+00  0.48200789526E+02  0.48200789526E+02  0.00000000000E+00 0.  1.
         21   -1    0    0  503  502 -0.00000000000E+00 -0.00000000000E+00 -0.19107405553E+02  0.19107405553E+02  0.00000000000E+00 0.  1.
         21    1    1    2  503  501  0.21112134355E+02 -0.21498913400E+02  0.18555269610E+02  0.35386770476E+02  0.00000000000E+00 0.  1.
         21    1    1    2  504  502 -0.21112134355E+02  0.21498913400E+02  0.10538114362E+02  0.31921424603E+02  0.00000000000E+00 0.  1.
</event>
<event>
 4    1  0.2939002E+006  0.2411321E+02  0.7546771E-02  0.1478973E+00
         21   -1    0    0  504  501  0.00000000000E+00  0.00000000000E+00  0.56929713108E+02  0.56929713108E+02  0.00000000000E+00 0. -1.
         21   -1    0    0  503  502 -0.00000000000E+00 -0.00000000000E+00 -0.10590457295E+02  0.10590457295E+02  0.00000000000E+00 0. -1.
         21    1    1    2  503  501 -0.20014763190E+02  0.13448278017E+02  0.29539633042E+02  0.38131835091E+02  0.00000000000E+00 0. -1.
         21    1    1    2  504  502  0.20014763190E+02 -0.13448278017E+02  0.16799622771E+02  0.29388335312E+02  0.00000000000E+00 0. -1.
</event>
<event>
 4    1  0.2939002E+006  0.4120337E+02  0.7546771E-02  0.1341575E+00
         21   -1    0    0  503  501  0.00000000000E+00  0.00000000000E+00  0.56954397335E+03  0.56954397335E+03  0.00000000000E+00 0. -1.
         21   -1    0    0  504  502 -0.00000000000E+00 -0.00000000000E+00 -0.28942595084E+02  0.28942595084E+02  0.00000000000E+00 0.  1.
         21    1    1    2  503  502 -0.25675426703E+02  0.32225615034E+02  0.55371562049E+03  0.55524652738E+03  0.00000000000E+00 0. -1.
         21    1    1    2  504  501  0.25675426703E+02 -0.32225615034E+02 -0.13114242224E+02  0.43240041047E+02  0.00000000000E+00 0.  1.
</event>
<event>
 4    1  0.2939002E+006  0.3646208E+02  0.7546771E-02  0.1370566E+00
         21   -1    0    0  502  501  0.00000000000E+00  0.00000000000E+00  0.48198314317E+02  0.48198314317E+02  0.00000000000E+00 0.  1.
         21   -1    0    0  504  502 -0.00000000000E+00 -0.00000000000E+00 -0.33617520453E+03  0.33617520453E+03  0.00000000000E+00 0. -1.
         21    1    1    2  503  501 -0.36157661728E+02  0.47017990435E+01  0.40144997366E+02  0.54231948419E+02  0.00000000000E+00 0.  1.
         21    1    1    2  504  503  0.36157661728E+02 -0.47017990435E+01 -0.32812188758E+03  0.33014157043E+03  0.00000000000E+00 0. -1.
</event>
<event>
 4    1  0.2939002E+006  0.2698405E+02  0.7546771E-02  0.1447768E+00
         21   -1    0    0  504  501  0.00000000000E+00  0.00000000000E+00  0.26551494014E+03  0.26551494014E+03  0.00000000000E+00 0. -1.
         21   -1    0    0  501  502 -0.00000000000E+00 -0.00000000000E+00 -0.28710539387E+02  0.28710539387E+02  0.00000000000E+00 0. -1.
         21    1    1    2  503  502  0.33157850994E+00  0.26982013135E+02 -0.21508301416E+02  0.34507187758E+02  0.00000000000E+00 0. -1.
         21    1    1    2  504  503 -0.33157850994E+00 -0.26982013135E+02  0.25831270217E+03  0.25971829177E+03  0.00000000000E+00 0. -1.
</event>
<event>
 4    1  0.2939002E+006  0.2472619E+02  0.7546771E-02  0.1471890E+00
         21   -1    0    0  503  501  0.00000000000E+00  0.00000000000E+00  0.16930376228E+03  0.16930376228E+03  0.00000000000E+00 0. -1.
         21   -1    0    0  501  502 -0.00000000000E+00 -0.00000000000E+00 -0.10213954814E+02  0.10213954814E+02  0.00000000000E+00 0. -1.
         21    1    1    2  503  504 -0.11661039194E+02 -0.21803772083E+02  0.15171279174E+03  0.15371452595E+03  0.00000000000E+00 0. -1.
         21    1    1    2  504  502  0.11661039194E+02  0.21803772083E+02  0.73770157319E+01  0.25803191145E+02  0.00000000000E+00 0. -1.
</event>
<event>
 4    1  0.2939002E+006  0.2311424E+02  0.7546771E-02  0.1491069E+00
         21   -1    0    0  504  501  0.00000000000E+00  0.00000000000E+00  0.31952829989E+01  0.31952829989E+01  0.00000000000E+00 0.  1.
         21   -1    0    0  503  502 -0.00000000000E+00 -0.00000000000E+00 -0.81877890855E+03  0.81877890855E+03  0.00000000000E+00 0.  1.
         21    1    1    2  503  501 -0.33651013447E+01 -0.22867970134E+02 -0.77442066163E+03  0.77476553171E+03  0.00000000000E+00 0.  1.
         21    1    1    2  504  502  0.33651013447E+01  0.22867970134E+02 -0.41162963923E+02  0.47208659842E+02  0.00000000000E+00 0.  1.
</event>
<event>
 4    1  0.2939002E+006  0.2237935E+02  0.7546771E-02  0.1500442E+00
         21   -1    0    0  503  501  0.00000000000E+00  0.00000000000E+00  0.39830813204E+02  0.39830813204E+02  0.00000000000E+00 0.  1.
         21   -1    0    0  504  502 -0.00000000000E+00 -0.00000000000E+00 -0.12591846708E+02  0.12591846708E+02  0.00000000000E+00 0.  1.
         21    1    1    2  503  502 -0.14368013505E+02 -0.17157955880E+02  0.12634514277E+02  0.25699537215E+02  0.00000000000E+00 0.  1.
         21    1    1    2  504  501  0.14368013505E+02  0.17157955880E+02  0.14604452219E+02  0.26723122697E+02  0.00000000000E+00 0.  1.
</event>
<event>
 4    1  0.2939002E+006  0.2405350E+02  0.7546771E-02  0.1479677E+00
         21   -1    0    0  503  501  0.00000000000E+00  0.00000000000E+00  0.31158435144E+03  0.31158435144E+03  0.00000000000E+00 0. -1.
         21   -1    0    0  504  502 -0.00000000000E+00 -0.00000000000E+00 -0.12940416184E+02  0.12940416184E+02  0.00000000000E+00 0. -1.
         21    1    1    2  503  502  0.92023201161E+01 -0.22223594540E+02 -0.84802065176E+00  0.24068443838E+02  0.00000000000E+00 0. -1.
         21    1    1    2  504  501 -0.92023201161E+01  0.22223594540E+02  0.29949195591E+03  0.30045632379E+03  0.00000000000E+00 0. -1.
</event>
<event>
 4    1  0.2939002E+006  0.2051749E+02  0.7546771E-02  0.1526267E+00
         21   -1    0    0  504  501  0.00000000000E+00  0.00000000000E+00  0.89924265717E+01  0.89924265717E+01  0.00000000000E+00 0. -1.
         21   -1    0    0  503  502 -0.00000000000E+00 -0.00000000000E+00 -0.60608378995E+02  0.60608378995E+02  0.00000000000E+00 0. -1.
         21    1    1    2  503  501  0.14387000244E+02 -0.14628116570E+02 -0.92053871889E+01  0.22487923953E+02  0.00000000000E+00 0. -1.
         21    1    1    2  504  502 -0.14387000244E+02  0.14628116570E+02 -0.42410565234E+02  0.47112881613E+02  0.00000000000E+00 0. -1.
</event>
<event>
 4    1  0.2939002E+006  0.2667583E+02  0.7546771E-02  0.1450892E+00
         21   -1    0    0  503  501  0.00000000000E+00  0.00000000000E+00  0.27326500554E+02  0.27326500554E+02  0.00000000000E+00 0. -1.
         21   -1    0    0  504  502 -0.00000000000E+00 -0.00000000000E+00 -0.55736618568E+02  0.55736618568E+02  0.00000000000E+00 0.  1.
         21    1    1    2  503  502  0.15202163900E+02 -0.21920171370E+02  0.16109881131E+02  0.31162926213E+02  0.00000000000E+00 0. -1.
         21    1    1    2  504  501 -0.15202163900E+02  0.21920171370E+02 -0.44519999145E+02  0.51900192909E+02  0.00000000000E+00 0.  1.
</event>
<event>
 4    1  0.2939002E+006  0.2670830E+02  0.7546771E-02  0.1450561E+00
         21   -1    0    0  502  501  0.00000000000E+00  0.00000000000E+00  0.79468186626E+01  0.79468186626E+01  0.00000000000E+00 0.  1.
         21   -1    0    0  503  502 -0.00000000000E+00 -0.00000000000E+00 -0.11777325222E+03  0.11777325222E+03  0.00000000000E+00 0. -1.
         21    1    1    2  503  504  0.17954740246E+02 -0.19772717668E+02 -0.85568623861E+02  0.89639960122E+02  0.00000000000E+00 0. -1.
         21    1    1    2  504  501 -0.17954740246E+02  0.19772717668E+02 -0.24257809698E+02  0.36080110762E+02  0.00000000000E+00 0.  1.
</event>
<event>
 4    1  0.2939002E+006  0.4629763E+02  0.7546771E-02  0.1315075E+00
         21   -1    0    0  504  501  0.00000000000E+00  0.00000000000E+00  0.63862517827E+02  0.63862517827E+02  0.00000000000E+00 0. -1.
         21   -1    0    0  503  502 -0.00000000000E+00 -0.00000000000E+00 -0.16184735589E+03  0.16184735589E+03  0.00000000000E+00 0.  1.
         21    1    1    2  503  501 -0.54054039989E+01 -0.45980996856E+02 -0.14946630692E+03  0.15647251314E+03  0.00000000000E+00 0.  1.
         21    1    1    2  504  502  0.54054039989E+01  0.45980996856E+02  0.51481468855E+02  0.69237360578E+02  0.00000000000E+00 0. -1.
</event>
<event>
 4    1  0.2939002E+006  0.2314148E+02  0.7546771E-02  0.1490729E+00
         21   -1    0    0  503  501  0.00000000000E+00  0.00000000000E+00  0.51596164318E+02  0.51596164318E+02  0.00000000000E+00 0.  1.
         21   -1    0    0  504  502 -0.00000000000E+00 -0.00000000000E+00 -0.97712171015E+03  0.97712171015E+03  0.00000000000E+00 0. -1.
         21    1    1    2  503  502 -0.38134417755E+01 -0.22825112036E+02 -0.97438259445E+03  0.97465735951E+03  0.00000000000E+00 0. -1.
         21    1    1    2  504  501  0.38134417755E+01  0.22825112036E+02  0.48857048620E+02  0.54060514957E+02  0.00000000000E+00 0.  1.
</event>
<event>
 4    1  0.2939002E+006  0.2011880E+02  0.7546771E-02  0.1532227E+00
         21   -1    0    0  504  501  0.00000000000E+00  0.00000000000E+00  0.81081274188E+01  0.81081274188E+01  0.00000000000E+00 0.  1.
         21   -1    0    0  503  502 -0.00000000000E+00 -0.00000000000E+00 -0.50207561051E+02  0.50207561051E+02  0.00000000000E+00 0.  1.
         21    1    1    2  503  501  0.20058725949E+02  0.15536213862E+01 -0.23252350622E+02  0.30747976121E+02  0.00000000000E+00 0.  1.
         21    1    1    2  504  502 -0.20058725949E+02 -0.15536213862E+01 -0.18847083011E+02  0.27567712349E+02  0.00000000000E+00 0.  1.
</event>
<event>
 4    1  0.2939002E+006  0.4191358E+02  0.7546771E-02  0.1337623E+00
         21   -1    0    0  503  501  0.00000000000E+00  0.00000000000E+00  0.49874323248E+03  0.49874323248E+03  0.00000000000E+00 0.  1.
         21   -1    0    0  501  502 -0.00000000000E+00 -0.00000000000E+00 -0.35345712972E+01  0.35345712972E+01  0.00000000000E+00 0.  1.
         21    1    1    2  503  504  0.41903702101E+02  0.90972148819E+00  0.23283646008E+03  0.23657887688E+03  0.00000000000E+00 0.  1.
         21    1    1    2  504  502 -0.41903702101E+02 -0.90972148819E+00  0.26237220110E+03  0.26569892690E+03  0.00000000000E+00 0.  1.
</event>
<event>
 4    1  0.2939002E+006  0.2408194E+02  0.7546771E-02  0.1479341E+00
         21   -1    0    0  502  501  0.00000000000E+00  0.00000000000E+00  0.74555360164E+02  0.74555360164E+02  0.00000000000E+00 0. -1.
         21   -1    0    0  504  502 -0.00000000000E+00 -0.00000000000E+00 -0.65764430696E+02  0.65764430696E+02  0.00000000000E+00 0.  1.
         21    1    1    2  503  501 -0.19373484200E+02 -0.14304124347E+02  0.70275551799E+02  0.74287233386E+02  0.00000000000E+00 0. -1.
         21    1    1    2  504  503  0.19373484200E+02  0.14304124347E+02 -0.61484622331E+02  0.66032557474E+02  0.00000000000E+00 0.  1.
</event>
<event>
 4    1  0.2939002E+006  0.2673601E+02  0.7546771E-02  0.1450278E+00
         21   -1    0    0  503  501  0.00000000000E+00  0.00000000000E+00  0.92049715338E+00  0.92049715338E+00  0.00000000000E+00 0. -1.
         21   -1    0    0  504  502 -0.00000000000E+00 -0.00000000000E+00 -0.86755826751E+03  0.86755826751E+03  0.00000000000E+00 0. -1.
         21    1    1    2  503  502  0.24085005468E+02 -0.11607188776E+02 -0.29267707111E+03  0.29389569965E+03  0.00000000000E+00 0. -1.
         21    1    1    2  504  501 -0.24085005468E+02  0.11607188776E+02 -0.57396069924E+03  0.57458306501E+03  0.00000000000E+00 0. -1.
</event>
<event>
 4    1  0.2939002E+006  0.2608268E+02  0.7546771E-02  0.1457047E+00
         21   -1    0    0  503  501  0.00000000000E+00  0.00000000000E+00  0.22748333164E+02  0.22748333164E+02  0.00000000000E+00 0. -1.
         21   -1    0    0  504  502 -0.00000000000E+00 -0.00000000000E+00 -0.31369622427E+02  0.31369622427E+02  0.00000000000E+00 0. -1.
         21    1    1    2  503  502 -0.10985155949E+02 -0.23656549204E+02 -0.10155964892E+02  0.27990169601E+02  0.00000000000E+00 0. -1.
         21    1    1    2  504  501  0.10985155949E+02  0.23656549204E+02  0.15346756288E+01  0.26127785990E+02  0.00000000000E+00 0. -1.
</event>
<event>
 4    1  0.2939002E+006  0.2041462E+02  0.7546771E-02  0.1527789E+00
         21   -1    0    0  503  501  0.00000000000E+00  0.00000000000E+00  0.15317142577E+03  0.15317142577E+03  0.00000000000E+00 0.  1.
         21   -1    0    0  504  502 -0.00000000000E+00 -0.00000000000E+00 -0.36676932523E+01  0.36676932523E+01  0.00000000000E+00 0.  1.
         21    1    1    2  503  502 -0.36333253298E+01 -0.20088695863E+02  0.11459619544E+03  0.11640036411E+03  0.00000000000E+00 0.  1.
         21    1    1    2  504  501  0.36333253298E+01  0.20088695863E+02  0.34907537077E+02  0.40438754917E+02  0.00000000000E+00 0.  1.
</event>
<event>
 4    1  0.2939002E+006  0.2812582E+02  0.7546771E-02  0.1436615E+00
         21   -1    0    0  503  501  0.00000000000E+00  0.00000000000E+00  0.75090152421E+03  0.75090152421E+03  0.00000000000E+00 0. -1.
         21   -1    0    0  504  502 -0.00000000000E+00 -0.00000000000E+00 -0.13084731925E+01  0.13084731925E+01  0.00000000000E+00 0. -1.
         21    1    1    2  503  502  0.22938448461E+02  0.16275428557E+02  0.54082723620E+03  0.54155808683E+03  0.00000000000E+00 0. -1.
         21    1    1    2  504  501 -0.22938448461E+02 -0.16275428557E+02  0.20876581481E+03  0.21065191057E+03  0.00000000000E+00 0. -1.
</event>
<event>
 4    1  0.2939002E+006  0.2087941E+02  0.7546771E-02  0.1520994E+00
         21   -1    0    0  503  501  0.00000000000E+00  0.00000000000E+00  0.39678697199E+01  0.39678697199E+01  0.00000000000E+00 0. -1.
         21   -1    0    0  501  502 -0.00000000000E+00 -0.00000000000E+00 -0.12004658640E+03  0.12004658640E+03  0.00000000000E+00 0. -1.
         21    1    1    2  503  504  0.13843556749E+02  0.15630285935E+02 -0.39985577254E+02  0.45108716344E+02  0.00000000000E+00 0. -1.
         21    1    1    2  504  502 -0.13843556749E+02 -0.15630285935E+02 -0.76093139421E+02  0.78905739771E+02  0.00000000000E+00 0. -1.
</event>
<event>
 4    1  0.2939002E+006  0.3069770E+02  0.7546771E-02  0.1413628E+00
         21   -1    0    0  503  501  0.00000000000E+00  0.00000000000E+00  0.85791721398E+01  0.85791721398E+01  0.00000000000E+00 0. -1.
         21   -1    0    0  504  502 -0.00000000000E+00 -0.00000000000E+00 -0.12952230090E+03  0.12952230090E+03  0.00000000000E+00 0. -1.
         21    1    1    2  503  502 -0.15133805864E+02 -0.26707991900E+02 -0.87388010234E+02  0.92622962833E+02  0.00000000000E+00 0. -1.
         21    1    1    2  504  501  0.15133805864E+02  0.26707991900E+02 -0.33555118523E+02  0.45478510204E+02  0.00000000000E+00 0. -1.
</event>
<event>
 4    1  0.2939002E+006  0.2173439E+02  0.7546771E-02  0.1509033E+00
         21   -1    0    0  502  501  0.00000000000E+00  0.00000000000E+00  0.63470187183E+00  0.63470187183E+00  0.00000000000E+00 0.  1.
         21   -1    0    0  503  502 -0.00000000000E+00 -0.00000000000E+00 -0.81607945817E+03  0.81607945817E+03  0.00000000000E+00 0.  1.
         21    1    1    2  503  504 -0.21167546262E+02 -0.49313980063E+01 -0.52886378527E+03  0.52931019929E+03  0.00000000000E+00 0.  1.
         21    1    1    2  504  501  0.21167546262E+02  0.49313980063E+01 -0.28658097103E+03  0.28740396075E+03  0.00000000000E+00 0.  1.
</event>
<event>
 4    1  0.2939002E+006  0.3403845E+02  0.7546771E-02  0.1387452E+00
         21   -1    0    0  503  501  0.00000000000E+00  0.00000000000E+00  0.34252583518E+01  0.34252583518E+01  0.00000000000E+00 0.  1.
         21   -1    0    0  501  502 -0.00000000000E+00 -0.00000000000E+00 -0.36088812004E+03  0.36088812004E+03  0.00000000000E+00 0. -1.
         21    1    1    2  503  504  0.25197761394E+02 -0.22884254643E+02 -0.13311560254E+03  0.13739861691E+03  0.00000000000E+00 0.  1.
         21    1    1    2  504  502 -0.25197761394E+02  0.22884254643E+02 -0.22434725915E+03  0.22691476148E+03  0.00000000000E+00 0. -1.
</event>
<event>
 4    1  0.2939002E+006  0.2159957E+02  0.7546771E-02  0.1510874E+00
         21   -1    0    0  504  501  0.00000000000E+00  0.00000000000E+00  0.33024422271E+01  0.33024422271E+01  0.00000000000E+00 0. -1.
         21   -1    0    0  501  502 -0.00000000000E+00 -0.00000000000E+00 -0.15293537503E+03  0.15293537503E+03  0.00000000000E+00 0. -1.
         21    1    1    2  503  502 -0.19575384765E+02  0.91293836094E+01 -0.96390013276E+02  0.98780443374E+02  0.00000000000E+00 0. -1.
         21    1    1    2  504  503  0.19575384765E+02 -0.91293836094E+01 -0.53242919524E+02  0.57457373880E+02  0.00000000000E+00 0. -1.
</event>
<event>
 4    1  0.2939002E+006  0.2114319E+02  0.7546771E-02  0.1517230E+00
         21   -1    0    0  504  501  0.00000000000E+00  0.00000000000E+00  0.19130553257E+02  0.19130553257E+02  0.00000000000E+00 0.  1.
         21   -1    0    0  503  502 -0.00000000000E+00 -0.00000000000E+00 -0.13403377229E+03  0.13403377229E+03  0.00000000000E+00 0.  1.
         21    1    1    2  503  501 -0.16346737798E+02 -0.13409645396E+02  0.12135375782E+02  0.24378305348E+02  0.00000000000E+00 0.  1.
         21    1    1    2  504  502  0.16346737798E+02  0.13409645396E+02 -0.12703859481E+03  0.12878602020E+03  0.00000000000E+00 0.  1.
</event>
<event>
 4    1  0.2939002E+006  0.2013877E+02  0.7546771E-02  0.1531925E+00
         21   -1    0    0  504  501  0.00000000000E+00  0.00000000000E+00  0.23265824081E+02  0.23265824081E+02  0.00000000000E+00 0. -1.
         21   -1    0    0  503  502 -0.00000000000E+00 -0.00000000000E+00 -0.25342103602E+02  0.25342103602E+02  0.00000000000E+00 0.  1.
         21    1    1    2  503  501  0.11755939931E+02  0.16351393774E+02 -0.14616472421E+02  0.24883960056E+02  0.00000000000E+00 0.  1.
         21    1    1    2  504  502 -0.11755939931E+02 -0.16351393774E+02  0.12540192900E+02  0.23723967628E+02  0.00000000000E+00 0. -1.
</event>
<event>
 4    1  0.2939002E+006  0.2794663E+02  0.7546771E-02  0.1438324E+00
         21   -1    0    0  503  501  0.00000000000E+00  0.00000000000E+00  0.62939938601E+02  0.62939938601E+02  0.00000000000E+00 0. -1.
         21   -1    0    0  504  502 -0.00000000000E+00 -0.00000000000E+00 -0.79897639013E+02  0.79897639013E+02  0.00000000000E+00 0.  1.
         21    1    1    2  503  502 -0.17315917661E+02  0.21935658972E+02 -0.74117740356E+02  0.79211448506E+02  0.00000000000E+00 0.  1.
         21    1    1    2  504  501  0.17315917661E+02 -0.21935658972E+02  0.57160039943E+02  0.63626129108E+02  0.00000000000E+00 0. -1.
</event>
<event>
 4    1  0.2939002E+006  0.2130302E+02  0.7546771E-02  0.1514982E+00
         21   -1    0    0  504  501  0.00000000000E+00  0.00000000000E+00  0.50613416930E+02  0.50613416930E+02  0.00000000000E+00 0.  1.
         21   -1    0    0  503  502 -0.00000000000E+00 -0.00000000000E+00 -0.33471568406E+02  0.33471568406E+02  0.00000000000E+00 0. -1.
         21    1    1    2  503  501 -0.11349844409E+02 -0.18027746589E+02  0.44544162890E+02  0.49376118345E+02  0.00000000000E+00 0.  1.
         21    1    1    2  504  502  0.11349844409E+02  0.18027746589E+02 -0.27402314366E+02  0.34708866991E+02  0.00000000000E+00 0. -1.
</event>
<event>
 4    1  0.2939002E+006  0.2122038E+02  0.7546771E-02  0.1516142E+00
         21   -1    0    0  503  501  0.00000000000E+00  0.00000000000E+00  0.31216212713E+03  0.31216212713E+03  0.00000000000E+00 0.  1.
         21   -1    0    0  504  502 -0.00000000000E+00 -0.00000000000E+00 -0.95200928775E+01  0.95200928775E+01  0.00000000000E+00 0. -1.
         21    1    1    2  503  502 -0.20306187933E+02  0.61614336462E+01  0.31659428067E+01  0.21455249399E+02  0.00000000000E+00 0. -1.
         21    1    1    2  504  501  0.20306187933E+02 -0.61614336462E+01  0.29947609145E+03  0.30022697061E+03  0.00000000000E+00 0.  1.
</event>
<event>
 4    1  0.2939002E+006  0.2141316E+02  0.7546771E-02  0.1513447E+00
         21   -1    0    0  503  501  0.00000000000E+00  0.00000000000E+00  0.18400945586E+01  0.18400945586E+01  0.00000000000E+00 0.  1.
         21   -1    0    0  501  502 -0.00000000000E+00 -0.00000000000E+00 -0.72693079788E+03  0.72693079788E+03  0.00000000000E+00 0.  1.
         21    1    1    2  503  504 -0.20289402401E+02 -0.68457114955E+01 -0.67143637065E+02  0.70475468172E+02  0.00000000000E+00 0.  1.
         21    1    1    2  504  502  0.20289402401E+02  0.68457114955E+01 -0.65794706625E+03  0.65829542426E+03  0.00000000000E+00 0.  1.
</event>
<event>
 4    1  0.2939002E+006  0.4173323E+02  0.7546771E-02  0.1338618E+00
         21   -1    0    0  504  501  0.00000000000E+00  0.00000000000E+00  0.65021628329E+03  0.65021628329E+03  0.00000000000E+00 0. -1.
         21   -1    0    0  501  502 -0.00000000000E+00 -0.00000000000E+00 -0.29961087803E+01  0.29961087803E+01  0.00000000000E+00 0. -1.
         21    1    1    2  503  502  0.22426497282E+02 -0.35195382915E+02  0.21728630464E+03  0.22125777036E+03  0.00000000000E+00 0. -1.
         21    1    1    2  504  503 -0.22426497282E+02  0.35195382915E+02  0.42993386987E+03  0.43195462171E+03  0.00000000000E+00 0. -1.
</event>
<event>
 4    1  0.2939002E+006  0.2129179E+02  0.7546771E-02  0.1515139E+00
         21   -1    0    0  502  501  0.00000000000E+00  0.00000000000E+00  0.15724069435E+03  0.15724069435E+03  0.00000000000E+00 0.  1.
         21   -1    0    0  503  502 -0.00000000000E+00 -0.00000000000E+00 -0.12917079449E+02  0.12917079449E+02  0.00000000000E+00 0. -1.
         21    1    1    2  503  504  0.15790802326E+02 -0.14282530444E+02 -0.28235231786E+01  0.21478184214E+02  0.00000000000E+00 0. -1.
         21    1    1    2  504  501 -0.15790802326E+02  0.14282530444E+02  0.14714713808E+03  0.14867958959E+03  0.00000000000E+00 0.  1.
</event>
<event>
 4    1  0.2939002E+006  0.2300254E+02  0.7546771E-02  0.1492466E+00
         21   -1    0    0  503  501  0.00000000000E+00  0.00000000000E+00  0.20251425783E+03  0.20251425783E+03  0.00000000000E+00 0.  1.
         21   -1    0    0  504  502 -0.00000000000E+00 -0.00000000000E+00 -0.16929370456E+02  0.16929370456E+02  0.00000000000E+00 0. -1.
         21    1    1    2  503  502  0.16130332952E+02  0.16399067735E+02 -0.81079790397E+01  0.24389677895E+02  0.00000000000E+00 0. -1.
         21    1    1    2  504  501 -0.16130332952E+02 -0.16399067735E+02  0.19369286641E+03  0.19505395039E+03  0.00000000000E+00 0.  1.
</event>
<event>
 4    1  0.2939002E+006  0.2545422E+02  0.7546771E-02  0.1463786E+00
         21   -1    0    0  504  501  0.00000000000E+00  0.00000000000E+00  0.20229978870E+01  0.20229978870E+01  0.00000000000E+00 0. -1.
         21   -1    0    0  503  502 -0.00000000000E+00 -0.00000000000E+00 -0.32092885320E+03  0.32092885320E+03  0.00000000000E+00 0. -1.
         21    1    1    2  503  501  0.11472186063E+02  0.22722372284E+02 -0.15216876645E+03  0.15428302155E+03  0.00000000000E+00 0. -1.
         21    1    1    2  504  502 -0.11472186063E+02 -0.22722372284E+02 -0.16673708886E+03  0.16866882954E+03  0.00000000000E+00 0. -1.
</event>
<event>
 4    1  0.2939002E+006  0.2523690E+02  0.7546771E-02  0.1466171E+00
         21   -1    0    0  503  501  0.00000000000E+00  0.00000000000E+00  0.18412127108E+04  0.18412127108E+04  0.00000000000E+00 0.  1.
         21   -1    0    0  504  502 -0.00000000000E+00 -0.00000000000E+00 -0.73319844514E+00  0.73319844514E+00  0.00000000000E+00 0.  1.
         21    1    1    2  503  502  0.23762957493E+02  0.84984097851E+01  0.15895865351E+04  0.15897868579E+04  0.00000000000E+00 0.  1.
         21    1    1    2  504  501 -0.23762957493E+02 -0.84984097851E+01  0.25089297725E+03  0.25215905130E+03  0.00000000000E+00 0.  1.
</event>
<event>
 4    1  0.2939002E+006  0.2029350E+02  0.7546771E-02  0.1529595E+00
         21   -1    0    0  502  501  0.00000000000E+00  0.00000000000E+00  0.14750145011E+03  0.14750145011E+03  0.00000000000E+00 0.  1.
         21   -1    0    0  503  502 -0.00000000000E+00 -0.00000000000E+00 -0.80447375760E+02  0.80447375760E+02  0.00000000000E+00 0.  1.
         21    1    1    2  503  504 -0.40803488801E+01 -0.19879054473E+02 -0.78452107978E+02  0.81034309400E+02  0.00000000000E+00 0.  1.
         21    1    1    2  504  501  0.40803488801E+01  0.19879054473E+02  0.14550618233E+03  0.14691451647E+03  0.00000000000E+00 0.  1.
</event>
<event>
 4    1  0.2939002E+006  0.2124060E+02  0.7546771E-02  0.1515857E+00
         21   -1    0    0  503  501  0.00000000000E+00  0.00000000000E+00  0.78104321318E+02  0.78104321318E+02  0.00000000000E+00 0. -1.
         21   -1    0    0  504  502 -0.00000000000E+00 -0.00000000000E+00 -0.35414069306E+02  0.35414069306E+02  0.00000000000E+00 0.  1.
         21    1    1    2  503  502 -0.20313565203E+02 -0.62066115112E+01  0.73269375595E+02  0.76286069225E+02  0.00000000000E+00 0. -1.
         21    1    1    2  504  501  0.20313565203E+02  0.62066115112E+01 -0.30579123582E+02  0.37232321399E+02  0.00000000000E+00 0.  1.
</event>
<event>
 4    1  0.2939002E+006  0.3143526E+02  0.7546771E-02  0.1407521E+00
         21   -1    0    0  503  501  0.00000000000E+00  0.00000000000E+00  0.14527369106E+03  0.14527369106E+03  0.00000000000E+00 0. -1.
         21   -1    0    0  504  502 -0.00000000000E+00 -0.00000000000E+00 -0.43833297962E+02  0.43833297962E+02  0.00000000000E+00 0.  1.
         21    1    1    2  503  502 -0.34265790354E+01  0.31247949352E+02  0.13762804599E+03  0.14117242941E+03  0.00000000000E+00 0. -1.
         21    1    1    2  504  501  0.34265790354E+01 -0.31247949352E+02 -0.36187652896E+02  0.47934559607E+02  0.00000000000E+00 0.  1.
</event>
<event>
 4    1  0.2939002E+006  0.2872873E+02  0.7546771E-02  0.1430975E+00
         21   -1    0    0  503  501  0.00000000000E+00  0.00000000000E+00  0.26264800161E+03  0.26264800161E+03  0.00000000000E+00 0. -1.
         21   -1    0    0  501  502 -0.00000000000E+00 -0.00000000000E+00 -0.18942563802E+02  0.18942563802E+02  0.00000000000E+00 0.  1.
         21    1    1    2  503  504 -0.89161593423E+01 -0.27310105920E+02  0.25044052797E+03  0.25208291857E+03  0.00000000000E+00 0. -1.
         21    1    1    2  504  502  0.89161593423E+01  0.27310105920E+02 -0.67350901633E+01  0.29507646844E+02  0.00000000000E+00 0.  1.
</event>
<event>
 4    1  0.2939002E+006  0.2173365E+02  0.7546771E-02  0.1509043E+00
         21   -1    0    0  504  501  0.00000000000E+00  0.00000000000E+00  0.14462547397E+01  0.14462547397E+01  0.00000000000E+00 0. -1.
         21   -1    0    0  503  502 -0.00000000000E+00 -0.00000000000E+00 -0.39626945554E+03  0.39626945554E+03  0.00000000000E+00 0. -1.
         21    1    1    2  503  501  0.92717138925E+01 -0.19656726578E+02 -0.11403227869E+03  0.11608493512E+03  0.00000000000E+00 0. -1.
         21    1    1    2  504  502 -0.92717138925E+01  0.19656726578E+02 -0.28079092211E+03  0.28163077516E+03  0.00000000000E+00 0. -1.
</event>
<event>
 4    1  0.2939002E+006  0.2158292E+02  0.7546771E-02  0.1511103E+00
         21   -1    0    0  504  501  0.00000000000E+00  0.00000000000E+00  0.11243433670E+02  0.11243433670E+02  0.00000000000E+00 0. -1.
         21   -1    0    0  503  502 -0.00000000000E+00 -0.00000000000E+00 -0.46640587978E+02  0.46640587978E+02  0.00000000000E+00 0. -1.
         21    1    1    2  503  501  0.20563161750E+02 -0.65558110957E+01 -0.27371656881E+02  0.34857278733E+02  0.00000000000E+00 0. -1.
         21    1    1    2  504  502 -0.20563161750E+02  0.65558110957E+01 -0.80254974275E+01  0.23026742914E+02  0.00000000000E+00 0. -1.
</event>
<event>
 4    1  0.2939002E+006  0.2830412E+02  0.7546771E-02  0.1434930E+00
         21   -1    0    0  503  501  0.00000000000E+00  0.00000000000E+00  0.71173719696E+01  0.71173719696E+01  0.00000000000E+00 0.  1.
         21   -1    0    0  504  502 -0.00000000000E+00 -0.00000000000E+00 -0.12082846172E+03  0.12082846172E+03  0.00000000000E+00 0.  1.
         21    1    1    2  503  502  0.11644367473E+01 -0.28280152818E+02 -0.40119416352E+02  0.49098783333E+02  0.00000000000E+00 0.  1.
         21    1    1    2  504  501 -0.11644367473E+01  0.28280152818E+02 -0.73591673394E+02  0.78847050352E+02  0.00000000000E+00 0.  1.
</event>
<event>
 4    1  0.2939002E+006  0.2004474E+02  0.7546771E-02  0.1533353E+00
         21   -1    0    0  504  501  0.00000000000E+00  0.00000000000E+00  0.27058229652E+02  0.27058229652E+02  0.00000000000E+00 0.  1.
         21   -1    0    0  503  502 -0.00000000000E+00 -0.00000000000E+00 -0.15102869416E+02  0.15102869416E+02  0.00000000000E+00 0.  1.
         21    1    1    2  503  501  0.14502729676E+02 -0.13836997781E+02  0.32453689370E+01  0.20305765072E+02  0.00000000000E+00 0.  1.
         21    1    1    2  504  502 -0.14502729676E+02  0.13836997781E+02  0.87099912997E+01  0.21855333996E+02  0.00000000000E+00 0.  1.
</event>
<event>
 4    1  0.2939002E+006  0.4447463E+02  0.7546771E-02  0.1324087E+00
         21   -1    0    0  504  501  0.00000000000E+00  0.00000000000E+00  0.27048374056E+02  0.27048374056E+02  0.00000000000E+00 0.  1.
         21   -1    0    0  503  502 -0.00000000000E+00 -0.00000000000E+00 -0.75192325755E+02  0.75192325755E+02  0.00000000000E+00 0.  1.
         21    1    1    2  503  501  0.28697041598E+02 -0.33977533312E+02 -0.32542265104E+02  0.55108910210E+02  0.00000000000E+00 0.  1.
         21    1    1    2  504  502 -0.28697041598E+02  0.33977533312E+02 -0.15601686595E+02  0.47131789602E+02  0.00000000000E+00 0.  1.
</event>
<event>
 4    1  0.2939002E+006  0.3440719E+02  0.7546771E-02  0.1384779E+00
         21   -1    0    0  503  501  0.00000000000E+00  0.00000000000E+00  0.11361620969E+02  0.11361620969E+02  0.00000000000E+00 0. -1.
         21   -1    0    0  504  502 -0.00000000000E+00 -0.00000000000E+00 -0.10419790512E+03  0.10419790512E+03  0.00000000000E+00 0. -1.
         21    1    1    2  503  502  0.31493994722E+02  0.13855792408E+02 -0.46335583200E+02  0.57713438273E+02  0.00000000000E+00 0. -1.
         21    1    1    2  504  501 -0.31493994722E+02 -0.13855792408E+02 -0.46500700951E+02  0.57846087817E+02  0.00000000000E+00 0. -1.
</event>
<event>
 4    1  0.2939002E+006  0.4119695E+02  0.7546771E-02  0.1341611E+00
         21   -1    0    0  504  501  0.00000000000E+00  0.00000000000E+00  0.17105856372E+04  0.17105856372E+04  0.00000000000E+00 0. -1.
         21   -1    0    0  503  502 -0.00000000000E+00 -0.00000000000E+00 -0.10633302087E+01  0.10633302087E+01  0.00000000000E+00 0. -1.
         21    1    1    2  503  501 -0.23516022562E+02  0.33825803290E+02  0.63336227289E+03  0.63470068301E+03  0.00000000000E+00 0. -1.
         21    1    1    2  504  502  0.23516022562E+02 -0.33825803290E+02  0.10761600341E+04  0.10769482844E+04  0.00000000000E+00 0. -1.
</event>
<event>
 4    1  0.2939002E+006  0.2264794E+02  0.7546771E-02  0.1496967E+00
         21   -1    0    0  504  501  0.00000000000E+00  0.00000000000E+00  0.40122777073E+03  0.40122777073E+03  0.00000000000E+00 0.  1.
         21   -1    0    0  503  502 -0.00000000000E+00 -0.00000000000E+00 -0.36306271948E+01  0.36306271948E+01  0.00000000000E+00 0.  1.
         21    1    1    2  503  501 -0.22308021672E+02 -0.39091454633E+01  0.35860700418E+02  0.42413666237E+02  0.00000000000E+00 0.  1.
         21    1    1    2  504  502  0.22308021672E+02  0.39091454633E+01  0.36173644311E+03  0.36244473168E+03  0.00000000000E+00 0.  1.
</event>
<event>
 4    1  0.2939002E+006  0.2021678E+02  0.7546771E-02  0.1530747E+00
         21   -1    0    0  503  501  0.00000000000E+00  0.00000000000E+00  0.39162349191E+02  0.39162349191E+02  0.00000000000E+00 0. -1.
         21   -1    0    0  504  502 -0.00000000000E+00 -0.00000000000E+00 -0.24532741915E+02  0.24532741915E+02  0.00000000000E+00 0.  1.
         21    1    1    2  503  502  0.14679164304E+02  0.13901095558E+02 -0.16826149426E+02  0.26302806445E+02  0.00000000000E+00 0.  1.
         21    1    1    2  504  501 -0.14679164304E+02 -0.13901095558E+02  0.31455756703E+02  0.37392284661E+02  0.00000000000E+00 0. -1.
</event>
<event>
 4    1  0.2939002E+006  0.2598030E+02  0.7546771E-02  0.1458129E+00
         21   -1    0    0  503  501  0.00000000000E+00  0.00000000000E+00  0.22900809037E+02  0.22900809037E+02  0.00000000000E+00 0. -1.
         21   -1    0    0  501  502 -0.00000000000E+00 -0.00000000000E+00 -0.32723246795E+02  0.32723246795E+02  0.00000000000E+00 0. -1.
         21    1    1    2  503  504  0.94086575737E+01  0.24216790086E+02  0.38528069966E+01  0.26264422345E+02  0.00000000000E+00 0. -1.
         21    1    1    2  504  502 -0.94086575737E+01 -0.24216790086E+02 -0.13675244755E+02  0.29359633487E+02  0.00000000000E+00 0. -1.
</event>
<event>
 4    1  0.2939002E+006  0.2125373E+02  0.7546771E-02  0.1515673E+00
         21   -1    0    0  503  501  0.00000000000E+00  0.00000000000E+00  0.99469234817E+03  0.99469234817E+03  0.00000000000E+00 0.  1.
         21   -1    0    0  504  502 -0.00000000000E+00 -0.00000000000E+00 -0.45414467451E+00  0.45414467451E+00  0.00000000000E+00 0.  1.
         21    1    1    2  503  502 -0.21250694973E+02  0.35928280761E+00  0.49443841759E+03  0.49489500897E+03  0.00000000000E+00 0.  1.
         21    1    1    2  504  501  0.21250694973E+02 -0.35928280761E+00  0.49979978591E+03  0.50025148387E+03  0.00000000000E+00 0.  1.
</event>
<event>
 4    1  0.2939002E+006  0.2039620E+02  0.7546771E-02  0.1528063E+00
         21   -1    0    0  503  501  0.00000000000E+00  0.00000000000E+00  0.29553495093E+02  0.29553495093E+02  0.00000000000E+00 0.  1.
         21   -1    0    0  504  502 -0.00000000000E+00 -0.00000000000E+00 -0.14256928922E+02  0.14256928922E+02  0.00000000000E+00 0.  1.
         21    1    1    2  503  502 -0.19553778939E+02 -0.58012613509E+01  0.10113673828E+02  0.22766011999E+02  0.00000000000E+00 0.  1.
         21    1    1    2  504  501  0.19553778939E+02  0.58012613509E+01  0.51828923424E+01  0.21044412016E+02  0.00000000000E+00 0.  1.
</event>
<event>
 4    1  0.2939002E+006  0.2030115E+02  0.7546771E-02  0.1529481E+00
         21   -1    0    0  502  501  0.00000000000E+00  0.00000000000E+00  0.15058877146E+02  0.15058877146E+02  0.00000000000E+00 0. -1.
         21   -1    0    0  503  502 -0.00000000000E+00 -0.00000000000E+00 -0.33965156676E+03  0.33965156676E+03  0.00000000000E+00 0.  1.
         21    1    1    2  503  504  0.27564181073E+01  0.20113152290E+02 -0.33235607504E+03  0.33297552065E+03  0.00000000000E+00 0.  1.
         21    1    1    2  504  501 -0.27564181073E+01 -0.20113152290E+02  0.77633854234E+01  0.21734923258E+02  0.00000000000E+00 0. -1.
</event>
<event>
 4    1  0.2939002E+006  0.2117851E+02  0.7546771E-02  0.1516731E+00
         21   -1    0    0  504  501  0.00000000000E+00  0.00000000000E+00  0.88610036648E+02  0.88610036648E+02  0.00000000000E+00 0.  1.
         21   -1    0    0  503  502 -0.00000000000E+00 -0.00000000000E+00 -0.11272423981E+03  0.11272423981E+03  0.00000000000E+00 0.  1.
         21    1    1    2  503  501  0.18791568933E+02 -0.97676121484E+01 -0.11043807263E+03  0.11245042106E+03  0.00000000000E+00 0.  1.
         21    1    1    2  504  502 -0.18791568933E+02  0.97676121484E+01  0.86323869470E+02  0.88883855397E+02  0.00000000000E+00 0.  1.
</event>
<event>
 4    1  0.2939002E+006  0.2664644E+02  0.7546771E-02  0.1451192E+00
         21   -1    0    0  503  501  0.00000000000E+00  0.00000000000E+00  0.15153241606E+03  0.15153241606E+03  0.00000000000E+00 0.  1.
         21   -1    0    0  504  502 -0.00000000000E+00 -0.00000000000E+00 -0.51112118970E+01  0.51112118970E+01  0.00000000000E+00 0.  1.
         21    1    1    2  503  502 -0.22882580035E+01 -0.26548005963E+02  0.95809420325E+02  0.99445853449E+02  0.00000000000E+00 0.  1.
         21    1    1    2  504  501  0.22882580035E+01  0.26548005963E+02  0.50611783834E+02  0.57197774503E+02  0.00000000000E+00 0.  1.
</event>
<event>
 4    1  0.2939002E+006  0.2677660E+02  0.7546771E-02  0.1449865E+00
         21   -1    0    0  503  501  0.00000000000E+00  0.00000000000E+00  0.32797022924E+02  0.32797022924E+02  0.00000000000E+00 0.  1.
         21   -1    0    0  504  502 -0.00000000000E+00 -0.00000000000E+00 -0.46012691280E+02  0.46012691280E+02  0.00000000000E+00 0.  1.
         21    1    1    2  503  502 -0.21749536086E+02  0.15618710223E+02 -0.35156234432E+02  0.44192162749E+02  0.00000000000E+00 0.  1.
         21    1    1    2  504  501  0.21749536086E+02 -0.15618710223E+02  0.21940566076E+02  0.34617551455E+02  0.00000000000E+00 0.  1.
</event>
<event>
 4    1  0.2939002E+006  0.3082792E+02  0.7546771E-02  0.1412535E+00
         21   -1    0    0  502  501  0.00000000000E+00  0.00000000000E+00  0.85440097788E+02  0.85440097788E+02  0.00000000000E+00 0. -1.
         21   -1    0    0  504  502 -0.00000000000E+00 -0.00000000000E+00 -0.38314146337E+03  0.38314146337E+03  0.00000000000E+00 0. -1.
         21    1    1    2  503  501 -0.12613892623E+02 -0.28129174843E+02  0.82014157946E+02  0.87616681448E+02  0.00000000000E+00 0. -1.
         21    1    1    2  504  503  0.12613892623E+02  0.28129174843E+02 -0.37971552352E+03  0.38096487971E+03  0.00000000000E+00 0. -1.
</event>
<event>
 4    1  0.2939002E+006  0.2018357E+02  0.7546771E-02  0.1531248E+00
         21   -1    0    0  503  501  0.00000000000E+00  0.00000000000E+00  0.13490916136E+01  0.13490916136E+01  0.00000000000E+00 0. -1.
         21   -1    0    0  504  502 -0.00000000000E+00 -0.00000000000E+00 -0.10860512977E+04  0.10860512977E+04  0.00000000000E+00 0. -1.
         21    1    1    2  503  502 -0.14614172885E+02 -0.13921288903E+02 -0.80378005696E+02  0.82873398226E+02  0.00000000000E+00 0. -1.
         21    1    1    2  504  501  0.14614172885E+02  0.13921288903E+02 -0.10043242003E+04  0.10045269910E+04  0.00000000000E+00 0. -1.
</event>
<event>
 4    1  0.2939002E+006  0.2074232E+02  0.7546771E-02  0.1522976E+00
         21   -1    0    0  503  501  0.00000000000E+00  0.00000000000E+00  0.82519140689E+03  0.82519140689E+03  0.00000000000E+00 0. -1.
         21   -1    0    0  504  502 -0.00000000000E+00 -0.00000000000E+00 -0.80036346673E+00  0.80036346673E+00  0.00000000000E+00 0. -1.
         21    1    1    2  503  502  0.19842935112E+02 -0.60416779665E+01  0.16836616126E+03  0.16963905271E+03  0.00000000000E+00 0. -1.
         21    1    1    2  504  501 -0.19842935112E+02  0.60416779665E+01  0.65602488217E+03  0.65635271765E+03  0.00000000000E+00 0. -1.
</event>
<event>
 4    1  0.2939002E+006  0.2352788E+02  0.7546771E-02  0.1485974E+00
         21   -1    0    0  503  501  0.00000000000E+00  0.00000000000E+00  0.66962597534E+01  0.66962597534E+01  0.00000000000E+00 0. -1.
         21   -1    0    0  504  502 -0.00000000000E+00 -0.00000000000E+00 -0.64733634882E+03  0.64733634882E+03  0.00000000000E+00 0. -1.
         21    1    1    2  503  502 -0.18637418071E+02 -0.14359932543E+02 -0.14897253862E+02  0.27847606497E+02  0.00000000000E+00 0. -1.
         21    1    1    2  504  501  0.18637418071E+02  0.14359932543E+02 -0.62574283521E+03  0.62618500208E+03  0.00000000000E+00 0. -1.
</event>
<event>
 4    1  0.2939002E+006  0.2283806E+02  0.7546771E-02  0.1494542E+00
         21   -1    0    0  502  501  0.00000000000E+00  0.00000000000E+00  0.45525474205E+00  0.45525474205E+00  0.00000000000E+00 0.  1.
         21   -1    0    0  504  502 -0.00000000000E+00 -0.00000000000E+00 -0.11458037128E+04  0.11458037128E+04  0.00000000000E+00 0.  1.
         21    1    1    2  503  501 -0.55076530351E+01 -0.22163996336E+02 -0.56675723960E+03  0.56721719440E+03  0.00000000000E+00 0.  1.
         21    1    1    2  504  503  0.55076530351E+01  0.22163996336E+02 -0.57859121849E+03  0.57904177319E+03  0.00000000000E+00 0.  1.
</event>
<event>
 4    1  0.2939002E+006  0.2859792E+02  0.7546771E-02  0.1432185E+00
         21   -1    0    0  504  501  0.00000000000E+00  0.00000000000E+00  0.18444635496E+02  0.18444635496E+02  0.00000000000E+00 0. -1.
         21   -1    0    0  501  502 -0.00000000000E+00 -0.00000000000E+00 -0.12628915616E+04  0.12628915616E+04  0.00000000000E+00 0. -1.
         21    1    1    2  503  502  0.28461420006E+02  0.27908565760E+01 -0.12515440865E+04  0.12518707768E+04  0.00000000000E+00 0. -1.
         21    1    1    2  504  503 -0.28461420006E+02 -0.27908565760E+01  0.70971603879E+01  0.29465420322E+02  0.00000000000E+00 0. -1.
</event>
<event>
 4    1  0.2939002E+006  0.4141369E+02  0.7546771E-02  0.1340395E+00
         21   -1    0    0  503  501  0.00000000000E+00  0.00000000000E+00  0.14959505568E+04  0.14959505568E+04  0.00000000000E+00 0. -1.
         21   -1    0    0  504  502 -0.00000000000E+00 -0.00000000000E+00 -0.13811919732E+03  0.13811919732E+03  0.00000000000E+00 0.  1.
         21    1    1    2  503  502 -0.32849858187E+01 -0.41283199293E+02  0.14925524954E+04  0.14931269354E+04  0.00000000000E+00 0. -1.
         21    1    1    2  504  501  0.32849858187E+01  0.41283199293E+02 -0.13472113594E+03  0.14094281871E+03  0.00000000000E+00 0.  1.
</event>
<event>
 4    1  0.2939002E+006  0.2509003E+02  0.7546771E-02  0.1467799E+00
         21   -1    0    0  504  501  0.00000000000E+00  0.00000000000E+00  0.14821963876E+03  0.14821963876E+03  0.00000000000E+00 0.  1.
         21   -1    0    0  503  502 -0.00000000000E+00 -0.00000000000E+00 -0.50670988535E+01  0.50670988535E+01  0.00000000000E+00 0.  1.
         21    1    1    2  503  501 -0.23281536202E+02 -0.93530526486E+01  0.10240750975E+03  0.10543627257E+03  0.00000000000E+00 0.  1.
         21    1    1    2  504  502  0.23281536202E+02  0.93530526486E+01  0.40745030157E+02  0.47850465037E+02  0.00000000000E+00 0.  1.
</event>
<event>
 4    1  0.2939002E+006  0.2307104E+02  0.7546771E-02  0.1491608E+00
         21   -1    0    0  504  501  0.00000000000E+00  0.00000000000E+00  0.33800769550E+01  0.33800769550E+01  0.00000000000E+00 0.  1.
         21   -1    0    0  503  502 -0.00000000000E+00 -0.00000000000E+00 -0.17318973318E+03  0.17318973318E+03  0.00000000000E+00 0.  1.
         21    1    1    2  503  501  0.19618393916E+02 -0.12140498695E+02 -0.58309986564E+02  0.62708273947E+02  0.00000000000E+00 0.  1.
         21    1    1    2  504  502 -0.19618393916E+02  0.12140498695E+02 -0.11149966966E+03  0.11386153619E+03  0.00000000000E+00 0.  1.
</event>
<event>
 4    1  0.2939002E+006  0.3874082E+02  0.7546771E-02  0.1356027E+00
         21   -1    0    0  504  501  0.00000000000E+00  0.00000000000E+00  0.46173203139E+01  0.46173203139E+01  0.00000000000E+00 0.  1.
         21   -1    0    0  503  502 -0.00000000000E+00 -0.00000000000E+00 -0.33998439552E+03  0.33998439552E+03  0.00000000000E+00 0.  1.
         21    1    1    2  503  501  0.69121464355E+01  0.38119195961E+02 -0.20379793921E+03  0.20744746538E+03  0.00000000000E+00 0.  1.
         21    1    1    2  504  502 -0.69121464355E+01 -0.38119195961E+02 -0.13156913600E+03  0.13715425045E+03  0.00000000000E+00 0.  1.
</event>
<event>
 4    1  0.2939002E+006  0.2045479E+02  0.7546771E-02  0.1527193E+00
         21   -1    0    0  504  501  0.00000000000E+00  0.00000000000E+00  0.41886956675E+02  0.41886956675E+02  0.00000000000E+00 0.  1.
         21   -1    0    0  503  502 -0.00000000000E+00 -0.00000000000E+00 -0.11512897072E+03  0.11512897072E+03  0.00000000000E+00 0.  1.
         21    1    1    2  503  501 -0.96726376252E+01  0.18023277970E+02 -0.11164597830E+03  0.11350428599E+03  0.00000000000E+00 0.  1.
         21    1    1    2  504  502  0.96726376252E+01 -0.18023277970E+02  0.38403964254E+02  0.43511641406E+02  0.00000000000E+00 0.  1.
</event>
<event>
 4    1  0.2939002E+006  0.2167118E+02  0.7546771E-02  0.1509894E+00
         21   -1    0    0  503  501  0.00000000000E+00  0.00000000000E+00  0.41621863502E+02  0.41621863502E+02  0.00000000000E+00 0. -1.
         21   -1    0    0  504  502 -0.00000000000E+00 -0.00000000000E+00 -0.74476561539E+02  0.74476561539E+02  0.00000000000E+00 0.  1.
         21    1    1    2  503  502 -0.32930200338E+01 -0.21419521683E+02 -0.69898712132E+02  0.73181075749E+02  0.00000000000E+00 0.  1.
         21    1    1    2  504  501  0.32930200338E+01  0.21419521683E+02  0.37044014095E+02  0.42917349293E+02  0.00000000000E+00 0. -1.
</event>
<event>
 4    1  0.2939002E+006  0.2782189E+02  0.7546771E-02  0.1439522E+00
         21   -1    0    0  502  501  0.00000000000E+00  0.00000000000E+00  0.38918324290E+01  0.38918324290E+01  0.00000000000E+00 0.  1.
         21   -1    0    0  503  502 -0.00000000000E+00 -0.00000000000E+00 -0.45264680352E+03  0.45264680352E+03  0.00000000000E+00 0.  1.
         21    1    1    2  503  504  0.87696571010E+01  0.26403613290E+02 -0.39529013748E+03  0.39626802857E+03  0.00000000000E+00 0.  1.
         21    1    1    2  504  501 -0.87696571010E+01 -0.26403613290E+02 -0.53464833614E+02  0.60270607379E+02  0.00000000000E+00 0.  1.
</event>
<event>
 4    1  0.2939002E+006  0.2358708E+02  0.7546771E-02  0.1485255E+00
         21   -1    0    0  504  501  0.00000000000E+00  0.00000000000E+00  0.45548465915E+01  0.45548465915E+01  0.00000000000E+00 0.  1.
         21   -1    0    0  503  502 -0.00000000000E+00 -0.00000000000E+00 -0.15111439258E+03  0.15111439258E+03  0.00000000000E+00 0. -1.
         21    1    1    2  503  501  0.68871292854E+01 -0.22559204298E+02 -0.39200365420E+02  0.45749523466E+02  0.00000000000E+00 0.  1.
         21    1    1    2  504  502 -0.68871292854E+01  0.22559204298E+02 -0.10735918057E+03  0.10991971570E+03  0.00000000000E+00 0. -1.
</event>
<event>
 4    1  0.2939002E+006  0.2285002E+02  0.7546771E-02  0.1494390E+00
         21   -1    0    0  502  501  0.00000000000E+00  0.00000000000E+00  0.15966775709E+02  0.15966775709E+02  0.00000000000E+00 0. -1.
         21   -1    0    0  503  502 -0.00000000000E+00 -0.00000000000E+00 -0.32838606965E+02  0.32838606965E+02  0.00000000000E+00 0. -1.
         21    1    1    2  503  504  0.18700225241E+02  0.13131072444E+02 -0.68540769895E+01  0.23855855863E+02  0.00000000000E+00 0. -1.
         21    1    1    2  504  501 -0.18700225241E+02 -0.13131072444E+02 -0.10017754266E+02  0.24949526812E+02  0.00000000000E+00 0. -1.
</event>
<event>
 4    1  0.2939002E+006  0.2469954E+02  0.7546771E-02  0.1472193E+00
         21   -1    0    0  503  501  0.00000000000E+00  0.00000000000E+00  0.44582932739E+02  0.44582932739E+02  0.00000000000E+00 0.  1.
         21   -1    0    0  504  502 -0.00000000000E+00 -0.00000000000E+00 -0.16442876356E+02  0.16442876356E+02  0.00000000000E+00 0. -1.
         21    1    1    2  503  502 -0.36043470665E+01 -0.24435142686E+02  0.15711742443E+01  0.24749466749E+02  0.00000000000E+00 0. -1.
         21    1    1    2  504  501  0.36043470665E+01  0.24435142686E+02  0.26568882139E+02  0.36276342346E+02  0.00000000000E+00 0.  1.
</event>
<event>
 4    1  0.2939002E+006  0.2030350E+02  0.7546771E-02  0.1529446E+00
         21   -1    0    0  503  501  0.00000000000E+00  0.00000000000E+00  0.32252154522E+02  0.32252154522E+02  0.00000000000E+00 0. -1.
         21   -1    0    0  501  502 -0.00000000000E+00 -0.00000000000E+00 -0.24174302072E+02  0.24174302072E+02  0.00000000000E+00 0.  1.
         21    1    1    2  503  504  0.16951510629E+02  0.11174893669E+02  0.23407180035E+02  0.30985932910E+02  0.00000000000E+00 0. -1.
         21    1    1    2  504  502 -0.16951510629E+02 -0.11174893669E+02 -0.15329327585E+02  0.25440523684E+02  0.00000000000E+00 0.  1.
</event>
<event>
 4    1  0.2939002E+006  0.2849085E+02  0.7546771E-02  0.1433181E+00
         21   -1    0    0  503  501  0.00000000000E+00  0.00000000000E+00  0.12937865685E+03  0.12937865685E+03  0.00000000000E+00 0.  1.
         21   -1    0    0  504  502 -0.00000000000E+00 -0.00000000000E+00 -0.62816073397E+01  0.62816073397E+01  0.00000000000E+00 0.  1.
         21    1    1    2  503  502  0.16163761103E+02  0.23461910769E+02  0.63900930505E+02  0.69964686445E+02  0.00000000000E+00 0.  1.
         21    1    1    2  504  501 -0.16163761103E+02 -0.23461910769E+02  0.59196119007E+02  0.65695577746E+02  0.00000000000E+00 0.  1.
</event>
<event>
 4    1  0.2939002E+006  0.2140384E+02  0.7546771E-02  0.1513577E+00
         21   -1    0    0  503  501  0.00000000000E+00  0.00000000000E+00  0.58754972186E+03  0.58754972186E+03  0.00000000000E+00 0. -1.
         21   -1    0    0  501  502 -0.00000000000E+00 -0.00000000000E+00 -0.13655558102E+01  0.13655558102E+01  0.00000000000E+00 0. -1.
         21    1    1    2  503  504 -0.19452180300E+02  0.89295500376E+01  0.48595827710E+03  0.48642941036E+03  0.00000000000E+00 0. -1.
         21    1    1    2  504  502  0.19452180300E+02 -0.89295500376E+01  0.10022588895E+03  0.10248586731E+03  0.00000000000E+00 0. -1.
</event>
<event>
 4    1  0.2939002E+006  0.4272080E+02  0.7546771E-02  0.1333239E+00
         21   -1    0    0  502  501  0.00000000000E+00  0.00000000000E+00  0.99973156272E+02  0.99973156272E+02  0.00000000000E+00 0. -1.
         21   -1    0    0  503  502 -0.00000000000E+00 -0.00000000000E+00 -0.26691182141E+02  0.26691182141E+02  0.00000000000E+00 0. -1.
         21    1    1    2  503  504 -0.39475743801E+02  0.16331942249E+02  0.10369840537E+01  0.42733382994E+02  0.00000000000E+00 0. -1.
         21    1    1    2  504  501  0.39475743801E+02 -0.16331942249E+02  0.72244990077E+02  0.83930955418E+02  0.00000000000E+00 0. -1.
</event>
<event>
 4    1  0.2939002E+006  0.2591579E+02  0.7546771E-02  0.1458814E+00
         21   -1    0    0  502  501  0.00000000000E+00  0.00000000000E+00  0.45200693217E+02  0.45200693217E+02  0.00000000000E+00 0.  1.
         21   -1    0    0  503  502 -0.00000000000E+00 -0.00000000000E+00 -0.25776892163E+02  0.25776892163E+02  0.00000000000E+00 0.  1.
         21    1    1    2  503  504 -0.20825818681E+02 -0.15424439894E+02 -0.13384766940E+02  0.29168134253E+02  0.00000000000E+00 0.  1.
         21    1    1    2  504  501  0.20825818681E+02  0.15424439894E+02  0.32808567994E+02  0.41809451128E+02  0.00000000000E+00 0.  1.
</event>
<event>
 4    1  0.2939002E+006  0.2130876E+02  0.7546771E-02  0.1514902E+00
         21   -1    0    0  504  501  0.00000000000E+00  0.00000000000E+00  0.14955036102E+02  0.14955036102E+02  0.00000000000E+00 0.  1.
         21   -1    0    0  503  502 -0.00000000000E+00 -0.00000000000E+00 -0.33109566446E+02  0.33109566446E+02  0.00000000000E+00 0.  1.
         21    1    1    2  503  501 -0.45450894607E+01 -0.20818395309E+02 -0.16000356042E+02  0.26647229030E+02  0.00000000000E+00 0.  1.
         21    1    1    2  504  502  0.45450894607E+01  0.20818395309E+02 -0.21541743017E+01  0.21417373518E+02  0.00000000000E+00 0.  1.
</event>
<event>
 4    1  0.2939002E+006  0.2354958E+02  0.7546771E-02  0.1485710E+00
         21   -1    0    0  503  501  0.00000000000E+00  0.00000000000E+00  0.31939426901E+03  0.31939426901E+03  0.00000000000E+00 0. -1.
         21   -1    0    0  501  502 -0.00000000000E+00 -0.00000000000E+00 -0.17321847118E+02  0.17321847118E+02  0.00000000000E+00 0.  1.
         21    1    1    2  503  504 -0.15806881106E+02 -0.17456382741E+02  0.31073330939E+03  0.31162440911E+03  0.00000000000E+00 0. -1.
         21    1    1    2  504  502  0.15806881106E+02  0.17456382741E+02 -0.86608874998E+01  0.25091707016E+02  0.00000000000E+00 0.  1.
</event>
<event>
 4    1  0.2939002E+006  0.2320657E+02  0.7546771E-02  0.1489920E+00
         21   -1    0    0  503  501  0.00000000000E+00  0.00000000000E+00  0.88410625337E+01  0.88410625337E+01  0.00000000000E+00 0. -1.
         21   -1    0    0  504  502 -0.00000000000E+00 -0.00000000000E+00 -0.11962430241E+03  0.11962430241E+03  0.00000000000E+00 0. -1.
         21    1    1    2  503  502 -0.21878138304E+02  0.77389874236E+01 -0.10392569401E+02  0.25427354576E+02  0.00000000000E+00 0. -1.
         21    1    1    2  504  501  0.21878138304E+02 -0.77389874236E+01 -0.10039067048E+03  0.10303801037E+03  0.00000000000E+00 0. -1.
</event>
<event>
 4    1  0.2939002E+006  0.2408765E+02  0.7546771E-02  0.1479274E+00
         21   -1    0    0  504  501  0.00000000000E+00  0.00000000000E+00  0.49995480244E+02  0.49995480244E+02  0.00000000000E+00 0. -1.
         21   -1    0    0  503  502 -0.00000000000E+00 -0.00000000000E+00 -0.21755094973E+02  0.21755094973E+02  0.00000000000E+00 0. -1.
         21    1    1    2  503  501  0.22969162100E+02  0.72548160716E+01 -0.10384123444E+02  0.26230607761E+02  0.00000000000E+00 0. -1.
         21    1    1    2  504  502 -0.22969162100E+02 -0.72548160716E+01  0.38624508715E+02  0.45519967457E+02  0.00000000000E+00 0. -1.
</event>
<event>
 4    1  0.2939002E+006  0.3116147E+02  0.7546771E-02  0.1409765E+00
         21   -1    0    0  503  501  0.00000000000E+00  0.00000000000E+00  0.57583384066E+02  0.57583384066E+02  0.00000000000E+00 0.  1.
         21   -1    0    0  504  502 -0.00000000000E+00 -0.00000000000E+00 -0.13696598191E+03  0.13696598191E+03  0.00000000000E+00 0.  1.
         21    1    1    2  503  502 -0.29017654287E+02  0.11358390247E+02 -0.13078117031E+03  0.13444237352E+03  0.00000000000E+00 0.  1.
         21    1    1    2  504  501  0.29017654287E+02 -0.11358390247E+02  0.51398572473E+02  0.60106992452E+02  0.00000000000E+00 0.  1.
</event>
<event>
 4    1  0.2939002E+006  0.2046132E+02  0.7546771E-02  0.1527096E+00
         21   -1    0    0  503  501  0.00000000000E+00  0.00000000000E+00  0.78606669993E+01  0.78606669993E+01  0.00000000000E+00 0.  1.
         21   -1    0    0  504  502 -0.00000000000E+00 -0.00000000000E+00 -0.86455997218E+02  0.86455997218E+02  0.00000000000E+00 0. -1.
         21    1    1    2  503  502  0.20191453976E+02 -0.33122472325E+01 -0.10076455964E+02  0.22807910036E+02  0.00000000000E+00 0.  1.
         21    1    1    2  504  501 -0.20191453976E+02  0.33122472325E+01 -0.68518874256E+02  0.71508754182E+02  0.00000000000E+00 0. -1.
</event>
<event>
 4    1  0.2939002E+006  0.4506009E+02  0.7546771E-02  0.1321139E+00
         21   -1    0    0  503  501  0.00000000000E+00  0.00000000000E+00  0.11628675780E+02  0.11628675780E+02  0.00000000000E+00 0.  1.
         21   -1    0    0  504  502 -0.00000000000E+00 -0.00000000000E+00 -0.71070815179E+03  0.71070815179E+03  0.00000000000E+00 0.  1.
         21    1    1    2  503  502 -0.44819296725E+02 -0.46521148311E+01 -0.35858343142E+02  0.57586737225E+02  0.00000000000E+00 0.  1.
         21    1    1    2  504  501  0.44819296725E+02  0.46521148311E+01 -0.66322113287E+03  0.66475009035E+03  0.00000000000E+00 0.  1.
</event>
<event>
 4    1  0.2939002E+006  0.2593706E+02  0.7546771E-02  0.1458588E+00
         21   -1    0    0  502  501  0.00000000000E+00  0.00000000000E+00  0.18870227611E+02  0.18870227611E+02  0.00000000000E+00 0.  1.
         21   -1    0    0  504  502 -0.00000000000E+00 -0.00000000000E+00 -0.44768250955E+02  0.44768250955E+02  0.00000000000E+00 0.  1.
         21    1    1    2  503  501  0.21348389622E+02 -0.14730142878E+02  0.14108867961E+01  0.25975400867E+02  0.00000000000E+00 0.  1.
         21    1    1    2  504  503 -0.21348389622E+02  0.14730142878E+02 -0.27308910141E+02  0.37663077699E+02  0.00000000000E+00 0.  1.
</event>
<event>
 4    1  0.2939002E+006  0.2740471E+02  0.7546771E-02  0.1443585E+00
         21   -1    0    0  504  501  0.00000000000E+00  0.00000000000E+00  0.25383053827E+02  0.25383053827E+02  0.00000000000E+00 0.  1.
         21   -1    0    0  503  502 -0.00000000000E+00 -0.00000000000E+00 -0.32266144322E+02  0.32266144322E+02  0.00000000000E+00 0.  1.
         21    1    1    2  503  501 -0.14274336076E+01 -0.27367512398E+02 -0.11746862339E+02  0.29816221698E+02  0.00000000000E+00 0.  1.
         21    1    1    2  504  502  0.14274336076E+01  0.27367512398E+02  0.48637718437E+01  0.27832976451E+02  0.00000000000E+00 0.  1.
</event>
<event>
 4    1  0.2939002E+006  0.2218932E+02  0.7546771E-02  0.1502937E+00
         21   -1    0    0  502  501  0.00000000000E+00  0.00000000000E+00  0.27399032310E+02  0.27399032310E+02  0.00000000000E+00 0. -1.
         21   -1    0    0  504  502 -0.00000000000E+00 -0.00000000000E+00 -0.22666924228E+02  0.22666924228E+02  0.00000000000E+00 0. -1.
         21    1    1    2  503  501 -0.19559874035E+02  0.10477469651E+02  0.13761041123E+02  0.26110003741E+02  0.00000000000E+00 0. -1.
         21    1    1    2  504  503  0.19559874035E+02 -0.10477469651E+02 -0.90289330408E+01  0.23955952797E+02  0.00000000000E+00 0. -1.
</event>
<event>
 4    1  0.2939002E+006  0.2238673E+02  0.7546771E-02  0.1500346E+00
         21   -1    0    0  503  501  0.00000000000E+00  0.00000000000E+00  0.55079531257E+01  0.55079531257E+01  0.00000000000E+00 0.  1.
         21   -1    0    0  504  502 -0.00000000000E+00 -0.00000000000E+00 -0.16081834155E+03  0.16081834155E+03  0.00000000000E+00 0.  1.
         21    1    1    2  503  502  0.21543070772E+02  0.60878400158E+01 -0.22855181065E+02  0.31992577200E+02  0.00000000000E+00 0.  1.
         21    1    1    2  504  501 -0.21543070772E+02 -0.60878400158E+01 -0.13245520736E+03  0.13433371747E+03  0.00000000000E+00 0.  1.
</event>
<event>
 4    1  0.2939002E+006  0.2159208E+02  0.7546771E-02  0.1510977E+00
         21   -1    0    0  504  501  0.00000000000E+00  0.00000000000E+00  0.91436600352E+02  0.91436600352E+02  0.00000000000E+00 0. -1.
         21   -1    0    0  503  502 -0.00000000000E+00 -0.00000000000E+00 -0.12123170957E+02  0.12123170957E+02  0.00000000000E+00 0. -1.
         21    1    1    2  503  501 -0.15517830031E+02  0.15013827946E+02  0.24218888973E+00  0.21593441919E+02  0.00000000000E+00 0. -1.
         21    1    1    2  504  502  0.15517830031E+02 -0.15013827946E+02  0.79071240506E+02  0.81966329390E+02  0.00000000000E+00 0. -1.
</event>
<event>
 4    1  0.2939002E+006  0.2141043E+02  0.7546771E-02  0.1513485E+00
         21   -1    0    0  503  501  0.00000000000E+00  0.00000000000E+00  0.14195686093E+03  0.14195686093E+03  0.00000000000E+00 0.  1.
         21   -1    0    0  501  502 -0.00000000000E+00 -0.00000000000E+00 -0.30919378187E+02  0.30919378187E+02  0.00000000000E+00 0.  1.
         21    1    1    2  503  504 -0.83063815415E+01 -0.19733488765E+02  0.13731865401E+03  0.13897776546E+03  0.00000000000E+00 0.  1.
         21    1    1    2  504  502  0.83063815415E+01  0.19733488765E+02 -0.26281171267E+02  0.33898473657E+02  0.00000000000E+00 0.  1.
</event>
<event>
 4    1  0.2939002E+006  0.3045280E+02  0.7546771E-02  0.1415702E+00
         21   -1    0    0  503  501  0.00000000000E+00  0.00000000000E+00  0.88250377509E+03  0.88250377509E+03  0.00000000000E+00 0.  1.
         21   -1    0    0  504  502 -0.00000000000E+00 -0.00000000000E+00 -0.23061248101E+01  0.23061248101E+01  0.00000000000E+00 0.  1.
         21    1    1    2  503  502  0.26784088233E+02 -0.14490889121E+02  0.76649805514E+03  0.76710275829E+03  0.00000000000E+00 0.  1.
         21    1    1    2  504  501 -0.26784088233E+02  0.14490889121E+02  0.11369959515E+03  0.11770714161E+03  0.00000000000E+00 0.  1.
</event>
<event>
 4    1  0.2939002E+006  0.2246965E+02  0.7546771E-02  0.1499267E+00
         21   -1    0    0  503  501  0.00000000000E+00  0.00000000000E+00  0.41041794473E+01  0.41041794473E+01  0.00000000000E+00 0.  1.
         21   -1    0    0  504  502 -0.00000000000E+00 -0.00000000000E+00 -0.12520618113E+03  0.12520618113E+03  0.00000000000E+00 0.  1.
         21    1    1    2  503  502 -0.84969242260E+01 -0.20801136056E+02 -0.69099773147E+02  0.72661293902E+02  0.00000000000E+00 0.  1.
         21    1    1    2  504  501  0.84969242260E+01  0.20801136056E+02 -0.52002228537E+02  0.56649066676E+02  0.00000000000E+00 0.  1.
</event>
<event>
 4    1  0.2939002E+006  0.2361640E+02  0.7546771E-02  0.1484900E+00
         21   -1    0    0  502  501  0.00000000000E+00  0.00000000000E+00  0.37337235007E+03  0.37337235007E+03  0.00000000000E+00 0.  1.
         21   -1    0    0  504  502 -0.00000000000E+00 -0.00000000000E+00 -0.11654327225E+02  0.11654327225E+02  0.00000000000E+00 0. -1.
         21    1    1    2  503  501 -0.20536540500E+02 -0.11661251865E+02  0.36061189979E+03  0.36138438893E+03  0.00000000000E+00 0.  1.
         21    1    1    2  504  503  0.20536540500E+02  0.11661251865E+02  0.11061230493E+01  0.23642288361E+02  0.00000000000E+00 0. -1.
</event>
<event>
 4    1  0.2939002E+006  0.3969166E+02  0.7546771E-02  0.1350302E+00
         21   -1    0    0  504  501  0.00000000000E+00  0.00000000000E+00  0.17973761708E+04  0.17973761708E+04  0.00000000000E+00 0. -1.
         21   -1    0    0  503  502 -0.00000000000E+00 -0.00000000000E+00 -0.12101740246E+01  0.12101740246E+01  0.00000000000E+00 0. -1.
         21    1    1    2  503  501 -0.46026764090E+01 -0.39423889699E+02  0.13702858734E+04  0.13708606066E+04  0.00000000000E+00 0. -1.
         21    1    1    2  504  502  0.46026764090E+01  0.39423889699E+02  0.42588012331E+03  0.42772573822E+03  0.00000000000E+00 0. -1.
</event>
<event>
 4    1  0.2939002E+006  0.2358917E+02  0.7546771E-02  0.1485230E+00
         21   -1    0    0  503  501  0.00000000000E+00  0.00000000000E+00  0.47630999924E+03  0.47630999924E+03  0.00000000000E+00 0.  1.
         21   -1    0    0  504  502 -0.00000000000E+00 -0.00000000000E+00 -0.34823864476E+02  0.34823864476E+02  0.00000000000E+00 0. -1.
         21    1    1    2  503  502 -0.49382633541E+01  0.23066477790E+02 -0.30500495522E+02  0.38558125858E+02  0.00000000000E+00 0. -1.
         21    1    1    2  504  501  0.49382633541E+01 -0.23066477790E+02  0.47198663029E+03  0.47257573786E+03  0.00000000000E+00 0.  1.
</event>
<event>
 4    1  0.2939002E+006  0.8538215E+02  0.7546771E-02  0.1191875E+00
         21   -1    0    0  502  501  0.00000000000E+00  0.00000000000E+00  0.91527309886E+02  0.91527309886E+02  0.00000000000E+00 0.  1.
         21   -1    0    0  503  502 -0.00000000000E+00 -0.00000000000E+00 -0.45800590118E+03  0.45800590118E+03  0.00000000000E+00 0.  1.
         21    1    1    2  503  504  0.20027522551E+02  0.83000056069E+02 -0.43297400899E+03  0.44131236492E+03  0.00000000000E+00 0.  1.
         21    1    1    2  504  501 -0.20027522551E+02 -0.83000056069E+02  0.66495417696E+02  0.10822084615E+03  0.00000000000E+00 0.  1.
</event>
<event>
 4    1  0.2939002E+006  0.2230091E+02  0.7546771E-02  0.1501468E+00
         21   -1    0    0  504  501  0.00000000000E+00  0.00000000000E+00  0.61582633048E+02  0.61582633048E+02  0.00000000000E+00 0.  1.
         21   -1    0    0  503  502 -0.00000000000E+00 -0.00000000000E+00 -0.83382747972E+01  0.83382747972E+01  0.00000000000E+00 0. -1.
         21    1    1    2  503  501  0.12574913265E+02  0.18417446510E+02  0.32824571444E+02  0.39683539031E+02  0.00000000000E+00 0.  1.
         21    1    1    2  504  502 -0.12574913265E+02 -0.18417446510E+02  0.20419786806E+02  0.30237368814E+02  0.00000000000E+00 0. -1.
</event>
<event>
 4    1  0.2939002E+006  0.3503269E+02  0.7546771E-02  0.1380334E+00
         21   -1    0    0  503  501  0.00000000000E+00  0.00000000000E+00  0.16136882247E+02  0.16136882247E+02  0.00000000000E+00 0.  1.
         21   -1    0    0  501  502 -0.00000000000E+00 -0.00000000000E+00 -0.38838592631E+03  0.38838592631E+03  0.00000000000E+00 0.  1.
         21    1    1    2  503  504  0.16352961726E+02  0.30981772725E+02 -0.47447662049E+01  0.35352544529E+02  0.00000000000E+00 0.  1.
         21    1    1    2  504  502 -0.16352961726E+02 -0.30981772725E+02 -0.36750427786E+03  0.36917026403E+03  0.00000000000E+00 0.  1.
</event>
<event>
 4    1  0.2939002E+006  0.2127792E+02  0.7546771E-02  0.1515334E+00
         21   -1    0    0  504  501  0.00000000000E+00  0.00000000000E+00  0.10224470918E+03  0.10224470918E+03  0.00000000000E+00 0.  1.
         21   -1    0    0  503  502 -0.00000000000E+00 -0.00000000000E+00 -0.21465086254E+02  0.21465086254E+02  0.00000000000E+00 0. -1.
         21    1    1    2  503  501  0.19105048011E+02 -0.93673375108E+01 -0.14716856395E+02  0.25871523606E+02  0.00000000000E+00 0. -1.
         21    1    1    2  504  502 -0.19105048011E+02  0.93673375108E+01  0.95496479322E+02  0.97838271829E+02  0.00000000000E+00 0.  1.
</event>
<event>
 4    1  0.2939002E+006  0.2089887E+02  0.7546771E-02  0.1520714E+00
         21   -1    0    0  503  501  0.00000000000E+00  0.00000000000E+00  0.14187810737E+03  0.14187810737E+03  0.00000000000E+00 0.  1.
         21   -1    0    0  504  502 -0.00000000000E+00 -0.00000000000E+00 -0.32361316440E+01  0.32361316440E+01  0.00000000000E+00 0. -1.
         21    1    1    2  503  502  0.98732595734E+01  0.18419593133E+02  0.85337828878E+02  0.87859590845E+02  0.00000000000E+00 0.  1.
         21    1    1    2  504  501 -0.98732595734E+01 -0.18419593133E+02  0.53304146847E+02  0.57254648168E+02  0.00000000000E+00 0. -1.
</event>
<event>
 4    1  0.2939002E+006  0.2870493E+02  0.7546771E-02  0.1431195E+00
         21   -1    0    0  503  501  0.00000000000E+00  0.00000000000E+00  0.44464195401E+02  0.44464195401E+02  0.00000000000E+00 0.  1.
         21   -1    0    0  504  502 -0.00000000000E+00 -0.00000000000E+00 -0.25499350868E+02  0.25499350868E+02  0.00000000000E+00 0.  1.
         21    1    1    2  503  502 -0.24672128658E+02 -0.14671718040E+02 -0.88043555810E+01  0.30024821731E+02  0.00000000000E+00 0.  1.
         21    1    1    2  504  501  0.24672128658E+02  0.14671718040E+02  0.27769200114E+02  0.39938724539E+02  0.00000000000E+00 0.  1.
</event>
<event>
 4    1  0.2939002E+006  0.2486864E+02  0.7546771E-02  0.1470278E+00
         21   -1    0    0  502  501  0.00000000000E+00  0.00000000000E+00  0.32166682488E+02  0.32166682488E+02  0.00000000000E+00 0.  1.
         21   -1    0    0  503  502 -0.00000000000E+00 -0.00000000000E+00 -0.78495632081E+03  0.78495632081E+03  0.00000000000E+00 0. -1.
         21    1    1    2  503  504  0.18668419932E+02 -0.16429834772E+02 -0.77992173257E+03  0.78031811353E+03  0.00000000000E+00 0. -1.
         21    1    1    2  504  501 -0.18668419932E+02  0.16429834772E+02  0.27132094240E+02  0.36804889773E+02  0.00000000000E+00 0.  1.
</event>
<event>
 4    1  0.2939002E+006  0.2274492E+02  0.7546771E-02  0.1495726E+00
         21   -1    0    0  503  501  0.00000000000E+00  0.00000000000E+00  0.76177162542E+01  0.76177162542E+01  0.00000000000E+00 0. -1.
         21   -1    0    0  504  502 -0.00000000000E+00 -0.00000000000E+00 -0.10299662428E+03  0.10299662428E+03  0.00000000000E+00 0. -1.
         21    1    1    2  503  502  0.37157644936E+01  0.22439353100E+02 -0.79969243407E+02  0.83140912699E+02  0.00000000000E+00 0. -1.
         21    1    1    2  504  501 -0.37157644936E+01 -0.22439353100E+02 -0.15409664618E+02  0.27473427834E+02  0.00000000000E+00 0. -1.
</event>
<event>
 4    1  0.2939002E+006  0.2107940E+02  0.7546771E-02  0.1518134E+00
         21   -1    0    0  504  501  0.00000000000E+00  0.00000000000E+00  0.28440169587E+02  0.28440169587E+02  0.00000000000E+00 0.  1.
         21   -1    0    0  501  502 -0.00000000000E+00 -0.00000000000E+00 -0.18306810602E+02  0.18306810602E+02  0.00000000000E+00 0. -1.
         21    1    1    2  503  502  0.11581089673E+01 -0.21047559578E+02 -0.38815197723E+01  0.21433785860E+02  0.00000000000E+00 0. -1.
         21    1    1    2  504  503 -0.11581089673E+01  0.21047559578E+02  0.14014878757E+02  0.25313194329E+02  0.00000000000E+00 0.  1.
</event>
<event>
 4    1  0.2939002E+006  0.2764631E+02  0.7546771E-02  0.1441222E+00
         21   -1    0    0  503  501  0.00000000000E+00  0.00000000000E+00  0.67603112350E+02  0.67603112350E+02  0.00000000000E+00 0.  1.
         21   -1    0    0  504  502 -0.00000000000E+00 -0.00000000000E+00 -0.26720246579E+02  0.26720246579E+02  0.00000000000E+00 0.  1.
         21    1    1    2  503  502 -0.92190005408E+01 -0.26063930801E+02 -0.15378986620E+02  0.31635924030E+02  0.00000000000E+00 0.  1.
         21    1    1    2  504  501  0.92190005408E+01  0.26063930801E+02  0.56261852391E+02  0.62687434899E+02  0.00000000000E+00 0.  1.
</event>
<event>
 4    1  0.2939002E+006  0.5626439E+02  0.7546771E-02  0.1273082E+00
         21   -1    0    0  504  501  0.00000000000E+00  0.00000000000E+00  0.19164118970E+03  0.19164118970E+03  0.00000000000E+00 0. -1.
         21   -1    0    0  503  502 -0.00000000000E+00 -0.00000000000E+00 -0.16520769381E+02  0.16520769381E+02  0.00000000000E+00 0. -1.
         21    1    1    2  503  501  0.52754087797E+02  0.19562416476E+02  0.86422983899E+02  0.10312426515E+03  0.00000000000E+00 0. -1.
         21    1    1    2  504  502 -0.52754087797E+02 -0.19562416476E+02  0.88697436415E+02  0.10503769392E+03  0.00000000000E+00 0. -1.
</event>
<event>
 4    1  0.2939002E+006  0.4388269E+02  0.7546771E-02  0.1327122E+00
         21   -1    0    0  504  501  0.00000000000E+00  0.00000000000E+00  0.57755472208E+03  0.57755472208E+03  0.00000000000E+00 0. -1.
         21   -1    0    0  503  502 -0.00000000000E+00 -0.00000000000E+00 -0.33546025731E+01  0.33546025731E+01  0.00000000000E+00 0. -1.
         21    1    1    2  503  501  0.33490424694E+01 -0.43754704976E+02  0.26445544125E+03  0.26807157757E+03  0.00000000000E+00 0. -1.
         21    1    1    2  504  502 -0.33490424694E+01  0.43754704976E+02  0.30974467825E+03  0.31283774708E+03  0.00000000000E+00 0. -1.
</event>
<event>
 4    1  0.2939002E+006  0.2359275E+02  0.7546771E-02  0.1485186E+00
         21   -1    0    0  504  501  0.00000000000E+00  0.00000000000E+00  0.57310678015E+02  0.57310678015E+02  0.00000000000E+00 0.  1.
         21   -1    0    0  503  502 -0.00000000000E+00 -0.00000000000E+00 -0.76831795013E+02  0.76831795013E+02  0.00000000000E+00 0. -1.
         21    1    1    2  503  501  0.20147970685E+02  0.12275067626E+02 -0.72449392335E+02  0.76194044765E+02  0.00000000000E+00 0. -1.
         21    1    1    2  504  502 -0.20147970685E+02 -0.12275067626E+02  0.52928275337E+02  0.57948428262E+02  0.00000000000E+00 0.  1.
</event>
<event>
 4    1  0.2939002E+006  0.3347345E+02  0.7546771E-02  0.1391625E+00
         21   -1    0    0  504  501  0.00000000000E+00  0.00000000000E+00  0.34146758517E+03  0.34146758517E+03  0.00000000000E+00 0.  1.
         21   -1    0    0  503  502 -0.00000000000E+00 -0.00000000000E+00 -0.33505456003E+01  0.33505456003E+01  0.00000000000E+00 0. -1.
         21    1    1    2  503  501  0.21347568759E+00  0.33472773673E+02  0.19383642863E+03  0.19670544785E+03  0.00000000000E+00 0. -1.
         21    1    1    2  504  502 -0.21347568759E+00 -0.33472773673E+02  0.14428061094E+03  0.14811268292E+03  0.00000000000E+00 0.  1.
</event>
<event>
 4    1  0.2939002E+006  0.2202903E+02  0.7546771E-02  0.1505064E+00
         21   -1    0    0  503  501  0.00000000000E+00  0.00000000000E+00  0.30777403773E+02  0.30777403773E+02  0.00000000000E+00 0.  1.
         21   -1    0    0  501  502 -0.00000000000E+00 -0.00000000000E+00 -0.44019549401E+02  0.44019549401E+02  0.00000000000E+00 0. -1.
         21    1    1    2  503  504 -0.19095084337E+02  0.10984348270E+02  0.23339991233E+02  0.32094132540E+02  0.00000000000E+00 0.  1.
         21    1    1    2  504  502  0.19095084337E+02 -0.10984348270E+02 -0.36582136861E+02  0.42702820634E+02  0.00000000000E+00 0. -1.
</event>
<event>
 4    1  0.2939002E+006  0.2443479E+02  0.7546771E-02  0.1475227E+00
         21   -1    0    0  504  501  0.00000000000E+00  0.00000000000E+00  0.62883337899E+03  0.62883337899E+03  0.00000000000E+00 0. -1.
         21   -1    0    0  503  502 -0.00000000000E+00 -0.00000000000E+00 -0.21440075654E+01  0.21440075654E+01  0.00000000000E+00 0. -1.
         21    1    1    2  503  501 -0.39329819350E+01  0.24116189371E+02  0.54883356428E+03  0.54937722943E+03  0.00000000000E+00 0. -1.
         21    1    1    2  504  502  0.39329819350E+01 -0.24116189371E+02  0.77855807152E+02  0.81600157132E+02  0.00000000000E+00 0. -1.
</event>
<event>
 4    1  0.2939002E+006  0.2305258E+02  0.7546771E-02  0.1491839E+00
         21   -1    0    0  504  501  0.00000000000E+00  0.00000000000E+00  0.15104056957E+02  0.15104056957E+02  0.00000000000E+00 0.  1.
         21   -1    0    0  503  502 -0.00000000000E+00 -0.00000000000E+00 -0.35276192655E+02  0.35276192655E+02  0.00000000000E+00 0.  1.
         21    1    1    2  503  501 -0.22425600775E+00  0.23051485093E+02 -0.87983533883E+01  0.24674526907E+02  0.00000000000E+00 0.  1.
         21    1    1    2  504  502  0.22425600775E+00 -0.23051485093E+02 -0.11373782310E+02  0.25705722705E+02  0.00000000000E+00 0.  1.
</event>
<event>
 4    1  0.2939002E+006  0.6740851E+02  0.7546771E-02  0.1236546E+00
         21   -1    0    0  502  501  0.00000000000E+00  0.00000000000E+00  0.90876974728E+03  0.90876974728E+03  0.00000000000E+00 0. -1.
         21   -1    0    0  504  502 -0.00000000000E+00 -0.00000000000E+00 -0.65045123106E+01  0.65045123106E+01  0.00000000000E+00 0. -1.
         21    1    1    2  503  501  0.56465848769E+02 -0.36817317076E+02  0.67122373525E+03  0.67460003682E+03  0.00000000000E+00 0. -1.
         21    1    1    2  504  503 -0.56465848769E+02  0.36817317076E+02  0.23104149972E+03  0.24067422278E+03  0.00000000000E+00 0. -1.
</event>
<event>
 4    1  0.2939002E+006  0.2038783E+02  0.7546771E-02  0.1528187E+00
         21   -1    0    0  504  501  0.00000000000E+00  0.00000000000E+00  0.26547991229E+03  0.26547991229E+03  0.00000000000E+00 0. -1.
         21   -1    0    0  501  502 -0.00000000000E+00 -0.00000000000E+00 -0.16463603045E+02  0.16463603045E+02  0.00000000000E+00 0.  1.
         21    1    1    2  503  502  0.15061225457E+02 -0.13741297835E+02 -0.95928835713E+01  0.22531915002E+02  0.00000000000E+00 0.  1.
         21    1    1    2  504  503 -0.15061225457E+02  0.13741297835E+02  0.25860919282E+03  0.25941160034E+03  0.00000000000E+00 0. -1.
</event>
<event>
 4    1  0.2939002E+006  0.2157127E+02  0.7546771E-02  0.1511263E+00
         21   -1    0    0  504  501  0.00000000000E+00  0.00000000000E+00  0.12457548259E+02  0.12457548259E+02  0.00000000000E+00 0. -1.
         21   -1    0    0  503  502 -0.00000000000E+00 -0.00000000000E+00 -0.15301102581E+03  0.15301102581E+03  0.00000000000E+00 0. -1.
         21    1    1    2  503  501 -0.36519320533E+01 -0.21259895436E+02 -0.14220724448E+03  0.14383400204E+03  0.00000000000E+00 0. -1.
         21    1    1    2  504  502  0.36519320533E+01  0.21259895436E+02  0.16537669275E+01  0.21634572025E+02  0.00000000000E+00 0. -1.
</event>
<event>
 4    1  0.2939002E+006  0.2108138E+02  0.7546771E-02  0.1518106E+00
         21   -1    0    0  502  501  0.00000000000E+00  0.00000000000E+00  0.13768425963E+03  0.13768425963E+03  0.00000000000E+00 0.  1.
         21   -1    0    0  504  502 -0.00000000000E+00 -0.00000000000E+00 -0.41730544895E+03  0.41730544895E+03  0.00000000000E+00 0.  1.
         21    1    1    2  503  501 -0.21078816884E+02 -0.32892607842E+00  0.13660896605E+03  0.13822602620E+03  0.00000000000E+00 0.  1.
         21    1    1    2  504  503  0.21078816884E+02  0.32892607842E+00 -0.41623015537E+03  0.41676368238E+03  0.00000000000E+00 0.  1.
</event>
<event>
 4    1  0.2939002E+006  0.2511284E+02  0.7546771E-02  0.1467545E+00
         21   -1    0    0  502  501  0.00000000000E+00  0.00000000000E+00  0.38609030097E+02  0.38609030097E+02  0.00000000000E+00 0.  1.
         21   -1    0    0  503  502 -0.00000000000E+00 -0.00000000000E+00 -0.16430060243E+02  0.16430060243E+02  0.00000000000E+00 0.  1.
         21    1    1    2  503  504 -0.25060773670E+02 -0.16162048554E+01  0.89893985591E+01  0.26673278417E+02  0.00000000000E+00 0.  1.
         21    1    1    2  504  501  0.25060773670E+02  0.16162048554E+01  0.13189571295E+02  0.28365811922E+02  0.00000000000E+00 0.  1.
</event>
<event>
 4    1  0.2939002E+006  0.3103580E+02  0.7546771E-02  0.1410804E+00
         21   -1    0    0  502  501  0.00000000000E+00  0.00000000000E+00  0.35426595255E+01  0.35426595255E+01  0.00000000000E+00 0. -1.
         21   -1    0    0  503  502 -0.00000000000E+00 -0.00000000000E+00 -0.50827707352E+03  0.50827707352E+03  0.00000000000E+00 0. -1.
         21    1    1    2  503  504  0.30356969887E+02  0.64556491241E+01 -0.42688782083E+03  0.42801452382E+03  0.00000000000E+00 0. -1.
         21    1    1    2  504  501 -0.30356969887E+02 -0.64556491241E+01 -0.77846593164E+02  0.83805209227E+02  0.00000000000E+00 0. -1.
</event>
<event>
 4    1  0.2939002E+006  0.2951355E+02  0.7546771E-02  0.1423871E+00
         21   -1    0    0  504  501  0.00000000000E+00  0.00000000000E+00  0.47235602145E+01  0.47235602145E+01  0.00000000000E+00 0.  1.
         21   -1    0    0  503  502 -0.00000000000E+00 -0.00000000000E+00 -0.25812557770E+03  0.25812557770E+03  0.00000000000E+00 0.  1.
         21    1    1    2  503  501 -0.11781122347E+02 -0.27060207272E+02 -0.19693614760E+03  0.19913537078E+03  0.00000000000E+00 0.  1.
         21    1    1    2  504  502  0.11781122347E+02  0.27060207272E+02 -0.56465869881E+02  0.63713767137E+02  0.00000000000E+00 0.  1.
</event>
<event>
 4    1  0.2939002E+006  0.2221138E+02  0.7546771E-02  0.1502646E+00
         21   -1    0    0  504  501  0.00000000000E+00  0.00000000000E+00  0.27635935286E+02  0.27635935286E+02  0.00000000000E+00 0. -1.
         21   -1    0    0  503  502 -0.00000000000E+00 -0.00000000000E+00 -0.27120902629E+02  0.27120902629E+02  0.00000000000E+00 0.  1.
         21    1    1    2  503  501  0.13484733672E+02 -0.17649573244E+02  0.16263412021E+02  0.27528967443E+02  0.00000000000E+00 0. -1.
         21    1    1    2  504  502 -0.13484733672E+02  0.17649573244E+02 -0.15748379364E+02  0.27227870473E+02  0.00000000000E+00 0.  1.
</event>
<event>
 4    1  0.2939002E+006  0.2008511E+02  0.7546771E-02  0.1532739E+00
         21   -1    0    0  504  501  0.00000000000E+00  0.00000000000E+00  0.62154915063E+02  0.62154915063E+02  0.00000000000E+00 0.  1.
         21   -1    0    0  503  502 -0.00000000000E+00 -0.00000000000E+00 -0.11660140190E+02  0.11660140190E+02  0.00000000000E+00 0. -1.
         21    1    1    2  503  501  0.98501255648E+01 -0.17503910035E+02  0.49822547718E+02  0.53718694151E+02  0.00000000000E+00 0.  1.
         21    1    1    2  504  502 -0.98501255648E+01  0.17503910035E+02  0.67222715460E+00  0.20096361101E+02  0.00000000000E+00 0. -1.
</event>
<event>
 4    1  0.2939002E+006  0.2957712E+02  0.7546771E-02  0.1423307E+00
         21   -1    0    0  503  501  0.00000000000E+00  0.00000000000E+00  0.59033108055E+01  0.59033108055E+01  0.00000000000E+00 0. -1.
         21   -1    0    0  504  502 -0.00000000000E+00 -0.00000000000E+00 -0.29971021308E+03  0.29971021308E+03  0.00000000000E+00 0.  1.
         21    1    1    2  503  502 -0.15529569758E+02  0.25172174779E+02 -0.38253765611E+02  0.48354487934E+02  0.00000000000E+00 0. -1.
         21    1    1    2  504  501  0.15529569758E+02 -0.25172174779E+02 -0.25555313666E+03  0.25725903595E+03  0.00000000000E+00 0.  1.
</event>
<event>
 4    1  0.2939002E+006  0.2347341E+02  0.7546771E-02  0.1486638E+00
         21   -1    0    0  502  501  0.00000000000E+00  0.00000000000E+00  0.48312567715E+03  0.48312567715E+03  0.00000000000E+00 0. -1.
         21   -1    0    0  504  502 -0.00000000000E+00 -0.00000000000E+00 -0.17238862179E+02  0.17238862179E+02  0.00000000000E+00 0. -1.
         21    1    1    2  503  501 -0.14350384423E+02  0.18575994618E+02  0.47470826913E+03  0.47528827241E+03  0.00000000000E+00 0. -1.
         21    1    1    2  504  503  0.14350384423E+02 -0.18575994618E+02 -0.88214541596E+01  0.25076266920E+02  0.00000000000E+00 0. -1.
</event>
<event>
 4    1  0.2939002E+006  0.2545102E+02  0.7546771E-02  0.1463821E+00
         21   -1    0    0  504  501  0.00000000000E+00  0.00000000000E+00  0.51987011212E+03  0.51987011212E+03  0.00000000000E+00 0.  1.
         21   -1    0    0  503  502 -0.00000000000E+00 -0.00000000000E+00 -0.23201147041E+01  0.23201147041E+01  0.00000000000E+00 0. -1.
         21    1    1    2  503  501  0.98694143806E+01 -0.23459520017E+02  0.43642728494E+03  0.43716876542E+03  0.00000000000E+00 0.  1.
         21    1    1    2  504  502 -0.98694143806E+01  0.23459520017E+02  0.81122712476E+02  0.85021461403E+02  0.00000000000E+00 0. -1.
</event>
<event>
 4    1  0.2939002E+006  0.2627452E+02  0.7546771E-02  0.1455035E+00
         21   -1    0    0  504  501  0.00000000000E+00  0.00000000000E+00  0.29964103283E+01  0.29964103283E+01  0.00000000000E+00 0.  1.
         21   -1    0    0  501  502 -0.00000000000E+00 -0.00000000000E+00 -0.23725574021E+03  0.23725574021E+03  0.00000000000E+00 0.  1.
         21    1    1    2  503  502 -0.44116611415E+01 -0.25901499723E+02 -0.96698469247E+02  0.10020451286E+03  0.00000000000E+00 0.  1.
         21    1    1    2  504  503  0.44116611415E+01  0.25901499723E+02 -0.13756086063E+03  0.14004763768E+03  0.00000000000E+00 0.  1.
</event>
<event>
 4    1  0.2939002E+006  0.2340664E+02  0.7546771E-02  0.1487454E+00
         21   -1    0    0  504  501  0.00000000000E+00  0.00000000000E+00  0.25382420141E+03  0.25382420141E+03  0.00000000000E+00 0.  1.
         21   -1    0    0  501  502 -0.00000000000E+00 -0.00000000000E+00 -0.77660344664E+02  0.77660344664E+02  0.00000000000E+00 0.  1.
         21    1    1    2  503  502 -0.14480154736E+02 -0.18390103116E+02 -0.75340821619E+02  0.78893029959E+02  0.00000000000E+00 0.  1.
         21    1    1    2  504  503  0.14480154736E+02  0.18390103116E+02  0.25150467837E+03  0.25259151612E+03  0.00000000000E+00 0.  1.
</event>
<event>
 4    1  0.2939002E+006  0.2171195E+02  0.7546771E-02  0.1509338E+00
         21   -1    0    0  503  501  0.00000000000E+00  0.00000000000E+00  0.13799314402E+04  0.13799314402E+04  0.00000000000E+00 0.  1.
         21   -1    0    0  504  502 -0.00000000000E+00 -0.00000000000E+00 -0.59993926506E+00  0.59993926506E+00  0.00000000000E+00 0.  1.
         21    1    1    2  503  502 -0.20943707605E+02  0.57245152867E+01  0.23672332612E+03  0.23771693691E+03  0.00000000000E+00 0.  1.
         21    1    1    2  504  501  0.20943707605E+02 -0.57245152867E+01  0.11426081748E+04  0.11428144425E+04  0.00000000000E+00 0.  1.
</event>
<event>
 4    1  0.2939002E+006  0.2089234E+02  0.7546771E-02  0.1520808E+00
         21   -1    0    0  504  501  0.00000000000E+00  0.00000000000E+00  0.76086907212E+03  0.76086907212E+03  0.00000000000E+00 0. -1.
         21   -1    0    0  503  502 -0.00000000000E+00 -0.00000000000E+00 -0.57371865494E+00  0.57371865494E+00  0.00000000000E+00 0. -1.
         21    1    1    2  503  501 -0.88310565324E+01 -0.18934153999E+02  0.38355838543E+03  0.38412696440E+03  0.00000000000E+00 0. -1.
         21    1    1    2  504  502  0.88310565324E+01  0.18934153999E+02  0.37673696804E+03  0.37731582638E+03  0.00000000000E+00 0. -1.
</event>
<event>
 4    1  0.2939002E+006  0.2782543E+02  0.7546771E-02  0.1439488E+00
         21   -1    0    0  504  501  0.00000000000E+00  0.00000000000E+00  0.23917203912E+02  0.23917203912E+02  0.00000000000E+00 0. -1.
         21   -1    0    0  503  502 -0.00000000000E+00 -0.00000000000E+00 -0.57628580457E+02  0.57628580457E+02  0.00000000000E+00 0.  1.
         21    1    1    2  503  501  0.11718969651E+02  0.25237280744E+02  0.10136454689E+02  0.29614224668E+02  0.00000000000E+00 0. -1.
         21    1    1    2  504  502 -0.11718969651E+02 -0.25237280744E+02 -0.43847831234E+02  0.51931559701E+02  0.00000000000E+00 0.  1.
</event>
<event>
 4    1  0.2939002E+006  0.3062108E+02  0.7546771E-02  0.1414275E+00
         21   -1    0    0  504  501  0.00000000000E+00  0.00000000000E+00  0.32638026324E+02  0.32638026324E+02  0.00000000000E+00 0.  1.
         21   -1    0    0  503  502 -0.00000000000E+00 -0.00000000000E+00 -0.56070373247E+03  0.56070373247E+03  0.00000000000E+00 0. -1.
         21    1    1    2  503  501  0.29961381974E+02 -0.63218724362E+01 -0.55300353984E+03  0.55385067081E+03  0.00000000000E+00 0. -1.
         21    1    1    2  504  502 -0.29961381974E+02  0.63218724362E+01  0.24937833693E+02  0.39491087984E+02  0.00000000000E+00 0.  1.
</event>
<event>
 4    1  0.2939002E+006  0.3909987E+02  0.7546771E-02  0.1353843E+00
         21   -1    0    0  503  501  0.00000000000E+00  0.00000000000E+00  0.87503169037E+02  0.87503169037E+02  0.00000000000E+00 0.  1.
         21   -1    0    0  504  502 -0.00000000000E+00 -0.00000000000E+00 -0.20127260192E+02  0.20127260192E+02  0.00000000000E+00 0.  1.
         21    1    1    2  503  502 -0.37907589357E+02 -0.95820039519E+01  0.53236655607E+02  0.66052567178E+02  0.00000000000E+00 0.  1.
         21    1    1    2  504  501  0.37907589357E+02  0.95820039519E+01  0.14139253238E+02  0.41577862051E+02  0.00000000000E+00 0.  1.
</event>
<event>
 4    1  0.2939002E+006  0.2573891E+02  0.7546771E-02  0.1460704E+00
         21   -1    0    0  502  501  0.00000000000E+00  0.00000000000E+00  0.23621685986E+01  0.23621685986E+01  0.00000000000E+00 0. -1.
         21   -1    0    0  503  502 -0.00000000000E+00 -0.00000000000E+00 -0.53541660428E+03  0.53541660428E+03  0.00000000000E+00 0. -1.
         21    1    1    2  503  504  0.22219203950E+02  0.12992240649E+02 -0.45207756190E+03  0.45280968774E+03  0.00000000000E+00 0. -1.
         21    1    1    2  504  501 -0.22219203950E+02 -0.12992240649E+02 -0.80976873785E+02  0.84969085138E+02  0.00000000000E+00 0. -1.
</event>
<event>
 4    1  0.2939002E+006  0.2748052E+02  0.7546771E-02  0.1442840E+00
         21   -1    0    0  502  501  0.00000000000E+00  0.00000000000E+00  0.72163906927E+01  0.72163906927E+01  0.00000000000E+00 0.  1.
         21   -1    0    0  503  502 -0.00000000000E+00 -0.00000000000E+00 -0.11173721896E+03  0.11173721896E+03  0.00000000000E+00 0.  1.
         21    1    1    2  503  504 -0.27473693131E+02  0.61230325178E+00 -0.67241969710E+02  0.72640630642E+02  0.00000000000E+00 0.  1.
         21    1    1    2  504  501  0.27473693131E+02 -0.61230325178E+00 -0.37278858557E+02  0.46312979011E+02  0.00000000000E+00 0.  1.
</event>
<event>
 4    1  0.2939002E+006  0.2033303E+02  0.7546771E-02  0.1529004E+00
         21   -1    0    0  502  501  0.00000000000E+00  0.00000000000E+00  0.65150670091E+01  0.65150670091E+01  0.00000000000E+00 0. -1.
         21   -1    0    0  504  502 -0.00000000000E+00 -0.00000000000E+00 -0.15199735394E+03  0.15199735394E+03  0.00000000000E+00 0. -1.
         21    1    1    2  503  501 -0.18227538565E+02  0.90104959683E+01 -0.12251111899E+02  0.23738617114E+02  0.00000000000E+00 0. -1.
         21    1    1    2  504  503  0.18227538565E+02 -0.90104959683E+01 -0.13323117504E+03  0.13477380384E+03  0.00000000000E+00 0. -1.
</event>
<event>
 4    1  0.2939002E+006  0.2819453E+02  0.7546771E-02  0.1435964E+00
         21   -1    0    0  503  501  0.00000000000E+00  0.00000000000E+00  0.14852928012E+01  0.14852928012E+01  0.00000000000E+00 0.  1.
         21   -1    0    0  504  502 -0.00000000000E+00 -0.00000000000E+00 -0.74864427306E+03  0.74864427306E+03  0.00000000000E+00 0.  1.
         21    1    1    2  503  502  0.39745351115E+00  0.28191727518E+02 -0.57384626105E+03  0.57453847808E+03  0.00000000000E+00 0.  1.
         21    1    1    2  504  501 -0.39745351115E+00 -0.28191727518E+02 -0.17331271921E+03  0.17559108778E+03  0.00000000000E+00 0.  1.
</event>
<event>
 4    1  0.2939002E+006  0.2063981E+02  0.7546771E-02  0.1524470E+00
         21   -1    0    0  504  501  0.00000000000E+00  0.00000000000E+00  0.48206771410E+02  0.48206771410E+02  0.00000000000E+00 0.  1.
         21   -1    0    0  503  502 -0.00000000000E+00 -0.00000000000E+00 -0.89185188545E+01  0.89185188545E+01  0.00000000000E+00 0.  1.
         21    1    1    2  503  501 -0.20617831404E+02  0.95216994696E+00  0.22375440519E+02  0.30441122480E+02  0.00000000000E+00 0.  1.
         21    1    1    2  504  502  0.20617831404E+02 -0.95216994696E+00  0.16912812037E+02  0.26684167785E+02  0.00000000000E+00 0.  1.
</event>
<event>
 4    1  0.2939002E+006  0.3003791E+02  0.7546771E-02  0.1419267E+00
         21   -1    0    0  504  501  0.00000000000E+00  0.00000000000E+00  0.44366796961E+02  0.44366796961E+02  0.00000000000E+00 0.  1.
         21   -1    0    0  503  502 -0.00000000000E+00 -0.00000000000E+00 -0.48569640005E+02  0.48569640005E+02  0.00000000000E+00 0.  1.
         21    1    1    2  503  501  0.11209802120E+02  0.27867834556E+02  0.33326963112E+02  0.44866048820E+02  0.00000000000E+00 0.  1.
         21    1    1    2  504  502 -0.11209802120E+02 -0.27867834556E+02 -0.37529806156E+02  0.48070388146E+02  0.00000000000E+00 0.  1.
</event>
<event>
 4    1  0.2939002E+006  0.2033087E+02  0.7546771E-02  0.1529036E+00
         21   -1    0    0  503  501  0.00000000000E+00  0.00000000000E+00  0.10184332468E+02  0.10184332468E+02  0.00000000000E+00 0.  1.
         21   -1    0    0  504  502 -0.00000000000E+00 -0.00000000000E+00 -0.15121669450E+03  0.15121669450E+03  0.00000000000E+00 0. -1.
         21    1    1    2  503  502  0.20299753092E+02 -0.11244381018E+01 -0.14900287135E+01  0.20385399732E+02  0.00000000000E+00 0.  1.
         21    1    1    2  504  501 -0.20299753092E+02  0.11244381018E+01 -0.13954233332E+03  0.14101562724E+03  0.00000000000E+00 0. -1.
</event>
<event>
 4    1  0.2939002E+006  0.2857508E+02  0.7546771E-02  0.1432397E+00
         21   -1    0    0  503  501  0.00000000000E+00  0.00000000000E+00  0.34391013810E+03  0.34391013810E+03  0.00000000000E+00 0. -1.
         21   -1    0    0  501  502 -0.00000000000E+00 -0.00000000000E+00 -0.53937812030E+02  0.53937812030E+02  0.00000000000E+00 0. -1.
         21    1    1    2  503  504 -0.81454487329E+01 -0.27389536418E+02  0.33948268677E+03  0.34068318076E+03  0.00000000000E+00 0. -1.
         21    1    1    2  504  502  0.81454487329E+01  0.27389536418E+02 -0.49510360698E+02  0.57164769366E+02  0.00000000000E+00 0. -1.
</event>
<event>
 4    1  0.2939002E+006  0.2109015E+02  0.7546771E-02  0.1517982E+00
         21   -1    0    0  503  501  0.00000000000E+00  0.00000000000E+00  0.18639544111E+03  0.18639544111E+03  0.00000000000E+00 0. -1.
         21   -1    0    0  504  502 -0.00000000000E+00 -0.00000000000E+00 -0.66425910555E+01  0.66425910555E+01  0.00000000000E+00 0. -1.
         21    1    1    2  503  502  0.20707647473E+02 -0.39984802989E+01  0.12615475312E+02  0.24575286894E+02  0.00000000000E+00 0. -1.
         21    1    1    2  504  501 -0.20707647473E+02  0.39984802989E+01  0.16713737474E+03  0.16846274527E+03  0.00000000000E+00 0. -1.
</event>
<event>
 4    1  0.2939002E+006  0.8140266E+02  0.7546771E-02  0.1200628E+00
         21   -1    0    0  503  501  0.00000000000E+00  0.00000000000E+00  0.93901104695E+02  0.93901104695E+02  0.00000000000E+00 0.  1.
         21   -1    0    0  504  502 -0.00000000000E+00 -0.00000000000E+00 -0.88348153179E+02  0.88348153179E+02  0.00000000000E+00 0.  1.
         21    1    1    2  503  502 -0.81376979095E+02 -0.20445831755E+01 -0.38103195963E+02  0.89879066471E+02  0.00000000000E+00 0.  1.
         21    1    1    2  504  501  0.81376979095E+02  0.20445831755E+01  0.43656147480E+02  0.92370191403E+02  0.00000000000E+00 0.  1.
</event>
<event>
 4    1  0.2939002E+006  0.2196436E+02  0.7546771E-02  0.1505929E+00
         21   -1    0    0  502  501  0.00000000000E+00  0.00000000000E+00  0.98428398518E+01  0.98428398518E+01  0.00000000000E+00 0. -1.
         21   -1    0    0  504  502 -0.00000000000E+00 -0.00000000000E+00 -0.58516087157E+02  0.58516087157E+02  0.00000000000E+00 0. -1.
         21    1    1    2  503  501 -0.16541459681E+02 -0.14450373181E+02 -0.10563073929E+02  0.24372355329E+02  0.00000000000E+00 0. -1.
         21    1    1    2  504  503  0.16541459681E+02  0.14450373181E+02 -0.38110173375E+02  0.43986571680E+02  0.00000000000E+00 0. -1.
</event>
<event>
 4    1  0.2939002E+006  0.3848901E+02  0.7546771E-02  0.1357575E+00
         21   -1    0    0  504  501  0.00000000000E+00  0.00000000000E+00  0.29641388398E+03  0.29641388398E+03  0.00000000000E+00 0. -1.
         21   -1    0    0  503  502 -0.00000000000E+00 -0.00000000000E+00 -0.18114544039E+02  0.18114544039E+02  0.00000000000E+00 0. -1.
         21    1    1    2  503  501 -0.45491052384E+01 -0.38219232009E+02  0.27297242530E+03  0.27567253949E+03  0.00000000000E+00 0. -1.
         21    1    1    2  504  502  0.45491052384E+01  0.38219232009E+02  0.53269146390E+01  0.38855888529E+02  0.00000000000E+00 0. -1.
</event>
<event>
 4    1  0.2939002E+006  0.2239693E+02  0.7546771E-02  0.1500213E+00
         21   -1    0    0  502  501  0.00000000000E+00  0.00000000000E+00  0.45074157119E+02  0.45074157119E+02  0.00000000000E+00 0. -1.
         21   -1    0    0  504  502 -0.00000000000E+00 -0.00000000000E+00 -0.97538611680E+02  0.97538611680E+02  0.00000000000E+00 0.  1.
         21    1    1    2  503  501  0.22825266591E+01  0.22280314812E+02  0.40883082717E+02  0.46615971603E+02  0.00000000000E+00 0. -1.
         21    1    1    2  504  503 -0.22825266591E+01 -0.22280314812E+02 -0.93347537277E+02  0.95996797196E+02  0.00000000000E+00 0.  1.
</event>
<event>
 4    1  0.2939002E+006  0.3554666E+02  0.7546771E-02  0.1376760E+00
         21   -1    0    0  503  501  0.00000000000E+00  0.00000000000E+00  0.15988854088E+03  0.15988854088E+03  0.00000000000E+00 0.  1.
         21   -1    0    0  504  502 -0.00000000000E+00 -0.00000000000E+00 -0.20358219297E+02  0.20358219297E+02  0.00000000000E+00 0.  1.
         21    1    1    2  503  502  0.10088169766E+01  0.35532342623E+02  0.14025832093E+03  0.14469264554E+03  0.00000000000E+00 0.  1.
         21    1    1    2  504  501 -0.10088169766E+01 -0.35532342623E+02 -0.72799935292E+00  0.35554114628E+02  0.00000000000E+00 0.  1.
</event>
<event>
 4    1  0.2939002E+006  0.2108700E+02  0.7546771E-02  0.1518026E+00
         21   -1    0    0  502  501  0.00000000000E+00  0.00000000000E+00  0.36237057414E+02  0.36237057414E+02  0.00000000000E+00 0.  1.
         21   -1    0    0  503  502 -0.00000000000E+00 -0.00000000000E+00 -0.29248091297E+03  0.29248091297E+03  0.00000000000E+00 0.  1.
         21    1    1    2  503  504  0.25993584037E+01 -0.20926177794E+02 -0.28899616678E+03  0.28976446641E+03  0.00000000000E+00 0.  1.
         21    1    1    2  504  501 -0.25993584037E+01  0.20926177794E+02  0.32752311225E+02  0.38953503972E+02  0.00000000000E+00 0.  1.
</event>
<event>
 4    1  0.2939002E+006  0.3384958E+02  0.7546771E-02  0.1388836E+00
         21   -1    0    0  504  501  0.00000000000E+00  0.00000000000E+00  0.15437030485E+01  0.15437030485E+01  0.00000000000E+00 0.  1.
         21   -1    0    0  501  502 -0.00000000000E+00 -0.00000000000E+00 -0.95516347526E+03  0.95516347526E+03  0.00000000000E+00 0. -1.
         21    1    1    2  503  502  0.70721084050E+01  0.33102557754E+02 -0.70266226398E+03  0.70347711496E+03  0.00000000000E+00 0. -1.
         21    1    1    2  504  503 -0.70721084050E+01 -0.33102557754E+02 -0.25095750823E+03  0.25323006335E+03  0.00000000000E+00 0.  1.
</event>
<event>
 4    1  0.2939002E+006  0.4804640E+02  0.7546771E-02  0.1306872E+00
         21   -1    0    0  503  501  0.00000000000E+00  0.00000000000E+00  0.80807723385E+02  0.80807723385E+02  0.00000000000E+00 0.  1.
         21   -1    0    0  504  502 -0.00000000000E+00 -0.00000000000E+00 -0.47287622524E+02  0.47287622524E+02  0.00000000000E+00 0.  1.
         21    1    1    2  503  502  0.23406464984E+02  0.41959434591E+02  0.57058331896E+02  0.74592962088E+02  0.00000000000E+00 0.  1.
         21    1    1    2  504  501 -0.23406464984E+02 -0.41959434591E+02 -0.23538231035E+02  0.53502383821E+02  0.00000000000E+00 0.  1.
</event>
<event>
 4    1  0.2939002E+006  0.2749568E+02  0.7546771E-02  0.1442691E+00
         21   -1    0    0  504  501  0.00000000000E+00  0.00000000000E+00  0.76610889625E+01  0.76610889625E+01  0.00000000000E+00 0. -1.
         21   -1    0    0  503  502 -0.00000000000E+00 -0.00000000000E+00 -0.18810815718E+03  0.18810815718E+03  0.00000000000E+00 0. -1.
         21    1    1    2  503  501 -0.83294930836E+00  0.27483058270E+02 -0.22733023176E+02  0.35676359668E+02  0.00000000000E+00 0. -1.
         21    1    1    2  504  502  0.83294930836E+00 -0.27483058270E+02 -0.15771404504E+03  0.16009288648E+03  0.00000000000E+00 0. -1.
</event>
<event>
 4    1  0.2939002E+006  0.2119367E+02  0.7546771E-02  0.1516518E+00
         21   -1    0    0  503  501  0.00000000000E+00  0.00000000000E+00  0.29243578574E+02  0.29243578574E+02  0.00000000000E+00 0.  1.
         21   -1    0    0  504  502 -0.00000000000E+00 -0.00000000000E+00 -0.16956109942E+02  0.16956109942E+02  0.00000000000E+00 0.  1.
         21    1    1    2  503  502  0.21155782631E+02  0.12666967190E+01 -0.94424592949E+00  0.21214694429E+02  0.00000000000E+00 0.  1.
         21    1    1    2  504  501 -0.21155782631E+02 -0.12666967190E+01  0.13231714561E+02  0.24984994087E+02  0.00000000000E+00 0.  1.
</event>
<event>
 4    1  0.2939002E+006  0.2546603E+02  0.7546771E-02  0.1463657E+00
         21   -1    0    0  503  501  0.00000000000E+00  0.00000000000E+00  0.25531832311E+01  0.25531832311E+01  0.00000000000E+00 0. -1.
         21   -1    0    0  501  502 -0.00000000000E+00 -0.00000000000E+00 -0.44178155046E+03  0.44178155046E+03  0.00000000000E+00 0. -1.
         21    1    1    2  503  504 -0.10675965115E+02 -0.23120169706E+02 -0.74770874063E+02  0.78988619981E+02  0.00000000000E+00 0. -1.
         21    1    1    2  504  502  0.10675965115E+02  0.23120169706E+02 -0.36445749317E+03  0.36534611371E+03  0.00000000000E+00 0. -1.
</event>
<event>
 4    1  0.2939002E+006  0.2006855E+02  0.7546771E-02  0.1532990E+00
         21   -1    0    0  503  501  0.00000000000E+00  0.00000000000E+00  0.21263557887E+01  0.21263557887E+01  0.00000000000E+00 0. -1.
         21   -1    0    0  504  502 -0.00000000000E+00 -0.00000000000E+00 -0.22857118957E+03  0.22857118957E+03  0.00000000000E+00 0.  1.
         21    1    1    2  503  502 -0.10361599470E+02 -0.17186733954E+02 -0.65475308539E+02  0.68481841358E+02  0.00000000000E+00 0. -1.
         21    1    1    2  504  501  0.10361599470E+02  0.17186733954E+02 -0.16096952524E+03  0.16221570400E+03  0.00000000000E+00 0.  1.
</event>
<event>
 4    1  0.2939002E+006  0.2298256E+02  0.7546771E-02  0.1492717E+00
         21   -1    0    0  503  501  0.00000000000E+00  0.00000000000E+00  0.62579492564E+03  0.62579492564E+03  0.00000000000E+00 0. -1.
         21   -1    0    0  504  502 -0.00000000000E+00 -0.00000000000E+00 -0.25053998640E+02  0.25053998640E+02  0.00000000000E+00 0. -1.
         21    1    1    2  503  502 -0.16521971388E+01  0.22923092690E+02 -0.19525430869E+02  0.30156929295E+02  0.00000000000E+00 0. -1.
         21    1    1    2  504  501  0.16521971388E+01 -0.22923092690E+02  0.62026635787E+03  0.62069199498E+03  0.00000000000E+00 0. -1.
</event>
<event>
 4    1  0.2939002E+006  0.2376264E+02  0.7546771E-02  0.1483137E+00
         21   -1    0    0  504  501  0.00000000000E+00  0.00000000000E+00  0.24352367461E+02  0.24352367461E+02  0.00000000000E+00 0.  1.
         21   -1    0    0  503  502 -0.00000000000E+00 -0.00000000000E+00 -0.18221842670E+03  0.18221842670E+03  0.00000000000E+00 0.  1.
         21    1    1    2  503  501  0.22916258279E+02  0.62855406239E+01  0.17557346330E+02  0.29545275842E+02  0.00000000000E+00 0.  1.
         21    1    1    2  504  502 -0.22916258279E+02 -0.62855406239E+01 -0.17542340557E+03  0.17702551832E+03  0.00000000000E+00 0.  1.
</event>
<event>
 4    1  0.2939002E+006  0.2842193E+02  0.7546771E-02  0.1433825E+00
         21   -1    0    0  504  501  0.00000000000E+00  0.00000000000E+00  0.18314024021E+03  0.18314024021E+03  0.00000000000E+00 0.  1.
         21   -1    0    0  503  502 -0.00000000000E+00 -0.00000000000E+00 -0.47652533404E+01  0.47652533404E+01  0.00000000000E+00 0.  1.
         21    1    1    2  503  501 -0.26019721901E+02  0.11435905729E+02  0.11480928944E+03  0.11827501347E+03  0.00000000000E+00 0.  1.
         21    1    1    2  504  502  0.26019721901E+02 -0.11435905729E+02  0.63565697424E+02  0.69630480084E+02  0.00000000000E+00 0.  1.
</event>
<event>
 4    1  0.2939002E+006  0.2442301E+02  0.7546771E-02  0.1475363E+00
         21   -1    0    0  503  501  0.00000000000E+00  0.00000000000E+00  0.14671015115E+03  0.14671015115E+03  0.00000000000E+00 0. -1.
         21   -1    0    0  501  502 -0.00000000000E+00 -0.00000000000E+00 -0.20280611546E+02  0.20280611546E+02  0.00000000000E+00 0.  1.
         21    1    1    2  503  504 -0.19692319415E+02 -0.14446318606E+02  0.13787319873E+03  0.14001965038E+03  0.00000000000E+00 0. -1.
         21    1    1    2  504  502  0.19692319415E+02  0.14446318606E+02 -0.11443659126E+02  0.26971112313E+02  0.00000000000E+00 0.  1.
</event>
<event>
 4    1  0.2939002E+006  0.2364195E+02  0.7546771E-02  0.1484591E+00
         21   -1    0    0  502  501  0.00000000000E+00  0.00000000000E+00  0.60964149601E+03  0.60964149601E+03  0.00000000000E+00 0. -1.
         21   -1    0    0  503  502 -0.00000000000E+00 -0.00000000000E+00 -0.38937406672E+01  0.38937406672E+01  0.00000000000E+00 0.  1.
         21    1    1    2  503  504 -0.18992754964E+02 -0.14078951211E+02  0.34643212770E+02  0.41941552181E+02  0.00000000000E+00 0.  1.
         21    1    1    2  504  501  0.18992754964E+02  0.14078951211E+02  0.57110454257E+03  0.57159368449E+03  0.00000000000E+00 0. -1.
</event>
<event>
 4    1  0.2939002E+006  0.2548139E+02  0.7546771E-02  0.1463490E+00
         21   -1    0    0  503  501  0.00000000000E+00  0.00000000000E+00  0.11354126223E+03  0.11354126223E+03  0.00000000000E+00 0.  1.
         21   -1    0    0  504  502 -0.00000000000E+00 -0.00000000000E+00 -0.18842173772E+03  0.18842173772E+03  0.00000000000E+00 0. -1.
         21    1    1    2  503  502  0.25216915856E+02  0.36617256119E+01 -0.18611292598E+03  0.18784920095E+03  0.00000000000E+00 0. -1.
         21    1    1    2  504  501 -0.25216915856E+02 -0.36617256119E+01  0.11123245050E+03  0.11411379901E+03  0.00000000000E+00 0.  1.
</event>
<event>
 4    1  0.2939002E+006  0.3531037E+02  0.7546771E-02  0.1378394E+00
         21   -1    0    0  502  501  0.00000000000E+00  0.00000000000E+00  0.11961144377E+02  0.11961144377E+02  0.00000000000E+00 0. -1.
         21   -1    0    0  504  502 -0.00000000000E+00 -0.00000000000E+00 -0.42953594736E+03  0.42953594736E+03  0.00000000000E+00 0.  1.
         21    1    1    2  503  501  0.27297135685E+02 -0.22398405766E+02 -0.16682768749E+02  0.39053002069E+02  0.00000000000E+00 0. -1.
         21    1    1    2  504  503 -0.27297135685E+02  0.22398405766E+02 -0.40089203424E+03  0.40244408967E+03  0.00000000000E+00 0.  1.
</event>
<event>
 4    1  0.2939002E+006  0.2003461E+02  0.7546771E-02  0.1533507E+00
         21   -1    0    0  504  501  0.00000000000E+00  0.00000000000E+00  0.21254251145E+03  0.21254251145E+03  0.00000000000E+00 0. -1.
         21   -1    0    0  501  502 -0.00000000000E+00 -0.00000000000E+00 -0.15442444288E+03  0.15442444288E+03  0.00000000000E+00 0.  1.
         21    1    1    2  503  502 -0.20614874207E+01  0.19928270079E+02 -0.15329905847E+03  0.15460267465E+03  0.00000000000E+00 0.  1.
         21    1    1    2  504  503  0.20614874207E+01 -0.19928270079E+02  0.21141712704E+03  0.21236427968E+03  0.00000000000E+00 0. -1.
</event>
<event>
 4    1  0.2939002E+006  0.2416595E+02  0.7546771E-02  0.1478354E+00
         21   -1    0    0  503  501  0.00000000000E+00  0.00000000000E+00  0.87247142985E+02  0.87247142985E+02  0.00000000000E+00 0. -1.
         21   -1    0    0  504  502 -0.00000000000E+00 -0.00000000000E+00 -0.67171442904E+01  0.67171442904E+01  0.00000000000E+00 0. -1.
         21    1    1    2  503  502  0.69783640422E+01 -0.23136458191E+02  0.37480620706E+02  0.44595853965E+02  0.00000000000E+00 0. -1.
         21    1    1    2  504  501 -0.69783640422E+01  0.23136458191E+02  0.43049377989E+02  0.49368433311E+02  0.00000000000E+00 0. -1.
</event>
<event>
 4    1  0.2939002E+006  0.2169582E+02  0.7546771E-02  0.1509558E+00
         21   -1    0    0  503  501  0.00000000000E+00  0.00000000000E+00  0.27949213552E+01  0.27949213552E+01  0.00000000000E+00 0. -1.
         21   -1    0    0  504  502 -0.00000000000E+00 -0.00000000000E+00 -0.38637953896E+03  0.38637953896E+03  0.00000000000E+00 0. -1.
         21    1    1    2  503  502 -0.14156407725E+02  0.16440952453E+02 -0.33794251860E+03  0.33863823570E+03  0.00000000000E+00 0. -1.
         21    1    1    2  504  501  0.14156407725E+02 -0.16440952453E+02 -0.45642099002E+02  0.50536224617E+02  0.00000000000E+00 0. -1.
</event>
<event>
 4    1  0.2939002E+006  0.2312468E+02  0.7546771E-02  0.1490938E+00
         21   -1    0    0  503  501  0.00000000000E+00  0.00000000000E+00  0.19238038949E+02  0.19238038949E+02  0.00000000000E+00 0. -1.
         21   -1    0    0  504  502 -0.00000000000E+00 -0.00000000000E+00 -0.27798834345E+02  0.27798834345E+02  0.00000000000E+00 0. -1.
         21    1    1    2  503  502 -0.11844961119E+02 -0.19860707565E+02 -0.40664703185E+01  0.23479501480E+02  0.00000000000E+00 0. -1.
         21    1    1    2  504  501  0.11844961119E+02  0.19860707565E+02 -0.44943250776E+01  0.23557371814E+02  0.00000000000E+00 0. -1.
</event>
<event>
 4    1  0.2939002E+006  0.2498507E+02  0.7546771E-02  0.1468971E+00
         21   -1    0    0  504  501  0.00000000000E+00  0.00000000000E+00  0.40920322985E+01  0.40920322985E+01  0.00000000000E+00 0.  1.
         21   -1    0    0  503  502 -0.00000000000E+00 -0.00000000000E+00 -0.15512141548E+03  0.15512141548E+03  0.00000000000E+00 0.  1.
         21    1    1    2  503  501 -0.15601374848E+02  0.19515394966E+02 -0.65272080804E+02  0.69890615037E+02  0.00000000000E+00 0.  1.
         21    1    1    2  504  502  0.15601374848E+02 -0.19515394966E+02 -0.85757302374E+02  0.89322832737E+02  0.00000000000E+00 0.  1.
</event>
<event>
 4    1  0.2939002E+006  0.2065506E+02  0.7546771E-02  0.1524247E+00
         21   -1    0    0  502  501  0.00000000000E+00  0.00000000000E+00  0.58960982772E+02  0.58960982772E+02  0.00000000000E+00 0. -1.
         21   -1    0    0  504  502 -0.00000000000E+00 -0.00000000000E+00 -0.16383928492E+03  0.16383928492E+03  0.00000000000E+00 0.  1.
         21    1    1    2  503  501 -0.11565042201E+02  0.17113769659E+02  0.56473258919E+02  0.60132023798E+02  0.00000000000E+00 0. -1.
         21    1    1    2  504  503  0.11565042201E+02 -0.17113769659E+02 -0.16135156106E+03  0.16266824389E+03  0.00000000000E+00 0.  1.
</event>
<event>
 4    1  0.2939002E+006  0.2124168E+02  0.7546771E-02  0.1515842E+00
         21   -1    0    0  503  501  0.00000000000E+00  0.00000000000E+00  0.25386354762E+02  0.25386354762E+02  0.00000000000E+00 0. -1.
         21   -1    0    0  504  502 -0.00000000000E+00 -0.00000000000E+00 -0.25343523089E+02  0.25343523089E+02  0.00000000000E+00 0. -1.
         21    1    1    2  503  502 -0.18765099682E+02 -0.99539011990E+01 -0.13841148496E+02  0.25353234643E+02  0.00000000000E+00 0. -1.
         21    1    1    2  504  501  0.18765099682E+02  0.99539011990E+01  0.13883980169E+02  0.25376643208E+02  0.00000000000E+00 0. -1.
</event>
<event>
 4    1  0.2939002E+006  0.2323150E+02  0.7546771E-02  0.1489611E+00
         21   -1    0    0  503  501  0.00000000000E+00  0.00000000000E+00  0.10816436168E+03  0.10816436168E+03  0.00000000000E+00 0. -1.
         21   -1    0    0  501  502 -0.00000000000E+00 -0.00000000000E+00 -0.51482174442E+01  0.51482174442E+01  0.00000000000E+00 0. -1.
         21    1    1    2  503  504 -0.74685350535E+01 -0.21998268116E+02  0.41565007526E+02  0.47616726753E+02  0.00000000000E+00 0. -1.
         21    1    1    2  504  502  0.74685350535E+01  0.21998268116E+02  0.61451136712E+02  0.65695852374E+02  0.00000000000E+00 0. -1.
</event>
<event>
 4    1  0.2939002E+006  0.2278461E+02  0.7546771E-02  0.1495221E+00
         21   -1    0    0  504  501  0.00000000000E+00  0.00000000000E+00  0.19510301789E+02  0.19510301789E+02  0.00000000000E+00 0.  1.
         21   -1    0    0  503  502 -0.00000000000E+00 -0.00000000000E+00 -0.30215593931E+02  0.30215593931E+02  0.00000000000E+00 0.  1.
         21    1    1    2  503  501  0.11906170493E+01  0.22753479627E+02  0.32378903916E+01  0.23013525116E+02  0.00000000000E+00 0.  1.
         21    1    1    2  504  502 -0.11906170493E+01 -0.22753479627E+02 -0.13943182534E+02  0.26712370604E+02  0.00000000000E+00 0.  1.
</event>
<event>
 4    1  0.2939002E+006  0.2637327E+02  0.7546771E-02  0.1454007E+00
         21   -1    0    0  503  501  0.00000000000E+00  0.00000000000E+00  0.10515825392E+03  0.10515825392E+03  0.00000000000E+00 0. -1.
         21   -1    0    0  504  502 -0.00000000000E+00 -0.00000000000E+00 -0.84815913415E+01  0.84815913415E+01  0.00000000000E+00 0. -1.
         21    1    1    2  503  502 -0.20023318789E+02  0.17164384296E+02  0.21677926314E+02  0.34139154543E+02  0.00000000000E+00 0. -1.
         21    1    1    2  504  501  0.20023318789E+02 -0.17164384296E+02  0.74998736267E+02  0.79500690722E+02  0.00000000000E+00 0. -1.
</event>
<event>
 4    1  0.2939002E+006  0.2200586E+02  0.7546771E-02  0.1505374E+00
         21   -1    0    0  502  501  0.00000000000E+00  0.00000000000E+00  0.17629801917E+03  0.17629801917E+03  0.00000000000E+00 0. -1.
         21   -1    0    0  503  502 -0.00000000000E+00 -0.00000000000E+00 -0.33828717134E+01  0.33828717134E+01  0.00000000000E+00 0.  1.
         21    1    1    2  503  504  0.21772409156E+02 -0.31968944035E+01  0.47501312965E+02  0.52351052211E+02  0.00000000000E+00 0.  1.
         21    1    1    2  504  501 -0.21772409156E+02  0.31968944035E+01  0.12541383449E+03  0.12732983867E+03  0.00000000000E+00 0. -1.
</event>
<event>
 4    1  0.2939002E+006  0.2434424E+02  0.7546771E-02  0.1476275E+00
         21   -1    0    0  504  501  0.00000000000E+00  0.00000000000E+00  0.56714620945E+01  0.56714620945E+01  0.00000000000E+00 0.  1.
         21   -1    0    0  503  502 -0.00000000000E+00 -0.00000000000E+00 -0.20739188349E+03  0.20739188349E+03  0.00000000000E+00 0.  1.
         21    1    1    2  503  501 -0.17916272091E+02 -0.16481786673E+02 -0.25821910580E+02  0.35488211614E+02  0.00000000000E+00 0.  1.
         21    1    1    2  504  502  0.17916272091E+02  0.16481786673E+02 -0.17589851081E+03  0.17757513397E+03  0.00000000000E+00 0.  1.
</event>
<event>
 4    1  0.2939002E+006  0.2826997E+02  0.7546771E-02  0.1435252E+00
         21   -1    0    0  502  501  0.00000000000E+00  0.00000000000E+00  0.10059016673E+04  0.10059016673E+04  0.00000000000E+00 0.  1.
         21   -1    0    0  504  502 -0.00000000000E+00 -0.00000000000E+00 -0.82802043119E+00  0.82802043119E+00  0.00000000000E+00 0.  1.
         21    1    1    2  503  501 -0.10173712048E+02  0.26375876117E+02  0.60381171903E+03  0.60447314523E+03  0.00000000000E+00 0.  1.
         21    1    1    2  504  503  0.10173712048E+02 -0.26375876117E+02  0.40126192784E+03  0.40225654251E+03  0.00000000000E+00 0.  1.
</event>
<event>
 4    1  0.2939002E+006  0.2937027E+02  0.7546771E-02  0.1425149E+00
         21   -1    0    0  504  501  0.00000000000E+00  0.00000000000E+00  0.13222496148E+03  0.13222496148E+03  0.00000000000E+00 0.  1.
         21   -1    0    0  503  502 -0.00000000000E+00 -0.00000000000E+00 -0.44157004333E+03  0.44157004333E+03  0.00000000000E+00 0. -1.
         21    1    1    2  503  501 -0.24108035894E+02  0.16775447680E+02  0.13009773964E+03  0.13337179199E+03  0.00000000000E+00 0.  1.
         21    1    1    2  504  502  0.24108035894E+02 -0.16775447680E+02 -0.43944282148E+03  0.44042321282E+03  0.00000000000E+00 0. -1.
</event>
<event>
 4    1  0.2939002E+006  0.2101343E+02  0.7546771E-02  0.1519073E+00
         21   -1    0    0  502  501  0.00000000000E+00  0.00000000000E+00  0.52461067129E+01  0.52461067129E+01  0.00000000000E+00 0. -1.
         21   -1    0    0  504  502 -0.00000000000E+00 -0.00000000000E+00 -0.11102529870E+03  0.11102529870E+03  0.00000000000E+00 0. -1.
         21    1    1    2  503  501  0.90607091135E+01 -0.18959638352E+02 -0.24297390073E+02  0.32123628383E+02  0.00000000000E+00 0. -1.
         21    1    1    2  504  503 -0.90607091135E+01  0.18959638352E+02 -0.81481801914E+02  0.84147777031E+02  0.00000000000E+00 0. -1.
</event>
<event>
 4    1  0.2939002E+006  0.2437604E+02  0.7546771E-02  0.1475906E+00
         21   -1    0    0  503  501  0.00000000000E+00  0.00000000000E+00  0.52850528766E+03  0.52850528766E+03  0.00000000000E+00 0.  1.
         21   -1    0    0  504  502 -0.00000000000E+00 -0.00000000000E+00 -0.91241125837E+02  0.91241125837E+02  0.00000000000E+00 0.  1.
         21    1    1    2  503  502  0.21029447180E+02  0.12326943281E+02  0.52659021902E+03  0.52715410455E+03  0.00000000000E+00 0.  1.
         21    1    1    2  504  501 -0.21029447180E+02 -0.12326943281E+02 -0.89326057202E+02  0.92592308939E+02  0.00000000000E+00 0.  1.
</event>
<event>
 4    1  0.2939002E+006  0.2466864E+02  0.7546771E-02  0.1472545E+00
         21   -1    0    0  504  501  0.00000000000E+00  0.00000000000E+00  0.78686328352E+02  0.78686328352E+02  0.00000000000E+00 0.  1.
         21   -1    0    0  503  502 -0.00000000000E+00 -0.00000000000E+00 -0.27743958873E+03  0.27743958873E+03  0.00000000000E+00 0.  1.
         21    1    1    2  503  501  0.12823210795E+02  0.21073852196E+02  0.76186989718E+02  0.80081204935E+02  0.00000000000E+00 0.  1.
         21    1    1    2  504  502 -0.12823210795E+02 -0.21073852196E+02 -0.27494025010E+03  0.27604471215E+03  0.00000000000E+00 0.  1.
</event>
<event>
 4    1  0.2939002E+006  0.2286737E+02  0.7546771E-02  0.1494170E+00
         21   -1    0    0  502  501  0.00000000000E+00  0.00000000000E+00  0.95019427236E+02  0.95019427236E+02  0.00000000000E+00 0. -1.
         21   -1    0    0  504  502 -0.00000000000E+00 -0.00000000000E+00 -0.43557108276E+03  0.43557108276E+03  0.00000000000E+00 0. -1.
         21    1    1    2  503  501  0.12239708967E+02  0.19315952965E+02  0.93338152354E+02  0.96098528602E+02  0.00000000000E+00 0. -1.
         21    1    1    2  504  503 -0.12239708967E+02 -0.19315952965E+02 -0.43388980788E+03  0.43449198140E+03  0.00000000000E+00 0. -1.
</event>
<event>
 4    1  0.2939002E+006  0.2166321E+02  0.7546771E-02  0.1510003E+00
         21   -1    0    0  503  501  0.00000000000E+00  0.00000000000E+00  0.62233267253E+02  0.62233267253E+02  0.00000000000E+00 0.  1.
         21   -1    0    0  504  502 -0.00000000000E+00 -0.00000000000E+00 -0.25436052614E+02  0.25436052614E+02  0.00000000000E+00 0.  1.
         21    1    1    2  503  502 -0.16095312719E+01  0.21603334990E+02  0.55165804231E+02  0.59266859459E+02  0.00000000000E+00 0.  1.
         21    1    1    2  504  501  0.16095312719E+01 -0.21603334990E+02 -0.18368589593E+02  0.28402460408E+02  0.00000000000E+00 0.  1.
</event>
<event>
 4    1  0.2939002E+006  0.2689625E+02  0.7546771E-02  0.1448653E+00
         21   -1    0    0  503  501  0.00000000000E+00  0.00000000000E+00  0.13400566158E+01  0.13400566158E+01  0.00000000000E+00 0.  1.
         21   -1    0    0  501  502 -0.00000000000E+00 -0.00000000000E+00 -0.87804363590E+03  0.87804363590E+03  0.00000000000E+00 0.  1.
         21    1    1    2  503  504  0.26862582647E+02  0.13453120569E+01 -0.16546449950E+03  0.16763623954E+03  0.00000000000E+00 0.  1.
         21    1    1    2  504  502 -0.26862582647E+02 -0.13453120569E+01 -0.71123907978E+03  0.71174745298E+03  0.00000000000E+00 0.  1.
</event>
<event>
 4    1  0.2939002E+006  0.2134646E+02  0.7546771E-02  0.1514375E+00
         21   -1    0    0  503  501  0.00000000000E+00  0.00000000000E+00  0.85763185016E+01  0.85763185016E+01  0.00000000000E+00 0. -1.
         21   -1    0    0  504  502 -0.00000000000E+00 -0.00000000000E+00 -0.11825878210E+03  0.11825878210E+03  0.00000000000E+00 0. -1.
         21    1    1    2  503  502 -0.31755851377E+01  0.21108932413E+02 -0.10190370464E+03  0.10411549542E+03  0.00000000000E+00 0. -1.
         21    1    1    2  504  501  0.31755851377E+01 -0.21108932413E+02 -0.77787589659E+01  0.22719605182E+02  0.00000000000E+00 0. -1.
</event>
<event>
 4    1  0.2939002E+006  0.2849779E+02  0.7546771E-02  0.1433116E+00
         21   -1    0    0  503  501  0.00000000000E+00  0.00000000000E+00  0.16814821796E+03  0.16814821796E+03  0.00000000000E+00 0. -1.
         21   -1    0    0  504  502 -0.00000000000E+00 -0.00000000000E+00 -0.12301427353E+02  0.12301427353E+02  0.00000000000E+00 0. -1.
         21    1    1    2  503  502  0.59939805570E+01  0.27860302301E+02  0.76071710169E+01  0.29495648800E+02  0.00000000000E+00 0. -1.
         21    1    1    2  504  501 -0.59939805570E+01 -0.27860302301E+02  0.14823961959E+03  0.15095399651E+03  0.00000000000E+00 0. -1.
</event>
<event>
 4    1  0.2939002E+006  0.2040160E+02  0.7546771E-02  0.1527982E+00
         21   -1    0    0  502  501  0.00000000000E+00  0.00000000000E+00  0.38384829603E+03  0.38384829603E+03  0.00000000000E+00 0. -1.
         21   -1    0    0  503  502 -0.00000000000E+00 -0.00000000000E+00 -0.19528165023E+01  0.19528165023E+01  0.00000000000E+00 0. -1.
         21    1    1    2  503  504  0.23697734869E+01  0.20263503297E+02  0.62306674324E+02  0.65561780464E+02  0.00000000000E+00 0. -1.
         21    1    1    2  504  501 -0.23697734869E+01 -0.20263503297E+02  0.31958880520E+03  0.32023933207E+03  0.00000000000E+00 0. -1.
</event>
<event>
 4    1  0.2939002E+006  0.2293836E+02  0.7546771E-02  0.1493274E+00
         21   -1    0    0  504  501  0.00000000000E+00  0.00000000000E+00  0.10048219608E+02  0.10048219608E+02  0.00000000000E+00 0.  1.
         21   -1    0    0  503  502 -0.00000000000E+00 -0.00000000000E+00 -0.33778324015E+03  0.33778324015E+03  0.00000000000E+00 0.  1.
         21    1    1    2  503  501  0.99617160989E+01 -0.20662347170E+02 -0.39996434876E+01  0.23284448163E+02  0.00000000000E+00 0.  1.
         21    1    1    2  504  502 -0.99617160989E+01  0.20662347170E+02 -0.32373537705E+03  0.32454701159E+03  0.00000000000E+00 0.  1.
</event>
<event>
 4    1  0.2939002E+006  0.3962046E+02  0.7546771E-02  0.1350724E+00
         21   -1    0    0  502  501  0.00000000000E+00  0.00000000000E+00  0.23020150096E+02  0.23020150096E+02  0.00000000000E+00 0. -1.
         21   -1    0    0  503  502 -0.00000000000E+00 -0.00000000000E+00 -0.81184078000E+02  0.81184078000E+02  0.00000000000E+00 0. -1.
         21    1    1    2  503  504 -0.73652108716E+01  0.38929867419E+02 -0.49925235134E+02  0.63736253511E+02  0.00000000000E+00 0. -1.
         21    1    1    2  504  501  0.73652108716E+01 -0.38929867419E+02 -0.82386927705E+01  0.40467974585E+02  0.00000000000E+00 0. -1.
</event>
<event>
 4    1  0.2939002E+006  0.2503896E+02  0.7546771E-02  0.1468368E+00
         21   -1    0    0  504  501  0.00000000000E+00  0.00000000000E+00  0.11567564074E+03  0.11567564074E+03  0.00000000000E+00 0.  1.
         21   -1    0    0  503  502 -0.00000000000E+00 -0.00000000000E+00 -0.39429672083E+02  0.39429672083E+02  0.00000000000E+00 0.  1.
         21    1    1    2  503  501 -0.23378333370E+02  0.89667788005E+01  0.11014860364E+03  0.11295868482E+03  0.00000000000E+00 0.  1.
         21    1    1    2  504  502  0.23378333370E+02 -0.89667788005E+01 -0.33902634982E+02  0.42146628002E+02  0.00000000000E+00 0.  1.
</event>
<event>
 4    1  0.2939002E+006  0.2412423E+02  0.7546771E-02  0.1478844E+00
         21   -1    0    0  504  501  0.00000000000E+00  0.00000000000E+00  0.52320887821E+02  0.52320887821E+02  0.00000000000E+00 0. -1.
         21   -1    0    0  503  502 -0.00000000000E+00 -0.00000000000E+00 -0.31559089063E+03  0.31559089063E+03  0.00000000000E+00 0. -1.
         21    1    1    2  503  501 -0.21261852550E+02 -0.11397895128E+02 -0.31231997494E+03  0.31325029152E+03  0.00000000000E+00 0. -1.
         21    1    1    2  504  502  0.21261852550E+02  0.11397895128E+02  0.49049972135E+02  0.54661486933E+02  0.00000000000E+00 0. -1.
</event>
<event>
 4    1  0.2939002E+006  0.2058082E+02  0.7546771E-02  0.1525335E+00
         21   -1    0    0  503  501  0.00000000000E+00  0.00000000000E+00  0.28191323827E+03  0.28191323827E+03  0.00000000000E+00 0. -1.
         21   -1    0    0  501  502 -0.00000000000E+00 -0.00000000000E+00 -0.67204395885E+01  0.67204395885E+01  0.00000000000E+00 0. -1.
         21    1    1    2  503  504 -0.11860761224E+02 -0.16819411627E+02  0.26476161621E+03  0.26556032024E+03  0.00000000000E+00 0. -1.
         21    1    1    2  504  502  0.11860761224E+02  0.16819411627E+02  0.10431182469E+02  0.23073357623E+02  0.00000000000E+00 0. -1.
</event>
<event>
 4    1  0.2939002E+006  0.2278277E+02  0.7546771E-02  0.1495244E+00
         21   -1    0    0  503  501  0.00000000000E+00  0.00000000000E+00  0.83274143732E+02  0.83274143732E+02  0.00000000000E+00 0.  1.
         21   -1    0    0  504  502 -0.00000000000E+00 -0.00000000000E+00 -0.26771915331E+02  0.26771915331E+02  0.00000000000E+00 0. -1.
         21    1    1    2  503  502  0.21657850743E+02 -0.70705074269E+01  0.76445079613E+02  0.79767817891E+02  0.00000000000E+00 0.  1.
         21    1    1    2  504  501 -0.21657850743E+02  0.70705074269E+01 -0.19942851212E+02  0.30278241173E+02  0.00000000000E+00 0. -1.
</event>
<event>
 4    1  0.2939002E+006  0.2002764E+02  0.7546771E-02  0.1533614E+00
         21   -1    0    0  503  501  0.00000000000E+00  0.00000000000E+00  0.22329058015E+02  0.22329058015E+02  0.00000000000E+00 0. -1.
         21   -1    0    0  501  502 -0.00000000000E+00 -0.00000000000E+00 -0.21201243029E+02  0.21201243029E+02  0.00000000000E+00 0. -1.
         21    1    1    2  503  504  0.49079683985E+00 -0.20021623175E+02  0.90695569486E+01  0.21985521130E+02  0.00000000000E+00 0. -1.
         21    1    1    2  504  502 -0.49079683985E+00  0.20021623175E+02 -0.79417419624E+01  0.21544779913E+02  0.00000000000E+00 0. -1.
</event>
<event>
 4    1  0.2939002E+006  0.2765656E+02  0.7546771E-02  0.1441122E+00
         21   -1    0    0  504  501  0.00000000000E+00  0.00000000000E+00  0.19680885272E+03  0.19680885272E+03  0.00000000000E+00 0.  1.
         21   -1    0    0  503  502 -0.00000000000E+00 -0.00000000000E+00 -0.41586588470E+03  0.41586588470E+03  0.00000000000E+00 0.  1.
         21    1    1    2  503  501  0.27651584424E+02 -0.52455598730E+00 -0.41443110045E+03  0.41535288888E+03  0.00000000000E+00 0.  1.
         21    1    1    2  504  502 -0.27651584424E+02  0.52455598730E+00  0.19537406847E+03  0.19732184854E+03  0.00000000000E+00 0.  1.
</event>
<event>
 4    1  0.2939002E+006  0.2650359E+02  0.7546771E-02  0.1452659E+00
         21   -1    0    0  504  501  0.00000000000E+00  0.00000000000E+00  0.10259529634E+04  0.10259529634E+04  0.00000000000E+00 0. -1.
         21   -1    0    0  503  502 -0.00000000000E+00 -0.00000000000E+00 -0.13911809554E+03  0.13911809554E+03  0.00000000000E+00 0.  1.
         21    1    1    2  503  501  0.96208300226E+01 -0.24695744120E+02 -0.13768285065E+03  0.14021058273E+03  0.00000000000E+00 0.  1.
         21    1    1    2  504  502 -0.96208300226E+01  0.24695744120E+02  0.10245177185E+04  0.10248604762E+04  0.00000000000E+00 0. -1.
</event>
<event>
 4    1  0.2939002E+006  0.2809566E+02  0.7546771E-02  0.1436902E+00
         21   -1    0    0  504  501  0.00000000000E+00  0.00000000000E+00  0.67483128894E+02  0.67483128894E+02  0.00000000000E+00 0.  1.
         21   -1    0    0  503  502 -0.00000000000E+00 -0.00000000000E+00 -0.52395387068E+02  0.52395387068E+02  0.00000000000E+00 0.  1.
         21    1    1    2  503  501 -0.15118120011E+02 -0.23681401031E+02  0.60370409872E+02  0.66587932057E+02  0.00000000000E+00 0.  1.
         21    1    1    2  504  502  0.15118120011E+02  0.23681401031E+02 -0.45282668046E+02  0.53290583904E+02  0.00000000000E+00 0.  1.
</event>
<event>
 4    1  0.2939002E+006  0.2295786E+02  0.7546771E-02  0.1493028E+00
         21   -1    0    0  504  501  0.00000000000E+00  0.00000000000E+00  0.10221610465E+02  0.10221610465E+02  0.00000000000E+00 0.  1.
         21   -1    0    0  503  502 -0.00000000000E+00 -0.00000000000E+00 -0.87586347642E+02  0.87586347642E+02  0.00000000000E+00 0.  1.
         21    1    1    2  503  501 -0.21551514973E+02 -0.79117401259E+01 -0.73196159525E+01  0.24096477069E+02  0.00000000000E+00 0.  1.
         21    1    1    2  504  502  0.21551514973E+02  0.79117401259E+01 -0.70045121224E+02  0.73711481038E+02  0.00000000000E+00 0.  1.
</event>
<event>
 4    1  0.2939002E+006  0.2703748E+02  0.7546771E-02  0.1447232E+00
         21   -1    0    0  503  501  0.00000000000E+00  0.00000000000E+00  0.48561892065E+03  0.48561892065E+03  0.00000000000E+00 0.  1.
         21   -1    0    0  501  502 -0.00000000000E+00 -0.00000000000E+00 -0.12840089379E+02  0.12840089379E+02  0.00000000000E+00 0.  1.
         21    1    1    2  503  504  0.15625347289E+02 -0.22065216399E+02  0.47055401937E+03  0.47133015010E+03  0.00000000000E+00 0.  1.
         21    1    1    2  504  502 -0.15625347289E+02  0.22065216399E+02  0.22248118973E+01  0.27128859921E+02  0.00000000000E+00 0.  1.
</event>
<event>
 4    1  0.2939002E+006  0.2007169E+02  0.7546771E-02  0.1532943E+00
         21   -1    0    0  503  501  0.00000000000E+00  0.00000000000E+00  0.94868603508E+02  0.94868603508E+02  0.00000000000E+00 0. -1.
         21   -1    0    0  504  502 -0.00000000000E+00 -0.00000000000E+00 -0.65717114374E+02  0.65717114374E+02  0.00000000000E+00 0.  1.
         21    1    1    2  503  502  0.14570935670E+02  0.13804363001E+02  0.92231020820E+02  0.94389797148E+02  0.00000000000E+00 0. -1.
         21    1    1    2  504  501 -0.14570935670E+02 -0.13804363001E+02 -0.63079531685E+02  0.66195920734E+02  0.00000000000E+00 0.  1.
</event>
<event>
 4    1  0.2939002E+006  0.2494383E+02  0.7546771E-02  0.1469433E+00
         21   -1    0    0  504  501  0.00000000000E+00  0.00000000000E+00  0.12858173948E+03  0.12858173948E+03  0.00000000000E+00 0.  1.
         21   -1    0    0  501  502 -0.00000000000E+00 -0.00000000000E+00 -0.81327146552E+02  0.81327146552E+02  0.00000000000E+00 0. -1.
         21    1    1    2  503  502  0.17664107243E+02  0.17611757606E+02 -0.78156911617E+02  0.82040828398E+02  0.00000000000E+00 0. -1.
         21    1    1    2  504  503 -0.17664107243E+02 -0.17611757606E+02  0.12541150455E+03  0.12786805764E+03  0.00000000000E+00 0.  1.
</event>
<event>
 4    1  0.2939002E+006  0.2339979E+02  0.7546771E-02  0.1487538E+00
         21   -1    0    0  504  501  0.00000000000E+00  0.00000000000E+00  0.75914530689E+03  0.75914530689E+03  0.00000000000E+00 0. -1.
         21   -1    0    0  503  502 -0.00000000000E+00 -0.00000000000E+00 -0.47645311126E+01  0.47645311126E+01  0.00000000000E+00 0.  1.
         21    1    1    2  503  501  0.15470175073E+02 -0.17556306226E+02  0.25332076376E+02  0.34485711514E+02  0.00000000000E+00 0.  1.
         21    1    1    2  504  502 -0.15470175073E+02  0.17556306226E+02  0.72904869940E+03  0.72942412648E+03  0.00000000000E+00 0. -1.
</event>
<event>
 4    1  0.2939002E+006  0.2388311E+02  0.7546771E-02  0.1481697E+00
         21   -1    0    0  504  501  0.00000000000E+00  0.00000000000E+00  0.71750189488E+02  0.71750189488E+02  0.00000000000E+00 0. -1.
         21   -1    0    0  503  502 -0.00000000000E+00 -0.00000000000E+00 -0.22147963129E+02  0.22147963129E+02  0.00000000000E+00 0.  1.
         21    1    1    2  503  501  0.23551140142E+02  0.39681916022E+01 -0.12789168359E+02  0.27091799015E+02  0.00000000000E+00 0.  1.
         21    1    1    2  504  502 -0.23551140142E+02 -0.39681916022E+01  0.62391394718E+02  0.66806353601E+02  0.00000000000E+00 0. -1.
</event>
<event>
 4    1  0.2939002E+006  0.2075407E+02  0.7546771E-02  0.1522805E+00
         21   -1    0    0  502  501  0.00000000000E+00  0.00000000000E+00  0.62566300966E+02  0.62566300966E+02  0.00000000000E+00 0. -1.
         21   -1    0    0  504  502 -0.00000000000E+00 -0.00000000000E+00 -0.76656971807E+01  0.76656971807E+01  0.00000000000E+00 0.  1.
         21    1    1    2  503  501 -0.20476795302E+02  0.33811374622E+01  0.38661144179E+02  0.43879554528E+02  0.00000000000E+00 0. -1.
         21    1    1    2  504  503  0.20476795302E+02 -0.33811374622E+01  0.16239459606E+02  0.26352443619E+02  0.00000000000E+00 0.  1.
</event>
<event>
 4    1  0.2939002E+006  0.2006851E+02  0.7546771E-02  0.1532991E+00
         21   -1    0    0  504  501  0.00000000000E+00  0.00000000000E+00  0.97664357266E+02  0.97664357266E+02  0.00000000000E+00 0. -1.
         21   -1    0    0  501  502 -0.00000000000E+00 -0.00000000000E+00 -0.73620301186E+01  0.73620301186E+01  0.00000000000E+00 0. -1.
         21    1    1    2  503  502  0.83517811850E+01 -0.18248095021E+02  0.10323399923E+02  0.22568070516E+02  0.00000000000E+00 0. -1.
         21    1    1    2  504  503 -0.83517811850E+01  0.18248095021E+02  0.79978927224E+02  0.82458316868E+02  0.00000000000E+00 0. -1.
</event>
<event>
 4    1  0.2939002E+006  0.2920255E+02  0.7546771E-02  0.1426655E+00
         21   -1    0    0  503  501  0.00000000000E+00  0.00000000000E+00  0.10423949355E+03  0.10423949355E+03  0.00000000000E+00 0. -1.
         21   -1    0    0  501  502 -0.00000000000E+00 -0.00000000000E+00 -0.29373658521E+02  0.29373658521E+02  0.00000000000E+00 0. -1.
         21    1    1    2  503  504  0.14377579091E+02 -0.25417991688E+02  0.94178537391E+02  0.98602160154E+02  0.00000000000E+00 0. -1.
         21    1    1    2  504  502 -0.14377579091E+02  0.25417991688E+02 -0.19312702366E+02  0.35010991912E+02  0.00000000000E+00 0. -1.
</event>
<event>
 4    1  0.2939002E+006  0.2784364E+02  0.7546771E-02  0.1439313E+00
         21   -1    0    0  503  501  0.00000000000E+00  0.00000000000E+00  0.67902042332E+01  0.67902042332E+01  0.00000000000E+00 0. -1.
         21   -1    0    0  501  502 -0.00000000000E+00 -0.00000000000E+00 -0.56473093166E+03  0.56473093166E+03  0.00000000000E+00 0.  1.
         21    1    1    2  503  504  0.56795230189E+01 -0.27258230592E+02 -0.23726027919E+02  0.36581313776E+02  0.00000000000E+00 0. -1.
         21    1    1    2  504  502 -0.56795230189E+01  0.27258230592E+02 -0.53421469951E+03  0.53493982212E+03  0.00000000000E+00 0.  1.
</event>
<event>
 4    1  0.2939002E+006  0.2404387E+02  0.7546771E-02  0.1479790E+00
         21   -1    0    0  503  501  0.00000000000E+00  0.00000000000E+00  0.23873999487E+02  0.23873999487E+02  0.00000000000E+00 0.  1.
         21   -1    0    0  504  502 -0.00000000000E+00 -0.00000000000E+00 -0.42101148481E+02  0.42101148481E+02  0.00000000000E+00 0.  1.
         21    1    1    2  503  502 -0.22032319681E+02 -0.96272924505E+01 -0.30614756918E+02  0.38927769158E+02  0.00000000000E+00 0.  1.
         21    1    1    2  504  501  0.22032319681E+02  0.96272924505E+01  0.12387607923E+02  0.27047378810E+02  0.00000000000E+00 0.  1.
</event>
<event>
 4    1  0.2939002E+006  0.2322121E+02  0.7546771E-02  0.1489739E+00
         21   -1    0    0  503  501  0.00000000000E+00  0.00000000000E+00  0.49269644317E+02  0.49269644317E+02  0.00000000000E+00 0. -1.
         21   -1    0    0  501  502 -0.00000000000E+00 -0.00000000000E+00 -0.21782688216E+02  0.21782688216E+02  0.00000000000E+00 0.  1.
         21    1    1    2  503  504 -0.86330600278E+01  0.21556780932E+02  0.38803060763E+02  0.45220593253E+02  0.00000000000E+00 0. -1.
         21    1    1    2  504  502  0.86330600278E+01 -0.21556780932E+02 -0.11316104662E+02  0.25831739281E+02  0.00000000000E+00 0.  1.
</event>
<event>
 4    1  0.2939002E+006  0.3239831E+02  0.7546771E-02  0.1399839E+00
         21   -1    0    0  502  501  0.00000000000E+00  0.00000000000E+00  0.11786357436E+03  0.11786357436E+03  0.00000000000E+00 0. -1.
         21   -1    0    0  503  502 -0.00000000000E+00 -0.00000000000E+00 -0.11057129533E+02  0.11057129533E+02  0.00000000000E+00 0. -1.
         21    1    1    2  503  504 -0.17866456800E+02 -0.27026652755E+02  0.24968999060E+02  0.40903559158E+02  0.00000000000E+00 0. -1.
         21    1    1    2  504  501  0.17866456800E+02  0.27026652755E+02  0.81837445765E+02  0.88017144733E+02  0.00000000000E+00 0. -1.
</event>
<event>
 4    1  0.2939002E+006  0.2099666E+02  0.7546771E-02  0.1519312E+00
         21   -1    0    0  504  501  0.00000000000E+00  0.00000000000E+00  0.22074702775E+02  0.22074702775E+02  0.00000000000E+00 0. -1.
         21   -1    0    0  503  502 -0.00000000000E+00 -0.00000000000E+00 -0.20109977225E+02  0.20109977225E+02  0.00000000000E+00 0. -1.
         21    1    1    2  503  501  0.20906006581E+02  0.19490487889E+01  0.27340830395E+01  0.21173925295E+02  0.00000000000E+00 0. -1.
         21    1    1    2  504  502 -0.20906006581E+02 -0.19490487889E+01 -0.76935748997E+00  0.21010754705E+02  0.00000000000E+00 0. -1.
</event>
<event>
 4    1  0.2939002E+006  0.6061142E+02  0.7546771E-02  0.1257769E+00
         21   -1    0    0  503  501  0.00000000000E+00  0.00000000000E+00  0.25367106641E+02  0.25367106641E+02  0.00000000000E+00 0. -1.
         21   -1    0    0  501  502 -0.00000000000E+00 -0.00000000000E+00 -0.11868750973E+04  0.11868750973E+04  0.00000000000E+00 0. -1.
         21    1    1    2  503  504 -0.27387673952E+01 -0.60549512938E+02 -0.12815143081E+02  0.61951370091E+02  0.00000000000E+00 0. -1.
         21    1    1    2  504  502  0.27387673952E+01  0.60549512938E+02 -0.11486928475E+04  0.11502908338E+04  0.00000000000E+00 0. -1.
</event>
<event>
 4    1  0.2939002E+006  0.3388042E+02  0.7546771E-02  0.1388610E+00
         21   -1    0    0  503  501  0.00000000000E+00  0.00000000000E+00  0.33692944107E+01  0.33692944107E+01  0.00000000000E+00 0.  1.
         21   -1    0    0  504  502 -0.00000000000E+00 -0.00000000000E+00 -0.45229149129E+03  0.45229149129E+03  0.00000000000E+00 0.  1.
         21    1    1    2  503  502  0.20273655060E+02  0.27145197725E+02 -0.11128918964E+03  0.11633213906E+03  0.00000000000E+00 0.  1.
         21    1    1    2  504  501 -0.20273655060E+02 -0.27145197725E+02 -0.33763300725E+03  0.33932864664E+03  0.00000000000E+00 0.  1.
</event>
<event>
 4    1  0.2939002E+006  0.7998012E+02  0.7546771E-02  0.1203894E+00
         21   -1    0    0  503  501  0.00000000000E+00  0.00000000000E+00  0.27765655534E+02  0.27765655534E+02  0.00000000000E+00 0.  1.
         21   -1    0    0  504  502 -0.00000000000E+00 -0.00000000000E+00 -0.84099333711E+03  0.84099333711E+03  0.00000000000E+00 0.  1.
         21    1    1    2  503  502 -0.54616432903E+02  0.58428288579E+02 -0.77674362331E+03  0.78085048249E+03  0.00000000000E+00 0.  1.
         21    1    1    2  504  501  0.54616432903E+02 -0.58428288579E+02 -0.36484058258E+02  0.87908510147E+02  0.00000000000E+00 0.  1.
</event>
<event>
 4    1  0.2939002E+006  0.3689710E+02  0.7546771E-02  0.1367695E+00
         21   -1    0    0  502  501  0.00000000000E+00  0.00000000000E+00  0.33725366505E+02  0.33725366505E+02  0.00000000000E+00 0.  1.
         21   -1    0    0  503  502 -0.00000000000E+00 -0.00000000000E+00 -0.60307251499E+02  0.60307251499E+02  0.00000000000E+00 0.  1.
         21    1    1    2  503  504  0.10804359406E+02  0.35279767252E+02 -0.40326024712E+02  0.54658800102E+02  0.00000000000E+00 0.  1.
         21    1    1    2  504  501 -0.10804359406E+02 -0.35279767252E+02  0.13744139718E+02  0.39373817901E+02  0.00000000000E+00 0.  1.
</event>
<event>
 4    1  0.2939002E+006  0.2041945E+02  0.7546771E-02  0.1527717E+00
         21   -1    0    0  504  501  0.00000000000E+00  0.00000000000E+00  0.42364699142E+02  0.42364699142E+02  0.00000000000E+00 0. -1.
         21   -1    0    0  503  502 -0.00000000000E+00 -0.00000000000E+00 -0.10763607861E+02  0.10763607861E+02  0.00000000000E+00 0. -1.
         21    1    1    2  503  501 -0.18839996230E+02  0.78745587670E+01  0.23573495736E+02  0.31187558977E+02  0.00000000000E+00 0. -1.
         21    1    1    2  504  502  0.18839996230E+02 -0.78745587670E+01  0.80275955442E+01  0.21940748026E+02  0.00000000000E+00 0. -1.
</event>
<event>
 4    1  0.2939002E+006  0.2937367E+02  0.7546771E-02  0.1425118E+00
         21   -1    0    0  504  501  0.00000000000E+00  0.00000000000E+00  0.80174779109E+03  0.80174779109E+03  0.00000000000E+00 0. -1.
         21   -1    0    0  501  502 -0.00000000000E+00 -0.00000000000E+00 -0.24776781731E+03  0.24776781731E+03  0.00000000000E+00 0. -1.
         21    1    1    2  503  502  0.26293346502E+02  0.13094754483E+02 -0.24662695008E+03  0.24837001665E+03  0.00000000000E+00 0. -1.
         21    1    1    2  504  503 -0.26293346502E+02 -0.13094754483E+02  0.80060692386E+03  0.80114559176E+03  0.00000000000E+00 0. -1.
</event>
<event>
 4    1  0.2939002E+006  0.2098757E+02  0.7546771E-02  0.1519442E+00
         21   -1    0    0  502  501  0.00000000000E+00  0.00000000000E+00  0.11890116990E+03  0.11890116990E+03  0.00000000000E+00 0.  1.
         21   -1    0    0  503  502 -0.00000000000E+00 -0.00000000000E+00 -0.11517010028E+03  0.11517010028E+03  0.00000000000E+00 0.  1.
         21    1    1    2  503  504  0.87272947345E-01  0.20987384033E+02 -0.11327242605E+03  0.11520034899E+03  0.00000000000E+00 0.  1.
         21    1    1    2  504  501 -0.87272947345E-01 -0.20987384033E+02  0.11700349567E+03  0.11887092119E+03  0.00000000000E+00 0.  1.
</event>
<event>
 4    1  0.2939002E+006  0.2275264E+02  0.7546771E-02  0.1495628E+00
         21   -1    0    0  503  501  0.00000000000E+00  0.00000000000E+00  0.43376103935E+01  0.43376103935E+01  0.00000000000E+00 0.  1.
         21   -1    0    0  501  502 -0.00000000000E+00 -0.00000000000E+00 -0.72961248339E+03  0.72961248339E+03  0.00000000000E+00 0. -1.
         21    1    1    2  503  504 -0.31755230788E+01  0.22529951903E+02 -0.27016028568E+02  0.35320652304E+02  0.00000000000E+00 0.  1.
         21    1    1    2  504  502  0.31755230788E+01 -0.22529951903E+02 -0.69825884443E+03  0.69862944148E+03  0.00000000000E+00 0. -1.
</event>
<event>
 4    1  0.2939002E+006  0.2206399E+02  0.7546771E-02  0.1504598E+00
         21   -1    0    0  504  501  0.00000000000E+00  0.00000000000E+00  0.13230906126E+03  0.13230906126E+03  0.00000000000E+00 0. -1.
         21   -1    0    0  503  502 -0.00000000000E+00 -0.00000000000E+00 -0.46468684300E+01  0.46468684300E+01  0.00000000000E+00 0. -1.
         21    1    1    2  503  501 -0.21983977395E+02 -0.18773477113E+01  0.95076498069E+02  0.97603074652E+02  0.00000000000E+00 0. -1.
         21    1    1    2  504  502  0.21983977395E+02  0.18773477113E+01  0.32585694758E+02  0.39352855034E+02  0.00000000000E+00 0. -1.
</event>
<event>
 4    1  0.2939002E+006  0.2101119E+02  0.7546771E-02  0.1519105E+00
         21   -1    0    0  504  501  0.00000000000E+00  0.00000000000E+00  0.66996465980E+02  0.66996465980E+02  0.00000000000E+00 0.  1.
         21   -1    0    0  503  502 -0.00000000000E+00 -0.00000000000E+00 -0.11777114668E+02  0.11777114668E+02  0.00000000000E+00 0. -1.
         21    1    1    2  503  501  0.20918761350E+02 -0.19685927617E+01  0.53750365396E+02  0.57711105639E+02  0.00000000000E+00 0.  1.
         21    1    1    2  504  502 -0.20918761350E+02  0.19685927617E+01  0.14689859154E+01  0.21062475009E+02  0.00000000000E+00 0. -1.
</event>
<event>
 4    1  0.2939002E+006  0.2396320E+02  0.7546771E-02  0.1480745E+00
         21   -1    0    0  503  501  0.00000000000E+00  0.00000000000E+00  0.20360566451E+03  0.20360566451E+03  0.00000000000E+00 0.  1.
         21   -1    0    0  504  502 -0.00000000000E+00 -0.00000000000E+00 -0.28207433869E+01  0.28207433869E+01  0.00000000000E+00 0.  1.
         21    1    1    2  503  502  0.23512691189E+02 -0.46247437846E+01  0.10164388930E+03  0.10443043203E+03  0.00000000000E+00 0.  1.
         21    1    1    2  504  501 -0.23512691189E+02  0.46247437846E+01  0.99141031820E+02  0.10199597586E+03  0.00000000000E+00 0.  1.
</event>
<event>
 4    1  0.2939002E+006  0.2288005E+02  0.7546771E-02  0.1494010E+00
         21   -1    0    0  503  501  0.00000000000E+00  0.00000000000E+00  0.29335002881E+02  0.29335002881E+02  0.00000000000E+00 0. -1.
         21   -1    0    0  504  502 -0.00000000000E+00 -0.00000000000E+00 -0.32042120224E+02  0.32042120224E+02  0.00000000000E+00 0.  1.
         21    1    1    2  503  502 -0.16786270813E+02 -0.15547274091E+02  0.19073649011E+02  0.29787593156E+02  0.00000000000E+00 0. -1.
         21    1    1    2  504  501  0.16786270813E+02  0.15547274091E+02 -0.21780766354E+02  0.31589529949E+02  0.00000000000E+00 0.  1.
</event>
<event>
 4    1  0.2939002E+006  0.2048868E+02  0.7546771E-02  0.1526692E+00
         21   -1    0    0  502  501  0.00000000000E+00  0.00000000000E+00  0.36603927895E+02  0.36603927895E+02  0.00000000000E+00 0. -1.
         21   -1    0    0  504  502 -0.00000000000E+00 -0.00000000000E+00 -0.41391248296E+02  0.41391248296E+02  0.00000000000E+00 0.  1.
         21    1    1    2  503  501  0.13037940675E+02  0.15804996560E+02  0.30764122501E+02  0.36962373389E+02  0.00000000000E+00 0. -1.
         21    1    1    2  504  503 -0.13037940675E+02 -0.15804996560E+02 -0.35551442903E+02  0.41032802802E+02  0.00000000000E+00 0.  1.
</event>
<event>
 4    1  0.2939002E+006  0.2247472E+02  0.7546771E-02  0.1499202E+00
         21   -1    0    0  503  501  0.00000000000E+00  0.00000000000E+00  0.20322674077E+02  0.20322674077E+02  0.00000000000E+00 0. -1.
         21   -1    0    0  504  502 -0.00000000000E+00 -0.00000000000E+00 -0.48774068211E+02  0.48774068211E+02  0.00000000000E+00 0. -1.
         21    1    1    2  503  502 -0.10708846589E+02  0.19759388551E+02 -0.38419739918E+02  0.44510552081E+02  0.00000000000E+00 0. -1.
         21    1    1    2  504  501  0.10708846589E+02 -0.19759388551E+02  0.99683457839E+01  0.24586190206E+02  0.00000000000E+00 0. -1.
</event>
<event>
 4    1  0.2939002E+006  0.2667136E+02  0.7546771E-02  0.1450938E+00
         21   -1    0    0  503  501  0.00000000000E+00  0.00000000000E+00  0.45408125152E+02  0.45408125152E+02  0.00000000000E+00 0. -1.
         21   -1    0    0  504  502 -0.00000000000E+00 -0.00000000000E+00 -0.17266215920E+02  0.17266215920E+02  0.00000000000E+00 0. -1.
         21    1    1    2  503  502  0.19012021584E+02 -0.18705733633E+02  0.45307602269E+01  0.27053451235E+02  0.00000000000E+00 0. -1.
         21    1    1    2  504  501 -0.19012021584E+02  0.18705733633E+02  0.23611149004E+02  0.35620889837E+02  0.00000000000E+00 0. -1.
</event>
<event>
 4    1  0.2939002E+006  0.2167992E+02  0.7546771E-02  0.1509775E+00
         21   -1    0    0  503  501  0.00000000000E+00  0.00000000000E+00  0.95064389288E+01  0.95064389288E+01  0.00000000000E+00 0.  1.
         21   -1    0    0  501  502 -0.00000000000E+00 -0.00000000000E+00 -0.90197577441E+02  0.90197577441E+02  0.00000000000E+00 0.  1.
         21    1    1    2  503  504  0.42688382203E+01  0.21255495051E+02 -0.68353093844E+01  0.22731926975E+02  0.00000000000E+00 0.  1.
         21    1    1    2  504  502 -0.42688382203E+01 -0.21255495051E+02 -0.73855829128E+02  0.76972089395E+02  0.00000000000E+00 0.  1.
</event>
<event>
 4    1  0.2939002E+006  0.2251965E+02  0.7546771E-02  0.1498620E+00
         21   -1    0    0  504  501  0.00000000000E+00  0.00000000000E+00  0.14358763830E+03  0.14358763830E+03  0.00000000000E+00 0.  1.
         21   -1    0    0  503  502 -0.00000000000E+00 -0.00000000000E+00 -0.25579660013E+02  0.25579660013E+02  0.00000000000E+00 0. -1.
         21    1    1    2  503  501  0.17751337613E+02  0.13857295265E+02 -0.19523452008E+02  0.29804358698E+02  0.00000000000E+00 0. -1.
         21    1    1    2  504  502 -0.17751337613E+02 -0.13857295265E+02  0.13753143030E+03  0.13936293962E+03  0.00000000000E+00 0.  1.
</event>
<event>
 4    1  0.2939002E+006  0.2374648E+02  0.7546771E-02  0.1483331E+00
         21   -1    0    0  503  501  0.00000000000E+00  0.00000000000E+00  0.93056669188E+02  0.93056669188E+02  0.00000000000E+00 0.  1.
         21   -1    0    0  504  502 -0.00000000000E+00 -0.00000000000E+00 -0.99428631259E+01  0.99428631259E+01  0.00000000000E+00 0.  1.
         21    1    1    2  503  502  0.23634448948E+02 -0.23039763283E+01  0.73741075930E+02  0.77470263736E+02  0.00000000000E+00 0.  1.
         21    1    1    2  504  501 -0.23634448948E+02  0.23039763283E+01  0.93727301321E+01  0.25529268578E+02  0.00000000000E+00 0.  1.
</event>
<event>
 4    1  0.2939002E+006  0.2024328E+02  0.7546771E-02  0.1530349E+00
         21   -1    0    0  502  501  0.00000000000E+00  0.00000000000E+00  0.77057432352E+01  0.77057432352E+01  0.00000000000E+00 0.  1.
         21   -1    0    0  503  502 -0.00000000000E+00 -0.00000000000E+00 -0.74225661447E+02  0.74225661447E+02  0.00000000000E+00 0.  1.
         21    1    1    2  503  504  0.19276278932E+02 -0.61818658659E+01 -0.55073493360E+02  0.58676060416E+02  0.00000000000E+00 0.  1.
         21    1    1    2  504  501 -0.19276278932E+02  0.61818658659E+01 -0.11446424852E+02  0.23255344267E+02  0.00000000000E+00 0.  1.
</event>
<event>
 4    1  0.2939002E+006  0.2864626E+02  0.7546771E-02  0.1431737E+00
         21   -1    0    0  503  501  0.00000000000E+00  0.00000000000E+00  0.89150335602E+01  0.89150335602E+01  0.00000000000E+00 0. -1.
         21   -1    0    0  504  502 -0.00000000000E+00 -0.00000000000E+00 -0.25954445998E+03  0.25954445998E+03  0.00000000000E+00 0. -1.
         21    1    1    2  503  502 -0.13179286554E+02  0.25434517276E+02 -0.17483099393E+02  0.33559902078E+02  0.00000000000E+00 0. -1.
         21    1    1    2  504  501  0.13179286554E+02 -0.25434517276E+02 -0.23314632703E+03  0.23489959146E+03  0.00000000000E+00 0. -1.
</event>
<event>
 4    1  0.2939002E+006  0.2217935E+02  0.7546771E-02  0.1503068E+00
         21   -1    0    0  504  501  0.00000000000E+00  0.00000000000E+00  0.20908019480E+03  0.20908019480E+03  0.00000000000E+00 0. -1.
         21   -1    0    0  503  502 -0.00000000000E+00 -0.00000000000E+00 -0.32501885139E+01  0.32501885139E+01  0.00000000000E+00 0. -1.
         21    1    1    2  503  501 -0.12520679977E+02  0.18307272058E+02  0.47129878299E+02  0.52087897498E+02  0.00000000000E+00 0. -1.
         21    1    1    2  504  502  0.12520679977E+02 -0.18307272058E+02  0.15870012798E+03  0.16024248581E+03  0.00000000000E+00 0. -1.
</event>
<event>
 4    1  0.2939002E+006  0.2433103E+02  0.7546771E-02  0.1476428E+00
         21   -1    0    0  504  501  0.00000000000E+00  0.00000000000E+00  0.10749337466E+03  0.10749337466E+03  0.00000000000E+00 0. -1.
         21   -1    0    0  503  502 -0.00000000000E+00 -0.00000000000E+00 -0.60317351060E+01  0.60317351060E+01  0.00000000000E+00 0. -1.
         21    1    1    2  503  501  0.71720174325E+01 -0.23249967541E+02  0.33993553866E+02  0.41803833905E+02  0.00000000000E+00 0. -1.
         21    1    1    2  504  502 -0.71720174325E+01  0.23249967541E+02  0.67468085689E+02  0.71721275862E+02  0.00000000000E+00 0. -1.
</event>
<event>
 4    1  0.2939002E+006  0.3411380E+02  0.7546771E-02  0.1386903E+00
         21   -1    0    0  504  501  0.00000000000E+00  0.00000000000E+00  0.49514306610E+03  0.49514306610E+03  0.00000000000E+00 0.  1.
         21   -1    0    0  503  502 -0.00000000000E+00 -0.00000000000E+00 -0.55746453523E+01  0.55746453523E+01  0.00000000000E+00 0.  1.
         21    1    1    2  503  501  0.68657704311E+00 -0.34106894376E+02  0.54381636184E+02  0.64195903188E+02  0.00000000000E+00 0.  1.
         21    1    1    2  504  502 -0.68657704311E+00  0.34106894376E+02  0.43518678457E+03  0.43652180827E+03  0.00000000000E+00 0.  1.
</event>
<event>
 4    1  0.2939002E+006  0.3814851E+02  0.7546771E-02  0.1359691E+00
         21   -1    0    0  504  501  0.00000000000E+00  0.00000000000E+00  0.41925660279E+02  0.41925660279E+02  0.00000000000E+00 0.  1.
         21   -1    0    0  503  502 -0.00000000000E+00 -0.00000000000E+00 -0.34924312775E+02  0.34924312775E+02  0.00000000000E+00 0.  1.
         21    1    1    2  503  501  0.28957882852E+02 -0.24834453930E+02  0.50227224362E+00  0.38151819861E+02  0.00000000000E+00 0.  1.
         21    1    1    2  504  502 -0.28957882852E+02  0.24834453930E+02  0.64990752611E+01  0.38698153193E+02  0.00000000000E+00 0.  1.
</event>
<event>
 4    1  0.2939002E+006  0.2653566E+02  0.7546771E-02  0.1452329E+00
         21   -1    0    0  502  501  0.00000000000E+00  0.00000000000E+00  0.20265899580E+02  0.20265899580E+02  0.00000000000E+00 0. -1.
         21   -1    0    0  504  502 -0.00000000000E+00 -0.00000000000E+00 -0.22523982243E+03  0.22523982243E+03  0.00000000000E+00 0. -1.
         21    1    1    2  503  501  0.26503659809E+02  0.13027143488E+01  0.10401743260E+02  0.28501531727E+02  0.00000000000E+00 0. -1.
         21    1    1    2  504  503 -0.26503659809E+02 -0.13027143488E+01 -0.21537566611E+03  0.21700419028E+03  0.00000000000E+00 0. -1.
</event>
<event>
 4    1  0.2939002E+006  0.2867401E+02  0.7546771E-02  0.1431480E+00
         21   -1    0    0  504  501  0.00000000000E+00  0.00000000000E+00  0.64777356286E+02  0.64777356286E+02  0.00000000000E+00 0. -1.
         21   -1    0    0  501  502 -0.00000000000E+00 -0.00000000000E+00 -0.84875643853E+03  0.84875643853E+03  0.00000000000E+00 0.  1.
         21    1    1    2  503  502  0.73519350225E+01 -0.27715482094E+02 -0.84532822349E+03  0.84581440300E+03  0.00000000000E+00 0.  1.
         21    1    1    2  504  503 -0.73519350225E+01  0.27715482094E+02  0.61349141245E+02  0.67719391815E+02  0.00000000000E+00 0. -1.
</event>
<event>
 4    1  0.2939002E+006  0.3195340E+02  0.7546771E-02  0.1403348E+00
         21   -1    0    0  504  501  0.00000000000E+00  0.00000000000E+00  0.30008520389E+01  0.30008520389E+01  0.00000000000E+00 0.  1.
         21   -1    0    0  503  502 -0.00000000000E+00 -0.00000000000E+00 -0.71193854094E+03  0.71193854094E+03  0.00000000000E+00 0.  1.
         21    1    1    2  503  501 -0.16035247324E+02 -0.27638573392E+02 -0.96176543456E+02  0.10134568272E+03  0.00000000000E+00 0.  1.
         21    1    1    2  504  502  0.16035247324E+02  0.27638573392E+02 -0.61276114545E+03  0.61359371026E+03  0.00000000000E+00 0.  1.
</event>
<event>
 4    1  0.2939002E+006  0.2946521E+02  0.7546771E-02  0.1424301E+00
         21   -1    0    0  504  501  0.00000000000E+00  0.00000000000E+00  0.30121012467E+01  0.30121012467E+01  0.00000000000E+00 0. -1.
         21   -1    0    0  503  502 -0.00000000000E+00 -0.00000000000E+00 -0.30317734531E+03  0.30317734531E+03  0.00000000000E+00 0. -1.
         21    1    1    2  503  501 -0.12945040866E+02  0.26469311560E+02 -0.11609705432E+03  0.11977781330E+03  0.00000000000E+00 0. -1.
         21    1    1    2  504  502  0.12945040866E+02 -0.26469311560E+02 -0.18406818974E+03  0.18641163325E+03  0.00000000000E+00 0. -1.
</event>
<event>
 4    1  0.2939002E+006  0.3029981E+02  0.7546771E-02  0.1417009E+00
         21   -1    0    0  503  501  0.00000000000E+00  0.00000000000E+00  0.90693427130E+01  0.90693427130E+01  0.00000000000E+00 0.  1.
         21   -1    0    0  504  502 -0.00000000000E+00 -0.00000000000E+00 -0.12000160229E+03  0.12000160229E+03  0.00000000000E+00 0.  1.
         21    1    1    2  503  502 -0.13794975305E+02  0.26977349220E+02 -0.29940910595E+02  0.42597380693E+02  0.00000000000E+00 0.  1.
         21    1    1    2  504  501  0.13794975305E+02 -0.26977349220E+02 -0.80991348987E+02  0.86473564315E+02  0.00000000000E+00 0.  1.
</event>
<event>
 4    1  0.2939002E+006  0.3179804E+02  0.7546771E-02  0.1404589E+00
         21   -1    0    0  503  501  0.00000000000E+00  0.00000000000E+00  0.13325807415E+01  0.13325807415E+01  0.00000000000E+00 0.  1.
         21   -1    0    0  504  502 -0.00000000000E+00 -0.00000000000E+00 -0.15201847930E+04  0.15201847930E+04  0.00000000000E+00 0.  1.
         21    1    1    2  503  502 -0.29195288602E+02 -0.12599621413E+02 -0.12978333214E+04  0.12982228027E+04  0.00000000000E+00 0.  1.
         21    1    1    2  504  501  0.29195288602E+02  0.12599621413E+02 -0.22101889082E+03  0.22329457100E+03  0.00000000000E+00 0.  1.
</event>
<event>
 4    1  0.2939002E+006  0.3622057E+02  0.7546771E-02  0.1372179E+00
         21   -1    0    0  504  501  0.00000000000E+00  0.00000000000E+00  0.39543816403E+02  0.39543816403E+02  0.00000000000E+00 0.  1.
         21   -1    0    0  503  502 -0.00000000000E+00 -0.00000000000E+00 -0.33396781308E+02  0.33396781308E+02  0.00000000000E+00 0.  1.
         21    1    1    2  503  501 -0.12682702216E+02 -0.33927550869E+02  0.11229771117E+00  0.36220743425E+02  0.00000000000E+00 0.  1.
         21    1    1    2  504  502  0.12682702216E+02  0.33927550869E+02  0.60347373839E+01  0.36719854286E+02  0.00000000000E+00 0.  1.
</event>
<event>
 4    1  0.2939002E+006  0.2092208E+02  0.7546771E-02  0.1520380E+00
         21   -1    0    0  503  501  0.00000000000E+00  0.00000000000E+00  0.63754947054E+02  0.63754947054E+02  0.00000000000E+00 0. -1.
         21   -1    0    0  504  502 -0.00000000000E+00 -0.00000000000E+00 -0.10778854537E+02  0.10778854537E+02  0.00000000000E+00 0. -1.
         21    1    1    2  503  502  0.74105797159E+01  0.19565703103E+02  0.40341961646E+01  0.21307467431E+02  0.00000000000E+00 0. -1.
         21    1    1    2  504  501 -0.74105797159E+01 -0.19565703103E+02  0.48941896352E+02  0.53226334160E+02  0.00000000000E+00 0. -1.
</event>
<event>
 4    1  0.2939002E+006  0.2936520E+02  0.7546771E-02  0.1425194E+00
         21   -1    0    0  504  501  0.00000000000E+00  0.00000000000E+00  0.34346034559E+01  0.34346034559E+01  0.00000000000E+00 0. -1.
         21   -1    0    0  503  502 -0.00000000000E+00 -0.00000000000E+00 -0.25185821083E+03  0.25185821083E+03  0.00000000000E+00 0. -1.
         21    1    1    2  503  501 -0.23860795319E+02 -0.17116590903E+02 -0.11705688848E+03  0.12068401045E+03  0.00000000000E+00 0. -1.
         21    1    1    2  504  502  0.23860795319E+02  0.17116590903E+02 -0.13136671889E+03  0.13460880384E+03  0.00000000000E+00 0. -1.
</event>
<event>
 4    1  0.2939002E+006  0.2470093E+02  0.7546771E-02  0.1472177E+00
         21   -1    0    0  503  501  0.00000000000E+00  0.00000000000E+00  0.13882599890E+01  0.13882599890E+01  0.00000000000E+00 0.  1.
         21   -1    0    0  504  502 -0.00000000000E+00 -0.00000000000E+00 -0.44334846176E+03  0.44334846176E+03  0.00000000000E+00 0.  1.
         21    1    1    2  503  502 -0.67777043139E+00 -0.24691624557E+02 -0.20025342733E+03  0.20177108528E+03  0.00000000000E+00 0.  1.
         21    1    1    2  504  501  0.67777043139E+00  0.24691624557E+02 -0.24170677444E+03  0.24296563647E+03  0.00000000000E+00 0.  1.
</event>
