<event>
 4    1  0.2967296E+006  0.4281689E+02  0.7546771E-02  0.1332725E+00
         21   -1    0    0  503  501  0.00000000000E+00  0.00000000000E+00  0.24554656614E+01  0.24554656614E+01  0.00000000000E+00 0.  1.
         21   -1    0    0  504  502 -0.00000000000E+00 -0.00000000000E+00 -0.10625574519E+04  0.10625574519E+04  0.00000000000E+00 0.  1.
         21    1    1    2  503  502 -0.12399495607E+02 -0.40982168896E+02 -0.82042194955E+03  0.82153847200E+03  0.00000000000E+00 0.  1.
         21    1    1    2  504  501  0.12399495607E+02  0.40982168896E+02 -0.23968003671E+03  0.24347444559E+03  0.00000000000E+00 0.  1.
</event>
<event>
 4    1  0.2967296E+006  0.6713528E+02  0.7546771E-02  0.1237344E+00
         21   -1    0    0  502  501  0.00000000000E+00  0.00000000000E+00  0.37175611355E+03  0.37175611355E+03  0.00000000000E+00 0.  1.
         21   -1    0    0  504  502 -0.00000000000E+00 -0.00000000000E+00 -0.44472723441E+02  0.44472723441E+02  0.00000000000E+00 0. -1.
         21    1    1    2  503  501 -0.60473118373E+02 -0.29157295481E+02  0.34113596425E+03  0.34767929480E+03  0.00000000000E+00 0.  1.
         21    1    1    2  504  503  0.60473118373E+02  0.29157295481E+02 -0.13852574136E+02  0.68549542199E+02  0.00000000000E+00 0. -1.
</event>
<event>
 4    1  0.2967296E+006  0.2032441E+02  0.7546771E-02  0.1529133E+00
         21   -1    0    0  502  501  0.00000000000E+00  0.00000000000E+00  0.30358457168E+02  0.30358457168E+02  0.00000000000E+00 0.  1.
         21   -1    0    0  504  502 -0.00000000000E+00 -0.00000000000E+00 -0.39314122609E+02  0.39314122609E+02  0.00000000000E+00 0. -1.
         21    1    1    2  503  501  0.19115239765E+02 -0.69057509505E+01  0.23692108015E+02  0.31215345099E+02  0.00000000000E+00 0.  1.
         21    1    1    2  504  503 -0.19115239765E+02  0.69057509505E+01 -0.32647773455E+02  0.38457234678E+02  0.00000000000E+00 0. -1.
</event>
<event>
 4    1  0.2967296E+006  0.4452560E+02  0.7546771E-02  0.1323829E+00
         21   -1    0    0  504  501  0.00000000000E+00  0.00000000000E+00  0.15240919966E+02  0.15240919966E+02  0.00000000000E+00 0.  1.
         21   -1    0    0  503  502 -0.00000000000E+00 -0.00000000000E+00 -0.13394397152E+03  0.13394397152E+03  0.00000000000E+00 0.  1.
         21    1    1    2  503  501 -0.40497026771E+01 -0.44341049365E+02 -0.46681207431E+02  0.64510959362E+02  0.00000000000E+00 0.  1.
         21    1    1    2  504  502  0.40497026771E+01  0.44341049365E+02 -0.72021844125E+02  0.84673932126E+02  0.00000000000E+00 0.  1.
</event>
<event>
 4    1  0.2967296E+006  0.2049690E+02  0.7546771E-02  0.1526571E+00
         21   -1    0    0  504  501  0.00000000000E+00  0.00000000000E+00  0.10614489351E+02  0.10614489351E+02  0.00000000000E+00 0.  1.
         21   -1    0    0  503  502 -0.00000000000E+00 -0.00000000000E+00 -0.68699754420E+02  0.68699754420E+02  0.00000000000E+00 0. -1.
         21    1    1    2  503  501  0.14473060487E+02 -0.14513900324E+02 -0.54861461750E+02  0.58565371746E+02  0.00000000000E+00 0. -1.
         21    1    1    2  504  502 -0.14473060487E+02  0.14513900324E+02 -0.32238033196E+01  0.20748872025E+02  0.00000000000E+00 0.  1.
</event>
<event>
 4    1  0.2967296E+006  0.2623722E+02  0.7546771E-02  0.1455425E+00
         21   -1    0    0  502  501  0.00000000000E+00  0.00000000000E+00  0.12736074018E+02  0.12736074018E+02  0.00000000000E+00 0. -1.
         21   -1    0    0  503  502 -0.00000000000E+00 -0.00000000000E+00 -0.20979731506E+03  0.20979731506E+03  0.00000000000E+00 0. -1.
         21    1    1    2  503  504 -0.20232406600E+02  0.16704535772E+02 -0.19439885786E+03  0.19616143283E+03  0.00000000000E+00 0. -1.
         21    1    1    2  504  501  0.20232406600E+02 -0.16704535772E+02 -0.26623831818E+01  0.26371956249E+02  0.00000000000E+00 0. -1.
</event>
<event>
 4    1  0.2967296E+006  0.3082861E+02  0.7546771E-02  0.1412530E+00
         21   -1    0    0  504  501  0.00000000000E+00  0.00000000000E+00  0.43163883304E+01  0.43163883304E+01  0.00000000000E+00 0. -1.
         21   -1    0    0  501  502 -0.00000000000E+00 -0.00000000000E+00 -0.36422289367E+03  0.36422289367E+03  0.00000000000E+00 0.  1.
         21    1    1    2  503  502  0.27168162916E+02  0.14570312520E+02 -0.29583335187E+03  0.29743532938E+03  0.00000000000E+00 0.  1.
         21    1    1    2  504  503 -0.27168162916E+02 -0.14570312520E+02 -0.64073153473E+02  0.71103952626E+02  0.00000000000E+00 0. -1.
</event>
<event>
 4    1  0.2967296E+006  0.2208289E+02  0.7546771E-02  0.1504347E+00
         21   -1    0    0  503  501  0.00000000000E+00  0.00000000000E+00  0.29953858287E+00  0.29953858287E+00  0.00000000000E+00 0. -1.
         21   -1    0    0  504  502 -0.00000000000E+00 -0.00000000000E+00 -0.16357037869E+04  0.16357037869E+04  0.00000000000E+00 0. -1.
         21    1    1    2  503  502  0.74413086390E+01  0.20791362464E+02 -0.87377871531E+03  0.87405771958E+03  0.00000000000E+00 0. -1.
         21    1    1    2  504  501 -0.74413086390E+01 -0.20791362464E+02 -0.76162553303E+03  0.76194560593E+03  0.00000000000E+00 0. -1.
</event>
<event>
 4    1  0.2967296E+006  0.2232758E+02  0.7546771E-02  0.1501119E+00
         21   -1    0    0  503  501  0.00000000000E+00  0.00000000000E+00  0.10687718306E+03  0.10687718306E+03  0.00000000000E+00 0.  1.
         21   -1    0    0  504  502 -0.00000000000E+00 -0.00000000000E+00 -0.18884943862E+02  0.18884943862E+02  0.00000000000E+00 0.  1.
         21    1    1    2  503  502 -0.27363698988E+01  0.22159263187E+02  0.98561820940E+02  0.10105915699E+03  0.00000000000E+00 0.  1.
         21    1    1    2  504  501  0.27363698988E+01 -0.22159263187E+02 -0.10569581740E+02  0.24702969930E+02  0.00000000000E+00 0.  1.
</event>
<event>
 4    1  0.2967296E+006  0.2593164E+02  0.7546771E-02  0.1458646E+00
         21   -1    0    0  502  501  0.00000000000E+00  0.00000000000E+00  0.69480010697E+03  0.69480010697E+03  0.00000000000E+00 0.  1.
         21   -1    0    0  503  502 -0.00000000000E+00 -0.00000000000E+00 -0.10774493751E+01  0.10774493751E+01  0.00000000000E+00 0.  1.
         21    1    1    2  503  504  0.17549391084E+02  0.19091063164E+02  0.23588151966E+03  0.23730263618E+03  0.00000000000E+00 0.  1.
         21    1    1    2  504  501 -0.17549391084E+02 -0.19091063164E+02  0.45784113794E+03  0.45857492017E+03  0.00000000000E+00 0.  1.
</event>
<event>
 4    1  0.2967296E+006  0.3669709E+02  0.7546771E-02  0.1369009E+00
         21   -1    0    0  503  501  0.00000000000E+00  0.00000000000E+00  0.16302653084E+01  0.16302653084E+01  0.00000000000E+00 0.  1.
         21   -1    0    0  501  502 -0.00000000000E+00 -0.00000000000E+00 -0.16900888266E+04  0.16900888266E+04  0.00000000000E+00 0.  1.
         21    1    1    2  503  504  0.36579054614E+02  0.29409716788E+01 -0.23943071574E+03  0.24222663807E+03  0.00000000000E+00 0.  1.
         21    1    1    2  504  502 -0.36579054614E+02 -0.29409716788E+01 -0.14490278456E+04  0.14494924539E+04  0.00000000000E+00 0.  1.
</event>
<event>
 4    1  0.2967296E+006  0.3188350E+02  0.7546771E-02  0.1403905E+00
         21   -1    0    0  504  501  0.00000000000E+00  0.00000000000E+00  0.17126239168E+03  0.17126239168E+03  0.00000000000E+00 0.  1.
         21   -1    0    0  503  502 -0.00000000000E+00 -0.00000000000E+00 -0.32131116326E+02  0.32131116326E+02  0.00000000000E+00 0.  1.
         21    1    1    2  503  501  0.24903480332E+02 -0.19909145554E+02  0.16138981949E+03  0.16450906129E+03  0.00000000000E+00 0.  1.
         21    1    1    2  504  502 -0.24903480332E+02  0.19909145554E+02 -0.22258544140E+02  0.38884446718E+02  0.00000000000E+00 0.  1.
</event>
<event>
 4    1  0.2967296E+006  0.3740091E+02  0.7546771E-02  0.1364428E+00
         21   -1    0    0  503  501  0.00000000000E+00  0.00000000000E+00  0.28517273162E+03  0.28517273162E+03  0.00000000000E+00 0. -1.
         21   -1    0    0  504  502 -0.00000000000E+00 -0.00000000000E+00 -0.54832139003E+01  0.54832139003E+01  0.00000000000E+00 0. -1.
         21    1    1    2  503  502 -0.37399276274E+02  0.34974927936E+00  0.18702956795E+03  0.19073250242E+03  0.00000000000E+00 0. -1.
         21    1    1    2  504  501  0.37399276274E+02 -0.34974927936E+00  0.92659949763E+02  0.99923443097E+02  0.00000000000E+00 0. -1.
</event>
<event>
 4    1  0.2967296E+006  0.2185585E+02  0.7546771E-02  0.1507388E+00
         21   -1    0    0  504  501  0.00000000000E+00  0.00000000000E+00  0.30533759545E+03  0.30533759545E+03  0.00000000000E+00 0. -1.
         21   -1    0    0  501  502 -0.00000000000E+00 -0.00000000000E+00 -0.32322264807E+01  0.32322264807E+01  0.00000000000E+00 0.  1.
         21    1    1    2  503  502  0.55365088267E+01 -0.21142974688E+02  0.40225957091E+02  0.45779973050E+02  0.00000000000E+00 0.  1.
         21    1    1    2  504  503 -0.55365088267E+01  0.21142974688E+02  0.26187941187E+03  0.26278984888E+03  0.00000000000E+00 0. -1.
</event>
<event>
 4    1  0.2967296E+006  0.2083149E+02  0.7546771E-02  0.1521684E+00
         21   -1    0    0  504  501  0.00000000000E+00  0.00000000000E+00  0.15769103227E+03  0.15769103227E+03  0.00000000000E+00 0. -1.
         21   -1    0    0  503  502 -0.00000000000E+00 -0.00000000000E+00 -0.38528671113E+01  0.38528671113E+01  0.00000000000E+00 0. -1.
         21    1    1    2  503  501  0.64205060287E+01 -0.19817370523E+02  0.12009626739E+03  0.12188955867E+03  0.00000000000E+00 0. -1.
         21    1    1    2  504  502 -0.64205060287E+01  0.19817370523E+02  0.33741897767E+02  0.39654340708E+02  0.00000000000E+00 0. -1.
</event>
<event>
 4    1  0.2967296E+006  0.3210439E+02  0.7546771E-02  0.1402149E+00
         21   -1    0    0  504  501  0.00000000000E+00  0.00000000000E+00  0.49331200649E+02  0.49331200649E+02  0.00000000000E+00 0.  1.
         21   -1    0    0  503  502 -0.00000000000E+00 -0.00000000000E+00 -0.23351110073E+02  0.23351110073E+02  0.00000000000E+00 0.  1.
         21    1    1    2  503  501 -0.23799557723E+02  0.21546993676E+02  0.24780174642E+02  0.40555504430E+02  0.00000000000E+00 0.  1.
         21    1    1    2  504  502  0.23799557723E+02 -0.21546993676E+02  0.11999159336E+01  0.32126806292E+02  0.00000000000E+00 0.  1.
</event>
<event>
 4    1  0.2967296E+006  0.2028430E+02  0.7546771E-02  0.1529733E+00
         21   -1    0    0  504  501  0.00000000000E+00  0.00000000000E+00  0.22657071033E+02  0.22657071033E+02  0.00000000000E+00 0.  1.
         21   -1    0    0  503  502 -0.00000000000E+00 -0.00000000000E+00 -0.14408020005E+03  0.14408020005E+03  0.00000000000E+00 0.  1.
         21    1    1    2  503  501  0.18901188729E+02 -0.73619279450E+01  0.17226246888E+02  0.26611961601E+02  0.00000000000E+00 0.  1.
         21    1    1    2  504  502 -0.18901188729E+02  0.73619279450E+01 -0.13864937591E+03  0.14012530948E+03  0.00000000000E+00 0.  1.
</event>
<event>
 4    1  0.2967296E+006  0.2240113E+02  0.7546771E-02  0.1500158E+00
         21   -1    0    0  502  501  0.00000000000E+00  0.00000000000E+00  0.45672240176E+03  0.45672240176E+03  0.00000000000E+00 0. -1.
         21   -1    0    0  503  502 -0.00000000000E+00 -0.00000000000E+00 -0.14375933215E+01  0.14375933215E+01  0.00000000000E+00 0. -1.
         21    1    1    2  503  504 -0.22335287927E+02  0.17161979913E+01  0.11642127606E+03  0.11855683844E+03  0.00000000000E+00 0. -1.
         21    1    1    2  504  501  0.22335287927E+02 -0.17161979913E+01  0.33886353238E+03  0.33960315664E+03  0.00000000000E+00 0. -1.
</event>
<event>
 4    1  0.2967296E+006  0.2105521E+02  0.7546771E-02  0.1518478E+00
         21   -1    0    0  503  501  0.00000000000E+00  0.00000000000E+00  0.31860337361E+03  0.31860337361E+03  0.00000000000E+00 0.  1.
         21   -1    0    0  504  502 -0.00000000000E+00 -0.00000000000E+00 -0.17626460520E+01  0.17626460520E+01  0.00000000000E+00 0.  1.
         21    1    1    2  503  502 -0.19132782087E+02 -0.87896758664E+01  0.23192818831E+03  0.23288195784E+03  0.00000000000E+00 0.  1.
         21    1    1    2  504  501  0.19132782087E+02  0.87896758664E+01  0.84912539243E+02  0.87484061822E+02  0.00000000000E+00 0.  1.
</event>
<event>
 4    1  0.2967296E+006  0.2538483E+02  0.7546771E-02  0.1464544E+00
         21   -1    0    0  503  501  0.00000000000E+00  0.00000000000E+00  0.31082835627E+01  0.31082835627E+01  0.00000000000E+00 0.  1.
         21   -1    0    0  504  502 -0.00000000000E+00 -0.00000000000E+00 -0.22413072907E+03  0.22413072907E+03  0.00000000000E+00 0. -1.
         21    1    1    2  503  502 -0.15994237344E+02  0.19712277942E+02 -0.79388483487E+02  0.83348190384E+02  0.00000000000E+00 0.  1.
         21    1    1    2  504  501  0.15994237344E+02 -0.19712277942E+02 -0.14163396202E+03  0.14389082225E+03  0.00000000000E+00 0. -1.
</event>
<event>
 4    1  0.2967296E+006  0.2015611E+02  0.7546771E-02  0.1531663E+00
         21   -1    0    0  504  501  0.00000000000E+00  0.00000000000E+00  0.23387322123E+02  0.23387322123E+02  0.00000000000E+00 0.  1.
         21   -1    0    0  503  502 -0.00000000000E+00 -0.00000000000E+00 -0.17864908148E+02  0.17864908148E+02  0.00000000000E+00 0.  1.
         21    1    1    2  503  501 -0.12354182215E+02  0.15926171779E+02  0.61896532849E+01  0.21085079405E+02  0.00000000000E+00 0.  1.
         21    1    1    2  504  502  0.12354182215E+02 -0.15926171779E+02 -0.66723930950E+00  0.20167150865E+02  0.00000000000E+00 0.  1.
</event>
<event>
 4    1  0.2967296E+006  0.2271847E+02  0.7546771E-02  0.1496064E+00
         21   -1    0    0  504  501  0.00000000000E+00  0.00000000000E+00  0.99592080429E+02  0.99592080429E+02  0.00000000000E+00 0. -1.
         21   -1    0    0  501  502 -0.00000000000E+00 -0.00000000000E+00 -0.33006089870E+02  0.33006089870E+02  0.00000000000E+00 0. -1.
         21    1    1    2  503  502  0.22718065868E+02 -0.13573706898E+00 -0.27579012703E+02  0.35731371132E+02  0.00000000000E+00 0. -1.
         21    1    1    2  504  503 -0.22718065868E+02  0.13573706898E+00  0.94165003262E+02  0.96866799166E+02  0.00000000000E+00 0. -1.
</event>
<event>
 4    1  0.2967296E+006  0.2003706E+02  0.7546771E-02  0.1533470E+00
         21   -1    0    0  502  501  0.00000000000E+00  0.00000000000E+00  0.10648263708E+02  0.10648263708E+02  0.00000000000E+00 0.  1.
         21   -1    0    0  504  502 -0.00000000000E+00 -0.00000000000E+00 -0.14510954234E+03  0.14510954234E+03  0.00000000000E+00 0. -1.
         21    1    1    2  503  501 -0.14464812689E+02  0.13865533726E+02 -0.22908720137E+00  0.20038371007E+02  0.00000000000E+00 0.  1.
         21    1    1    2  504  503  0.14464812689E+02 -0.13865533726E+02 -0.13423219143E+03  0.13571943504E+03  0.00000000000E+00 0. -1.
</event>
<event>
 4    1  0.2967296E+006  0.2365917E+02  0.7546771E-02  0.1484383E+00
         21   -1    0    0  504  501  0.00000000000E+00  0.00000000000E+00  0.46494338964E+02  0.46494338964E+02  0.00000000000E+00 0.  1.
         21   -1    0    0  503  502 -0.00000000000E+00 -0.00000000000E+00 -0.29581322381E+02  0.29581322381E+02  0.00000000000E+00 0.  1.
         21    1    1    2  503  501  0.16800751577E+02  0.16658064961E+02 -0.20835392503E+02  0.31525703205E+02  0.00000000000E+00 0.  1.
         21    1    1    2  504  502 -0.16800751577E+02 -0.16658064961E+02  0.37748409086E+02  0.44549958140E+02  0.00000000000E+00 0.  1.
</event>
<event>
 4    1  0.2967296E+006  0.2188153E+02  0.7546771E-02  0.1507042E+00
         21   -1    0    0  502  501  0.00000000000E+00  0.00000000000E+00  0.10229877531E+02  0.10229877531E+02  0.00000000000E+00 0. -1.
         21   -1    0    0  503  502 -0.00000000000E+00 -0.00000000000E+00 -0.46912814433E+02  0.46912814433E+02  0.00000000000E+00 0. -1.
         21    1    1    2  503  504  0.67592757077E+01  0.20811381493E+02 -0.19716126759E+02  0.29453812353E+02  0.00000000000E+00 0. -1.
         21    1    1    2  504  501 -0.67592757077E+01 -0.20811381493E+02 -0.16966810143E+02  0.27688879612E+02  0.00000000000E+00 0. -1.
</event>
<event>
 4    1  0.2967296E+006  0.2124975E+02  0.7546771E-02  0.1515729E+00
         21   -1    0    0  503  501  0.00000000000E+00  0.00000000000E+00  0.44884169144E+01  0.44884169144E+01  0.00000000000E+00 0.  1.
         21   -1    0    0  501  502 -0.00000000000E+00 -0.00000000000E+00 -0.35325688843E+03  0.35325688843E+03  0.00000000000E+00 0.  1.
         21    1    1    2  503  504 -0.21243477957E+02  0.51617443988E+00 -0.23111404686E+02  0.31395681524E+02  0.00000000000E+00 0.  1.
         21    1    1    2  504  502  0.21243477957E+02 -0.51617443988E+00 -0.32565706683E+03  0.32634962382E+03  0.00000000000E+00 0.  1.
</event>
<event>
 4    1  0.2967296E+006  0.2830035E+02  0.7546771E-02  0.1434966E+00
         21   -1    0    0  504  501  0.00000000000E+00  0.00000000000E+00  0.23864578035E+02  0.23864578035E+02  0.00000000000E+00 0. -1.
         21   -1    0    0  503  502 -0.00000000000E+00 -0.00000000000E+00 -0.23131684343E+03  0.23131684343E+03  0.00000000000E+00 0. -1.
         21    1    1    2  503  501 -0.14344636296E+02  0.24395512489E+02 -0.22169856320E+03  0.22349756720E+03  0.00000000000E+00 0. -1.
         21    1    1    2  504  502  0.14344636296E+02 -0.24395512489E+02  0.14246297803E+02  0.31683854266E+02  0.00000000000E+00 0. -1.
</event>
<event>
 4    1  0.2967296E+006  0.2130813E+02  0.7546771E-02  0.1514911E+00
         21   -1    0    0  503  501  0.00000000000E+00  0.00000000000E+00  0.35062676345E+03  0.35062676345E+03  0.00000000000E+00 0.  1.
         21   -1    0    0  504  502 -0.00000000000E+00 -0.00000000000E+00 -0.14335089415E+01  0.14335089415E+01  0.00000000000E+00 0. -1.
         21    1    1    2  503  502 -0.82727914770E+00 -0.21292065251E+02  0.11986498410E+03  0.12174420252E+03  0.00000000000E+00 0.  1.
         21    1    1    2  504  501  0.82727914770E+00  0.21292065251E+02  0.22932827041E+03  0.23031606988E+03  0.00000000000E+00 0. -1.
</event>
<event>
 4    1  0.2967296E+006  0.2409484E+02  0.7546771E-02  0.1479189E+00
         21   -1    0    0  502  501  0.00000000000E+00  0.00000000000E+00  0.17749339861E+04  0.17749339861E+04  0.00000000000E+00 0. -1.
         21   -1    0    0  504  502 -0.00000000000E+00 -0.00000000000E+00 -0.78496317937E+00  0.78496317937E+00  0.00000000000E+00 0. -1.
         21    1    1    2  503  501 -0.11884428960E+02 -0.20960006097E+02  0.15651727778E+04  0.15653582293E+04  0.00000000000E+00 0. -1.
         21    1    1    2  504  503  0.11884428960E+02  0.20960006097E+02  0.20897624504E+03  0.21036071995E+03  0.00000000000E+00 0. -1.
</event>
<event>
 4    1  0.2967296E+006  0.2108173E+02  0.7546771E-02  0.1518101E+00
         21   -1    0    0  503  501  0.00000000000E+00  0.00000000000E+00  0.69755282392E+01  0.69755282392E+01  0.00000000000E+00 0.  1.
         21   -1    0    0  504  502 -0.00000000000E+00 -0.00000000000E+00 -0.12212593931E+03  0.12212593931E+03  0.00000000000E+00 0.  1.
         21    1    1    2  503  502 -0.15337970876E+02 -0.14463270485E+02 -0.12932794221E+02  0.24732503110E+02  0.00000000000E+00 0.  1.
         21    1    1    2  504  501  0.15337970876E+02  0.14463270485E+02 -0.10221761685E+03  0.10436896444E+03  0.00000000000E+00 0.  1.
</event>
<event>
 4    1  0.2967296E+006  0.2013964E+02  0.7546771E-02  0.1531912E+00
         21   -1    0    0  504  501  0.00000000000E+00  0.00000000000E+00  0.83956255003E+01  0.83956255003E+01  0.00000000000E+00 0.  1.
         21   -1    0    0  501  502 -0.00000000000E+00 -0.00000000000E+00 -0.19828631787E+03  0.19828631787E+03  0.00000000000E+00 0.  1.
         21    1    1    2  503  502 -0.18178841542E+02  0.86680389207E+01 -0.18481961137E+03  0.18591367332E+03  0.00000000000E+00 0.  1.
         21    1    1    2  504  503  0.18178841542E+02 -0.86680389207E+01 -0.50710809977E+01  0.20768270053E+02  0.00000000000E+00 0.  1.
</event>
<event>
 4    1  0.2967296E+006  0.4408242E+02  0.7546771E-02  0.1326092E+00
         21   -1    0    0  504  501  0.00000000000E+00  0.00000000000E+00  0.26204324825E+01  0.26204324825E+01  0.00000000000E+00 0. -1.
         21   -1    0    0  501  502 -0.00000000000E+00 -0.00000000000E+00 -0.29668217644E+04  0.29668217644E+04  0.00000000000E+00 0. -1.
         21    1    1    2  503  502 -0.38356834700E+02 -0.21725855996E+02 -0.27679431788E+04  0.27682941861E+04  0.00000000000E+00 0. -1.
         21    1    1    2  504  503  0.38356834700E+02  0.21725855996E+02 -0.19625815311E+03  0.20114801080E+03  0.00000000000E+00 0. -1.
</event>
<event>
 4    1  0.2967296E+006  0.2098063E+02  0.7546771E-02  0.1519542E+00
         21   -1    0    0  503  501  0.00000000000E+00  0.00000000000E+00  0.28863277782E+03  0.28863277782E+03  0.00000000000E+00 0.  1.
         21   -1    0    0  501  502 -0.00000000000E+00 -0.00000000000E+00 -0.15336213596E+01  0.15336213596E+01  0.00000000000E+00 0. -1.
         21    1    1    2  503  504  0.11076974003E+02  0.17818175837E+02  0.15437984076E+03  0.15579897938E+03  0.00000000000E+00 0.  1.
         21    1    1    2  504  502 -0.11076974003E+02 -0.17818175837E+02  0.13271931570E+03  0.13436741980E+03  0.00000000000E+00 0. -1.
</event>
<event>
 4    1  0.2967296E+006  0.2046730E+02  0.7546771E-02  0.1527008E+00
         21   -1    0    0  502  501  0.00000000000E+00  0.00000000000E+00  0.13926658049E+03  0.13926658049E+03  0.00000000000E+00 0.  1.
         21   -1    0    0  503  502 -0.00000000000E+00 -0.00000000000E+00 -0.69552264074E+01  0.69552264074E+01  0.00000000000E+00 0.  1.
         21    1    1    2  503  504  0.13739787777E+02 -0.15169985905E+02  0.11078208782E+02  0.23273094989E+02  0.00000000000E+00 0.  1.
         21    1    1    2  504  501 -0.13739787777E+02  0.15169985905E+02  0.12123314530E+03  0.12294871191E+03  0.00000000000E+00 0.  1.
</event>
<event>
 4    1  0.2967296E+006  0.2139286E+02  0.7546771E-02  0.1513729E+00
         21   -1    0    0  504  501  0.00000000000E+00  0.00000000000E+00  0.71344895863E+02  0.71344895863E+02  0.00000000000E+00 0. -1.
         21   -1    0    0  503  502 -0.00000000000E+00 -0.00000000000E+00 -0.35001035267E+02  0.35001035267E+02  0.00000000000E+00 0. -1.
         21    1    1    2  503  501  0.21384203356E+02  0.60848356879E+00 -0.29882104622E+02  0.36750436488E+02  0.00000000000E+00 0. -1.
         21    1    1    2  504  502 -0.21384203356E+02 -0.60848356879E+00  0.66225965218E+02  0.69595494642E+02  0.00000000000E+00 0. -1.
</event>
<event>
 4    1  0.2967296E+006  0.2388484E+02  0.7546771E-02  0.1481676E+00
         21   -1    0    0  502  501  0.00000000000E+00  0.00000000000E+00  0.74634252061E+02  0.74634252061E+02  0.00000000000E+00 0.  1.
         21   -1    0    0  504  502 -0.00000000000E+00 -0.00000000000E+00 -0.21881314281E+03  0.21881314281E+03  0.00000000000E+00 0.  1.
         21    1    1    2  503  501 -0.23628037671E+02  0.34930707525E+01  0.72048738044E+02  0.75904587221E+02  0.00000000000E+00 0.  1.
         21    1    1    2  504  503  0.23628037671E+02 -0.34930707525E+01 -0.21622762879E+03  0.21754280765E+03  0.00000000000E+00 0.  1.
</event>
<event>
 4    1  0.2967296E+006  0.3912791E+02  0.7546771E-02  0.1353673E+00
         21   -1    0    0  504  501  0.00000000000E+00  0.00000000000E+00  0.48869726213E+01  0.48869726213E+01  0.00000000000E+00 0. -1.
         21   -1    0    0  503  502 -0.00000000000E+00 -0.00000000000E+00 -0.51228895583E+03  0.51228895583E+03  0.00000000000E+00 0. -1.
         21    1    1    2  503  501 -0.37464169854E+02  0.11288454315E+02 -0.41487187117E+03  0.41671292602E+03  0.00000000000E+00 0. -1.
         21    1    1    2  504  502  0.37464169854E+02 -0.11288454315E+02 -0.92530112039E+02  0.10046300243E+03  0.00000000000E+00 0. -1.
</event>
<event>
 4    1  0.2967296E+006  0.2262126E+02  0.7546771E-02  0.1497310E+00
         21   -1    0    0  503  501  0.00000000000E+00  0.00000000000E+00  0.11420995769E+03  0.11420995769E+03  0.00000000000E+00 0.  1.
         21   -1    0    0  504  502 -0.00000000000E+00 -0.00000000000E+00 -0.17923915052E+02  0.17923915052E+02  0.00000000000E+00 0.  1.
         21    1    1    2  503  502  0.10823957240E+00 -0.22620998005E+02  0.10535961924E+03  0.10776071006E+03  0.00000000000E+00 0.  1.
         21    1    1    2  504  501 -0.10823957240E+00  0.22620998005E+02 -0.90735766039E+01  0.24373162678E+02  0.00000000000E+00 0.  1.
</event>
<event>
 4    1  0.2967296E+006  0.2004827E+02  0.7546771E-02  0.1533299E+00
         21   -1    0    0  504  501  0.00000000000E+00  0.00000000000E+00  0.18771086069E+03  0.18771086069E+03  0.00000000000E+00 0.  1.
         21   -1    0    0  501  502 -0.00000000000E+00 -0.00000000000E+00 -0.71758480937E+03  0.71758480937E+03  0.00000000000E+00 0. -1.
         21    1    1    2  503  502  0.19029925930E+02 -0.63083404666E+01 -0.71690896596E+03  0.71718923494E+03  0.00000000000E+00 0. -1.
         21    1    1    2  504  503 -0.19029925930E+02  0.63083404666E+01  0.18703501728E+03  0.18810643511E+03  0.00000000000E+00 0.  1.
</event>
<event>
 4    1  0.2967296E+006  0.2476859E+02  0.7546771E-02  0.1471409E+00
         21   -1    0    0  503  501  0.00000000000E+00  0.00000000000E+00  0.21858479661E+03  0.21858479661E+03  0.00000000000E+00 0.  1.
         21   -1    0    0  504  502 -0.00000000000E+00 -0.00000000000E+00 -0.44631112514E+01  0.44631112514E+01  0.00000000000E+00 0. -1.
         21    1    1    2  503  502  0.16233723750E+02  0.18706930349E+02  0.39117840328E+02  0.46299983389E+02  0.00000000000E+00 0. -1.
         21    1    1    2  504  501 -0.16233723750E+02 -0.18706930349E+02  0.17500384503E+03  0.17674792447E+03  0.00000000000E+00 0.  1.
</event>
<event>
 4    1  0.2967296E+006  0.2240278E+02  0.7546771E-02  0.1500137E+00
         21   -1    0    0  502  501  0.00000000000E+00  0.00000000000E+00  0.18054097623E+03  0.18054097623E+03  0.00000000000E+00 0.  1.
         21   -1    0    0  504  502 -0.00000000000E+00 -0.00000000000E+00 -0.27917342883E+01  0.27917342883E+01  0.00000000000E+00 0.  1.
         21    1    1    2  503  501 -0.15043730964E+02 -0.16600316838E+02  0.82904318552E+02  0.85877880709E+02  0.00000000000E+00 0.  1.
         21    1    1    2  504  503  0.15043730964E+02  0.16600316838E+02  0.94844923387E+02  0.97454829807E+02  0.00000000000E+00 0.  1.
</event>
<event>
 4    1  0.2967296E+006  0.2497941E+02  0.7546771E-02  0.1469034E+00
         21   -1    0    0  503  501  0.00000000000E+00  0.00000000000E+00  0.37692899680E+02  0.37692899680E+02  0.00000000000E+00 0.  1.
         21   -1    0    0  504  502 -0.00000000000E+00 -0.00000000000E+00 -0.41480101581E+02  0.41480101581E+02  0.00000000000E+00 0. -1.
         21    1    1    2  503  502 -0.22214722671E+02 -0.11422663255E+02 -0.32580550700E+02  0.41054395905E+02  0.00000000000E+00 0. -1.
         21    1    1    2  504  501  0.22214722671E+02  0.11422663255E+02  0.28793348800E+02  0.38118605356E+02  0.00000000000E+00 0.  1.
</event>
<event>
 4    1  0.2967296E+006  0.8788575E+02  0.7546771E-02  0.1186636E+00
         21   -1    0    0  503  501  0.00000000000E+00  0.00000000000E+00  0.39644709841E+02  0.39644709841E+02  0.00000000000E+00 0.  1.
         21   -1    0    0  504  502 -0.00000000000E+00 -0.00000000000E+00 -0.77653016867E+03  0.77653016867E+03  0.00000000000E+00 0.  1.
         21    1    1    2  503  502  0.34254871120E+02  0.80935212330E+02 -0.15239754366E+02  0.89197280808E+02  0.00000000000E+00 0.  1.
         21    1    1    2  504  501 -0.34254871120E+02 -0.80935212330E+02 -0.72164570446E+03  0.72697759770E+03  0.00000000000E+00 0.  1.
</event>
<event>
 4    1  0.2967296E+006  0.2473730E+02  0.7546771E-02  0.1471764E+00
         21   -1    0    0  504  501  0.00000000000E+00  0.00000000000E+00  0.26684928886E+03  0.26684928886E+03  0.00000000000E+00 0. -1.
         21   -1    0    0  501  502 -0.00000000000E+00 -0.00000000000E+00 -0.39587190121E+01  0.39587190121E+01  0.00000000000E+00 0. -1.
         21    1    1    2  503  502 -0.15014189326E+02 -0.19659805377E+02  0.43617609283E+02  0.50144089064E+02  0.00000000000E+00 0. -1.
         21    1    1    2  504  503  0.15014189326E+02  0.19659805377E+02  0.21927296057E+03  0.22066391881E+03  0.00000000000E+00 0. -1.
</event>
<event>
 4    1  0.2967296E+006  0.7116549E+02  0.7546771E-02  0.1225991E+00
         21   -1    0    0  503  501  0.00000000000E+00  0.00000000000E+00  0.33966818502E+02  0.33966818502E+02  0.00000000000E+00 0. -1.
         21   -1    0    0  504  502 -0.00000000000E+00 -0.00000000000E+00 -0.15908205066E+03  0.15908205066E+03  0.00000000000E+00 0.  1.
         21    1    1    2  503  502 -0.53471434673E+02 -0.46960962706E+02 -0.86733889106E+02  0.11219310970E+03  0.00000000000E+00 0.  1.
         21    1    1    2  504  501  0.53471434673E+02  0.46960962706E+02 -0.38381343055E+02  0.80855759467E+02  0.00000000000E+00 0. -1.
</event>
<event>
 4    1  0.2967296E+006  0.4855277E+02  0.7546771E-02  0.1304572E+00
         21   -1    0    0  504  501  0.00000000000E+00  0.00000000000E+00  0.30624315080E+03  0.30624315080E+03  0.00000000000E+00 0. -1.
         21   -1    0    0  503  502 -0.00000000000E+00 -0.00000000000E+00 -0.84098904801E+01  0.84098904801E+01  0.00000000000E+00 0. -1.
         21    1    1    2  503  501  0.34261592567E+02  0.34402243613E+02  0.19469935904E+03  0.20066193336E+03  0.00000000000E+00 0. -1.
         21    1    1    2  504  502 -0.34261592567E+02 -0.34402243613E+02  0.10313390129E+03  0.11399110792E+03  0.00000000000E+00 0. -1.
</event>
<event>
 4    1  0.2967296E+006  0.2083020E+02  0.7546771E-02  0.1521703E+00
         21   -1    0    0  504  501  0.00000000000E+00  0.00000000000E+00  0.12648890333E+02  0.12648890333E+02  0.00000000000E+00 0. -1.
         21   -1    0    0  503  502 -0.00000000000E+00 -0.00000000000E+00 -0.44836813463E+02  0.44836813463E+02  0.00000000000E+00 0. -1.
         21    1    1    2  503  501 -0.15648750343E+02  0.13748237425E+02 -0.21623560574E+01  0.20942139416E+02  0.00000000000E+00 0. -1.
         21    1    1    2  504  502  0.15648750343E+02 -0.13748237425E+02 -0.30025567072E+02  0.36543564380E+02  0.00000000000E+00 0. -1.
</event>
<event>
 4    1  0.2967296E+006  0.2220939E+02  0.7546771E-02  0.1502672E+00
         21   -1    0    0  504  501  0.00000000000E+00  0.00000000000E+00  0.94796262059E+01  0.94796262059E+01  0.00000000000E+00 0. -1.
         21   -1    0    0  503  502 -0.00000000000E+00 -0.00000000000E+00 -0.58367159232E+02  0.58367159232E+02  0.00000000000E+00 0. -1.
         21    1    1    2  503  501 -0.20830535369E+02  0.77036261285E+01 -0.35618732800E+02  0.41975602266E+02  0.00000000000E+00 0. -1.
         21    1    1    2  504  502  0.20830535369E+02 -0.77036261285E+01 -0.13268800226E+02  0.25871183172E+02  0.00000000000E+00 0. -1.
</event>
<event>
 4    1  0.2967296E+006  0.2776181E+02  0.7546771E-02  0.1440102E+00
         21   -1    0    0  503  501  0.00000000000E+00  0.00000000000E+00  0.83019262337E+02  0.83019262337E+02  0.00000000000E+00 0.  1.
         21   -1    0    0  504  502 -0.00000000000E+00 -0.00000000000E+00 -0.99349166364E+01  0.99349166364E+01  0.00000000000E+00 0.  1.
         21    1    1    2  503  502  0.15676233358E+02  0.22912301898E+02  0.24642037394E+02  0.37120720325E+02  0.00000000000E+00 0.  1.
         21    1    1    2  504  501 -0.15676233358E+02 -0.22912301898E+02  0.48442308307E+02  0.55833458648E+02  0.00000000000E+00 0.  1.
</event>
<event>
 4    1  0.2967296E+006  0.2062664E+02  0.7546771E-02  0.1524663E+00
         21   -1    0    0  502  501  0.00000000000E+00  0.00000000000E+00  0.27862037070E+02  0.27862037070E+02  0.00000000000E+00 0. -1.
         21   -1    0    0  503  502 -0.00000000000E+00 -0.00000000000E+00 -0.20308928276E+03  0.20308928276E+03  0.00000000000E+00 0. -1.
         21    1    1    2  503  504 -0.25083737796E+01 -0.20473548253E+02 -0.19866318208E+03  0.19973111433E+03  0.00000000000E+00 0. -1.
         21    1    1    2  504  501  0.25083737796E+01  0.20473548253E+02  0.23435936390E+02  0.31220205502E+02  0.00000000000E+00 0. -1.
</event>
<event>
 4    1  0.2967296E+006  0.2352923E+02  0.7546771E-02  0.1485957E+00
         21   -1    0    0  503  501  0.00000000000E+00  0.00000000000E+00  0.19006470725E+02  0.19006470725E+02  0.00000000000E+00 0. -1.
         21   -1    0    0  504  502 -0.00000000000E+00 -0.00000000000E+00 -0.60491796727E+02  0.60491796727E+02  0.00000000000E+00 0.  1.
         21    1    1    2  503  502  0.23523195324E+02 -0.53264826183E+00 -0.49364157125E+02  0.54684956260E+02  0.00000000000E+00 0.  1.
         21    1    1    2  504  501 -0.23523195324E+02  0.53264826183E+00  0.78788311238E+01  0.24813311192E+02  0.00000000000E+00 0. -1.
</event>
<event>
 4    1  0.2967296E+006  0.3187434E+02  0.7546771E-02  0.1403979E+00
         21   -1    0    0  504  501  0.00000000000E+00  0.00000000000E+00  0.50101362167E+02  0.50101362167E+02  0.00000000000E+00 0. -1.
         21   -1    0    0  501  502 -0.00000000000E+00 -0.00000000000E+00 -0.71536626972E+02  0.71536626972E+02  0.00000000000E+00 0.  1.
         21    1    1    2  503  502 -0.20301720835E+02  0.24572614558E+02 -0.62199818892E+02  0.69891277891E+02  0.00000000000E+00 0.  1.
         21    1    1    2  504  503  0.20301720835E+02 -0.24572614558E+02  0.40764554087E+02  0.51746711248E+02  0.00000000000E+00 0. -1.
</event>
<event>
 4    1  0.2967296E+006  0.2005923E+02  0.7546771E-02  0.1533132E+00
         21   -1    0    0  504  501  0.00000000000E+00  0.00000000000E+00  0.29134356847E+02  0.29134356847E+02  0.00000000000E+00 0.  1.
         21   -1    0    0  501  502 -0.00000000000E+00 -0.00000000000E+00 -0.23833221568E+02  0.23833221568E+02  0.00000000000E+00 0.  1.
         21    1    1    2  503  502  0.17165421631E+02  0.10378874003E+02 -0.14523459430E+02  0.24764967175E+02  0.00000000000E+00 0.  1.
         21    1    1    2  504  503 -0.17165421631E+02 -0.10378874003E+02  0.19824594709E+02  0.28202611240E+02  0.00000000000E+00 0.  1.
</event>
<event>
 4    1  0.2967296E+006  0.2112062E+02  0.7546771E-02  0.1517550E+00
         21   -1    0    0  503  501  0.00000000000E+00  0.00000000000E+00  0.17429182392E+02  0.17429182392E+02  0.00000000000E+00 0.  1.
         21   -1    0    0  501  502 -0.00000000000E+00 -0.00000000000E+00 -0.60513003349E+02  0.60513003349E+02  0.00000000000E+00 0. -1.
         21    1    1    2  503  504  0.21094802472E+02 -0.10439258011E+01  0.80620538357E+01  0.22607016266E+02  0.00000000000E+00 0.  1.
         21    1    1    2  504  502 -0.21094802472E+02  0.10439258011E+01 -0.51145874793E+02  0.55335169474E+02  0.00000000000E+00 0. -1.
</event>
<event>
 4    1  0.2967296E+006  0.2295611E+02  0.7546771E-02  0.1493050E+00
         21   -1    0    0  503  501  0.00000000000E+00  0.00000000000E+00  0.27761066501E+02  0.27761066501E+02  0.00000000000E+00 0. -1.
         21   -1    0    0  504  502 -0.00000000000E+00 -0.00000000000E+00 -0.20633040639E+02  0.20633040639E+02  0.00000000000E+00 0. -1.
         21    1    1    2  503  502  0.65542329585E-01 -0.22956019324E+02  0.10407112655E+02  0.25204981905E+02  0.00000000000E+00 0. -1.
         21    1    1    2  504  501 -0.65542329585E-01  0.22956019324E+02 -0.32790867928E+01  0.23189125236E+02  0.00000000000E+00 0. -1.
</event>
<event>
 4    1  0.2967296E+006  0.2129150E+02  0.7546771E-02  0.1515143E+00
         21   -1    0    0  503  501  0.00000000000E+00  0.00000000000E+00  0.22988227219E+03  0.22988227219E+03  0.00000000000E+00 0. -1.
         21   -1    0    0  504  502 -0.00000000000E+00 -0.00000000000E+00 -0.27431471876E+01  0.27431471876E+01  0.00000000000E+00 0. -1.
         21    1    1    2  503  502 -0.13652340634E+02 -0.16338347635E+02  0.51899973746E+02  0.56097551489E+02  0.00000000000E+00 0. -1.
         21    1    1    2  504  501  0.13652340634E+02  0.16338347635E+02  0.17523915126E+03  0.17652786789E+03  0.00000000000E+00 0. -1.
</event>
<event>
 4    1  0.2967296E+006  0.2241753E+02  0.7546771E-02  0.1499945E+00
         21   -1    0    0  503  501  0.00000000000E+00  0.00000000000E+00  0.16543752843E+03  0.16543752843E+03  0.00000000000E+00 0.  1.
         21   -1    0    0  504  502 -0.00000000000E+00 -0.00000000000E+00 -0.31490756205E+01  0.31490756205E+01  0.00000000000E+00 0.  1.
         21    1    1    2  503  502 -0.46427934445E+01  0.21931483927E+02  0.96998430862E+02  0.99555216377E+02  0.00000000000E+00 0.  1.
         21    1    1    2  504  501  0.46427934445E+01 -0.21931483927E+02  0.65290021953E+02  0.69031387678E+02  0.00000000000E+00 0.  1.
</event>
<event>
 4    1  0.2967296E+006  0.2334482E+02  0.7546771E-02  0.1488213E+00
         21   -1    0    0  504  501  0.00000000000E+00  0.00000000000E+00  0.52436249894E+01  0.52436249894E+01  0.00000000000E+00 0. -1.
         21   -1    0    0  501  502 -0.00000000000E+00 -0.00000000000E+00 -0.12594700464E+03  0.12594700464E+03  0.00000000000E+00 0. -1.
         21    1    1    2  503  502 -0.28018374044E+01 -0.23176075952E+02 -0.87776120363E+02  0.90827463332E+02  0.00000000000E+00 0. -1.
         21    1    1    2  504  503  0.28018374044E+01  0.23176075952E+02 -0.32927259291E+02  0.40363166300E+02  0.00000000000E+00 0. -1.
</event>
<event>
 4    1  0.2967296E+006  0.2734104E+02  0.7546771E-02  0.1444212E+00
         21   -1    0    0  503  501  0.00000000000E+00  0.00000000000E+00  0.24036658264E+01  0.24036658264E+01  0.00000000000E+00 0.  1.
         21   -1    0    0  501  502 -0.00000000000E+00 -0.00000000000E+00 -0.59224933545E+03  0.59224933545E+03  0.00000000000E+00 0. -1.
         21    1    1    2  503  504 -0.20302369778E+02  0.18312461338E+02 -0.90028700176E+02  0.94088784211E+02  0.00000000000E+00 0.  1.
         21    1    1    2  504  502  0.20302369778E+02 -0.18312461338E+02 -0.49981696945E+03  0.50056421707E+03  0.00000000000E+00 0. -1.
</event>
<event>
 4    1  0.2967296E+006  0.2498063E+02  0.7546771E-02  0.1469020E+00
         21   -1    0    0  503  501  0.00000000000E+00  0.00000000000E+00  0.12950036737E+03  0.12950036737E+03  0.00000000000E+00 0. -1.
         21   -1    0    0  504  502 -0.00000000000E+00 -0.00000000000E+00 -0.20638601439E+03  0.20638601439E+03  0.00000000000E+00 0.  1.
         21    1    1    2  503  502 -0.24825627029E+02 -0.27785288103E+01  0.12752819221E+03  0.12995180563E+03  0.00000000000E+00 0. -1.
         21    1    1    2  504  501  0.24825627029E+02  0.27785288103E+01 -0.20441383922E+03  0.20593457613E+03  0.00000000000E+00 0.  1.
</event>
<event>
 4    1  0.2967296E+006  0.2894874E+02  0.7546771E-02  0.1428957E+00
         21   -1    0    0  503  501  0.00000000000E+00  0.00000000000E+00  0.75461042965E+01  0.75461042965E+01  0.00000000000E+00 0.  1.
         21   -1    0    0  504  502 -0.00000000000E+00 -0.00000000000E+00 -0.50211231644E+03  0.50211231644E+03  0.00000000000E+00 0.  1.
         21    1    1    2  503  502  0.28800440177E+02  0.29264204118E+01 -0.47217262921E+03  0.47305921518E+03  0.00000000000E+00 0.  1.
         21    1    1    2  504  501 -0.28800440177E+02 -0.29264204118E+01 -0.22393582933E+02  0.36599205557E+02  0.00000000000E+00 0.  1.
</event>
<event>
 4    1  0.2967296E+006  0.3004822E+02  0.7546771E-02  0.1419178E+00
         21   -1    0    0  502  501  0.00000000000E+00  0.00000000000E+00  0.21021783484E+03  0.21021783484E+03  0.00000000000E+00 0.  1.
         21   -1    0    0  504  502 -0.00000000000E+00 -0.00000000000E+00 -0.36652017709E+02  0.36652017709E+02  0.00000000000E+00 0.  1.
         21    1    1    2  503  501  0.11542735988E+02  0.27742758185E+02  0.20276022327E+03  0.20497464118E+03  0.00000000000E+00 0.  1.
         21    1    1    2  504  503 -0.11542735988E+02 -0.27742758185E+02 -0.29194406141E+02  0.41895211369E+02  0.00000000000E+00 0.  1.
</event>
<event>
 4    1  0.2967296E+006  0.4241364E+02  0.7546771E-02  0.1334894E+00
         21   -1    0    0  503  501  0.00000000000E+00  0.00000000000E+00  0.51435393009E+03  0.51435393009E+03  0.00000000000E+00 0.  1.
         21   -1    0    0  504  502 -0.00000000000E+00 -0.00000000000E+00 -0.40413717641E+01  0.40413717641E+01  0.00000000000E+00 0.  1.
         21    1    1    2  503  502  0.40501607761E+02 -0.12591146749E+02  0.16006458231E+03  0.16558860987E+03  0.00000000000E+00 0.  1.
         21    1    1    2  504  501 -0.40501607761E+02  0.12591146749E+02  0.35024797602E+03  0.35280669199E+03  0.00000000000E+00 0.  1.
</event>
<event>
 4    1  0.2967296E+006  0.2601503E+02  0.7546771E-02  0.1457761E+00
         21   -1    0    0  503  501  0.00000000000E+00  0.00000000000E+00  0.46996714103E+02  0.46996714103E+02  0.00000000000E+00 0. -1.
         21   -1    0    0  504  502 -0.00000000000E+00 -0.00000000000E+00 -0.53861829920E+02  0.53861829920E+02  0.00000000000E+00 0.  1.
         21    1    1    2  503  502 -0.39419313125E+01  0.25714645363E+02 -0.46597120731E+02  0.53367344594E+02  0.00000000000E+00 0.  1.
         21    1    1    2  504  501  0.39419313125E+01 -0.25714645363E+02  0.39732004914E+02  0.47491199428E+02  0.00000000000E+00 0. -1.
</event>
<event>
 4    1  0.2967296E+006  0.2150137E+02  0.7546771E-02  0.1512226E+00
         21   -1    0    0  504  501  0.00000000000E+00  0.00000000000E+00  0.15003007716E+01  0.15003007716E+01  0.00000000000E+00 0. -1.
         21   -1    0    0  503  502 -0.00000000000E+00 -0.00000000000E+00 -0.37767076084E+03  0.37767076084E+03  0.00000000000E+00 0. -1.
         21    1    1    2  503  501 -0.21487747449E+02  0.76534844038E+00 -0.10674156425E+03  0.10888558485E+03  0.00000000000E+00 0. -1.
         21    1    1    2  504  502  0.21487747449E+02 -0.76534844038E+00 -0.26942889581E+03  0.27028547676E+03  0.00000000000E+00 0. -1.
</event>
<event>
 4    1  0.2967296E+006  0.2398677E+02  0.7546771E-02  0.1480466E+00
         21   -1    0    0  503  501  0.00000000000E+00  0.00000000000E+00  0.15612537525E+03  0.15612537525E+03  0.00000000000E+00 0. -1.
         21   -1    0    0  504  502 -0.00000000000E+00 -0.00000000000E+00 -0.31209644828E+03  0.31209644828E+03  0.00000000000E+00 0. -1.
         21    1    1    2  503  502  0.18001253601E+02 -0.15853073901E+02  0.15473906444E+03  0.15658717428E+03  0.00000000000E+00 0. -1.
         21    1    1    2  504  501 -0.18001253601E+02  0.15853073901E+02 -0.31071013747E+03  0.31163464925E+03  0.00000000000E+00 0. -1.
</event>
<event>
 4    1  0.2967296E+006  0.2411224E+02  0.7546771E-02  0.1478985E+00
         21   -1    0    0  503  501  0.00000000000E+00  0.00000000000E+00  0.32422831765E+03  0.32422831765E+03  0.00000000000E+00 0.  1.
         21   -1    0    0  504  502 -0.00000000000E+00 -0.00000000000E+00 -0.18303552144E+01  0.18303552144E+01  0.00000000000E+00 0.  1.
         21    1    1    2  503  502 -0.17445254828E+02 -0.16645213014E+02  0.13796522389E+03  0.14005642804E+03  0.00000000000E+00 0.  1.
         21    1    1    2  504  501  0.17445254828E+02  0.16645213014E+02  0.18443273855E+03  0.18600224482E+03  0.00000000000E+00 0.  1.
</event>
<event>
 4    1  0.2967296E+006  0.2056050E+02  0.7546771E-02  0.1525633E+00
         21   -1    0    0  503  501  0.00000000000E+00  0.00000000000E+00  0.54635369475E+01  0.54635369475E+01  0.00000000000E+00 0. -1.
         21   -1    0    0  501  502 -0.00000000000E+00 -0.00000000000E+00 -0.80360336917E+02  0.80360336917E+02  0.00000000000E+00 0. -1.
         21    1    1    2  503  504 -0.94195719176E+01 -0.18275822877E+02 -0.29175669408E+02  0.35692488319E+02  0.00000000000E+00 0. -1.
         21    1    1    2  504  502  0.94195719176E+01  0.18275822877E+02 -0.45721130561E+02  0.50131385545E+02  0.00000000000E+00 0. -1.
</event>
<event>
 4    1  0.2967296E+006  0.3321091E+02  0.7546771E-02  0.1393597E+00
         21   -1    0    0  504  501  0.00000000000E+00  0.00000000000E+00  0.13783817831E+03  0.13783817831E+03  0.00000000000E+00 0. -1.
         21   -1    0    0  503  502 -0.00000000000E+00 -0.00000000000E+00 -0.11556517267E+02  0.11556517267E+02  0.00000000000E+00 0. -1.
         21    1    1    2  503  501  0.23955796832E+02 -0.23001837052E+02  0.21713278122E+02  0.39679102263E+02  0.00000000000E+00 0. -1.
         21    1    1    2  504  502 -0.23955796832E+02  0.23001837052E+02  0.10456838292E+03  0.10971559331E+03  0.00000000000E+00 0. -1.
</event>
<event>
 4    1  0.2967296E+006  0.3056044E+02  0.7546771E-02  0.1414788E+00
         21   -1    0    0  504  501  0.00000000000E+00  0.00000000000E+00  0.87990562302E+02  0.87990562302E+02  0.00000000000E+00 0. -1.
         21   -1    0    0  501  502 -0.00000000000E+00 -0.00000000000E+00 -0.29974765131E+02  0.29974765131E+02  0.00000000000E+00 0. -1.
         21    1    1    2  503  502 -0.88412731785E+01 -0.29253585933E+02 -0.18395191471E+02  0.35669643545E+02  0.00000000000E+00 0. -1.
         21    1    1    2  504  503  0.88412731785E+01  0.29253585933E+02  0.76410988642E+02  0.82295683888E+02  0.00000000000E+00 0. -1.
</event>
<event>
 4    1  0.2967296E+006  0.2874914E+02  0.7546771E-02  0.1430787E+00
         21   -1    0    0  502  501  0.00000000000E+00  0.00000000000E+00  0.46981313103E+02  0.46981313103E+02  0.00000000000E+00 0.  1.
         21   -1    0    0  503  502 -0.00000000000E+00 -0.00000000000E+00 -0.82444242932E+02  0.82444242932E+02  0.00000000000E+00 0. -1.
         21    1    1    2  503  504  0.28745897498E+02 -0.43157209228E+00 -0.75126076542E+02  0.80439046825E+02  0.00000000000E+00 0. -1.
         21    1    1    2  504  501 -0.28745897498E+02  0.43157209228E+00  0.39663146713E+02  0.48986509210E+02  0.00000000000E+00 0.  1.
</event>
<event>
 4    1  0.2967296E+006  0.2124815E+02  0.7546771E-02  0.1515751E+00
         21   -1    0    0  504  501  0.00000000000E+00  0.00000000000E+00  0.10763842786E+02  0.10763842786E+02  0.00000000000E+00 0.  1.
         21   -1    0    0  503  502 -0.00000000000E+00 -0.00000000000E+00 -0.19954594842E+03  0.19954594842E+03  0.00000000000E+00 0. -1.
         21    1    1    2  503  501  0.11475567693E+02 -0.17882817362E+02 -0.18784295944E+03  0.18904089828E+03  0.00000000000E+00 0. -1.
         21    1    1    2  504  502 -0.11475567693E+02  0.17882817362E+02 -0.93914619049E+00  0.21268892925E+02  0.00000000000E+00 0.  1.
</event>
<event>
 4    1  0.2967296E+006  0.2167634E+02  0.7546771E-02  0.1509824E+00
         21   -1    0    0  502  501  0.00000000000E+00  0.00000000000E+00  0.12567916084E+03  0.12567916084E+03  0.00000000000E+00 0.  1.
         21   -1    0    0  503  502 -0.00000000000E+00 -0.00000000000E+00 -0.68527624029E+01  0.68527624029E+01  0.00000000000E+00 0. -1.
         21    1    1    2  503  504  0.18191069491E+01  0.21599872137E+02  0.14741901946E+02  0.26214257560E+02  0.00000000000E+00 0. -1.
         21    1    1    2  504  501 -0.18191069491E+01 -0.21599872137E+02  0.10408449649E+03  0.10631766568E+03  0.00000000000E+00 0.  1.
</event>
<event>
 4    1  0.2967296E+006  0.3180371E+02  0.7546771E-02  0.1404544E+00
         21   -1    0    0  502  501  0.00000000000E+00  0.00000000000E+00  0.11251394292E+03  0.11251394292E+03  0.00000000000E+00 0. -1.
         21   -1    0    0  503  502 -0.00000000000E+00 -0.00000000000E+00 -0.98810895391E+01  0.98810895391E+01  0.00000000000E+00 0. -1.
         21    1    1    2  503  504  0.77848077674E+01  0.30836223573E+02  0.32936449931E+02  0.45785212135E+02  0.00000000000E+00 0. -1.
         21    1    1    2  504  501 -0.77848077674E+01 -0.30836223573E+02  0.69696403450E+02  0.76609820324E+02  0.00000000000E+00 0. -1.
</event>
<event>
 4    1  0.2967296E+006  0.2574930E+02  0.7546771E-02  0.1460593E+00
         21   -1    0    0  503  501  0.00000000000E+00  0.00000000000E+00  0.76046903883E+01  0.76046903883E+01  0.00000000000E+00 0. -1.
         21   -1    0    0  504  502 -0.00000000000E+00 -0.00000000000E+00 -0.22096299245E+03  0.22096299245E+03  0.00000000000E+00 0.  1.
         21    1    1    2  503  502 -0.51856115080E+01  0.25221737045E+02 -0.17755986839E+02  0.31277814100E+02  0.00000000000E+00 0. -1.
         21    1    1    2  504  501  0.51856115080E+01 -0.25221737045E+02 -0.19560231523E+03  0.19728986874E+03  0.00000000000E+00 0.  1.
</event>
<event>
 4    1  0.2967296E+006  0.3283125E+02  0.7546771E-02  0.1396487E+00
         21   -1    0    0  502  501  0.00000000000E+00  0.00000000000E+00  0.57629339489E+02  0.57629339489E+02  0.00000000000E+00 0.  1.
         21   -1    0    0  503  502 -0.00000000000E+00 -0.00000000000E+00 -0.19697195566E+02  0.19697195566E+02  0.00000000000E+00 0.  1.
         21    1    1    2  503  504 -0.32607519370E+02  0.38263324913E+01  0.27648559907E+02  0.42922418440E+02  0.00000000000E+00 0.  1.
         21    1    1    2  504  501  0.32607519370E+02 -0.38263324913E+01  0.10283584016E+02  0.34404116615E+02  0.00000000000E+00 0.  1.
</event>
<event>
 4    1  0.2967296E+006  0.2347383E+02  0.7546771E-02  0.1486632E+00
         21   -1    0    0  503  501  0.00000000000E+00  0.00000000000E+00  0.82128780457E+00  0.82128780457E+00  0.00000000000E+00 0.  1.
         21   -1    0    0  501  502 -0.00000000000E+00 -0.00000000000E+00 -0.69783137184E+03  0.69783137184E+03  0.00000000000E+00 0.  1.
         21    1    1    2  503  504 -0.56189533742E+01  0.22791401609E+02 -0.27990849164E+03  0.28089105418E+03  0.00000000000E+00 0.  1.
         21    1    1    2  504  502  0.56189533742E+01 -0.22791401609E+02 -0.41710159239E+03  0.41776160547E+03  0.00000000000E+00 0.  1.
</event>
<event>
 4    1  0.2967296E+006  0.2037425E+02  0.7546771E-02  0.1528389E+00
         21   -1    0    0  503  501  0.00000000000E+00  0.00000000000E+00  0.74434918494E+02  0.74434918494E+02  0.00000000000E+00 0. -1.
         21   -1    0    0  504  502 -0.00000000000E+00 -0.00000000000E+00 -0.56822140645E+01  0.56822140645E+01  0.00000000000E+00 0. -1.
         21    1    1    2  503  502  0.18137784505E+02  0.92806789933E+01  0.28920755357E+02  0.35376833094E+02  0.00000000000E+00 0. -1.
         21    1    1    2  504  501 -0.18137784505E+02 -0.92806789933E+01  0.39831949073E+02  0.44740299465E+02  0.00000000000E+00 0. -1.
</event>
<event>
 4    1  0.2967296E+006  0.2479496E+02  0.7546771E-02  0.1471110E+00
         21   -1    0    0  502  501  0.00000000000E+00  0.00000000000E+00  0.11871908328E+02  0.11871908328E+02  0.00000000000E+00 0. -1.
         21   -1    0    0  503  502 -0.00000000000E+00 -0.00000000000E+00 -0.65458317126E+02  0.65458317126E+02  0.00000000000E+00 0.  1.
         21    1    1    2  503  504  0.23272769443E+02 -0.85538439036E+01 -0.44464542301E+02  0.50910564376E+02  0.00000000000E+00 0.  1.
         21    1    1    2  504  501 -0.23272769443E+02  0.85538439036E+01 -0.91218664972E+01  0.26419661078E+02  0.00000000000E+00 0. -1.
</event>
<event>
 4    1  0.2967296E+006  0.2095666E+02  0.7546771E-02  0.1519884E+00
         21   -1    0    0  502  501  0.00000000000E+00  0.00000000000E+00  0.16040890496E+03  0.16040890496E+03  0.00000000000E+00 0. -1.
         21   -1    0    0  504  502 -0.00000000000E+00 -0.00000000000E+00 -0.34444262042E+01  0.34444262042E+01  0.00000000000E+00 0. -1.
         21    1    1    2  503  501 -0.96449089711E+01 -0.18605309073E+02  0.11558740033E+03  0.11747182177E+03  0.00000000000E+00 0. -1.
         21    1    1    2  504  503  0.96449089711E+01  0.18605309073E+02  0.41377078432E+02  0.46381509401E+02  0.00000000000E+00 0. -1.
</event>
<event>
 4    1  0.2967296E+006  0.2015085E+02  0.7546771E-02  0.1531742E+00
         21   -1    0    0  503  501  0.00000000000E+00  0.00000000000E+00  0.68202006832E+01  0.68202006832E+01  0.00000000000E+00 0. -1.
         21   -1    0    0  504  502 -0.00000000000E+00 -0.00000000000E+00 -0.24073115255E+03  0.24073115255E+03  0.00000000000E+00 0. -1.
         21    1    1    2  503  502 -0.20146219494E+02  0.43184262172E+00 -0.95711646985E+01  0.22308380524E+02  0.00000000000E+00 0. -1.
         21    1    1    2  504  501  0.20146219494E+02 -0.43184262172E+00 -0.22433978717E+03  0.22524297271E+03  0.00000000000E+00 0. -1.
</event>
<event>
 4    1  0.2967296E+006  0.2186704E+02  0.7546771E-02  0.1507237E+00
         21   -1    0    0  503  501  0.00000000000E+00  0.00000000000E+00  0.54623038211E+00  0.54623038211E+00  0.00000000000E+00 0. -1.
         21   -1    0    0  504  502 -0.00000000000E+00 -0.00000000000E+00 -0.10936152301E+04  0.10936152301E+04  0.00000000000E+00 0.  1.
         21    1    1    2  503  502 -0.10641427017E+02 -0.19103072624E+02 -0.30215395180E+03  0.30294418288E+03  0.00000000000E+00 0. -1.
         21    1    1    2  504  501  0.10641427017E+02  0.19103072624E+02 -0.79091504790E+03  0.79121727758E+03  0.00000000000E+00 0.  1.
</event>
<event>
 4    1  0.2967296E+006  0.3656905E+02  0.7546771E-02  0.1369856E+00
         21   -1    0    0  503  501  0.00000000000E+00  0.00000000000E+00  0.43086274564E+03  0.43086274564E+03  0.00000000000E+00 0. -1.
         21   -1    0    0  504  502 -0.00000000000E+00 -0.00000000000E+00 -0.59866213722E+01  0.59866213722E+01  0.00000000000E+00 0. -1.
         21    1    1    2  503  502 -0.33389160583E+02 -0.14915063548E+02  0.60864801880E+02  0.71005769294E+02  0.00000000000E+00 0. -1.
         21    1    1    2  504  501  0.33389160583E+02  0.14915063548E+02  0.36401132238E+03  0.36584359772E+03  0.00000000000E+00 0. -1.
</event>
<event>
 4    1  0.2967296E+006  0.2096608E+02  0.7546771E-02  0.1519750E+00
         21   -1    0    0  504  501  0.00000000000E+00  0.00000000000E+00  0.61576836572E+02  0.61576836572E+02  0.00000000000E+00 0.  1.
         21   -1    0    0  503  502 -0.00000000000E+00 -0.00000000000E+00 -0.71799499643E+01  0.71799499643E+01  0.00000000000E+00 0.  1.
         21    1    1    2  503  501  0.13958582001E+01  0.20919558279E+02  0.24591529053E+02  0.32315934767E+02  0.00000000000E+00 0.  1.
         21    1    1    2  504  502 -0.13958582001E+01 -0.20919558279E+02  0.29805357555E+02  0.36440851769E+02  0.00000000000E+00 0.  1.
</event>
<event>
 4    1  0.2967296E+006  0.2012403E+02  0.7546771E-02  0.1532148E+00
         21   -1    0    0  503  501  0.00000000000E+00  0.00000000000E+00  0.33180054574E+02  0.33180054574E+02  0.00000000000E+00 0. -1.
         21   -1    0    0  504  502 -0.00000000000E+00 -0.00000000000E+00 -0.17546977702E+02  0.17546977702E+02  0.00000000000E+00 0. -1.
         21    1    1    2  503  502 -0.17938066176E+02 -0.91215368119E+01 -0.61774681984E+01  0.21050837638E+02  0.00000000000E+00 0. -1.
         21    1    1    2  504  501  0.17938066176E+02  0.91215368119E+01  0.21810545070E+02  0.29676194638E+02  0.00000000000E+00 0. -1.
</event>
<event>
 4    1  0.2967296E+006  0.2941821E+02  0.7546771E-02  0.1424720E+00
         21   -1    0    0  502  501  0.00000000000E+00  0.00000000000E+00  0.41611259492E+02  0.41611259492E+02  0.00000000000E+00 0.  1.
         21   -1    0    0  503  502 -0.00000000000E+00 -0.00000000000E+00 -0.29878727884E+03  0.29878727884E+03  0.00000000000E+00 0.  1.
         21    1    1    2  503  504  0.64700984682E+01  0.28697891811E+02 -0.29275682309E+03  0.29423118229E+03  0.00000000000E+00 0.  1.
         21    1    1    2  504  501 -0.64700984682E+01 -0.28697891811E+02  0.35580803742E+02  0.46167356037E+02  0.00000000000E+00 0.  1.
</event>
<event>
 4    1  0.2967296E+006  0.2232507E+02  0.7546771E-02  0.1501152E+00
         21   -1    0    0  502  501  0.00000000000E+00  0.00000000000E+00  0.20052632076E+03  0.20052632076E+03  0.00000000000E+00 0. -1.
         21   -1    0    0  503  502 -0.00000000000E+00 -0.00000000000E+00 -0.10824105599E+02  0.10824105599E+02  0.00000000000E+00 0.  1.
         21    1    1    2  503  504  0.21404504737E+02  0.63447619999E+01  0.20990071192E+01  0.22423529133E+02  0.00000000000E+00 0.  1.
         21    1    1    2  504  501 -0.21404504737E+02 -0.63447619999E+01  0.18760320804E+03  0.18892689722E+03  0.00000000000E+00 0. -1.
</event>
<event>
 4    1  0.2967296E+006  0.2587975E+02  0.7546771E-02  0.1459198E+00
         21   -1    0    0  503  501  0.00000000000E+00  0.00000000000E+00  0.90578290387E+02  0.90578290387E+02  0.00000000000E+00 0.  1.
         21   -1    0    0  504  502 -0.00000000000E+00 -0.00000000000E+00 -0.28918954150E+02  0.28918954150E+02  0.00000000000E+00 0.  1.
         21    1    1    2  503  502  0.28859804465E+01 -0.25718329507E+02 -0.20717508660E+02  0.33150814785E+02  0.00000000000E+00 0.  1.
         21    1    1    2  504  501 -0.28859804465E+01  0.25718329507E+02  0.82376844897E+02  0.86346429752E+02  0.00000000000E+00 0.  1.
</event>
<event>
 4    1  0.2967296E+006  0.2501758E+02  0.7546771E-02  0.1468607E+00
         21   -1    0    0  503  501  0.00000000000E+00  0.00000000000E+00  0.23957362996E+03  0.23957362996E+03  0.00000000000E+00 0. -1.
         21   -1    0    0  504  502 -0.00000000000E+00 -0.00000000000E+00 -0.31834163824E+01  0.31834163824E+01  0.00000000000E+00 0. -1.
         21    1    1    2  503  502 -0.39919941749E+00 -0.25014397201E+02  0.66791690377E+02  0.71323273417E+02  0.00000000000E+00 0. -1.
         21    1    1    2  504  501  0.39919941749E+00  0.25014397201E+02  0.16959852320E+03  0.17143377292E+03  0.00000000000E+00 0. -1.
</event>
<event>
 4    1  0.2967296E+006  0.2814893E+02  0.7546771E-02  0.1436396E+00
         21   -1    0    0  503  501  0.00000000000E+00  0.00000000000E+00  0.36411740040E+03  0.36411740040E+03  0.00000000000E+00 0. -1.
         21   -1    0    0  504  502 -0.00000000000E+00 -0.00000000000E+00 -0.27180600868E+02  0.27180600868E+02  0.00000000000E+00 0.  1.
         21    1    1    2  503  502 -0.21880108276E+02  0.17709408013E+02  0.35612206421E+03  0.35723281888E+03  0.00000000000E+00 0. -1.
         21    1    1    2  504  501  0.21880108276E+02 -0.17709408013E+02 -0.19185264676E+02  0.34065182386E+02  0.00000000000E+00 0.  1.
</event>
<event>
 4    1  0.2967296E+006  0.2124756E+02  0.7546771E-02  0.1515759E+00
         21   -1    0    0  504  501  0.00000000000E+00  0.00000000000E+00  0.32592082524E+02  0.32592082524E+02  0.00000000000E+00 0. -1.
         21   -1    0    0  503  502 -0.00000000000E+00 -0.00000000000E+00 -0.25666686707E+03  0.25666686707E+03  0.00000000000E+00 0.  1.
         21    1    1    2  503  501 -0.16782020510E+02  0.13031605352E+02 -0.25271005947E+03  0.25360172142E+03  0.00000000000E+00 0.  1.
         21    1    1    2  504  502  0.16782020510E+02 -0.13031605352E+02  0.28635274928E+02  0.35657228168E+02  0.00000000000E+00 0. -1.
</event>
<event>
 4    1  0.2967296E+006  0.2252978E+02  0.7546771E-02  0.1498489E+00
         21   -1    0    0  504  501  0.00000000000E+00  0.00000000000E+00  0.11636578011E+03  0.11636578011E+03  0.00000000000E+00 0. -1.
         21   -1    0    0  503  502 -0.00000000000E+00 -0.00000000000E+00 -0.62582529306E+01  0.62582529306E+01  0.00000000000E+00 0.  1.
         21    1    1    2  503  501  0.20445287677E+02  0.94647388645E+01  0.88802980172E+02  0.91616376033E+02  0.00000000000E+00 0. -1.
         21    1    1    2  504  502 -0.20445287677E+02 -0.94647388645E+01  0.21304547010E+02  0.31007657011E+02  0.00000000000E+00 0.  1.
</event>
<event>
 4    1  0.2967296E+006  0.2324038E+02  0.7546771E-02  0.1489502E+00
         21   -1    0    0  503  501  0.00000000000E+00  0.00000000000E+00  0.58110914114E+03  0.58110914114E+03  0.00000000000E+00 0.  1.
         21   -1    0    0  504  502 -0.00000000000E+00 -0.00000000000E+00 -0.10973972737E+02  0.10973972737E+02  0.00000000000E+00 0.  1.
         21    1    1    2  503  502 -0.22231102828E+02 -0.67744574400E+01  0.18401807590E+01  0.23313118019E+02  0.00000000000E+00 0.  1.
         21    1    1    2  504  501  0.22231102828E+02  0.67744574400E+01  0.56829498764E+03  0.56876999586E+03  0.00000000000E+00 0.  1.
</event>
<event>
 4    1  0.2967296E+006  0.2537315E+02  0.7546771E-02  0.1464672E+00
         21   -1    0    0  504  501  0.00000000000E+00  0.00000000000E+00  0.23193934651E+01  0.23193934651E+01  0.00000000000E+00 0.  1.
         21   -1    0    0  503  502 -0.00000000000E+00 -0.00000000000E+00 -0.35596149024E+03  0.35596149024E+03  0.00000000000E+00 0.  1.
         21    1    1    2  503  501 -0.91132850844E+01  0.23680053919E+02 -0.26088758588E+03  0.26211854071E+03  0.00000000000E+00 0.  1.
         21    1    1    2  504  502  0.91132850844E+01 -0.23680053919E+02 -0.92754510898E+02  0.96162342996E+02  0.00000000000E+00 0.  1.
</event>
<event>
 4    1  0.2967296E+006  0.2363598E+02  0.7546771E-02  0.1484663E+00
         21   -1    0    0  503  501  0.00000000000E+00  0.00000000000E+00  0.12935744371E+03  0.12935744371E+03  0.00000000000E+00 0.  1.
         21   -1    0    0  504  502 -0.00000000000E+00 -0.00000000000E+00 -0.71553530057E+01  0.71553530057E+01  0.00000000000E+00 0.  1.
         21    1    1    2  503  502  0.22880102358E+02 -0.59296446094E+01  0.10407731422E+03  0.10672744307E+03  0.00000000000E+00 0.  1.
         21    1    1    2  504  501 -0.22880102358E+02  0.59296446094E+01  0.18124776482E+02  0.29785353643E+02  0.00000000000E+00 0.  1.
</event>
<event>
 4    1  0.2967296E+006  0.2033469E+02  0.7546771E-02  0.1528979E+00
         21   -1    0    0  503  501  0.00000000000E+00  0.00000000000E+00  0.16547951475E+03  0.16547951475E+03  0.00000000000E+00 0.  1.
         21   -1    0    0  504  502 -0.00000000000E+00 -0.00000000000E+00 -0.19913351327E+03  0.19913351327E+03  0.00000000000E+00 0.  1.
         21    1    1    2  503  502 -0.10193926640E+02 -0.17594982373E+02 -0.19798607982E+03  0.19902760448E+03  0.00000000000E+00 0.  1.
         21    1    1    2  504  501  0.10193926640E+02  0.17594982373E+02  0.16433208130E+03  0.16558542354E+03  0.00000000000E+00 0.  1.
</event>
<event>
 4    1  0.2967296E+006  0.1060606E+03  0.7546771E-02  0.1153701E+00
         21   -1    0    0  503  501  0.00000000000E+00  0.00000000000E+00  0.16584269815E+03  0.16584269815E+03  0.00000000000E+00 0. -1.
         21   -1    0    0  504  502 -0.00000000000E+00 -0.00000000000E+00 -0.67888429962E+02  0.67888429962E+02  0.00000000000E+00 0. -1.
         21    1    1    2  503  502 -0.29669760716E+02  0.10182607435E+03  0.52452407813E+02  0.11832201488E+03  0.00000000000E+00 0. -1.
         21    1    1    2  504  501  0.29669760716E+02 -0.10182607435E+03  0.45501860372E+02  0.11540911323E+03  0.00000000000E+00 0. -1.
</event>
<event>
 4    1  0.2967296E+006  0.2392064E+02  0.7546771E-02  0.1481250E+00
         21   -1    0    0  502  501  0.00000000000E+00  0.00000000000E+00  0.33525858946E+02  0.33525858946E+02  0.00000000000E+00 0.  1.
         21   -1    0    0  504  502 -0.00000000000E+00 -0.00000000000E+00 -0.73227114685E+03  0.73227114685E+03  0.00000000000E+00 0.  1.
         21    1    1    2  503  501  0.20366351083E+02 -0.12546271774E+02  0.29037366105E+02  0.37621347958E+02  0.00000000000E+00 0.  1.
         21    1    1    2  504  503 -0.20366351083E+02  0.12546271774E+02 -0.72778265400E+03  0.72817565783E+03  0.00000000000E+00 0.  1.
</event>
<event>
 4    1  0.2967296E+006  0.2014460E+02  0.7546771E-02  0.1531837E+00
         21   -1    0    0  502  501  0.00000000000E+00  0.00000000000E+00  0.35688845122E+03  0.35688845122E+03  0.00000000000E+00 0. -1.
         21   -1    0    0  503  502 -0.00000000000E+00 -0.00000000000E+00 -0.19419795871E+01  0.19419795871E+01  0.00000000000E+00 0. -1.
         21    1    1    2  503  504 -0.18602342953E+02  0.77303092165E+01  0.61965190444E+02  0.65157422223E+02  0.00000000000E+00 0. -1.
         21    1    1    2  504  501  0.18602342953E+02 -0.77303092165E+01  0.29298128119E+03  0.29367300859E+03  0.00000000000E+00 0. -1.
</event>
<event>
 4    1  0.2967296E+006  0.2648270E+02  0.7546771E-02  0.1452875E+00
         21   -1    0    0  504  501  0.00000000000E+00  0.00000000000E+00  0.20920350262E+02  0.20920350262E+02  0.00000000000E+00 0.  1.
         21   -1    0    0  503  502 -0.00000000000E+00 -0.00000000000E+00 -0.49764866704E+02  0.49764866704E+02  0.00000000000E+00 0. -1.
         21    1    1    2  503  501 -0.18205116775E+02 -0.19232967628E+02  0.57680104752E+01  0.27103565549E+02  0.00000000000E+00 0.  1.
         21    1    1    2  504  502  0.18205116775E+02  0.19232967628E+02 -0.34612526917E+02  0.43581651417E+02  0.00000000000E+00 0. -1.
</event>
<event>
 4    1  0.2967296E+006  0.2959737E+02  0.7546771E-02  0.1423128E+00
         21   -1    0    0  503  501  0.00000000000E+00  0.00000000000E+00  0.17544672942E+02  0.17544672942E+02  0.00000000000E+00 0. -1.
         21   -1    0    0  501  502 -0.00000000000E+00 -0.00000000000E+00 -0.51891619882E+02  0.51891619882E+02  0.00000000000E+00 0. -1.
         21    1    1    2  503  504  0.24084497411E+02 -0.17202951702E+02 -0.10423199763E+02  0.31379095846E+02  0.00000000000E+00 0. -1.
         21    1    1    2  504  502 -0.24084497411E+02  0.17202951702E+02 -0.23923747178E+02  0.38057196978E+02  0.00000000000E+00 0. -1.
</event>
<event>
 4    1  0.2967296E+006  0.2652841E+02  0.7546771E-02  0.1452404E+00
         21   -1    0    0  504  501  0.00000000000E+00  0.00000000000E+00  0.38990692263E+03  0.38990692263E+03  0.00000000000E+00 0. -1.
         21   -1    0    0  503  502 -0.00000000000E+00 -0.00000000000E+00 -0.23020342619E+01  0.23020342619E+01  0.00000000000E+00 0. -1.
         21    1    1    2  503  501  0.22815083790E+02 -0.13536183509E+02  0.10267408319E+03  0.10604585646E+03  0.00000000000E+00 0. -1.
         21    1    1    2  504  502 -0.22815083790E+02  0.13536183509E+02  0.28493080518E+03  0.28616310043E+03  0.00000000000E+00 0. -1.
</event>
<event>
 4    1  0.2967296E+006  0.3886671E+02  0.7546771E-02  0.1355258E+00
         21   -1    0    0  504  501  0.00000000000E+00  0.00000000000E+00  0.20403671622E+02  0.20403671622E+02  0.00000000000E+00 0.  1.
         21   -1    0    0  503  502 -0.00000000000E+00 -0.00000000000E+00 -0.76366940544E+02  0.76366940544E+02  0.00000000000E+00 0.  1.
         21    1    1    2  503  501 -0.31757312459E+02 -0.22407463243E+02 -0.36433597151E+02  0.53273148067E+02  0.00000000000E+00 0.  1.
         21    1    1    2  504  502  0.31757312459E+02  0.22407463243E+02 -0.19529671771E+02  0.43497464099E+02  0.00000000000E+00 0.  1.
</event>
<event>
 4    1  0.2967296E+006  0.2726816E+02  0.7546771E-02  0.1444933E+00
         21   -1    0    0  502  501  0.00000000000E+00  0.00000000000E+00  0.72713508362E+01  0.72713508362E+01  0.00000000000E+00 0. -1.
         21   -1    0    0  504  502 -0.00000000000E+00 -0.00000000000E+00 -0.29460593136E+03  0.29460593136E+03  0.00000000000E+00 0. -1.
         21    1    1    2  503  501 -0.27135227017E+02 -0.26892416593E+01 -0.21705541431E+02  0.34852304010E+02  0.00000000000E+00 0. -1.
         21    1    1    2  504  503  0.27135227017E+02  0.26892416593E+01 -0.26562903909E+03  0.26702497818E+03  0.00000000000E+00 0. -1.
</event>
<event>
 4    1  0.2967296E+006  0.2212894E+02  0.7546771E-02  0.1503736E+00
         21   -1    0    0  504  501  0.00000000000E+00  0.00000000000E+00  0.28007743754E+02  0.28007743754E+02  0.00000000000E+00 0. -1.
         21   -1    0    0  503  502 -0.00000000000E+00 -0.00000000000E+00 -0.17491866383E+02  0.17491866383E+02  0.00000000000E+00 0.  1.
         21    1    1    2  503  501 -0.14089271776E+02  0.17064068507E+02  0.47783730608E+01  0.22638967783E+02  0.00000000000E+00 0.  1.
         21    1    1    2  504  502  0.14089271776E+02 -0.17064068507E+02  0.57375043102E+01  0.22860642355E+02  0.00000000000E+00 0. -1.
</event>
<event>
 4    1  0.2967296E+006  0.2685818E+02  0.7546771E-02  0.1449038E+00
         21   -1    0    0  504  501  0.00000000000E+00  0.00000000000E+00  0.41788789323E+00  0.41788789323E+00  0.00000000000E+00 0.  1.
         21   -1    0    0  503  502 -0.00000000000E+00 -0.00000000000E+00 -0.24771137125E+04  0.24771137125E+04  0.00000000000E+00 0. -1.
         21    1    1    2  503  501  0.18751645604E+02 -0.19228557756E+02 -0.55630957694E+03  0.55695754510E+03  0.00000000000E+00 0.  1.
         21    1    1    2  504  502 -0.18751645604E+02  0.19228557756E+02 -0.19203862476E+04  0.19205740553E+04  0.00000000000E+00 0. -1.
</event>
<event>
 4    1  0.2967296E+006  0.2866448E+02  0.7546771E-02  0.1431568E+00
         21   -1    0    0  503  501  0.00000000000E+00  0.00000000000E+00  0.40913812510E+02  0.40913812510E+02  0.00000000000E+00 0. -1.
         21   -1    0    0  501  502 -0.00000000000E+00 -0.00000000000E+00 -0.67292989324E+02  0.67292989324E+02  0.00000000000E+00 0. -1.
         21    1    1    2  503  504  0.20287701715E+02  0.20249973766E+02  0.32127169753E+02  0.43055862722E+02  0.00000000000E+00 0. -1.
         21    1    1    2  504  502 -0.20287701715E+02 -0.20249973766E+02 -0.58506346568E+02  0.65150939112E+02  0.00000000000E+00 0. -1.
</event>
<event>
 4    1  0.2967296E+006  0.2055479E+02  0.7546771E-02  0.1525717E+00
         21   -1    0    0  503  501  0.00000000000E+00  0.00000000000E+00  0.71908014192E+01  0.71908014192E+01  0.00000000000E+00 0.  1.
         21   -1    0    0  504  502 -0.00000000000E+00 -0.00000000000E+00 -0.10408905797E+03  0.10408905797E+03  0.00000000000E+00 0.  1.
         21    1    1    2  503  502  0.14420379827E+02 -0.14647598413E+02 -0.85168369308E+02  0.87613644053E+02  0.00000000000E+00 0.  1.
         21    1    1    2  504  501 -0.14420379827E+02  0.14647598413E+02 -0.11729887243E+02  0.23666215336E+02  0.00000000000E+00 0.  1.
</event>
<event>
 4    1  0.2967296E+006  0.2566688E+02  0.7546771E-02  0.1461479E+00
         21   -1    0    0  504  501  0.00000000000E+00  0.00000000000E+00  0.11976761061E+04  0.11976761061E+04  0.00000000000E+00 0. -1.
         21   -1    0    0  501  502 -0.00000000000E+00 -0.00000000000E+00 -0.63955800375E+00  0.63955800375E+00  0.00000000000E+00 0. -1.
         21    1    1    2  503  502 -0.24616399262E+02  0.72678637728E+01  0.37437918966E+03  0.37525800006E+03  0.00000000000E+00 0. -1.
         21    1    1    2  504  503  0.24616399262E+02 -0.72678637728E+01  0.82265735840E+03  0.82305766401E+03  0.00000000000E+00 0. -1.
</event>
<event>
 4    1  0.2967296E+006  0.2002278E+02  0.7546771E-02  0.1533688E+00
         21   -1    0    0  504  501  0.00000000000E+00  0.00000000000E+00  0.34660295113E+02  0.34660295113E+02  0.00000000000E+00 0.  1.
         21   -1    0    0  503  502 -0.00000000000E+00 -0.00000000000E+00 -0.14108187064E+02  0.14108187064E+02  0.00000000000E+00 0.  1.
         21    1    1    2  503  501  0.11040798850E+02 -0.16703661512E+02  0.20625140864E+02  0.28745573273E+02  0.00000000000E+00 0.  1.
         21    1    1    2  504  502 -0.11040798850E+02  0.16703661512E+02 -0.73032814882E-01  0.20022908904E+02  0.00000000000E+00 0.  1.
</event>
<event>
 4    1  0.2967296E+006  0.2766182E+02  0.7546771E-02  0.1441071E+00
         21   -1    0    0  504  501  0.00000000000E+00  0.00000000000E+00  0.39947795451E+03  0.39947795451E+03  0.00000000000E+00 0. -1.
         21   -1    0    0  503  502 -0.00000000000E+00 -0.00000000000E+00 -0.19344193780E+02  0.19344193780E+02  0.00000000000E+00 0. -1.
         21    1    1    2  503  501  0.15268516009E+02 -0.23066179280E+02  0.38883992498E+03  0.38982260512E+03  0.00000000000E+00 0. -1.
         21    1    1    2  504  502 -0.15268516009E+02  0.23066179280E+02 -0.87061642511E+01  0.28999543163E+02  0.00000000000E+00 0. -1.
</event>
<event>
 4    1  0.2967296E+006  0.2662129E+02  0.7546771E-02  0.1451450E+00
         21   -1    0    0  503  501  0.00000000000E+00  0.00000000000E+00  0.30323446161E+03  0.30323446161E+03  0.00000000000E+00 0.  1.
         21   -1    0    0  501  502 -0.00000000000E+00 -0.00000000000E+00 -0.29801148767E+01  0.29801148767E+01  0.00000000000E+00 0.  1.
         21    1    1    2  503  504  0.18514663231E+02 -0.19128516714E+02  0.22124620127E+03  0.22284203931E+03  0.00000000000E+00 0.  1.
         21    1    1    2  504  502 -0.18514663231E+02  0.19128516714E+02  0.79008145464E+02  0.83372537180E+02  0.00000000000E+00 0.  1.
</event>
<event>
 4    1  0.2967296E+006  0.2073267E+02  0.7546771E-02  0.1523116E+00
         21   -1    0    0  503  501  0.00000000000E+00  0.00000000000E+00  0.64651297621E+02  0.64651297621E+02  0.00000000000E+00 0.  1.
         21   -1    0    0  504  502 -0.00000000000E+00 -0.00000000000E+00 -0.11052205311E+02  0.11052205311E+02  0.00000000000E+00 0.  1.
         21    1    1    2  503  502 -0.20677919997E+02  0.15057046057E+01  0.29069421034E+01  0.20935468329E+02  0.00000000000E+00 0.  1.
         21    1    1    2  504  501  0.20677919997E+02 -0.15057046057E+01  0.50692150207E+02  0.54768034604E+02  0.00000000000E+00 0.  1.
</event>
<event>
 4    1  0.2967296E+006  0.5816823E+02  0.7546771E-02  0.1266187E+00
         21   -1    0    0  504  501  0.00000000000E+00  0.00000000000E+00  0.23843582499E+02  0.23843582499E+02  0.00000000000E+00 0.  1.
         21   -1    0    0  503  502 -0.00000000000E+00 -0.00000000000E+00 -0.17818576081E+03  0.17818576081E+03  0.00000000000E+00 0.  1.
         21    1    1    2  503  501 -0.14313587295E+02 -0.56379640955E+02 -0.31590351249E+02  0.66192846952E+02  0.00000000000E+00 0.  1.
         21    1    1    2  504  502  0.14313587295E+02  0.56379640955E+02 -0.12275182706E+03  0.13583649636E+03  0.00000000000E+00 0.  1.
</event>
<event>
 4    1  0.2967296E+006  0.3400780E+02  0.7546771E-02  0.1387676E+00
         21   -1    0    0  503  501  0.00000000000E+00  0.00000000000E+00  0.64716665080E+03  0.64716665080E+03  0.00000000000E+00 0. -1.
         21   -1    0    0  504  502 -0.00000000000E+00 -0.00000000000E+00 -0.17023850456E+02  0.17023850456E+02  0.00000000000E+00 0. -1.
         21    1    1    2  503  502  0.28555282500E+02  0.18469611628E+02  0.62925275095E+03  0.63017105241E+03  0.00000000000E+00 0. -1.
         21    1    1    2  504  501 -0.28555282500E+02 -0.18469611628E+02  0.89004939694E+00  0.34019448853E+02  0.00000000000E+00 0. -1.
</event>
<event>
 4    1  0.2967296E+006  0.2435517E+02  0.7546771E-02  0.1476148E+00
         21   -1    0    0  504  501  0.00000000000E+00  0.00000000000E+00  0.48008725058E+02  0.48008725058E+02  0.00000000000E+00 0. -1.
         21   -1    0    0  503  502 -0.00000000000E+00 -0.00000000000E+00 -0.14834770695E+02  0.14834770695E+02  0.00000000000E+00 0. -1.
         21    1    1    2  503  501  0.22563211622E+02  0.91692718549E+01  0.29432381141E+02  0.38202606255E+02  0.00000000000E+00 0. -1.
         21    1    1    2  504  502 -0.22563211622E+02 -0.91692718549E+01  0.37415732222E+01  0.24640889497E+02  0.00000000000E+00 0. -1.
</event>
<event>
 4    1  0.2967296E+006  0.2171146E+02  0.7546771E-02  0.1509345E+00
         21   -1    0    0  503  501  0.00000000000E+00  0.00000000000E+00  0.16979767335E+02  0.16979767335E+02  0.00000000000E+00 0. -1.
         21   -1    0    0  501  502 -0.00000000000E+00 -0.00000000000E+00 -0.77597813705E+02  0.77597813705E+02  0.00000000000E+00 0.  1.
         21    1    1    2  503  504 -0.20441326044E+02  0.73170684569E+01  0.75880371849E+01  0.22999252369E+02  0.00000000000E+00 0. -1.
         21    1    1    2  504  502  0.20441326044E+02 -0.73170684569E+01 -0.68206083555E+02  0.71578328670E+02  0.00000000000E+00 0.  1.
</event>
<event>
 4    1  0.2967296E+006  0.2215813E+02  0.7546771E-02  0.1503349E+00
         21   -1    0    0  503  501  0.00000000000E+00  0.00000000000E+00  0.22266880367E+03  0.22266880367E+03  0.00000000000E+00 0.  1.
         21   -1    0    0  501  502 -0.00000000000E+00 -0.00000000000E+00 -0.23601626921E+01  0.23601626921E+01  0.00000000000E+00 0.  1.
         21    1    1    2  503  504  0.78905626728E+01 -0.20705595080E+02  0.13900420583E+03  0.14075919823E+03  0.00000000000E+00 0.  1.
         21    1    1    2  504  502 -0.78905626728E+01  0.20705595080E+02  0.81304435142E+02  0.84269768130E+02  0.00000000000E+00 0.  1.
</event>
<event>
 4    1  0.2967296E+006  0.2334725E+02  0.7546771E-02  0.1488183E+00
         21   -1    0    0  502  501  0.00000000000E+00  0.00000000000E+00  0.74160240973E+03  0.74160240973E+03  0.00000000000E+00 0. -1.
         21   -1    0    0  503  502 -0.00000000000E+00 -0.00000000000E+00 -0.17768953355E+01  0.17768953355E+01  0.00000000000E+00 0. -1.
         21    1    1    2  503  504  0.19256338440E+02  0.13201806559E+02  0.85298298872E+02  0.88435818858E+02  0.00000000000E+00 0. -1.
         21    1    1    2  504  501 -0.19256338440E+02 -0.13201806559E+02  0.65452721553E+03  0.65494348621E+03  0.00000000000E+00 0. -1.
</event>
<event>
 4    1  0.2967296E+006  0.2020296E+02  0.7546771E-02  0.1530955E+00
         21   -1    0    0  503  501  0.00000000000E+00  0.00000000000E+00  0.10963080118E+02  0.10963080118E+02  0.00000000000E+00 0.  1.
         21   -1    0    0  504  502 -0.00000000000E+00 -0.00000000000E+00 -0.43388384773E+02  0.43388384773E+02  0.00000000000E+00 0.  1.
         21    1    1    2  503  502 -0.10294399832E+02 -0.17383465859E+02 -0.26450644723E+02  0.33283571915E+02  0.00000000000E+00 0.  1.
         21    1    1    2  504  501  0.10294399832E+02  0.17383465859E+02 -0.59746599316E+01  0.21067892976E+02  0.00000000000E+00 0.  1.
</event>
<event>
 4    1  0.2967296E+006  0.2044914E+02  0.7546771E-02  0.1527277E+00
         21   -1    0    0  502  501  0.00000000000E+00  0.00000000000E+00  0.81511900826E+01  0.81511900826E+01  0.00000000000E+00 0.  1.
         21   -1    0    0  503  502 -0.00000000000E+00 -0.00000000000E+00 -0.21914384898E+03  0.21914384898E+03  0.00000000000E+00 0.  1.
         21    1    1    2  503  504 -0.18471078358E+02 -0.87741901303E+01 -0.20495582963E+03  0.20597344307E+03  0.00000000000E+00 0.  1.
         21    1    1    2  504  501  0.18471078358E+02  0.87741901303E+01 -0.60368292606E+01  0.21321595992E+02  0.00000000000E+00 0.  1.
</event>
<event>
 4    1  0.2967296E+006  0.3721177E+02  0.7546771E-02  0.1365648E+00
         21   -1    0    0  503  501  0.00000000000E+00  0.00000000000E+00  0.14316806211E+03  0.14316806211E+03  0.00000000000E+00 0.  1.
         21   -1    0    0  501  502 -0.00000000000E+00 -0.00000000000E+00 -0.15401127727E+03  0.15401127727E+03  0.00000000000E+00 0.  1.
         21    1    1    2  503  504 -0.33502415689E+01  0.37060649855E+02  0.13842667399E+03  0.14334106166E+03  0.00000000000E+00 0.  1.
         21    1    1    2  504  502  0.33502415689E+01 -0.37060649855E+02 -0.14926988914E+03  0.15383827772E+03  0.00000000000E+00 0.  1.
</event>
<event>
 4    1  0.2967296E+006  0.2113721E+02  0.7546771E-02  0.1517315E+00
         21   -1    0    0  502  501  0.00000000000E+00  0.00000000000E+00  0.12700181923E+03  0.12700181923E+03  0.00000000000E+00 0. -1.
         21   -1    0    0  504  502 -0.00000000000E+00 -0.00000000000E+00 -0.29174564577E+02  0.29174564577E+02  0.00000000000E+00 0.  1.
         21    1    1    2  503  501 -0.22484814309E+01  0.21017275107E+02  0.12214263556E+03  0.12395807736E+03  0.00000000000E+00 0. -1.
         21    1    1    2  504  503  0.22484814309E+01 -0.21017275107E+02 -0.24315380906E+02  0.32218306446E+02  0.00000000000E+00 0.  1.
</event>
<event>
 4    1  0.2967296E+006  0.1474526E+03  0.7546771E-02  0.1100257E+00
         21   -1    0    0  504  501  0.00000000000E+00  0.00000000000E+00  0.93787166990E+02  0.93787166990E+02  0.00000000000E+00 0.  1.
         21   -1    0    0  503  502 -0.00000000000E+00 -0.00000000000E+00 -0.23436696559E+03  0.23436696559E+03  0.00000000000E+00 0. -1.
         21    1    1    2  503  501 -0.14745219460E+03  0.32922354901E+00 -0.87375911304E+02  0.17139663928E+03  0.00000000000E+00 0.  1.
         21    1    1    2  504  502  0.14745219460E+03 -0.32922354901E+00 -0.53203887300E+02  0.15675749330E+03  0.00000000000E+00 0. -1.
</event>
<event>
 4    1  0.2967296E+006  0.2289200E+02  0.7546771E-02  0.1493859E+00
         21   -1    0    0  504  501  0.00000000000E+00  0.00000000000E+00  0.55658414189E+03  0.55658414189E+03  0.00000000000E+00 0. -1.
         21   -1    0    0  503  502 -0.00000000000E+00 -0.00000000000E+00 -0.14027792262E+01  0.14027792262E+01  0.00000000000E+00 0. -1.
         21    1    1    2  503  501 -0.11665085281E+02  0.19696941244E+02  0.11761107887E+03  0.11981823560E+03  0.00000000000E+00 0. -1.
         21    1    1    2  504  502  0.11665085281E+02 -0.19696941244E+02  0.43757028380E+03  0.43816868552E+03  0.00000000000E+00 0. -1.
</event>
<event>
 4    1  0.2967296E+006  0.2779666E+02  0.7546771E-02  0.1439766E+00
         21   -1    0    0  503  501  0.00000000000E+00  0.00000000000E+00  0.68327473530E+03  0.68327473530E+03  0.00000000000E+00 0.  1.
         21   -1    0    0  504  502 -0.00000000000E+00 -0.00000000000E+00 -0.17085683185E+01  0.17085683185E+01  0.00000000000E+00 0.  1.
         21    1    1    2  503  502 -0.18987652898E+02  0.20300818062E+02  0.14162095050E+03  0.14432306744E+03  0.00000000000E+00 0.  1.
         21    1    1    2  504  501  0.18987652898E+02 -0.20300818062E+02  0.53994521649E+03  0.54066023618E+03  0.00000000000E+00 0.  1.
</event>
<event>
 4    1  0.2967296E+006  0.4786132E+02  0.7546771E-02  0.1307721E+00
         21   -1    0    0  503  501  0.00000000000E+00  0.00000000000E+00  0.25876110533E+03  0.25876110533E+03  0.00000000000E+00 0. -1.
         21   -1    0    0  501  502 -0.00000000000E+00 -0.00000000000E+00 -0.10306916859E+02  0.10306916859E+02  0.00000000000E+00 0. -1.
         21    1    1    2  503  504  0.39164940432E+02 -0.27510236323E+02  0.17476286533E+03  0.18119813675E+03  0.00000000000E+00 0. -1.
         21    1    1    2  504  502 -0.39164940432E+02  0.27510236323E+02  0.73691323142E+02  0.87869885444E+02  0.00000000000E+00 0. -1.
</event>
<event>
 4    1  0.2967296E+006  0.2125794E+02  0.7546771E-02  0.1515614E+00
         21   -1    0    0  503  501  0.00000000000E+00  0.00000000000E+00  0.32007768233E+01  0.32007768233E+01  0.00000000000E+00 0.  1.
         21   -1    0    0  504  502 -0.00000000000E+00 -0.00000000000E+00 -0.15053036787E+03  0.15053036787E+03  0.00000000000E+00 0.  1.
         21    1    1    2  503  502  0.19524676954E+02 -0.84075500644E+01 -0.92817532104E+02  0.95220765456E+02  0.00000000000E+00 0.  1.
         21    1    1    2  504  501 -0.19524676954E+02  0.84075500644E+01 -0.54512058941E+02  0.58510379235E+02  0.00000000000E+00 0.  1.
</event>
<event>
 4    1  0.2967296E+006  0.2905170E+02  0.7546771E-02  0.1428020E+00
         21   -1    0    0  504  501  0.00000000000E+00  0.00000000000E+00  0.23969741337E+01  0.23969741337E+01  0.00000000000E+00 0.  1.
         21   -1    0    0  503  502 -0.00000000000E+00 -0.00000000000E+00 -0.35677669280E+03  0.35677669280E+03  0.00000000000E+00 0.  1.
         21    1    1    2  503  501 -0.27517362553E+02 -0.93164500676E+01 -0.15665346758E+03  0.15932454421E+03  0.00000000000E+00 0.  1.
         21    1    1    2  504  502  0.27517362553E+02  0.93164500676E+01 -0.19772625108E+03  0.19984912272E+03  0.00000000000E+00 0.  1.
</event>
<event>
 4    1  0.2967296E+006  0.2205346E+02  0.7546771E-02  0.1504739E+00
         21   -1    0    0  503  501  0.00000000000E+00  0.00000000000E+00  0.16196807965E+03  0.16196807965E+03  0.00000000000E+00 0. -1.
         21   -1    0    0  504  502 -0.00000000000E+00 -0.00000000000E+00 -0.28017324503E+03  0.28017324503E+03  0.00000000000E+00 0. -1.
         21    1    1    2  503  502  0.18240465458E+02  0.12395180644E+02  0.16078021534E+03  0.16228565164E+03  0.00000000000E+00 0. -1.
         21    1    1    2  504  501 -0.18240465458E+02 -0.12395180644E+02 -0.27898538072E+03  0.27985567305E+03  0.00000000000E+00 0. -1.
</event>
<event>
 4    1  0.2967296E+006  0.2559063E+02  0.7546771E-02  0.1462303E+00
         21   -1    0    0  504  501  0.00000000000E+00  0.00000000000E+00  0.21532115987E+02  0.21532115987E+02  0.00000000000E+00 0. -1.
         21   -1    0    0  503  502 -0.00000000000E+00 -0.00000000000E+00 -0.30844050348E+02  0.30844050348E+02  0.00000000000E+00 0. -1.
         21    1    1    2  503  501 -0.24012468275E+02 -0.88476839587E+01 -0.15640908615E+01  0.25638379908E+02  0.00000000000E+00 0. -1.
         21    1    1    2  504  502  0.24012468275E+02  0.88476839587E+01 -0.77478434998E+01  0.26737786426E+02  0.00000000000E+00 0. -1.
</event>
<event>
 4    1  0.2967296E+006  0.2447762E+02  0.7546771E-02  0.1474733E+00
         21   -1    0    0  504  501  0.00000000000E+00  0.00000000000E+00  0.53590503514E+03  0.53590503514E+03  0.00000000000E+00 0.  1.
         21   -1    0    0  503  502 -0.00000000000E+00 -0.00000000000E+00 -0.16633698693E+01  0.16633698693E+01  0.00000000000E+00 0.  1.
         21    1    1    2  503  501 -0.14751033321E+02  0.19533577996E+02  0.11321817843E+03  0.11583397420E+03  0.00000000000E+00 0.  1.
         21    1    1    2  504  502  0.14751033321E+02 -0.19533577996E+02  0.42102348685E+03  0.42173443081E+03  0.00000000000E+00 0.  1.
</event>
<event>
 4    1  0.2967296E+006  0.2114793E+02  0.7546771E-02  0.1517163E+00
         21   -1    0    0  503  501  0.00000000000E+00  0.00000000000E+00  0.13619320304E+01  0.13619320304E+01  0.00000000000E+00 0.  1.
         21   -1    0    0  504  502 -0.00000000000E+00 -0.00000000000E+00 -0.59542979509E+03  0.59542979509E+03  0.00000000000E+00 0. -1.
         21    1    1    2  503  502 -0.14828779415E+01 -0.21095876102E+02 -0.97198980998E+02  0.99472995444E+02  0.00000000000E+00 0.  1.
         21    1    1    2  504  501  0.14828779415E+01  0.21095876102E+02 -0.49686888206E+03  0.49731873168E+03  0.00000000000E+00 0. -1.
</event>
<event>
 4    1  0.2967296E+006  0.2530502E+02  0.7546771E-02  0.1465420E+00
         21   -1    0    0  503  501  0.00000000000E+00  0.00000000000E+00  0.29868417484E+02  0.29868417484E+02  0.00000000000E+00 0.  1.
         21   -1    0    0  501  502 -0.00000000000E+00 -0.00000000000E+00 -0.43742727514E+02  0.43742727514E+02  0.00000000000E+00 0.  1.
         21    1    1    2  503  504 -0.48967742491E+01 -0.24826713249E+02  0.19344394973E+02  0.31851996887E+02  0.00000000000E+00 0.  1.
         21    1    1    2  504  502  0.48967742491E+01  0.24826713249E+02 -0.33218705003E+02  0.41759148110E+02  0.00000000000E+00 0.  1.
</event>
<event>
 4    1  0.2967296E+006  0.2251873E+02  0.7546771E-02  0.1498631E+00
         21   -1    0    0  502  501  0.00000000000E+00  0.00000000000E+00  0.24745293620E+02  0.24745293620E+02  0.00000000000E+00 0. -1.
         21   -1    0    0  504  502 -0.00000000000E+00 -0.00000000000E+00 -0.87158073280E+02  0.87158073280E+02  0.00000000000E+00 0. -1.
         21    1    1    2  503  501 -0.96450193339E+01 -0.20348634737E+02  0.17727540940E+02  0.28659362194E+02  0.00000000000E+00 0. -1.
         21    1    1    2  504  503  0.96450193339E+01  0.20348634737E+02 -0.80140320600E+02  0.83244004706E+02  0.00000000000E+00 0. -1.
</event>
<event>
 4    1  0.2967296E+006  0.2582556E+02  0.7546771E-02  0.1459776E+00
         21   -1    0    0  503  501  0.00000000000E+00  0.00000000000E+00  0.10655430773E+02  0.10655430773E+02  0.00000000000E+00 0. -1.
         21   -1    0    0  504  502 -0.00000000000E+00 -0.00000000000E+00 -0.69808547701E+02  0.69808547701E+02  0.00000000000E+00 0. -1.
         21    1    1    2  503  502 -0.24468727019E+02 -0.82608095111E+01 -0.42510771239E+02  0.49740579480E+02  0.00000000000E+00 0. -1.
         21    1    1    2  504  501  0.24468727019E+02  0.82608095111E+01 -0.16642345689E+02  0.30723398994E+02  0.00000000000E+00 0. -1.
</event>
<event>
 4    1  0.2967296E+006  0.2984942E+02  0.7546771E-02  0.1420910E+00
         21   -1    0    0  504  501  0.00000000000E+00  0.00000000000E+00  0.62194961775E+02  0.62194961775E+02  0.00000000000E+00 0.  1.
         21   -1    0    0  503  502 -0.00000000000E+00 -0.00000000000E+00 -0.27797081428E+02  0.27797081428E+02  0.00000000000E+00 0.  1.
         21    1    1    2  503  501 -0.29604850746E+02  0.38132576687E+01  0.48523150243E+02  0.56969151576E+02  0.00000000000E+00 0.  1.
         21    1    1    2  504  502  0.29604850746E+02 -0.38132576687E+01 -0.14125269896E+02  0.33022891627E+02  0.00000000000E+00 0.  1.
</event>
<event>
 4    1  0.2967296E+006  0.2913529E+02  0.7546771E-02  0.1427262E+00
         21   -1    0    0  504  501  0.00000000000E+00  0.00000000000E+00  0.14343851005E+03  0.14343851005E+03  0.00000000000E+00 0.  1.
         21   -1    0    0  501  502 -0.00000000000E+00 -0.00000000000E+00 -0.16716378876E+02  0.16716378876E+02  0.00000000000E+00 0.  1.
         21    1    1    2  503  502  0.81209134188E+01  0.27980635610E+02 -0.99936325019E+00  0.29152425813E+02  0.00000000000E+00 0.  1.
         21    1    1    2  504  503 -0.81209134188E+01 -0.27980635610E+02  0.12772149443E+03  0.13100246311E+03  0.00000000000E+00 0.  1.
</event>
<event>
 4    1  0.2967296E+006  0.2013403E+02  0.7546771E-02  0.1531997E+00
         21   -1    0    0  503  501  0.00000000000E+00  0.00000000000E+00  0.79893984874E+03  0.79893984874E+03  0.00000000000E+00 0.  1.
         21   -1    0    0  504  502 -0.00000000000E+00 -0.00000000000E+00 -0.52445990482E+00  0.52445990482E+00  0.00000000000E+00 0. -1.
         21    1    1    2  503  502 -0.94644336617E+01 -0.17770864799E+02  0.47130981846E+03  0.47173967833E+03  0.00000000000E+00 0.  1.
         21    1    1    2  504  501  0.94644336617E+01  0.17770864799E+02  0.32710557038E+03  0.32772463031E+03  0.00000000000E+00 0. -1.
</event>
<event>
 4    1  0.2967296E+006  0.2392549E+02  0.7546771E-02  0.1481193E+00
         21   -1    0    0  503  501  0.00000000000E+00  0.00000000000E+00  0.74600501620E+01  0.74600501620E+01  0.00000000000E+00 0. -1.
         21   -1    0    0  504  502 -0.00000000000E+00 -0.00000000000E+00 -0.10836687686E+04  0.10836687686E+04  0.00000000000E+00 0.  1.
         21    1    1    2  503  502  0.21785208837E+02  0.98911024031E+01 -0.10639989662E+04  0.10642679312E+04  0.00000000000E+00 0.  1.
         21    1    1    2  504  501 -0.21785208837E+02 -0.98911024031E+01 -0.12209752171E+02  0.26860887530E+02  0.00000000000E+00 0. -1.
</event>
<event>
 4    1  0.2967296E+006  0.2171408E+02  0.7546771E-02  0.1509309E+00
         21   -1    0    0  503  501  0.00000000000E+00  0.00000000000E+00  0.17178668543E+02  0.17178668543E+02  0.00000000000E+00 0. -1.
         21   -1    0    0  504  502 -0.00000000000E+00 -0.00000000000E+00 -0.37267882948E+02  0.37267882948E+02  0.00000000000E+00 0. -1.
         21    1    1    2  503  502 -0.17481320322E+02  0.12880396525E+02  0.39303513531E+01  0.22066917243E+02  0.00000000000E+00 0. -1.
         21    1    1    2  504  501  0.17481320322E+02 -0.12880396525E+02 -0.24019565758E+02  0.32379634248E+02  0.00000000000E+00 0. -1.
</event>
<event>
 4    1  0.2967296E+006  0.2198070E+02  0.7546771E-02  0.1505710E+00
         21   -1    0    0  503  501  0.00000000000E+00  0.00000000000E+00  0.26855747031E+02  0.26855747031E+02  0.00000000000E+00 0. -1.
         21   -1    0    0  504  502 -0.00000000000E+00 -0.00000000000E+00 -0.30592711648E+02  0.30592711648E+02  0.00000000000E+00 0.  1.
         21    1    1    2  503  502 -0.79344195862E+01  0.20498689644E+02 -0.20304235065E+02  0.29923456566E+02  0.00000000000E+00 0.  1.
         21    1    1    2  504  501  0.79344195862E+01 -0.20498689644E+02  0.16567270448E+02  0.27525002114E+02  0.00000000000E+00 0. -1.
</event>
<event>
 4    1  0.2967296E+006  0.2230050E+02  0.7546771E-02  0.1501474E+00
         21   -1    0    0  504  501  0.00000000000E+00  0.00000000000E+00  0.72646614716E+01  0.72646614716E+01  0.00000000000E+00 0. -1.
         21   -1    0    0  503  502 -0.00000000000E+00 -0.00000000000E+00 -0.45279791746E+03  0.45279791746E+03  0.00000000000E+00 0.  1.
         21    1    1    2  503  501 -0.20255367609E+02  0.93291061380E+01 -0.10836164717E+02  0.24793842060E+02  0.00000000000E+00 0. -1.
         21    1    1    2  504  502  0.20255367609E+02 -0.93291061380E+01 -0.43469709127E+03  0.43526873687E+03  0.00000000000E+00 0.  1.
</event>
<event>
 4    1  0.2967296E+006  0.7959323E+02  0.7546771E-02  0.1204795E+00
         21   -1    0    0  504  501  0.00000000000E+00  0.00000000000E+00  0.83462796933E+01  0.83462796933E+01  0.00000000000E+00 0. -1.
         21   -1    0    0  503  502 -0.00000000000E+00 -0.00000000000E+00 -0.93304480358E+03  0.93304480358E+03  0.00000000000E+00 0. -1.
         21    1    1    2  503  501 -0.44199848970E+01  0.79470411619E+02 -0.25907562895E+03  0.27102631626E+03  0.00000000000E+00 0. -1.
         21    1    1    2  504  502  0.44199848970E+01 -0.79470411619E+02 -0.66562289494E+03  0.67036476702E+03  0.00000000000E+00 0. -1.
</event>
<event>
 4    1  0.2967296E+006  0.2237282E+02  0.7546771E-02  0.1500528E+00
         21   -1    0    0  503  501  0.00000000000E+00  0.00000000000E+00  0.73202111594E+03  0.73202111594E+03  0.00000000000E+00 0. -1.
         21   -1    0    0  504  502 -0.00000000000E+00 -0.00000000000E+00 -0.18666120756E+02  0.18666120756E+02  0.00000000000E+00 0.  1.
         21    1    1    2  503  502  0.12011254150E+01 -0.22340552521E+02 -0.11727137870E+02  0.25260022799E+02  0.00000000000E+00 0.  1.
         21    1    1    2  504  501 -0.12011254150E+01  0.22340552521E+02  0.72508213306E+03  0.72542721390E+03  0.00000000000E+00 0. -1.
</event>
<event>
 4    1  0.2967296E+006  0.2443167E+02  0.7546771E-02  0.1475263E+00
         21   -1    0    0  502  501  0.00000000000E+00  0.00000000000E+00  0.39452394780E+02  0.39452394780E+02  0.00000000000E+00 0. -1.
         21   -1    0    0  504  502 -0.00000000000E+00 -0.00000000000E+00 -0.69752082003E+02  0.69752082003E+02  0.00000000000E+00 0. -1.
         21    1    1    2  503  501 -0.93685697091E+01  0.22564048598E+02  0.33169032602E+02  0.41195765696E+02  0.00000000000E+00 0. -1.
         21    1    1    2  504  503  0.93685697091E+01 -0.22564048598E+02 -0.63468719825E+02  0.68008711087E+02  0.00000000000E+00 0. -1.
</event>
<event>
 4    1  0.2967296E+006  0.3283816E+02  0.7546771E-02  0.1396434E+00
         21   -1    0    0  503  501  0.00000000000E+00  0.00000000000E+00  0.18168479836E+03  0.18168479836E+03  0.00000000000E+00 0.  1.
         21   -1    0    0  504  502 -0.00000000000E+00 -0.00000000000E+00 -0.63354375041E+01  0.63354375041E+01  0.00000000000E+00 0. -1.
         21    1    1    2  503  502 -0.31918455087E+02  0.77172956107E+01  0.11130224008E+03  0.11604539230E+03  0.00000000000E+00 0.  1.
         21    1    1    2  504  501  0.31918455087E+02 -0.77172956107E+01  0.64047120769E+02  0.71974843560E+02  0.00000000000E+00 0. -1.
</event>
<event>
 4    1  0.2967296E+006  0.3599708E+02  0.7546771E-02  0.1373686E+00
         21   -1    0    0  503  501  0.00000000000E+00  0.00000000000E+00  0.19799207303E+03  0.19799207303E+03  0.00000000000E+00 0. -1.
         21   -1    0    0  504  502 -0.00000000000E+00 -0.00000000000E+00 -0.21222136880E+02  0.21222136880E+02  0.00000000000E+00 0. -1.
         21    1    1    2  503  502 -0.35402210351E+02  0.65171643605E+01  0.17953774817E+03  0.18311087610E+03  0.00000000000E+00 0. -1.
         21    1    1    2  504  501  0.35402210351E+02 -0.65171643605E+01 -0.27678120155E+01  0.36103333813E+02  0.00000000000E+00 0. -1.
</event>
<event>
 4    1  0.2967296E+006  0.2247077E+02  0.7546771E-02  0.1499253E+00
         21   -1    0    0  502  501  0.00000000000E+00  0.00000000000E+00  0.50097538780E+02  0.50097538780E+02  0.00000000000E+00 0.  1.
         21   -1    0    0  504  502 -0.00000000000E+00 -0.00000000000E+00 -0.14284577855E+03  0.14284577855E+03  0.00000000000E+00 0.  1.
         21    1    1    2  503  501  0.11973274426E+02  0.19015156427E+02  0.46631816893E+02  0.51763518245E+02  0.00000000000E+00 0.  1.
         21    1    1    2  504  503 -0.11973274426E+02 -0.19015156427E+02 -0.13938005666E+03  0.14117979908E+03  0.00000000000E+00 0.  1.
</event>
<event>
 4    1  0.2967296E+006  0.2365057E+02  0.7546771E-02  0.1484487E+00
         21   -1    0    0  502  501  0.00000000000E+00  0.00000000000E+00  0.14724564653E+02  0.14724564653E+02  0.00000000000E+00 0.  1.
         21   -1    0    0  503  502 -0.00000000000E+00 -0.00000000000E+00 -0.66053425052E+02  0.66053425052E+02  0.00000000000E+00 0.  1.
         21    1    1    2  503  504  0.49268929514E+01 -0.23131690276E+02 -0.51991654337E+02  0.57118136261E+02  0.00000000000E+00 0.  1.
         21    1    1    2  504  501 -0.49268929514E+01  0.23131690276E+02  0.66279393806E+00  0.23659853444E+02  0.00000000000E+00 0.  1.
</event>
<event>
 4    1  0.2967296E+006  0.4691249E+02  0.7546771E-02  0.1312144E+00
         21   -1    0    0  503  501  0.00000000000E+00  0.00000000000E+00  0.49978063803E+01  0.49978063803E+01  0.00000000000E+00 0.  1.
         21   -1    0    0  504  502 -0.00000000000E+00 -0.00000000000E+00 -0.45387126779E+03  0.45387126779E+03  0.00000000000E+00 0. -1.
         21    1    1    2  503  502  0.31298281736E+02 -0.34945661255E+02 -0.18483549510E+03  0.19069594104E+03  0.00000000000E+00 0.  1.
         21    1    1    2  504  501 -0.31298281736E+02  0.34945661255E+02 -0.26403796631E+03  0.26817313313E+03  0.00000000000E+00 0. -1.
</event>
<event>
 4    1  0.2967296E+006  0.2321377E+02  0.7546771E-02  0.1489831E+00
         21   -1    0    0  502  501  0.00000000000E+00  0.00000000000E+00  0.43389727082E+03  0.43389727082E+03  0.00000000000E+00 0. -1.
         21   -1    0    0  503  502 -0.00000000000E+00 -0.00000000000E+00 -0.53163088083E+01  0.53163088083E+01  0.00000000000E+00 0.  1.
         21    1    1    2  503  504  0.66214787812E+01  0.22249382304E+02  0.22038746993E+02  0.32009144993E+02  0.00000000000E+00 0.  1.
         21    1    1    2  504  501 -0.66214787812E+01 -0.22249382304E+02  0.40654221502E+03  0.40720443464E+03  0.00000000000E+00 0. -1.
</event>
<event>
 4    1  0.2967296E+006  0.2262355E+02  0.7546771E-02  0.1497280E+00
         21   -1    0    0  504  501  0.00000000000E+00  0.00000000000E+00  0.56735181019E+01  0.56735181019E+01  0.00000000000E+00 0.  1.
         21   -1    0    0  501  502 -0.00000000000E+00 -0.00000000000E+00 -0.99971499929E+03  0.99971499929E+03  0.00000000000E+00 0.  1.
         21    1    1    2  503  502 -0.76994365408E+01  0.21273073066E+02 -0.97649760385E+03  0.97675964049E+03  0.00000000000E+00 0.  1.
         21    1    1    2  504  503  0.76994365408E+01 -0.21273073066E+02 -0.17543877337E+02  0.28628876903E+02  0.00000000000E+00 0.  1.
</event>
<event>
 4    1  0.2967296E+006  0.2042682E+02  0.7546771E-02  0.1527608E+00
         21   -1    0    0  503  501  0.00000000000E+00  0.00000000000E+00  0.11978145267E+03  0.11978145267E+03  0.00000000000E+00 0.  1.
         21   -1    0    0  504  502 -0.00000000000E+00 -0.00000000000E+00 -0.36553860952E+01  0.36553860952E+01  0.00000000000E+00 0.  1.
         21    1    1    2  503  502  0.82858055777E+01  0.18670848975E+02  0.71447639794E+02  0.74310298127E+02  0.00000000000E+00 0.  1.
         21    1    1    2  504  501 -0.82858055777E+01 -0.18670848975E+02  0.44678426784E+02  0.49126540642E+02  0.00000000000E+00 0.  1.
</event>
<event>
 4    1  0.2967296E+006  0.2255642E+02  0.7546771E-02  0.1498145E+00
         21   -1    0    0  503  501  0.00000000000E+00  0.00000000000E+00  0.10939384688E+03  0.10939384688E+03  0.00000000000E+00 0. -1.
         21   -1    0    0  501  502 -0.00000000000E+00 -0.00000000000E+00 -0.73976567767E+02  0.73976567767E+02  0.00000000000E+00 0. -1.
         21    1    1    2  503  504 -0.52318042041E+01 -0.21941294909E+02  0.10646487212E+03  0.10882812685E+03  0.00000000000E+00 0. -1.
         21    1    1    2  504  502  0.52318042041E+01  0.21941294909E+02 -0.71047593010E+02  0.74542287797E+02  0.00000000000E+00 0. -1.
</event>
<event>
 4    1  0.2967296E+006  0.2435268E+02  0.7546771E-02  0.1476177E+00
         21   -1    0    0  503  501  0.00000000000E+00  0.00000000000E+00  0.26037359986E+01  0.26037359986E+01  0.00000000000E+00 0. -1.
         21   -1    0    0  504  502 -0.00000000000E+00 -0.00000000000E+00 -0.22825242328E+03  0.22825242328E+03  0.00000000000E+00 0. -1.
         21    1    1    2  503  502  0.24235496235E+02 -0.23861414004E+01 -0.11813096221E+03  0.12061499568E+03  0.00000000000E+00 0. -1.
         21    1    1    2  504  501 -0.24235496235E+02  0.23861414004E+01 -0.10751772506E+03  0.11024116360E+03  0.00000000000E+00 0. -1.
</event>
<event>
 4    1  0.2967296E+006  0.2195934E+02  0.7546771E-02  0.1505996E+00
         21   -1    0    0  504  501  0.00000000000E+00  0.00000000000E+00  0.23352190184E+03  0.23352190184E+03  0.00000000000E+00 0. -1.
         21   -1    0    0  501  502 -0.00000000000E+00 -0.00000000000E+00 -0.63651176469E+01  0.63651176469E+01  0.00000000000E+00 0.  1.
         21    1    1    2  503  502 -0.13990806081E+02  0.16925422072E+02  0.14992243380E+02  0.26589094168E+02  0.00000000000E+00 0.  1.
         21    1    1    2  504  503  0.13990806081E+02 -0.16925422072E+02  0.21216454082E+03  0.21329792532E+03  0.00000000000E+00 0. -1.
</event>
<event>
 4    1  0.2967296E+006  0.2010070E+02  0.7546771E-02  0.1532502E+00
         21   -1    0    0  502  501  0.00000000000E+00  0.00000000000E+00  0.88067248320E+03  0.88067248320E+03  0.00000000000E+00 0. -1.
         21   -1    0    0  503  502 -0.00000000000E+00 -0.00000000000E+00 -0.14293938366E+01  0.14293938366E+01  0.00000000000E+00 0.  1.
         21    1    1    2  503  504  0.19960760560E+02 -0.23677598962E+01  0.76179479321E+02  0.78786745831E+02  0.00000000000E+00 0.  1.
         21    1    1    2  504  501 -0.19960760560E+02  0.23677598962E+01  0.80306361004E+03  0.80331513120E+03  0.00000000000E+00 0. -1.
</event>
<event>
 4    1  0.2967296E+006  0.7075226E+02  0.7546771E-02  0.1227115E+00
         21   -1    0    0  504  501  0.00000000000E+00  0.00000000000E+00  0.45876649238E+02  0.45876649238E+02  0.00000000000E+00 0.  1.
         21   -1    0    0  503  502 -0.00000000000E+00 -0.00000000000E+00 -0.18544672444E+03  0.18544672444E+03  0.00000000000E+00 0.  1.
         21    1    1    2  503  501 -0.78056880947E+01 -0.70320364357E+02 -0.14398936989E+03  0.16043322926E+03  0.00000000000E+00 0.  1.
         21    1    1    2  504  502  0.78056880947E+01  0.70320364357E+02  0.44192946879E+01  0.70890144417E+02  0.00000000000E+00 0.  1.
</event>
<event>
 4    1  0.2967296E+006  0.2228723E+02  0.7546771E-02  0.1501648E+00
         21   -1    0    0  504  501  0.00000000000E+00  0.00000000000E+00  0.46585072680E+03  0.46585072680E+03  0.00000000000E+00 0. -1.
         21   -1    0    0  503  502 -0.00000000000E+00 -0.00000000000E+00 -0.10674648905E+01  0.10674648905E+01  0.00000000000E+00 0. -1.
         21    1    1    2  503  501  0.66944800398E+01  0.21258049162E+02  0.24021605673E+03  0.24124774533E+03  0.00000000000E+00 0. -1.
         21    1    1    2  504  502 -0.66944800398E+01 -0.21258049162E+02  0.22456720518E+03  0.22567044636E+03  0.00000000000E+00 0. -1.
</event>
<event>
 4    1  0.2967296E+006  0.2401362E+02  0.7546771E-02  0.1480148E+00
         21   -1    0    0  504  501  0.00000000000E+00  0.00000000000E+00  0.59191779217E+01  0.59191779217E+01  0.00000000000E+00 0. -1.
         21   -1    0    0  503  502 -0.00000000000E+00 -0.00000000000E+00 -0.10702316080E+04  0.10702316080E+04  0.00000000000E+00 0. -1.
         21    1    1    2  503  501 -0.20008132877E+02  0.13278870087E+02 -0.10451573615E+04  0.10454331945E+04  0.00000000000E+00 0. -1.
         21    1    1    2  504  502  0.20008132877E+02 -0.13278870087E+02 -0.19155068526E+02  0.30717591414E+02  0.00000000000E+00 0. -1.
</event>
<event>
 4    1  0.2967296E+006  0.2428092E+02  0.7546771E-02  0.1477011E+00
         21   -1    0    0  503  501  0.00000000000E+00  0.00000000000E+00  0.57038968971E+01  0.57038968971E+01  0.00000000000E+00 0. -1.
         21   -1    0    0  504  502 -0.00000000000E+00 -0.00000000000E+00 -0.18260801931E+03  0.18260801931E+03  0.00000000000E+00 0. -1.
         21    1    1    2  503  502 -0.92791205599E+01 -0.22437936944E+02 -0.26425443406E+02  0.35886866008E+02  0.00000000000E+00 0. -1.
         21    1    1    2  504  501  0.92791205599E+01  0.22437936944E+02 -0.15047867901E+03  0.15242505020E+03  0.00000000000E+00 0. -1.
</event>
<event>
 4    1  0.2967296E+006  0.2201593E+02  0.7546771E-02  0.1505239E+00
         21   -1    0    0  504  501  0.00000000000E+00  0.00000000000E+00  0.19530987951E+02  0.19530987951E+02  0.00000000000E+00 0.  1.
         21   -1    0    0  503  502 -0.00000000000E+00 -0.00000000000E+00 -0.44428072946E+02  0.44428072946E+02  0.00000000000E+00 0.  1.
         21    1    1    2  503  501  0.57577658626E+01 -0.21249692705E+02  0.87982599609E+01  0.23708873574E+02  0.00000000000E+00 0.  1.
         21    1    1    2  504  502 -0.57577658626E+01  0.21249692705E+02 -0.33695344956E+02  0.40250187323E+02  0.00000000000E+00 0.  1.
</event>
<event>
 4    1  0.2967296E+006  0.2633747E+02  0.7546771E-02  0.1454379E+00
         21   -1    0    0  504  501  0.00000000000E+00  0.00000000000E+00  0.18388960969E+02  0.18388960969E+02  0.00000000000E+00 0.  1.
         21   -1    0    0  501  502 -0.00000000000E+00 -0.00000000000E+00 -0.47349562597E+02  0.47349562597E+02  0.00000000000E+00 0.  1.
         21    1    1    2  503  502 -0.15929728052E+02 -0.20973944393E+02 -0.29301974985E+02  0.39398836496E+02  0.00000000000E+00 0.  1.
         21    1    1    2  504  503  0.15929728052E+02  0.20973944393E+02  0.34137335680E+00  0.26339687070E+02  0.00000000000E+00 0.  1.
</event>
<event>
 4    1  0.2967296E+006  0.2253167E+02  0.7546771E-02  0.1498464E+00
         21   -1    0    0  504  501  0.00000000000E+00  0.00000000000E+00  0.36020792701E+03  0.36020792701E+03  0.00000000000E+00 0.  1.
         21   -1    0    0  503  502 -0.00000000000E+00 -0.00000000000E+00 -0.14824755986E+01  0.14824755986E+01  0.00000000000E+00 0.  1.
         21    1    1    2  503  501 -0.21010973542E+02  0.81372628294E+01  0.13921068471E+03  0.14102230602E+03  0.00000000000E+00 0.  1.
         21    1    1    2  504  502  0.21010973542E+02 -0.81372628294E+01  0.21951476670E+03  0.22066809659E+03  0.00000000000E+00 0.  1.
</event>
<event>
 4    1  0.2967296E+006  0.2953498E+02  0.7546771E-02  0.1423681E+00
         21   -1    0    0  502  501  0.00000000000E+00  0.00000000000E+00  0.10966682603E+03  0.10966682603E+03  0.00000000000E+00 0. -1.
         21   -1    0    0  504  502 -0.00000000000E+00 -0.00000000000E+00 -0.79560635442E+01  0.79560635442E+01  0.00000000000E+00 0.  1.
         21    1    1    2  503  501  0.29533913939E+02 -0.25101753961E+00  0.49962405605E+02  0.58039271672E+02  0.00000000000E+00 0. -1.
         21    1    1    2  504  503 -0.29533913939E+02  0.25101753961E+00  0.51748356876E+02  0.59583617897E+02  0.00000000000E+00 0.  1.
</event>
<event>
 4    1  0.2967296E+006  0.3431319E+02  0.7546771E-02  0.1385457E+00
         21   -1    0    0  504  501  0.00000000000E+00  0.00000000000E+00  0.21971193377E+02  0.21971193377E+02  0.00000000000E+00 0.  1.
         21   -1    0    0  501  502 -0.00000000000E+00 -0.00000000000E+00 -0.18492454270E+03  0.18492454270E+03  0.00000000000E+00 0. -1.
         21    1    1    2  503  502 -0.30024654169E+02  0.16610687376E+02 -0.16865667594E+03  0.17211179254E+03  0.00000000000E+00 0. -1.
         21    1    1    2  504  503  0.30024654169E+02 -0.16610687376E+02  0.57033266196E+01  0.34783943531E+02  0.00000000000E+00 0.  1.
</event>
<event>
 4    1  0.2967296E+006  0.3755565E+02  0.7546771E-02  0.1363437E+00
         21   -1    0    0  503  501  0.00000000000E+00  0.00000000000E+00  0.56177311781E+01  0.56177311781E+01  0.00000000000E+00 0.  1.
         21   -1    0    0  504  502 -0.00000000000E+00 -0.00000000000E+00 -0.25293106401E+03  0.25293106401E+03  0.00000000000E+00 0. -1.
         21    1    1    2  503  502  0.85379958341E+01  0.36572254045E+02 -0.11255885911E+03  0.11865885514E+03  0.00000000000E+00 0. -1.
         21    1    1    2  504  501 -0.85379958341E+01 -0.36572254045E+02 -0.13475447372E+03  0.13988994005E+03  0.00000000000E+00 0.  1.
</event>
<event>
 4    1  0.2967296E+006  0.2323818E+02  0.7546771E-02  0.1489529E+00
         21   -1    0    0  502  501  0.00000000000E+00  0.00000000000E+00  0.75280335806E+02  0.75280335806E+02  0.00000000000E+00 0.  1.
         21   -1    0    0  504  502 -0.00000000000E+00 -0.00000000000E+00 -0.29064738580E+02  0.29064738580E+02  0.00000000000E+00 0.  1.
         21    1    1    2  503  501  0.20525590416E+02  0.10895554861E+02  0.68386639317E+02  0.72227040744E+02  0.00000000000E+00 0.  1.
         21    1    1    2  504  503 -0.20525590416E+02 -0.10895554861E+02 -0.22171042091E+02  0.32118033642E+02  0.00000000000E+00 0.  1.
</event>
<event>
 4    1  0.2967296E+006  0.4658632E+02  0.7546771E-02  0.1313692E+00
         21   -1    0    0  504  501  0.00000000000E+00  0.00000000000E+00  0.10236870937E+03  0.10236870937E+03  0.00000000000E+00 0.  1.
         21   -1    0    0  503  502 -0.00000000000E+00 -0.00000000000E+00 -0.23362827736E+02  0.23362827736E+02  0.00000000000E+00 0.  1.
         21    1    1    2  503  501  0.42414065783E+02 -0.19269979581E+02  0.58627672311E+02  0.74883169337E+02  0.00000000000E+00 0.  1.
         21    1    1    2  504  502 -0.42414065783E+02  0.19269979581E+02  0.20378209319E+02  0.50848367765E+02  0.00000000000E+00 0.  1.
</event>
<event>
 4    1  0.2967296E+006  0.2266730E+02  0.7546771E-02  0.1496719E+00
         21   -1    0    0  502  501  0.00000000000E+00  0.00000000000E+00  0.22343660258E+02  0.22343660258E+02  0.00000000000E+00 0. -1.
         21   -1    0    0  504  502 -0.00000000000E+00 -0.00000000000E+00 -0.62597336349E+03  0.62597336349E+03  0.00000000000E+00 0.  1.
         21    1    1    2  503  501  0.38386080115E+01 -0.22339912003E+02  0.16333838982E+02  0.27939235417E+02  0.00000000000E+00 0. -1.
         21    1    1    2  504  503 -0.38386080115E+01  0.22339912003E+02 -0.61996354222E+03  0.62037778834E+03  0.00000000000E+00 0.  1.
</event>
<event>
 4    1  0.2967296E+006  0.2217424E+02  0.7546771E-02  0.1503136E+00
         21   -1    0    0  504  501  0.00000000000E+00  0.00000000000E+00  0.24831231512E+03  0.24831231512E+03  0.00000000000E+00 0.  1.
         21   -1    0    0  501  502 -0.00000000000E+00 -0.00000000000E+00 -0.31473202171E+01  0.31473202171E+01  0.00000000000E+00 0.  1.
         21    1    1    2  503  502 -0.19223577036E+02 -0.11052188230E+02  0.46016832529E+02  0.51080775784E+02  0.00000000000E+00 0.  1.
         21    1    1    2  504  503  0.19223577036E+02  0.11052188230E+02  0.19914816238E+03  0.20037885956E+03  0.00000000000E+00 0.  1.
</event>
<event>
 4    1  0.2967296E+006  0.2609638E+02  0.7546771E-02  0.1456902E+00
         21   -1    0    0  503  501  0.00000000000E+00  0.00000000000E+00  0.25454347836E+02  0.25454347836E+02  0.00000000000E+00 0.  1.
         21   -1    0    0  504  502 -0.00000000000E+00 -0.00000000000E+00 -0.51017114376E+03  0.51017114376E+03  0.00000000000E+00 0. -1.
         21    1    1    2  503  502 -0.26085625049E+02 -0.74923408487E+00 -0.50305420511E+03  0.50373063682E+03  0.00000000000E+00 0. -1.
         21    1    1    2  504  501  0.26085625049E+02  0.74923408487E+00  0.18337409186E+02  0.31894854782E+02  0.00000000000E+00 0.  1.
</event>
<event>
 4    1  0.2967296E+006  0.2376597E+02  0.7546771E-02  0.1483097E+00
         21   -1    0    0  502  501  0.00000000000E+00  0.00000000000E+00  0.18765949573E+03  0.18765949573E+03  0.00000000000E+00 0.  1.
         21   -1    0    0  504  502 -0.00000000000E+00 -0.00000000000E+00 -0.39763945889E+02  0.39763945889E+02  0.00000000000E+00 0. -1.
         21    1    1    2  503  501  0.15734587695E+02  0.17811348976E+02  0.18327127836E+03  0.18480579773E+03  0.00000000000E+00 0.  1.
         21    1    1    2  504  503 -0.15734587695E+02 -0.17811348976E+02 -0.35375728521E+02  0.42617643889E+02  0.00000000000E+00 0. -1.
</event>
<event>
 4    1  0.2967296E+006  0.2253688E+02  0.7546771E-02  0.1498397E+00
         21   -1    0    0  503  501  0.00000000000E+00  0.00000000000E+00  0.10396442842E+03  0.10396442842E+03  0.00000000000E+00 0.  1.
         21   -1    0    0  504  502 -0.00000000000E+00 -0.00000000000E+00 -0.45177373239E+02  0.45177373239E+02  0.00000000000E+00 0.  1.
         21    1    1    2  503  502 -0.12766655922E+02 -0.18572119739E+02 -0.41030036065E+02  0.46812124439E+02  0.00000000000E+00 0.  1.
         21    1    1    2  504  501  0.12766655922E+02  0.18572119739E+02  0.99817091246E+02  0.10232967722E+03  0.00000000000E+00 0.  1.
</event>
<event>
 4    1  0.2967296E+006  0.2259416E+02  0.7546771E-02  0.1497658E+00
         21   -1    0    0  503  501  0.00000000000E+00  0.00000000000E+00  0.21053444653E+01  0.21053444653E+01  0.00000000000E+00 0. -1.
         21   -1    0    0  504  502 -0.00000000000E+00 -0.00000000000E+00 -0.48124059494E+03  0.48124059494E+03  0.00000000000E+00 0. -1.
         21    1    1    2  503  502 -0.21502201252E+02 -0.69391231119E+01 -0.40979588648E+03  0.41041828013E+03  0.00000000000E+00 0. -1.
         21    1    1    2  504  501  0.21502201252E+02  0.69391231119E+01 -0.69339363989E+02  0.72927659270E+02  0.00000000000E+00 0. -1.
</event>
<event>
 4    1  0.2967296E+006  0.2036865E+02  0.7546771E-02  0.1528473E+00
         21   -1    0    0  504  501  0.00000000000E+00  0.00000000000E+00  0.24388443171E+01  0.24388443171E+01  0.00000000000E+00 0. -1.
         21   -1    0    0  503  502 -0.00000000000E+00 -0.00000000000E+00 -0.17016165530E+03  0.17016165530E+03  0.00000000000E+00 0. -1.
         21    1    1    2  503  501 -0.14785536365E+01 -0.20314918668E+02 -0.82420154259E+02  0.84899728323E+02  0.00000000000E+00 0. -1.
         21    1    1    2  504  502  0.14785536365E+01  0.20314918668E+02 -0.85302656726E+02  0.87700771295E+02  0.00000000000E+00 0. -1.
</event>
<event>
 4    1  0.2967296E+006  0.3106067E+02  0.7546771E-02  0.1410598E+00
         21   -1    0    0  503  501  0.00000000000E+00  0.00000000000E+00  0.28251177691E+01  0.28251177691E+01  0.00000000000E+00 0.  1.
         21   -1    0    0  504  502 -0.00000000000E+00 -0.00000000000E+00 -0.54251519308E+03  0.54251519308E+03  0.00000000000E+00 0.  1.
         21    1    1    2  503  502 -0.29370307796E+02  0.10106945588E+02 -0.43582315419E+03  0.43692858347E+03  0.00000000000E+00 0.  1.
         21    1    1    2  504  501  0.29370307796E+02 -0.10106945588E+02 -0.10386692112E+03  0.10841172738E+03  0.00000000000E+00 0.  1.
</event>
<event>
 4    1  0.2967296E+006  0.2320191E+02  0.7546771E-02  0.1489978E+00
         21   -1    0    0  503  501  0.00000000000E+00  0.00000000000E+00  0.83180918831E+02  0.83180918831E+02  0.00000000000E+00 0.  1.
         21   -1    0    0  504  502 -0.00000000000E+00 -0.00000000000E+00 -0.60602895772E+02  0.60602895772E+02  0.00000000000E+00 0.  1.
         21    1    1    2  503  502 -0.19711371317E+02  0.12238888159E+02  0.79233903121E+02  0.82561128544E+02  0.00000000000E+00 0.  1.
         21    1    1    2  504  501  0.19711371317E+02 -0.12238888159E+02 -0.56655880062E+02  0.61222686058E+02  0.00000000000E+00 0.  1.
</event>
<event>
 4    1  0.2967296E+006  0.3364090E+02  0.7546771E-02  0.1390378E+00
         21   -1    0    0  503  501  0.00000000000E+00  0.00000000000E+00  0.71884947885E+03  0.71884947885E+03  0.00000000000E+00 0.  1.
         21   -1    0    0  501  502 -0.00000000000E+00 -0.00000000000E+00 -0.16156026068E+01  0.16156026068E+01  0.00000000000E+00 0.  1.
         21    1    1    2  503  504 -0.25196408166E+02  0.22290159598E+02  0.41618983436E+03  0.41754722898E+03  0.00000000000E+00 0.  1.
         21    1    1    2  504  502  0.25196408166E+02 -0.22290159598E+02  0.30104404188E+03  0.30291785248E+03  0.00000000000E+00 0.  1.
</event>
<event>
 4    1  0.2967296E+006  0.2186868E+02  0.7546771E-02  0.1507215E+00
         21   -1    0    0  502  501  0.00000000000E+00  0.00000000000E+00  0.10950741666E+03  0.10950741666E+03  0.00000000000E+00 0.  1.
         21   -1    0    0  503  502 -0.00000000000E+00 -0.00000000000E+00 -0.34196108572E+02  0.34196108572E+02  0.00000000000E+00 0. -1.
         21    1    1    2  503  504  0.11383802424E+02  0.18672124881E+02 -0.29451352967E+02  0.36682712506E+02  0.00000000000E+00 0. -1.
         21    1    1    2  504  501 -0.11383802424E+02 -0.18672124881E+02  0.10476266105E+03  0.10702081272E+03  0.00000000000E+00 0.  1.
</event>
<event>
 4    1  0.2967296E+006  0.3509561E+02  0.7546771E-02  0.1379892E+00
         21   -1    0    0  504  501  0.00000000000E+00  0.00000000000E+00  0.70025432039E+02  0.70025432039E+02  0.00000000000E+00 0.  1.
         21   -1    0    0  503  502 -0.00000000000E+00 -0.00000000000E+00 -0.18472686937E+03  0.18472686937E+03  0.00000000000E+00 0. -1.
         21    1    1    2  503  501  0.34554211964E+02 -0.61406836640E+01 -0.17851094236E+03  0.18192816742E+03  0.00000000000E+00 0. -1.
         21    1    1    2  504  502 -0.34554211964E+02  0.61406836640E+01  0.63809505022E+02  0.72824133990E+02  0.00000000000E+00 0.  1.
</event>
<event>
 4    1  0.2967296E+006  0.2271955E+02  0.7546771E-02  0.1496050E+00
         21   -1    0    0  504  501  0.00000000000E+00  0.00000000000E+00  0.18647573478E+02  0.18647573478E+02  0.00000000000E+00 0. -1.
         21   -1    0    0  501  502 -0.00000000000E+00 -0.00000000000E+00 -0.30189128456E+02  0.30189128456E+02  0.00000000000E+00 0. -1.
         21    1    1    2  503  502 -0.14705557143E+02 -0.17318335336E+02 -0.12809448791E+02  0.26081796871E+02  0.00000000000E+00 0. -1.
         21    1    1    2  504  503  0.14705557143E+02  0.17318335336E+02  0.12678938128E+01  0.22754905063E+02  0.00000000000E+00 0. -1.
</event>
<event>
 4    1  0.2967296E+006  0.3629753E+02  0.7546771E-02  0.1371664E+00
         21   -1    0    0  504  501  0.00000000000E+00  0.00000000000E+00  0.42351263411E+01  0.42351263411E+01  0.00000000000E+00 0.  1.
         21   -1    0    0  503  502 -0.00000000000E+00 -0.00000000000E+00 -0.50510303565E+03  0.50510303565E+03  0.00000000000E+00 0. -1.
         21    1    1    2  503  501  0.36196047680E+02  0.27122869526E+01 -0.92600018103E+02  0.99459910119E+02  0.00000000000E+00 0.  1.
         21    1    1    2  504  502 -0.36196047680E+02 -0.27122869526E+01 -0.40826789120E+03  0.40987825187E+03  0.00000000000E+00 0. -1.
</event>
<event>
 4    1  0.2967296E+006  0.2514786E+02  0.7546771E-02  0.1467156E+00
         21   -1    0    0  504  501  0.00000000000E+00  0.00000000000E+00  0.61461630043E+01  0.61461630043E+01  0.00000000000E+00 0. -1.
         21   -1    0    0  503  502 -0.00000000000E+00 -0.00000000000E+00 -0.15527991172E+03  0.15527991172E+03  0.00000000000E+00 0. -1.
         21    1    1    2  503  501 -0.89902446443E+00  0.25131789466E+02 -0.12144663163E+03  0.12402297941E+03  0.00000000000E+00 0. -1.
         21    1    1    2  504  502  0.89902446443E+00 -0.25131789466E+02 -0.27687117084E+02  0.37403095315E+02  0.00000000000E+00 0. -1.
</event>
<event>
 4    1  0.2967296E+006  0.2529721E+02  0.7546771E-02  0.1465506E+00
         21   -1    0    0  504  501  0.00000000000E+00  0.00000000000E+00  0.10081146655E+02  0.10081146655E+02  0.00000000000E+00 0.  1.
         21   -1    0    0  501  502 -0.00000000000E+00 -0.00000000000E+00 -0.39537653021E+03  0.39537653021E+03  0.00000000000E+00 0.  1.
         21    1    1    2  503  502 -0.23833468734E+02  0.84802605727E+01 -0.37839031896E+03  0.37923499645E+03  0.00000000000E+00 0.  1.
         21    1    1    2  504  503  0.23833468734E+02 -0.84802605727E+01 -0.69050646030E+01  0.26222680421E+02  0.00000000000E+00 0.  1.
</event>
<event>
 4    1  0.2967296E+006  0.2329004E+02  0.7546771E-02  0.1488888E+00
         21   -1    0    0  503  501  0.00000000000E+00  0.00000000000E+00  0.11994519411E+02  0.11994519411E+02  0.00000000000E+00 0. -1.
         21   -1    0    0  504  502 -0.00000000000E+00 -0.00000000000E+00 -0.92701463777E+02  0.92701463777E+02  0.00000000000E+00 0.  1.
         21    1    1    2  503  502 -0.21036952319E+02 -0.99936316308E+01 -0.77816757845E+02  0.81227297367E+02  0.00000000000E+00 0.  1.
         21    1    1    2  504  501  0.21036952319E+02  0.99936316308E+01 -0.28901865202E+01  0.23468685821E+02  0.00000000000E+00 0. -1.
</event>
<event>
 4    1  0.2967296E+006  0.3754333E+02  0.7546771E-02  0.1363516E+00
         21   -1    0    0  504  501  0.00000000000E+00  0.00000000000E+00  0.89477779152E+01  0.89477779152E+01  0.00000000000E+00 0.  1.
         21   -1    0    0  503  502 -0.00000000000E+00 -0.00000000000E+00 -0.31511531836E+03  0.31511531836E+03  0.00000000000E+00 0.  1.
         21    1    1    2  503  501 -0.36987088415E+02  0.64387132067E+01 -0.38498412495E+02  0.53773873784E+02  0.00000000000E+00 0.  1.
         21    1    1    2  504  502  0.36987088415E+02 -0.64387132067E+01 -0.26766912795E+03  0.27028922249E+03  0.00000000000E+00 0.  1.
</event>
<event>
 4    1  0.2967296E+006  0.3003709E+02  0.7546771E-02  0.1419274E+00
         21   -1    0    0  503  501  0.00000000000E+00  0.00000000000E+00  0.49213761333E+02  0.49213761333E+02  0.00000000000E+00 0.  1.
         21   -1    0    0  504  502 -0.00000000000E+00 -0.00000000000E+00 -0.23519436725E+02  0.23519436725E+02  0.00000000000E+00 0. -1.
         21    1    1    2  503  502  0.22607681073E+02 -0.19776747521E+02 -0.42306149090E+01  0.30333563730E+02  0.00000000000E+00 0. -1.
         21    1    1    2  504  501 -0.22607681073E+02  0.19776747521E+02  0.29924939517E+02  0.42399634328E+02  0.00000000000E+00 0.  1.
</event>
<event>
 4    1  0.2967296E+006  0.2392936E+02  0.7546771E-02  0.1481147E+00
         21   -1    0    0  504  501  0.00000000000E+00  0.00000000000E+00  0.43971540083E+02  0.43971540083E+02  0.00000000000E+00 0. -1.
         21   -1    0    0  503  502 -0.00000000000E+00 -0.00000000000E+00 -0.29282109357E+03  0.29282109357E+03  0.00000000000E+00 0.  1.
         21    1    1    2  503  501 -0.17474280407E+02 -0.16348204285E+02  0.40184483507E+02  0.46769722833E+02  0.00000000000E+00 0. -1.
         21    1    1    2  504  502  0.17474280407E+02  0.16348204285E+02 -0.28903403700E+03  0.29002291082E+03  0.00000000000E+00 0.  1.
</event>
<event>
 4    1  0.2967296E+006  0.2331115E+02  0.7546771E-02  0.1488628E+00
         21   -1    0    0  503  501  0.00000000000E+00  0.00000000000E+00  0.13578614987E+02  0.13578614987E+02  0.00000000000E+00 0. -1.
         21   -1    0    0  504  502 -0.00000000000E+00 -0.00000000000E+00 -0.18804958439E+03  0.18804958439E+03  0.00000000000E+00 0.  1.
         21    1    1    2  503  502  0.20370607407E+02  0.11333499576E+02  0.22103310035E+01  0.23415708871E+02  0.00000000000E+00 0. -1.
         21    1    1    2  504  501 -0.20370607407E+02 -0.11333499576E+02 -0.17668130040E+03  0.17821249050E+03  0.00000000000E+00 0.  1.
</event>
<event>
 4    1  0.2967296E+006  0.5296133E+02  0.7546771E-02  0.1285820E+00
         21   -1    0    0  504  501  0.00000000000E+00  0.00000000000E+00  0.12788705664E+03  0.12788705664E+03  0.00000000000E+00 0. -1.
         21   -1    0    0  503  502 -0.00000000000E+00 -0.00000000000E+00 -0.25055469705E+02  0.25055469705E+02  0.00000000000E+00 0. -1.
         21    1    1    2  503  501  0.15543206767E+02 -0.50629150721E+02  0.24418490742E+02  0.58319506766E+02  0.00000000000E+00 0. -1.
         21    1    1    2  504  502 -0.15543206767E+02  0.50629150721E+02  0.78413096190E+02  0.94623019575E+02  0.00000000000E+00 0. -1.
</event>
<event>
 4    1  0.2967296E+006  0.2260118E+02  0.7546771E-02  0.1497568E+00
         21   -1    0    0  504  501  0.00000000000E+00  0.00000000000E+00  0.48147641991E+02  0.48147641991E+02  0.00000000000E+00 0.  1.
         21   -1    0    0  501  502 -0.00000000000E+00 -0.00000000000E+00 -0.58213935652E+02  0.58213935652E+02  0.00000000000E+00 0. -1.
         21    1    1    2  503  502 -0.16812126153E+02 -0.15105155202E+02 -0.53124374905E+02  0.57732248428E+02  0.00000000000E+00 0. -1.
         21    1    1    2  504  503  0.16812126153E+02  0.15105155202E+02  0.43058081244E+02  0.48629329215E+02  0.00000000000E+00 0.  1.
</event>
<event>
 4    1  0.2967296E+006  0.2199190E+02  0.7546771E-02  0.1505560E+00
         21   -1    0    0  504  501  0.00000000000E+00  0.00000000000E+00  0.39585196581E+02  0.39585196581E+02  0.00000000000E+00 0.  1.
         21   -1    0    0  503  502 -0.00000000000E+00 -0.00000000000E+00 -0.18761711119E+02  0.18761711119E+02  0.00000000000E+00 0. -1.
         21    1    1    2  503  501  0.21914718150E+02 -0.18408399719E+01  0.27641164419E+02  0.35322479158E+02  0.00000000000E+00 0.  1.
         21    1    1    2  504  502 -0.21914718150E+02  0.18408399719E+01 -0.68176789572E+01  0.23024428543E+02  0.00000000000E+00 0. -1.
</event>
<event>
 4    1  0.2967296E+006  0.2033430E+02  0.7546771E-02  0.1528985E+00
         21   -1    0    0  502  501  0.00000000000E+00  0.00000000000E+00  0.10405982868E+02  0.10405982868E+02  0.00000000000E+00 0. -1.
         21   -1    0    0  503  502 -0.00000000000E+00 -0.00000000000E+00 -0.29345540066E+03  0.29345540066E+03  0.00000000000E+00 0. -1.
         21    1    1    2  503  504 -0.16048357553E+02 -0.12487351186E+02 -0.28279537488E+03  0.28352549757E+03  0.00000000000E+00 0. -1.
         21    1    1    2  504  501  0.16048357553E+02  0.12487351186E+02 -0.25404291154E+00  0.20335885955E+02  0.00000000000E+00 0. -1.
</event>
<event>
 4    1  0.2967296E+006  0.2286239E+02  0.7546771E-02  0.1494233E+00
         21   -1    0    0  503  501  0.00000000000E+00  0.00000000000E+00  0.12275006683E+03  0.12275006683E+03  0.00000000000E+00 0. -1.
         21   -1    0    0  504  502 -0.00000000000E+00 -0.00000000000E+00 -0.33574371469E+02  0.33574371469E+02  0.00000000000E+00 0.  1.
         21    1    1    2  503  502  0.22699225422E+02 -0.27265848871E+01 -0.28449816922E+02  0.36497687363E+02  0.00000000000E+00 0.  1.
         21    1    1    2  504  501 -0.22699225422E+02  0.27265848871E+01  0.11762551228E+03  0.11982675094E+03  0.00000000000E+00 0. -1.
</event>
<event>
 4    1  0.2967296E+006  0.3539826E+02  0.7546771E-02  0.1377785E+00
         21   -1    0    0  503  501  0.00000000000E+00  0.00000000000E+00  0.13062664346E+03  0.13062664346E+03  0.00000000000E+00 0.  1.
         21   -1    0    0  504  502 -0.00000000000E+00 -0.00000000000E+00 -0.31917970328E+02  0.31917970328E+02  0.00000000000E+00 0.  1.
         21    1    1    2  503  502  0.35382611719E+02  0.10525551427E+01  0.11732557571E+03  0.12254928723E+03  0.00000000000E+00 0.  1.
         21    1    1    2  504  501 -0.35382611719E+02 -0.10525551427E+01 -0.18616902584E+02  0.39995326554E+02  0.00000000000E+00 0.  1.
</event>
<event>
 4    1  0.2967296E+006  0.2291290E+02  0.7546771E-02  0.1493595E+00
         21   -1    0    0  504  501  0.00000000000E+00  0.00000000000E+00  0.13044711141E+01  0.13044711141E+01  0.00000000000E+00 0.  1.
         21   -1    0    0  503  502 -0.00000000000E+00 -0.00000000000E+00 -0.40869310973E+03  0.40869310973E+03  0.00000000000E+00 0.  1.
         21    1    1    2  503  501  0.13546108266E+02  0.18479824002E+02 -0.17838318889E+03  0.17984872261E+03  0.00000000000E+00 0.  1.
         21    1    1    2  504  502 -0.13546108266E+02 -0.18479824002E+02 -0.22900544972E+03  0.23014885824E+03  0.00000000000E+00 0.  1.
</event>
<event>
 4    1  0.2967296E+006  0.3573110E+02  0.7546771E-02  0.1375495E+00
         21   -1    0    0  504  501  0.00000000000E+00  0.00000000000E+00  0.56721272528E+02  0.56721272528E+02  0.00000000000E+00 0.  1.
         21   -1    0    0  503  502 -0.00000000000E+00 -0.00000000000E+00 -0.24735044205E+02  0.24735044205E+02  0.00000000000E+00 0.  1.
         21    1    1    2  503  501  0.18800234375E+02 -0.30385237180E+02  0.28212599223E+02  0.45526500040E+02  0.00000000000E+00 0.  1.
         21    1    1    2  504  502 -0.18800234375E+02  0.30385237180E+02  0.37736291004E+01  0.35929816693E+02  0.00000000000E+00 0.  1.
</event>
<event>
 4    1  0.2967296E+006  0.2367680E+02  0.7546771E-02  0.1484170E+00
         21   -1    0    0  503  501  0.00000000000E+00  0.00000000000E+00  0.40444367253E+01  0.40444367253E+01  0.00000000000E+00 0. -1.
         21   -1    0    0  504  502 -0.00000000000E+00 -0.00000000000E+00 -0.44391828710E+03  0.44391828710E+03  0.00000000000E+00 0. -1.
         21    1    1    2  503  502 -0.31086905150E+01 -0.23471836009E+02 -0.34185940534E+02  0.41584487163E+02  0.00000000000E+00 0. -1.
         21    1    1    2  504  501  0.31086905150E+01  0.23471836009E+02 -0.40568790984E+03  0.40637823666E+03  0.00000000000E+00 0. -1.
</event>
<event>
 4    1  0.2967296E+006  0.4854841E+02  0.7546771E-02  0.1304592E+00
         21   -1    0    0  503  501  0.00000000000E+00  0.00000000000E+00  0.35076209782E+02  0.35076209782E+02  0.00000000000E+00 0.  1.
         21   -1    0    0  504  502 -0.00000000000E+00 -0.00000000000E+00 -0.30394501156E+03  0.30394501156E+03  0.00000000000E+00 0.  1.
         21    1    1    2  503  502 -0.56109436268E+01  0.48223076164E+02 -0.28403878983E+03  0.28815791138E+03  0.00000000000E+00 0.  1.
         21    1    1    2  504  501  0.56109436268E+01 -0.48223076164E+02  0.15169988049E+02  0.50863309964E+02  0.00000000000E+00 0.  1.
</event>
<event>
 4    1  0.2967296E+006  0.2627737E+02  0.7546771E-02  0.1455005E+00
         21   -1    0    0  504  501  0.00000000000E+00  0.00000000000E+00  0.16863049899E+02  0.16863049899E+02  0.00000000000E+00 0. -1.
         21   -1    0    0  501  502 -0.00000000000E+00 -0.00000000000E+00 -0.34483879728E+03  0.34483879728E+03  0.00000000000E+00 0.  1.
         21    1    1    2  503  502 -0.13937847294E+02  0.22276374096E+02 -0.33376210481E+03  0.33479492684E+03  0.00000000000E+00 0.  1.
         21    1    1    2  504  503  0.13937847294E+02 -0.22276374096E+02  0.57863574268E+01  0.26906920342E+02  0.00000000000E+00 0. -1.
</event>
<event>
 4    1  0.2967296E+006  0.3208557E+02  0.7546771E-02  0.1402298E+00
         21   -1    0    0  504  501  0.00000000000E+00  0.00000000000E+00  0.11916597533E+03  0.11916597533E+03  0.00000000000E+00 0. -1.
         21   -1    0    0  503  502 -0.00000000000E+00 -0.00000000000E+00 -0.20007818337E+02  0.20007818337E+02  0.00000000000E+00 0. -1.
         21    1    1    2  503  501 -0.26181615327E+02 -0.18547419915E+02  0.10203370973E+03  0.10695962644E+03  0.00000000000E+00 0. -1.
         21    1    1    2  504  502  0.26181615327E+02  0.18547419915E+02 -0.28755527383E+01  0.32214167228E+02  0.00000000000E+00 0. -1.
</event>
<event>
 4    1  0.2967296E+006  0.2494753E+02  0.7546771E-02  0.1469391E+00
         21   -1    0    0  504  501  0.00000000000E+00  0.00000000000E+00  0.30399561057E+03  0.30399561057E+03  0.00000000000E+00 0. -1.
         21   -1    0    0  501  502 -0.00000000000E+00 -0.00000000000E+00 -0.26563040774E+01  0.26563040774E+01  0.00000000000E+00 0. -1.
         21    1    1    2  503  502 -0.15113066227E+02 -0.19848796461E+02  0.77256140019E+02  0.81184300590E+02  0.00000000000E+00 0. -1.
         21    1    1    2  504  503  0.15113066227E+02  0.19848796461E+02  0.22408316647E+03  0.22546761405E+03  0.00000000000E+00 0. -1.
</event>
<event>
 4    1  0.2967296E+006  0.3021629E+02  0.7546771E-02  0.1417726E+00
         21   -1    0    0  504  501  0.00000000000E+00  0.00000000000E+00  0.14658406256E+02  0.14658406256E+02  0.00000000000E+00 0. -1.
         21   -1    0    0  503  502 -0.00000000000E+00 -0.00000000000E+00 -0.70886419031E+02  0.70886419031E+02  0.00000000000E+00 0. -1.
         21    1    1    2  503  501  0.29852215782E+02  0.46764600101E+01 -0.13216148673E+02  0.32980155413E+02  0.00000000000E+00 0. -1.
         21    1    1    2  504  502 -0.29852215782E+02 -0.46764600101E+01 -0.43011864102E+02  0.52564669873E+02  0.00000000000E+00 0. -1.
</event>
<event>
 4    1  0.2967296E+006  0.2345625E+02  0.7546771E-02  0.1486847E+00
         21   -1    0    0  503  501  0.00000000000E+00  0.00000000000E+00  0.84728167984E+01  0.84728167984E+01  0.00000000000E+00 0. -1.
         21   -1    0    0  504  502 -0.00000000000E+00 -0.00000000000E+00 -0.78081991739E+02  0.78081991739E+02  0.00000000000E+00 0. -1.
         21    1    1    2  503  502 -0.10148089322E+01  0.23434289681E+02 -0.17047455899E+02  0.28996750208E+02  0.00000000000E+00 0. -1.
         21    1    1    2  504  501  0.10148089322E+01 -0.23434289681E+02 -0.52561719041E+02  0.57558058329E+02  0.00000000000E+00 0. -1.
</event>
<event>
 4    1  0.2967296E+006  0.2076281E+02  0.7546771E-02  0.1522678E+00
         21   -1    0    0  503  501  0.00000000000E+00  0.00000000000E+00  0.13118683310E+02  0.13118683310E+02  0.00000000000E+00 0. -1.
         21   -1    0    0  504  502 -0.00000000000E+00 -0.00000000000E+00 -0.50414718407E+02  0.50414718407E+02  0.00000000000E+00 0. -1.
         21    1    1    2  503  502  0.92621930646E+01 -0.18582411441E+02 -0.37392648246E+02  0.42770367992E+02  0.00000000000E+00 0. -1.
         21    1    1    2  504  501 -0.92621930646E+01  0.18582411441E+02  0.96613149743E-01  0.20763033724E+02  0.00000000000E+00 0. -1.
</event>
<event>
 4    1  0.2967296E+006  0.2209164E+02  0.7546771E-02  0.1504231E+00
         21   -1    0    0  504  501  0.00000000000E+00  0.00000000000E+00  0.10555156927E+03  0.10555156927E+03  0.00000000000E+00 0. -1.
         21   -1    0    0  503  502 -0.00000000000E+00 -0.00000000000E+00 -0.18561380314E+02  0.18561380314E+02  0.00000000000E+00 0.  1.
         21    1    1    2  503  501 -0.86592706087E+01 -0.20323819099E+02  0.97269664988E+02  0.99746821087E+02  0.00000000000E+00 0. -1.
         21    1    1    2  504  502  0.86592706087E+01  0.20323819099E+02 -0.10279476035E+02  0.24366128494E+02  0.00000000000E+00 0.  1.
</event>
<event>
 4    1  0.2967296E+006  0.2043054E+02  0.7546771E-02  0.1527553E+00
         21   -1    0    0  503  501  0.00000000000E+00  0.00000000000E+00  0.13802321936E+02  0.13802321936E+02  0.00000000000E+00 0.  1.
         21   -1    0    0  504  502 -0.00000000000E+00 -0.00000000000E+00 -0.46885803189E+02  0.46885803189E+02  0.00000000000E+00 0. -1.
         21    1    1    2  503  502  0.19297586469E+02 -0.67089664016E+01 -0.34621053758E+02  0.40199806430E+02  0.00000000000E+00 0. -1.
         21    1    1    2  504  501 -0.19297586469E+02  0.67089664016E+01  0.15375725050E+01  0.20488318694E+02  0.00000000000E+00 0.  1.
</event>
<event>
 4    1  0.2967296E+006  0.3866328E+02  0.7546771E-02  0.1356502E+00
         21   -1    0    0  504  501  0.00000000000E+00  0.00000000000E+00  0.91220412141E+03  0.91220412141E+03  0.00000000000E+00 0. -1.
         21   -1    0    0  503  502 -0.00000000000E+00 -0.00000000000E+00 -0.17630174234E+02  0.17630174234E+02  0.00000000000E+00 0. -1.
         21    1    1    2  503  501  0.26597412757E+02  0.28061124028E+02  0.45036926421E+01  0.38924700314E+02  0.00000000000E+00 0. -1.
         21    1    1    2  504  502 -0.26597412757E+02 -0.28061124028E+02  0.89007025454E+03  0.89090959533E+03  0.00000000000E+00 0. -1.
</event>
<event>
 4    1  0.2967296E+006  0.2721453E+02  0.7546771E-02  0.1445465E+00
         21   -1    0    0  503  501  0.00000000000E+00  0.00000000000E+00  0.34260110883E+02  0.34260110883E+02  0.00000000000E+00 0.  1.
         21   -1    0    0  504  502 -0.00000000000E+00 -0.00000000000E+00 -0.26609323661E+02  0.26609323661E+02  0.00000000000E+00 0.  1.
         21    1    1    2  503  502  0.26015924688E+02  0.79876233283E+01 -0.93561441439E+01  0.28777906405E+02  0.00000000000E+00 0.  1.
         21    1    1    2  504  501 -0.26015924688E+02 -0.79876233283E+01  0.17006931366E+02  0.32091528139E+02  0.00000000000E+00 0.  1.
</event>
<event>
 4    1  0.2967296E+006  0.2740634E+02  0.7546771E-02  0.1443569E+00
         21   -1    0    0  502  501  0.00000000000E+00  0.00000000000E+00  0.17364766749E+02  0.17364766749E+02  0.00000000000E+00 0.  1.
         21   -1    0    0  503  502 -0.00000000000E+00 -0.00000000000E+00 -0.27756086147E+03  0.27756086147E+03  0.00000000000E+00 0.  1.
         21    1    1    2  503  504  0.26065147793E+02  0.84684882469E+01 -0.26558431789E+03  0.26699463877E+03  0.00000000000E+00 0.  1.
         21    1    1    2  504  501 -0.26065147793E+02 -0.84684882469E+01  0.53882231697E+01  0.27930989449E+02  0.00000000000E+00 0.  1.
</event>
<event>
 4    1  0.2967296E+006  0.2642098E+02  0.7546771E-02  0.1453513E+00
         21   -1    0    0  504  501  0.00000000000E+00  0.00000000000E+00  0.43974264177E+02  0.43974264177E+02  0.00000000000E+00 0.  1.
         21   -1    0    0  503  502 -0.00000000000E+00 -0.00000000000E+00 -0.44307513363E+02  0.44307513363E+02  0.00000000000E+00 0.  1.
         21    1    1    2  503  501 -0.25618866502E+02 -0.64608027832E+01 -0.35526769117E+02  0.44274367498E+02  0.00000000000E+00 0.  1.
         21    1    1    2  504  502  0.25618866502E+02  0.64608027832E+01  0.35193519931E+02  0.44007410042E+02  0.00000000000E+00 0.  1.
</event>
<event>
 4    1  0.2967296E+006  0.4105745E+02  0.7546771E-02  0.1342398E+00
         21   -1    0    0  502  501  0.00000000000E+00  0.00000000000E+00  0.96777962678E+00  0.96777962678E+00  0.00000000000E+00 0.  1.
         21   -1    0    0  504  502 -0.00000000000E+00 -0.00000000000E+00 -0.19737181137E+04  0.19737181137E+04  0.00000000000E+00 0. -1.
         21    1    1    2  503  501  0.37294026836E+02  0.17171783517E+02 -0.64795367519E+03  0.64925317079E+03  0.00000000000E+00 0.  1.
         21    1    1    2  504  503 -0.37294026836E+02 -0.17171783517E+02 -0.13247966589E+04  0.13254327225E+04  0.00000000000E+00 0. -1.
</event>
<event>
 4    1  0.2967296E+006  0.4748585E+02  0.7546771E-02  0.1309457E+00
         21   -1    0    0  503  501  0.00000000000E+00  0.00000000000E+00  0.16426719706E+03  0.16426719706E+03  0.00000000000E+00 0. -1.
         21   -1    0    0  504  502 -0.00000000000E+00 -0.00000000000E+00 -0.89391243525E+02  0.89391243525E+02  0.00000000000E+00 0. -1.
         21    1    1    2  503  502  0.12117218651E+02 -0.45913817715E+02  0.15412350823E+03  0.16127294080E+03  0.00000000000E+00 0. -1.
         21    1    1    2  504  501 -0.12117218651E+02  0.45913817715E+02 -0.79247554696E+02  0.92385499784E+02  0.00000000000E+00 0. -1.
</event>
<event>
 4    1  0.2967296E+006  0.2417860E+02  0.7546771E-02  0.1478206E+00
         21   -1    0    0  503  501  0.00000000000E+00  0.00000000000E+00  0.28304401516E+02  0.28304401516E+02  0.00000000000E+00 0.  1.
         21   -1    0    0  504  502 -0.00000000000E+00 -0.00000000000E+00 -0.45739482727E+02  0.45739482727E+02  0.00000000000E+00 0. -1.
         21    1    1    2  503  502  0.21926909114E+02 -0.10188984821E+02  0.18699657983E+02  0.30566026298E+02  0.00000000000E+00 0.  1.
         21    1    1    2  504  501 -0.21926909114E+02  0.10188984821E+02 -0.36134739193E+02  0.43477857945E+02  0.00000000000E+00 0. -1.
</event>
<event>
 4    1  0.2967296E+006  0.2256407E+02  0.7546771E-02  0.1498046E+00
         21   -1    0    0  503  501  0.00000000000E+00  0.00000000000E+00  0.43596168555E+03  0.43596168555E+03  0.00000000000E+00 0. -1.
         21   -1    0    0  504  502 -0.00000000000E+00 -0.00000000000E+00 -0.12779210547E+01  0.12779210547E+01  0.00000000000E+00 0. -1.
         21    1    1    2  503  502 -0.22507311721E+02 -0.15993965529E+01  0.28150378533E+03  0.28240665415E+03  0.00000000000E+00 0. -1.
         21    1    1    2  504  501  0.22507311721E+02  0.15993965529E+01  0.15317997916E+03  0.15483295245E+03  0.00000000000E+00 0. -1.
</event>
<event>
 4    1  0.2967296E+006  0.3167521E+02  0.7546771E-02  0.1405577E+00
         21   -1    0    0  503  501  0.00000000000E+00  0.00000000000E+00  0.11064961716E+04  0.11064961716E+04  0.00000000000E+00 0. -1.
         21   -1    0    0  501  502 -0.00000000000E+00 -0.00000000000E+00 -0.10952334190E+01  0.10952334190E+01  0.00000000000E+00 0. -1.
         21    1    1    2  503  504 -0.19863233082E+02  0.24673284267E+02  0.78243648454E+03  0.78307737251E+03  0.00000000000E+00 0. -1.
         21    1    1    2  504  502  0.19863233082E+02 -0.24673284267E+02  0.32296445365E+03  0.32451403253E+03  0.00000000000E+00 0. -1.
</event>
<event>
 4    1  0.2967296E+006  0.5997865E+02  0.7546771E-02  0.1259905E+00
         21   -1    0    0  503  501  0.00000000000E+00  0.00000000000E+00  0.24720930869E+03  0.24720930869E+03  0.00000000000E+00 0. -1.
         21   -1    0    0  504  502 -0.00000000000E+00 -0.00000000000E+00 -0.83629191398E+02  0.83629191398E+02  0.00000000000E+00 0.  1.
         21    1    1    2  503  502 -0.56109224844E+02  0.21194186027E+02  0.23212980534E+03  0.23975338404E+03  0.00000000000E+00 0. -1.
         21    1    1    2  504  501  0.56109224844E+02 -0.21194186027E+02 -0.68549688045E+02  0.91085116045E+02  0.00000000000E+00 0.  1.
</event>
<event>
 4    1  0.2967296E+006  0.2361434E+02  0.7546771E-02  0.1484925E+00
         21   -1    0    0  504  501  0.00000000000E+00  0.00000000000E+00  0.78756682961E+00  0.78756682961E+00  0.00000000000E+00 0.  1.
         21   -1    0    0  501  502 -0.00000000000E+00 -0.00000000000E+00 -0.13604269721E+04  0.13604269721E+04  0.00000000000E+00 0.  1.
         21    1    1    2  503  502 -0.19771354472E+02  0.12912415263E+02 -0.11511313581E+04  0.11513735451E+04  0.00000000000E+00 0.  1.
         21    1    1    2  504  503  0.19771354472E+02 -0.12912415263E+02 -0.20850804720E+03  0.20984099379E+03  0.00000000000E+00 0.  1.
</event>
<event>
 4    1  0.2967296E+006  0.3077928E+02  0.7546771E-02  0.1412943E+00
         21   -1    0    0  504  501  0.00000000000E+00  0.00000000000E+00  0.29309988233E+01  0.29309988233E+01  0.00000000000E+00 0. -1.
         21   -1    0    0  503  502 -0.00000000000E+00 -0.00000000000E+00 -0.33727260449E+03  0.33727260449E+03  0.00000000000E+00 0. -1.
         21    1    1    2  503  501  0.14877655171E+02 -0.26944744434E+02 -0.20188945496E+03  0.20422222186E+03  0.00000000000E+00 0. -1.
         21    1    1    2  504  502 -0.14877655171E+02  0.26944744434E+02 -0.13245215070E+03  0.13598138145E+03  0.00000000000E+00 0. -1.
</event>
<event>
 4    1  0.2967296E+006  0.2207336E+02  0.7546771E-02  0.1504474E+00
         21   -1    0    0  504  501  0.00000000000E+00  0.00000000000E+00  0.31558748492E+01  0.31558748492E+01  0.00000000000E+00 0.  1.
         21   -1    0    0  503  502 -0.00000000000E+00 -0.00000000000E+00 -0.17007731322E+03  0.17007731322E+03  0.00000000000E+00 0. -1.
         21    1    1    2  503  501  0.16204575746E+02 -0.14988152956E+02 -0.10976722817E+03  0.11196462560E+03  0.00000000000E+00 0. -1.
         21    1    1    2  504  502 -0.16204575746E+02  0.14988152956E+02 -0.57154210194E+02  0.61268562469E+02  0.00000000000E+00 0.  1.
</event>
<event>
 4    1  0.2967296E+006  0.2549617E+02  0.7546771E-02  0.1463329E+00
         21   -1    0    0  504  501  0.00000000000E+00  0.00000000000E+00  0.46364922227E+02  0.46364922227E+02  0.00000000000E+00 0. -1.
         21   -1    0    0  501  502 -0.00000000000E+00 -0.00000000000E+00 -0.87241752512E+02  0.87241752512E+02  0.00000000000E+00 0.  1.
         21    1    1    2  503  502  0.19051379604E+02  0.16944020766E+02 -0.81638895772E+02  0.85527564021E+02  0.00000000000E+00 0.  1.
         21    1    1    2  504  503 -0.19051379604E+02 -0.16944020766E+02  0.40762065488E+02  0.48079110717E+02  0.00000000000E+00 0. -1.
</event>
<event>
 4    1  0.2967296E+006  0.2665378E+02  0.7546771E-02  0.1451117E+00
         21   -1    0    0  502  501  0.00000000000E+00  0.00000000000E+00  0.93409582791E+02  0.93409582791E+02  0.00000000000E+00 0.  1.
         21   -1    0    0  504  502 -0.00000000000E+00 -0.00000000000E+00 -0.35991072717E+02  0.35991072717E+02  0.00000000000E+00 0. -1.
         21    1    1    2  503  501 -0.26484205681E+02  0.30018333271E+01  0.86168261811E+02  0.90196416211E+02  0.00000000000E+00 0.  1.
         21    1    1    2  504  503  0.26484205681E+02 -0.30018333271E+01 -0.28749751737E+02  0.39204239297E+02  0.00000000000E+00 0. -1.
</event>
<event>
 4    1  0.2967296E+006  0.2585195E+02  0.7546771E-02  0.1459494E+00
         21   -1    0    0  503  501  0.00000000000E+00  0.00000000000E+00  0.40592078266E+01  0.40592078266E+01  0.00000000000E+00 0. -1.
         21   -1    0    0  501  502 -0.00000000000E+00 -0.00000000000E+00 -0.22960423319E+03  0.22960423319E+03  0.00000000000E+00 0. -1.
         21    1    1    2  503  504 -0.20987356331E+02 -0.15094835946E+02 -0.50629049731E+02  0.56847373507E+02  0.00000000000E+00 0. -1.
         21    1    1    2  504  502  0.20987356331E+02  0.15094835946E+02 -0.17491597563E+03  0.17681606750E+03  0.00000000000E+00 0. -1.
</event>
<event>
 4    1  0.2967296E+006  0.2027324E+02  0.7546771E-02  0.1529899E+00
         21   -1    0    0  504  501  0.00000000000E+00  0.00000000000E+00  0.11452796371E+02  0.11452796371E+02  0.00000000000E+00 0. -1.
         21   -1    0    0  503  502 -0.00000000000E+00 -0.00000000000E+00 -0.70726551616E+02  0.70726551616E+02  0.00000000000E+00 0. -1.
         21    1    1    2  503  501  0.25178382779E+01 -0.20116279484E+02 -0.58475796825E+02  0.61890411408E+02  0.00000000000E+00 0. -1.
         21    1    1    2  504  502 -0.25178382779E+01  0.20116279484E+02 -0.79795841999E+00  0.20288936579E+02  0.00000000000E+00 0. -1.
</event>
<event>
 4    1  0.2967296E+006  0.2175384E+02  0.7546771E-02  0.1508768E+00
         21   -1    0    0  504  501  0.00000000000E+00  0.00000000000E+00  0.68955364369E+02  0.68955364369E+02  0.00000000000E+00 0.  1.
         21   -1    0    0  503  502 -0.00000000000E+00 -0.00000000000E+00 -0.69179398750E+01  0.69179398750E+01  0.00000000000E+00 0. -1.
         21    1    1    2  503  501  0.68610618847E+01 -0.20643532249E+02  0.34404409650E+02  0.40704950525E+02  0.00000000000E+00 0.  1.
         21    1    1    2  504  502 -0.68610618847E+01  0.20643532249E+02  0.27633014844E+02  0.35168353719E+02  0.00000000000E+00 0. -1.
</event>
<event>
 4    1  0.2967296E+006  0.2178975E+02  0.7546771E-02  0.1508281E+00
         21   -1    0    0  504  501  0.00000000000E+00  0.00000000000E+00  0.55076357770E+01  0.55076357770E+01  0.00000000000E+00 0. -1.
         21   -1    0    0  503  502 -0.00000000000E+00 -0.00000000000E+00 -0.99482558540E+02  0.99482558540E+02  0.00000000000E+00 0. -1.
         21    1    1    2  503  501  0.17242935939E+02 -0.13321948066E+02 -0.27810384270E+02  0.35330024247E+02  0.00000000000E+00 0. -1.
         21    1    1    2  504  502 -0.17242935939E+02  0.13321948066E+02 -0.66164538493E+02  0.69660170069E+02  0.00000000000E+00 0. -1.
</event>
<event>
 4    1  0.2967296E+006  0.2116894E+02  0.7546771E-02  0.1516866E+00
         21   -1    0    0  503  501  0.00000000000E+00  0.00000000000E+00  0.92882091530E+02  0.92882091530E+02  0.00000000000E+00 0.  1.
         21   -1    0    0  504  502 -0.00000000000E+00 -0.00000000000E+00 -0.11016442771E+02  0.11016442771E+02  0.00000000000E+00 0.  1.
         21    1    1    2  503  502  0.12716406718E+02 -0.16923858046E+02  0.79879177199E+02  0.82636595531E+02  0.00000000000E+00 0.  1.
         21    1    1    2  504  501 -0.12716406718E+02  0.16923858046E+02  0.19864715594E+01  0.21261938769E+02  0.00000000000E+00 0.  1.
</event>
<event>
 4    1  0.2967296E+006  0.3117074E+02  0.7546771E-02  0.1409688E+00
         21   -1    0    0  504  501  0.00000000000E+00  0.00000000000E+00  0.19447714151E+01  0.19447714151E+01  0.00000000000E+00 0.  1.
         21   -1    0    0  503  502 -0.00000000000E+00 -0.00000000000E+00 -0.13156221065E+04  0.13156221065E+04  0.00000000000E+00 0.  1.
         21    1    1    2  503  501 -0.30382336990E+02  0.69662353861E+01 -0.11756710699E+04  0.11760842144E+04  0.00000000000E+00 0.  1.
         21    1    1    2  504  502  0.30382336990E+02 -0.69662353861E+01 -0.13800626524E+03  0.14148266354E+03  0.00000000000E+00 0.  1.
</event>
<event>
 4    1  0.2967296E+006  0.2361970E+02  0.7546771E-02  0.1484860E+00
         21   -1    0    0  502  501  0.00000000000E+00  0.00000000000E+00  0.16720152183E+03  0.16720152183E+03  0.00000000000E+00 0. -1.
         21   -1    0    0  503  502 -0.00000000000E+00 -0.00000000000E+00 -0.49103268305E+01  0.49103268305E+01  0.00000000000E+00 0. -1.
         21    1    1    2  503  504  0.81057565557E+01 -0.22185285987E+02  0.32428027013E+02  0.40118164709E+02  0.00000000000E+00 0. -1.
         21    1    1    2  504  501 -0.81057565557E+01  0.22185285987E+02  0.12986316799E+03  0.13199368396E+03  0.00000000000E+00 0. -1.
</event>
<event>
 4    1  0.2967296E+006  0.3444834E+02  0.7546771E-02  0.1384484E+00
         21   -1    0    0  502  501  0.00000000000E+00  0.00000000000E+00  0.23055191237E+02  0.23055191237E+02  0.00000000000E+00 0.  1.
         21   -1    0    0  503  502 -0.00000000000E+00 -0.00000000000E+00 -0.57017862364E+02  0.57017862364E+02  0.00000000000E+00 0.  1.
         21    1    1    2  503  504 -0.32703049055E+02  0.10825824844E+02 -0.29468119335E+02  0.45332747084E+02  0.00000000000E+00 0.  1.
         21    1    1    2  504  501  0.32703049055E+02 -0.10825824844E+02 -0.44945517914E+01  0.34740306517E+02  0.00000000000E+00 0.  1.
</event>
<event>
 4    1  0.2967296E+006  0.2073061E+02  0.7546771E-02  0.1523146E+00
         21   -1    0    0  503  501  0.00000000000E+00  0.00000000000E+00  0.13756551665E+04  0.13756551665E+04  0.00000000000E+00 0. -1.
         21   -1    0    0  504  502 -0.00000000000E+00 -0.00000000000E+00 -0.34758739191E+00  0.34758739191E+00  0.00000000000E+00 0.  1.
         21    1    1    2  503  502 -0.17870753701E+02 -0.10506880460E+02  0.90654798063E+03  0.90678497978E+03  0.00000000000E+00 0.  1.
         21    1    1    2  504  501  0.17870753701E+02  0.10506880460E+02  0.46875959850E+03  0.46921777413E+03  0.00000000000E+00 0. -1.
</event>
<event>
 4    1  0.2967296E+006  0.2399246E+02  0.7546771E-02  0.1480398E+00
         21   -1    0    0  503  501  0.00000000000E+00  0.00000000000E+00  0.38280460315E+03  0.38280460315E+03  0.00000000000E+00 0.  1.
         21   -1    0    0  504  502 -0.00000000000E+00 -0.00000000000E+00 -0.24265318285E+01  0.24265318285E+01  0.00000000000E+00 0. -1.
         21    1    1    2  503  502  0.14148398873E+02 -0.19376811948E+02  0.30897102758E+03  0.30990116798E+03  0.00000000000E+00 0.  1.
         21    1    1    2  504  501 -0.14148398873E+02  0.19376811948E+02  0.71407043734E+02  0.75329966991E+02  0.00000000000E+00 0. -1.
</event>
<event>
 4    1  0.2967296E+006  0.2105697E+02  0.7546771E-02  0.1518453E+00
         21   -1    0    0  504  501  0.00000000000E+00  0.00000000000E+00  0.79394616110E+01  0.79394616110E+01  0.00000000000E+00 0. -1.
         21   -1    0    0  503  502 -0.00000000000E+00 -0.00000000000E+00 -0.72814436209E+02  0.72814436209E+02  0.00000000000E+00 0.  1.
         21    1    1    2  503  501  0.19560779695E+02  0.77956208231E+01 -0.12946593861E+02  0.24718618467E+02  0.00000000000E+00 0. -1.
         21    1    1    2  504  502 -0.19560779695E+02 -0.77956208231E+01 -0.51928380737E+02  0.56035279354E+02  0.00000000000E+00 0.  1.
</event>
<event>
 4    1  0.2967296E+006  0.2319232E+02  0.7546771E-02  0.1490097E+00
         21   -1    0    0  504  501  0.00000000000E+00  0.00000000000E+00  0.10678551625E+02  0.10678551625E+02  0.00000000000E+00 0. -1.
         21   -1    0    0  503  502 -0.00000000000E+00 -0.00000000000E+00 -0.55785534495E+03  0.55785534495E+03  0.00000000000E+00 0.  1.
         21    1    1    2  503  501 -0.13914363819E+02 -0.18554626652E+02 -0.54471811222E+03  0.54521161531E+03  0.00000000000E+00 0.  1.
         21    1    1    2  504  502  0.13914363819E+02  0.18554626652E+02 -0.24586811092E+01  0.23322281266E+02  0.00000000000E+00 0. -1.
</event>
<event>
 4    1  0.2967296E+006  0.2313592E+02  0.7546771E-02  0.1490798E+00
         21   -1    0    0  504  501  0.00000000000E+00  0.00000000000E+00  0.66215576559E+02  0.66215576559E+02  0.00000000000E+00 0. -1.
         21   -1    0    0  503  502 -0.00000000000E+00 -0.00000000000E+00 -0.84484513623E+01  0.84484513623E+01  0.00000000000E+00 0. -1.
         21    1    1    2  503  501 -0.36855759863E+01 -0.22840478266E+02  0.36639866328E+02  0.43333021153E+02  0.00000000000E+00 0. -1.
         21    1    1    2  504  502  0.36855759863E+01  0.22840478266E+02  0.21127258869E+02  0.31331006768E+02  0.00000000000E+00 0. -1.
</event>
<event>
 4    1  0.2967296E+006  0.2862868E+02  0.7546771E-02  0.1431900E+00
         21   -1    0    0  503  501  0.00000000000E+00  0.00000000000E+00  0.29090406846E+02  0.29090406846E+02  0.00000000000E+00 0.  1.
         21   -1    0    0  504  502 -0.00000000000E+00 -0.00000000000E+00 -0.34845513072E+02  0.34845513072E+02  0.00000000000E+00 0.  1.
         21    1    1    2  503  502  0.26654078018E+02  0.10448029124E+02  0.11110093043E+02  0.30708880719E+02  0.00000000000E+00 0.  1.
         21    1    1    2  504  501 -0.26654078018E+02 -0.10448029124E+02 -0.16865199268E+02  0.33227039199E+02  0.00000000000E+00 0.  1.
</event>
<event>
 4    1  0.2967296E+006  0.2103136E+02  0.7546771E-02  0.1518818E+00
         21   -1    0    0  503  501  0.00000000000E+00  0.00000000000E+00  0.21310586489E+02  0.21310586489E+02  0.00000000000E+00 0.  1.
         21   -1    0    0  504  502 -0.00000000000E+00 -0.00000000000E+00 -0.50995960020E+02  0.50995960020E+02  0.00000000000E+00 0.  1.
         21    1    1    2  503  502  0.53684412268E+01  0.20334645280E+02 -0.42682856903E+02  0.47583024634E+02  0.00000000000E+00 0.  1.
         21    1    1    2  504  501 -0.53684412268E+01 -0.20334645280E+02  0.12997483372E+02  0.24723521874E+02  0.00000000000E+00 0.  1.
</event>
<event>
 4    1  0.2967296E+006  0.2024739E+02  0.7546771E-02  0.1530287E+00
         21   -1    0    0  503  501  0.00000000000E+00  0.00000000000E+00  0.12324171399E+03  0.12324171399E+03  0.00000000000E+00 0. -1.
         21   -1    0    0  504  502 -0.00000000000E+00 -0.00000000000E+00 -0.49985176901E+01  0.49985176901E+01  0.00000000000E+00 0. -1.
         21    1    1    2  503  502  0.99467668315E+01 -0.17635722523E+02  0.96206843547E+02  0.98314361233E+02  0.00000000000E+00 0. -1.
         21    1    1    2  504  501 -0.99467668315E+01  0.17635722523E+02  0.22036352748E+02  0.29925870443E+02  0.00000000000E+00 0. -1.
</event>
<event>
 4    1  0.2967296E+006  0.2863156E+02  0.7546771E-02  0.1431873E+00
         21   -1    0    0  502  501  0.00000000000E+00  0.00000000000E+00  0.30028304510E+03  0.30028304510E+03  0.00000000000E+00 0. -1.
         21   -1    0    0  504  502 -0.00000000000E+00 -0.00000000000E+00 -0.54925671503E+01  0.54925671503E+01  0.00000000000E+00 0. -1.
         21    1    1    2  503  501  0.26372880874E+02  0.11146180949E+02  0.25582369882E+03  0.25742092198E+03  0.00000000000E+00 0. -1.
         21    1    1    2  504  503 -0.26372880874E+02 -0.11146180949E+02  0.38966779129E+02  0.48354690269E+02  0.00000000000E+00 0. -1.
</event>
<event>
 4    1  0.2967296E+006  0.3749053E+02  0.7546771E-02  0.1363854E+00
         21   -1    0    0  502  501  0.00000000000E+00  0.00000000000E+00  0.71905206065E+02  0.71905206065E+02  0.00000000000E+00 0.  1.
         21   -1    0    0  504  502 -0.00000000000E+00 -0.00000000000E+00 -0.25658727674E+02  0.25658727674E+02  0.00000000000E+00 0.  1.
         21    1    1    2  503  501  0.23151791184E+02 -0.29487863203E+02  0.46931055941E+02  0.60067158440E+02  0.00000000000E+00 0.  1.
         21    1    1    2  504  503 -0.23151791184E+02  0.29487863203E+02 -0.68457754978E+00  0.37496775298E+02  0.00000000000E+00 0.  1.
</event>
<event>
 4    1  0.2967296E+006  0.2757651E+02  0.7546771E-02  0.1441901E+00
         21   -1    0    0  504  501  0.00000000000E+00  0.00000000000E+00  0.22490594227E+02  0.22490594227E+02  0.00000000000E+00 0. -1.
         21   -1    0    0  503  502 -0.00000000000E+00 -0.00000000000E+00 -0.39117824277E+03  0.39117824277E+03  0.00000000000E+00 0. -1.
         21    1    1    2  503  501 -0.19784324629E+02  0.19210535256E+02  0.13349451435E+02  0.30637754805E+02  0.00000000000E+00 0. -1.
         21    1    1    2  504  502  0.19784324629E+02 -0.19210535256E+02 -0.38203709997E+03  0.38303108219E+03  0.00000000000E+00 0. -1.
</event>
<event>
 4    1  0.2967296E+006  0.2323723E+02  0.7546771E-02  0.1489540E+00
         21   -1    0    0  502  501  0.00000000000E+00  0.00000000000E+00  0.44090698918E+02  0.44090698918E+02  0.00000000000E+00 0. -1.
         21   -1    0    0  503  502 -0.00000000000E+00 -0.00000000000E+00 -0.24808910453E+02  0.24808910453E+02  0.00000000000E+00 0.  1.
         21    1    1    2  503  504  0.22967596419E+02 -0.35296679885E+01 -0.14873128624E+02  0.27589472566E+02  0.00000000000E+00 0.  1.
         21    1    1    2  504  501 -0.22967596419E+02  0.35296679885E+01  0.34154917090E+02  0.41310136804E+02  0.00000000000E+00 0. -1.
</event>
<event>
 4    1  0.2967296E+006  0.2981151E+02  0.7546771E-02  0.1421242E+00
         21   -1    0    0  502  501  0.00000000000E+00  0.00000000000E+00  0.25112726311E+03  0.25112726311E+03  0.00000000000E+00 0.  1.
         21   -1    0    0  503  502 -0.00000000000E+00 -0.00000000000E+00 -0.21511793963E+02  0.21511793963E+02  0.00000000000E+00 0.  1.
         21    1    1    2  503  504  0.18807801221E+02  0.23129914360E+02 -0.97951759083E+01  0.31379480495E+02  0.00000000000E+00 0.  1.
         21    1    1    2  504  501 -0.18807801221E+02 -0.23129914360E+02  0.23941064505E+03  0.24125957658E+03  0.00000000000E+00 0.  1.
</event>
<event>
 4    1  0.2967296E+006  0.3106474E+02  0.7546771E-02  0.1410564E+00
         21   -1    0    0  504  501  0.00000000000E+00  0.00000000000E+00  0.43959681209E+02  0.43959681209E+02  0.00000000000E+00 0.  1.
         21   -1    0    0  501  502 -0.00000000000E+00 -0.00000000000E+00 -0.48052420248E+02  0.48052420248E+02  0.00000000000E+00 0.  1.
         21    1    1    2  503  502  0.16473500753E+02 -0.26337078021E+02 -0.35952500461E+02  0.47514210455E+02  0.00000000000E+00 0.  1.
         21    1    1    2  504  503 -0.16473500753E+02  0.26337078021E+02  0.31859761422E+02  0.44497891002E+02  0.00000000000E+00 0.  1.
</event>
<event>
 4    1  0.2967296E+006  0.2050282E+02  0.7546771E-02  0.1526483E+00
         21   -1    0    0  504  501  0.00000000000E+00  0.00000000000E+00  0.42765082163E+01  0.42765082163E+01  0.00000000000E+00 0.  1.
         21   -1    0    0  503  502 -0.00000000000E+00 -0.00000000000E+00 -0.11046393743E+03  0.11046393743E+03  0.00000000000E+00 0.  1.
         21    1    1    2  503  501 -0.12455020822E+02 -0.16286129772E+02 -0.34053283845E+02  0.39749109516E+02  0.00000000000E+00 0.  1.
         21    1    1    2  504  502  0.12455020822E+02  0.16286129772E+02 -0.72134145367E+02  0.74991336130E+02  0.00000000000E+00 0.  1.
</event>
<event>
 4    1  0.2967296E+006  0.3019191E+02  0.7546771E-02  0.1417936E+00
         21   -1    0    0  502  501  0.00000000000E+00  0.00000000000E+00  0.67864678239E+02  0.67864678239E+02  0.00000000000E+00 0.  1.
         21   -1    0    0  503  502 -0.00000000000E+00 -0.00000000000E+00 -0.20291701486E+03  0.20291701486E+03  0.00000000000E+00 0. -1.
         21    1    1    2  503  504 -0.16763543719E+02 -0.25110455786E+02 -0.19835926599E+03  0.20064383816E+03  0.00000000000E+00 0. -1.
         21    1    1    2  504  501  0.16763543719E+02  0.25110455786E+02  0.63306929374E+02  0.70137854933E+02  0.00000000000E+00 0.  1.
</event>
<event>
 4    1  0.2967296E+006  0.2387564E+02  0.7546771E-02  0.1481786E+00
         21   -1    0    0  503  501  0.00000000000E+00  0.00000000000E+00  0.41955392653E+02  0.41955392653E+02  0.00000000000E+00 0. -1.
         21   -1    0    0  504  502 -0.00000000000E+00 -0.00000000000E+00 -0.17321722734E+02  0.17321722734E+02  0.00000000000E+00 0. -1.
         21    1    1    2  503  502 -0.34724226383E+01  0.23621775638E+02 -0.14455392731E+01  0.23919355908E+02  0.00000000000E+00 0. -1.
         21    1    1    2  504  501  0.34724226383E+01 -0.23621775638E+02  0.26079209192E+02  0.35357759479E+02  0.00000000000E+00 0. -1.
</event>
<event>
 4    1  0.2967296E+006  0.2190874E+02  0.7546771E-02  0.1506675E+00
         21   -1    0    0  504  501  0.00000000000E+00  0.00000000000E+00  0.67537363209E+02  0.67537363209E+02  0.00000000000E+00 0. -1.
         21   -1    0    0  503  502 -0.00000000000E+00 -0.00000000000E+00 -0.11205449736E+02  0.11205449736E+02  0.00000000000E+00 0. -1.
         21    1    1    2  503  501  0.20203648043E+01 -0.21815383310E+02  0.51976666330E+02  0.56405377986E+02  0.00000000000E+00 0. -1.
         21    1    1    2  504  502 -0.20203648043E+01  0.21815383310E+02  0.43552471428E+01  0.22337434960E+02  0.00000000000E+00 0. -1.
</event>
<event>
 4    1  0.2967296E+006  0.2310602E+02  0.7546771E-02  0.1491171E+00
         21   -1    0    0  502  501  0.00000000000E+00  0.00000000000E+00  0.24137028457E+02  0.24137028457E+02  0.00000000000E+00 0. -1.
         21   -1    0    0  503  502 -0.00000000000E+00 -0.00000000000E+00 -0.42704154907E+02  0.42704154907E+02  0.00000000000E+00 0. -1.
         21    1    1    2  503  504  0.23099902207E+02 -0.53148357556E+00 -0.32487180343E+02  0.39866086382E+02  0.00000000000E+00 0. -1.
         21    1    1    2  504  501 -0.23099902207E+02  0.53148357556E+00  0.13920053893E+02  0.26975096982E+02  0.00000000000E+00 0. -1.
</event>
<event>
 4    1  0.2967296E+006  0.2256207E+02  0.7546771E-02  0.1498072E+00
         21   -1    0    0  503  501  0.00000000000E+00  0.00000000000E+00  0.12308122770E+03  0.12308122770E+03  0.00000000000E+00 0. -1.
         21   -1    0    0  504  502 -0.00000000000E+00 -0.00000000000E+00 -0.46447298085E+02  0.46447298085E+02  0.00000000000E+00 0.  1.
         21    1    1    2  503  502  0.18363899600E+02  0.13107789283E+02 -0.42585442770E+02  0.48193016966E+02  0.00000000000E+00 0.  1.
         21    1    1    2  504  501 -0.18363899600E+02 -0.13107789283E+02  0.11921937239E+03  0.12133550882E+03  0.00000000000E+00 0. -1.
</event>
<event>
 4    1  0.2967296E+006  0.2033046E+02  0.7546771E-02  0.1529043E+00
         21   -1    0    0  503  501  0.00000000000E+00  0.00000000000E+00  0.18641448595E+03  0.18641448595E+03  0.00000000000E+00 0. -1.
         21   -1    0    0  504  502 -0.00000000000E+00 -0.00000000000E+00 -0.58836224654E+02  0.58836224654E+02  0.00000000000E+00 0.  1.
         21    1    1    2  503  502  0.15907548522E+02  0.12660069221E+02  0.18408172224E+03  0.18520099329E+03  0.00000000000E+00 0. -1.
         21    1    1    2  504  501 -0.15907548522E+02 -0.12660069221E+02 -0.56503460936E+02  0.60049717322E+02  0.00000000000E+00 0.  1.
</event>
<event>
 4    1  0.2967296E+006  0.2315397E+02  0.7546771E-02  0.1490574E+00
         21   -1    0    0  502  501  0.00000000000E+00  0.00000000000E+00  0.15760932795E+03  0.15760932795E+03  0.00000000000E+00 0.  1.
         21   -1    0    0  503  502 -0.00000000000E+00 -0.00000000000E+00 -0.47986999483E+01  0.47986999483E+01  0.00000000000E+00 0.  1.
         21    1    1    2  503  504  0.72604190992E+01  0.21986189609E+02  0.32587887856E+02  0.39975950945E+02  0.00000000000E+00 0.  1.
         21    1    1    2  504  501 -0.72604190992E+01 -0.21986189609E+02  0.12022274015E+03  0.12243207696E+03  0.00000000000E+00 0.  1.
</event>
<event>
 4    1  0.2967296E+006  0.2253200E+02  0.7546771E-02  0.1498460E+00
         21   -1    0    0  503  501  0.00000000000E+00  0.00000000000E+00  0.88673121764E+03  0.88673121764E+03  0.00000000000E+00 0.  1.
         21   -1    0    0  504  502 -0.00000000000E+00 -0.00000000000E+00 -0.15571143697E+01  0.15571143697E+01  0.00000000000E+00 0. -1.
         21    1    1    2  503  502 -0.10209852509E+02  0.20086063038E+02  0.79576004782E+03  0.79607898146E+03  0.00000000000E+00 0.  1.
         21    1    1    2  504  501  0.10209852509E+02 -0.20086063038E+02  0.89414055451E+02  0.92209350550E+02  0.00000000000E+00 0. -1.
</event>
<event>
 4    1  0.2967296E+006  0.3697582E+02  0.7546771E-02  0.1367181E+00
         21   -1    0    0  504  501  0.00000000000E+00  0.00000000000E+00  0.68739952228E+03  0.68739952228E+03  0.00000000000E+00 0.  1.
         21   -1    0    0  503  502 -0.00000000000E+00 -0.00000000000E+00 -0.72434378123E+01  0.72434378123E+01  0.00000000000E+00 0. -1.
         21    1    1    2  503  501  0.34482433616E+02  0.13348135860E+02  0.44260443147E+02  0.57673198165E+02  0.00000000000E+00 0. -1.
         21    1    1    2  504  502 -0.34482433616E+02 -0.13348135860E+02  0.63589564133E+03  0.63696976193E+03  0.00000000000E+00 0.  1.
</event>
<event>
 4    1  0.2967296E+006  0.2665662E+02  0.7546771E-02  0.1451088E+00
         21   -1    0    0  503  501  0.00000000000E+00  0.00000000000E+00  0.99890893968E+03  0.99890893968E+03  0.00000000000E+00 0. -1.
         21   -1    0    0  501  502 -0.00000000000E+00 -0.00000000000E+00 -0.11156495755E+01  0.11156495755E+01  0.00000000000E+00 0. -1.
         21    1    1    2  503  504  0.24861003717E+02  0.96180098671E+01  0.79989733089E+03  0.80034137440E+03  0.00000000000E+00 0. -1.
         21    1    1    2  504  502 -0.24861003717E+02 -0.96180098671E+01  0.19789595922E+03  0.19968321486E+03  0.00000000000E+00 0. -1.
</event>
<event>
 4    1  0.2967296E+006  0.2621004E+02  0.7546771E-02  0.1455709E+00
         21   -1    0    0  504  501  0.00000000000E+00  0.00000000000E+00  0.10250768442E+02  0.10250768442E+02  0.00000000000E+00 0.  1.
         21   -1    0    0  503  502 -0.00000000000E+00 -0.00000000000E+00 -0.45509150022E+03  0.45509150022E+03  0.00000000000E+00 0. -1.
         21    1    1    2  503  501 -0.14107808554E+02  0.22089266287E+02 -0.75625119915E+01  0.27279250996E+02  0.00000000000E+00 0.  1.
         21    1    1    2  504  502  0.14107808554E+02 -0.22089266287E+02 -0.43727821979E+03  0.43806301767E+03  0.00000000000E+00 0. -1.
</event>
<event>
 4    1  0.2967296E+006  0.2631493E+02  0.7546771E-02  0.1454614E+00
         21   -1    0    0  504  501  0.00000000000E+00  0.00000000000E+00  0.76144089156E+03  0.76144089156E+03  0.00000000000E+00 0. -1.
         21   -1    0    0  503  502 -0.00000000000E+00 -0.00000000000E+00 -0.93572434583E+00  0.93572434583E+00  0.00000000000E+00 0. -1.
         21    1    1    2  503  501  0.58188709421E+01 -0.25663520989E+02  0.31635059453E+03  0.31744318267E+03  0.00000000000E+00 0. -1.
         21    1    1    2  504  502 -0.58188709421E+01  0.25663520989E+02  0.44415457269E+03  0.44493343323E+03  0.00000000000E+00 0. -1.
</event>
<event>
 4    1  0.2967296E+006  0.2342189E+02  0.7546771E-02  0.1487267E+00
         21   -1    0    0  504  501  0.00000000000E+00  0.00000000000E+00  0.12676167083E+02  0.12676167083E+02  0.00000000000E+00 0.  1.
         21   -1    0    0  503  502 -0.00000000000E+00 -0.00000000000E+00 -0.88146914807E+02  0.88146914807E+02  0.00000000000E+00 0. -1.
         21    1    1    2  503  501  0.15248704661E+02  0.17778124447E+02 -0.73702415425E+02  0.77334537835E+02  0.00000000000E+00 0. -1.
         21    1    1    2  504  502 -0.15248704661E+02 -0.17778124447E+02 -0.17683322994E+01  0.23488544055E+02  0.00000000000E+00 0.  1.
</event>
<event>
 4    1  0.2967296E+006  0.2428252E+02  0.7546771E-02  0.1476992E+00
         21   -1    0    0  502  501  0.00000000000E+00  0.00000000000E+00  0.89584481853E+01  0.89584481853E+01  0.00000000000E+00 0.  1.
         21   -1    0    0  503  502 -0.00000000000E+00 -0.00000000000E+00 -0.25466456870E+03  0.25466456870E+03  0.00000000000E+00 0.  1.
         21    1    1    2  503  504 -0.13594239499E+02  0.20120570351E+02 -0.23635985922E+03  0.23760392199E+03  0.00000000000E+00 0.  1.
         21    1    1    2  504  501  0.13594239499E+02 -0.20120570351E+02 -0.93462613037E+01  0.26019094895E+02  0.00000000000E+00 0.  1.
</event>
<event>
 4    1  0.2967296E+006  0.2605375E+02  0.7546771E-02  0.1457352E+00
         21   -1    0    0  502  501  0.00000000000E+00  0.00000000000E+00  0.16603401596E+01  0.16603401596E+01  0.00000000000E+00 0.  1.
         21   -1    0    0  504  502 -0.00000000000E+00 -0.00000000000E+00 -0.41940984165E+03  0.41940984165E+03  0.00000000000E+00 0.  1.
         21    1    1    2  503  501  0.25247186153E+02  0.64325248575E+01 -0.17543727929E+03  0.17736131695E+03  0.00000000000E+00 0.  1.
         21    1    1    2  504  503 -0.25247186153E+02 -0.64325248575E+01 -0.24231222219E+03  0.24370886486E+03  0.00000000000E+00 0.  1.
</event>
<event>
 4    1  0.2967296E+006  0.2874718E+02  0.7546771E-02  0.1430805E+00
         21   -1    0    0  502  501  0.00000000000E+00  0.00000000000E+00  0.14160652122E+03  0.14160652122E+03  0.00000000000E+00 0. -1.
         21   -1    0    0  504  502 -0.00000000000E+00 -0.00000000000E+00 -0.63795135935E+01  0.63795135935E+01  0.00000000000E+00 0. -1.
         21    1    1    2  503  501  0.21336590177E+02 -0.19265254684E+02  0.89213118191E+02  0.93730361014E+02  0.00000000000E+00 0. -1.
         21    1    1    2  504  503 -0.21336590177E+02  0.19265254684E+02  0.46013889433E+02  0.54255673797E+02  0.00000000000E+00 0. -1.
</event>
<event>
 4    1  0.2967296E+006  0.2335464E+02  0.7546771E-02  0.1488092E+00
         21   -1    0    0  502  501  0.00000000000E+00  0.00000000000E+00  0.46395650145E+03  0.46395650145E+03  0.00000000000E+00 0. -1.
         21   -1    0    0  504  502 -0.00000000000E+00 -0.00000000000E+00 -0.20272667073E+02  0.20272667073E+02  0.00000000000E+00 0. -1.
         21    1    1    2  503  501  0.21658798062E+02  0.87370323465E+01  0.45683146698E+03  0.45742805827E+03  0.00000000000E+00 0. -1.
         21    1    1    2  504  503 -0.21658798062E+02 -0.87370323465E+01 -0.13147632605E+02  0.26801110254E+02  0.00000000000E+00 0. -1.
</event>
<event>
 4    1  0.2967296E+006  0.2331773E+02  0.7546771E-02  0.1488547E+00
         21   -1    0    0  503  501  0.00000000000E+00  0.00000000000E+00  0.54575011668E+02  0.54575011668E+02  0.00000000000E+00 0.  1.
         21   -1    0    0  504  502 -0.00000000000E+00 -0.00000000000E+00 -0.10137589568E+02  0.10137589568E+02  0.00000000000E+00 0.  1.
         21    1    1    2  503  502  0.84464033892E+01 -0.21734180225E+02  0.26468147458E+02  0.35274341243E+02  0.00000000000E+00 0.  1.
         21    1    1    2  504  501 -0.84464033892E+01  0.21734180225E+02  0.17969274642E+02  0.29438259993E+02  0.00000000000E+00 0.  1.
</event>
<event>
 4    1  0.2967296E+006  0.2840281E+02  0.7546771E-02  0.1434004E+00
         21   -1    0    0  502  501  0.00000000000E+00  0.00000000000E+00  0.63167595756E+01  0.63167595756E+01  0.00000000000E+00 0.  1.
         21   -1    0    0  504  502 -0.00000000000E+00 -0.00000000000E+00 -0.21568207681E+03  0.21568207681E+03  0.00000000000E+00 0. -1.
         21    1    1    2  503  501 -0.24112019724E+01  0.28300282373E+02 -0.33792891149E+02  0.44143848604E+02  0.00000000000E+00 0.  1.
         21    1    1    2  504  503  0.24112019724E+01 -0.28300282373E+02 -0.17557242608E+03  0.17785498778E+03  0.00000000000E+00 0. -1.
</event>
<event>
 4    1  0.2967296E+006  0.2092888E+02  0.7546771E-02  0.1520283E+00
         21   -1    0    0  504  501  0.00000000000E+00  0.00000000000E+00  0.50184889068E+02  0.50184889068E+02  0.00000000000E+00 0.  1.
         21   -1    0    0  503  502 -0.00000000000E+00 -0.00000000000E+00 -0.28566366510E+03  0.28566366510E+03  0.00000000000E+00 0. -1.
         21    1    1    2  503  501 -0.20412658126E+02  0.46196861738E+01  0.47599632897E+02  0.51997530365E+02  0.00000000000E+00 0.  1.
         21    1    1    2  504  502  0.20412658126E+02 -0.46196861738E+01 -0.28307840893E+03  0.28385102381E+03  0.00000000000E+00 0. -1.
</event>
<event>
 4    1  0.2967296E+006  0.2780814E+02  0.7546771E-02  0.1439655E+00
         21   -1    0    0  503  501  0.00000000000E+00  0.00000000000E+00  0.12179693425E+03  0.12179693425E+03  0.00000000000E+00 0.  1.
         21   -1    0    0  504  502 -0.00000000000E+00 -0.00000000000E+00 -0.69085888820E+01  0.69085888820E+01  0.00000000000E+00 0.  1.
         21    1    1    2  503  502  0.12996676110E+02  0.24584122245E+02  0.39129694054E+02  0.48004433266E+02  0.00000000000E+00 0.  1.
         21    1    1    2  504  501 -0.12996676110E+02 -0.24584122245E+02  0.75758651311E+02  0.80701089862E+02  0.00000000000E+00 0.  1.
</event>
<event>
 4    1  0.2967296E+006  0.4605287E+02  0.7546771E-02  0.1316257E+00
         21   -1    0    0  504  501  0.00000000000E+00  0.00000000000E+00  0.25138847968E+03  0.25138847968E+03  0.00000000000E+00 0. -1.
         21   -1    0    0  503  502 -0.00000000000E+00 -0.00000000000E+00 -0.11665376936E+02  0.11665376936E+02  0.00000000000E+00 0. -1.
         21    1    1    2  503  501 -0.14047165301E+02 -0.43858223239E+02  0.18905797171E+03  0.19458618467E+03  0.00000000000E+00 0. -1.
         21    1    1    2  504  502  0.14047165301E+02  0.43858223239E+02  0.50665131041E+02  0.68467671949E+02  0.00000000000E+00 0. -1.
</event>
<event>
 4    1  0.2967296E+006  0.2487688E+02  0.7546771E-02  0.1470185E+00
         21   -1    0    0  504  501  0.00000000000E+00  0.00000000000E+00  0.58808275124E+00  0.58808275124E+00  0.00000000000E+00 0. -1.
         21   -1    0    0  503  502 -0.00000000000E+00 -0.00000000000E+00 -0.10576246445E+04  0.10576246445E+04  0.00000000000E+00 0. -1.
         21    1    1    2  503  501 -0.23203129779E+02  0.89707226540E+01 -0.56594293877E+03  0.56648942536E+03  0.00000000000E+00 0. -1.
         21    1    1    2  504  502  0.23203129779E+02 -0.89707226540E+01 -0.49109362302E+03  0.49172330194E+03  0.00000000000E+00 0. -1.
</event>
<event>
 4    1  0.2967296E+006  0.5185046E+02  0.7546771E-02  0.1290343E+00
         21   -1    0    0  503  501  0.00000000000E+00  0.00000000000E+00  0.57239610349E+03  0.57239610349E+03  0.00000000000E+00 0.  1.
         21   -1    0    0  504  502 -0.00000000000E+00 -0.00000000000E+00 -0.50204097290E+01  0.50204097290E+01  0.00000000000E+00 0. -1.
         21    1    1    2  503  502 -0.47378991487E+02  0.21064218652E+02  0.35697930584E+03  0.36072523468E+03  0.00000000000E+00 0.  1.
         21    1    1    2  504  501  0.47378991487E+02 -0.21064218652E+02  0.21039638792E+03  0.21669127853E+03  0.00000000000E+00 0. -1.
</event>
<event>
 4    1  0.2967296E+006  0.3026088E+02  0.7546771E-02  0.1417343E+00
         21   -1    0    0  503  501  0.00000000000E+00  0.00000000000E+00  0.10057358108E+03  0.10057358108E+03  0.00000000000E+00 0.  1.
         21   -1    0    0  504  502 -0.00000000000E+00 -0.00000000000E+00 -0.75485923361E+02  0.75485923361E+02  0.00000000000E+00 0.  1.
         21    1    1    2  503  502  0.29394621726E+02 -0.71886968833E+01  0.95094038523E+02  0.99792771842E+02  0.00000000000E+00 0.  1.
         21    1    1    2  504  501 -0.29394621726E+02  0.71886968833E+01 -0.70006380800E+02  0.76266732604E+02  0.00000000000E+00 0.  1.
</event>
<event>
 4    1  0.2967296E+006  0.2919803E+02  0.7546771E-02  0.1426696E+00
         21   -1    0    0  502  501  0.00000000000E+00  0.00000000000E+00  0.71622805635E+03  0.71622805635E+03  0.00000000000E+00 0.  1.
         21   -1    0    0  503  502 -0.00000000000E+00 -0.00000000000E+00 -0.12437479978E+02  0.12437479978E+02  0.00000000000E+00 0. -1.
         21    1    1    2  503  504  0.22179021112E+02 -0.18989885973E+02  0.54346513829E+01  0.29699498016E+02  0.00000000000E+00 0. -1.
         21    1    1    2  504  501 -0.22179021112E+02  0.18989885973E+02  0.69835592499E+03  0.69896603832E+03  0.00000000000E+00 0.  1.
</event>
<event>
 4    1  0.2967296E+006  0.2653592E+02  0.7546771E-02  0.1452326E+00
         21   -1    0    0  504  501  0.00000000000E+00  0.00000000000E+00  0.16332092041E+03  0.16332092041E+03  0.00000000000E+00 0.  1.
         21   -1    0    0  501  502 -0.00000000000E+00 -0.00000000000E+00 -0.30352671224E+02  0.30352671224E+02  0.00000000000E+00 0.  1.
         21    1    1    2  503  502 -0.24589365571E+02  0.99758863915E+01 -0.23211727236E+02  0.35255346967E+02  0.00000000000E+00 0.  1.
         21    1    1    2  504  503  0.24589365571E+02 -0.99758863915E+01  0.15617997642E+03  0.15841824467E+03  0.00000000000E+00 0.  1.
</event>
<event>
 4    1  0.2967296E+006  0.2329940E+02  0.7546771E-02  0.1488772E+00
         21   -1    0    0  504  501  0.00000000000E+00  0.00000000000E+00  0.58029998824E+02  0.58029998824E+02  0.00000000000E+00 0. -1.
         21   -1    0    0  503  502 -0.00000000000E+00 -0.00000000000E+00 -0.14196759563E+02  0.14196759563E+02  0.00000000000E+00 0. -1.
         21    1    1    2  503  501 -0.10168896308E+02  0.20963190852E+02  0.43006879813E+02  0.48912713419E+02  0.00000000000E+00 0. -1.
         21    1    1    2  504  502  0.10168896308E+02 -0.20963190852E+02  0.82635944837E+00  0.23314044968E+02  0.00000000000E+00 0. -1.
</event>
<event>
 4    1  0.2967296E+006  0.4287244E+02  0.7546771E-02  0.1332428E+00
         21   -1    0    0  503  501  0.00000000000E+00  0.00000000000E+00  0.43093463018E+01  0.43093463018E+01  0.00000000000E+00 0.  1.
         21   -1    0    0  504  502 -0.00000000000E+00 -0.00000000000E+00 -0.55958895912E+03  0.55958895912E+03  0.00000000000E+00 0.  1.
         21    1    1    2  503  502 -0.12766060038E+02 -0.40927667504E+02 -0.41512805048E+03  0.41733600917E+03  0.00000000000E+00 0.  1.
         21    1    1    2  504  501  0.12766060038E+02  0.40927667504E+02 -0.14015156234E+03  0.14656229625E+03  0.00000000000E+00 0.  1.
</event>
<event>
 4    1  0.2967296E+006  0.2164342E+02  0.7546771E-02  0.1510273E+00
         21   -1    0    0  504  501  0.00000000000E+00  0.00000000000E+00  0.70468410885E+02  0.70468410885E+02  0.00000000000E+00 0.  1.
         21   -1    0    0  503  502 -0.00000000000E+00 -0.00000000000E+00 -0.21965147149E+02  0.21965147149E+02  0.00000000000E+00 0.  1.
         21    1    1    2  503  501 -0.19445118574E+02  0.95039463068E+01 -0.14343175193E+02  0.25964674202E+02  0.00000000000E+00 0.  1.
         21    1    1    2  504  502  0.19445118574E+02 -0.95039463068E+01  0.62846438930E+02  0.66468883833E+02  0.00000000000E+00 0.  1.
</event>
<event>
 4    1  0.2967296E+006  0.2569485E+02  0.7546771E-02  0.1461178E+00
         21   -1    0    0  503  501  0.00000000000E+00  0.00000000000E+00  0.16736271775E+02  0.16736271775E+02  0.00000000000E+00 0.  1.
         21   -1    0    0  504  502 -0.00000000000E+00 -0.00000000000E+00 -0.39518059498E+02  0.39518059498E+02  0.00000000000E+00 0.  1.
         21    1    1    2  503  502  0.24840160600E+02  0.65720461664E+01 -0.12568650578E+02  0.28604131639E+02  0.00000000000E+00 0.  1.
         21    1    1    2  504  501 -0.24840160600E+02 -0.65720461664E+01 -0.10213137145E+02  0.27650199634E+02  0.00000000000E+00 0.  1.
</event>
<event>
 4    1  0.2967296E+006  0.2330670E+02  0.7546771E-02  0.1488682E+00
         21   -1    0    0  502  501  0.00000000000E+00  0.00000000000E+00  0.38295878705E+02  0.38295878705E+02  0.00000000000E+00 0.  1.
         21   -1    0    0  504  502 -0.00000000000E+00 -0.00000000000E+00 -0.29817562786E+02  0.29817562786E+02  0.00000000000E+00 0.  1.
         21    1    1    2  503  501  0.20904736087E+02  0.10305068919E+02  0.28899027334E+02  0.37126220077E+02  0.00000000000E+00 0.  1.
         21    1    1    2  504  503 -0.20904736087E+02 -0.10305068919E+02 -0.20420711415E+02  0.30987221415E+02  0.00000000000E+00 0.  1.
</event>
<event>
 4    1  0.2967296E+006  0.2440531E+02  0.7546771E-02  0.1475567E+00
         21   -1    0    0  502  501  0.00000000000E+00  0.00000000000E+00  0.74704626753E+03  0.74704626753E+03  0.00000000000E+00 0.  1.
         21   -1    0    0  504  502 -0.00000000000E+00 -0.00000000000E+00 -0.10310047244E+01  0.10310047244E+01  0.00000000000E+00 0.  1.
         21    1    1    2  503  501  0.17573395029E+01 -0.24341953016E+02  0.55109011928E+03  0.55163025523E+03  0.00000000000E+00 0.  1.
         21    1    1    2  504  503 -0.17573395029E+01  0.24341953016E+02  0.19492514353E+03  0.19644701702E+03  0.00000000000E+00 0.  1.
</event>
<event>
 4    1  0.2967296E+006  0.4502621E+02  0.7546771E-02  0.1321308E+00
         21   -1    0    0  504  501  0.00000000000E+00  0.00000000000E+00  0.21974132744E+02  0.21974132744E+02  0.00000000000E+00 0. -1.
         21   -1    0    0  503  502 -0.00000000000E+00 -0.00000000000E+00 -0.93022173129E+02  0.93022173129E+02  0.00000000000E+00 0. -1.
         21    1    1    2  503  501 -0.38271475199E+02  0.23720316790E+02 -0.30323422247E+02  0.54285073264E+02  0.00000000000E+00 0. -1.
         21    1    1    2  504  502  0.38271475199E+02 -0.23720316790E+02 -0.40724618138E+02  0.60711232609E+02  0.00000000000E+00 0. -1.
</event>
<event>
 4    1  0.2967296E+006  0.3655739E+02  0.7546771E-02  0.1369933E+00
         21   -1    0    0  502  501  0.00000000000E+00  0.00000000000E+00  0.36126360798E+03  0.36126360798E+03  0.00000000000E+00 0. -1.
         21   -1    0    0  504  502 -0.00000000000E+00 -0.00000000000E+00 -0.24551699105E+02  0.24551699105E+02  0.00000000000E+00 0.  1.
         21    1    1    2  503  501  0.15731969774E+02  0.32999211287E+02  0.34613726753E+03  0.34806242370E+03  0.00000000000E+00 0. -1.
         21    1    1    2  504  503 -0.15731969774E+02 -0.32999211287E+02 -0.94253586511E+01  0.37752883390E+02  0.00000000000E+00 0.  1.
</event>
<event>
 4    1  0.2967296E+006  0.3178973E+02  0.7546771E-02  0.1404656E+00
         21   -1    0    0  504  501  0.00000000000E+00  0.00000000000E+00  0.12506391396E+02  0.12506391396E+02  0.00000000000E+00 0. -1.
         21   -1    0    0  503  502 -0.00000000000E+00 -0.00000000000E+00 -0.12458549457E+03  0.12458549457E+03  0.00000000000E+00 0. -1.
         21    1    1    2  503  501 -0.27076608520E+02 -0.16656662829E+02 -0.96673132690E+02  0.10176581808E+03  0.00000000000E+00 0. -1.
         21    1    1    2  504  502  0.27076608520E+02  0.16656662829E+02 -0.15405970480E+02  0.35326067882E+02  0.00000000000E+00 0. -1.
</event>
<event>
 4    1  0.2967296E+006  0.3319604E+02  0.7546771E-02  0.1393709E+00
         21   -1    0    0  504  501  0.00000000000E+00  0.00000000000E+00  0.26913774966E+01  0.26913774966E+01  0.00000000000E+00 0.  1.
         21   -1    0    0  503  502 -0.00000000000E+00 -0.00000000000E+00 -0.96026346079E+03  0.96026346079E+03  0.00000000000E+00 0. -1.
         21    1    1    2  503  501 -0.14760347071E+02  0.29733972217E+02 -0.11412942105E+03  0.11885916750E+03  0.00000000000E+00 0.  1.
         21    1    1    2  504  502  0.14760347071E+02 -0.29733972217E+02 -0.84344266224E+03  0.84409567078E+03  0.00000000000E+00 0. -1.
</event>
<event>
 4    1  0.2967296E+006  0.2866500E+02  0.7546771E-02  0.1431564E+00
         21   -1    0    0  504  501  0.00000000000E+00  0.00000000000E+00  0.41264602819E+03  0.41264602819E+03  0.00000000000E+00 0. -1.
         21   -1    0    0  503  502 -0.00000000000E+00 -0.00000000000E+00 -0.50458412501E+01  0.50458412501E+01  0.00000000000E+00 0. -1.
         21    1    1    2  503  501  0.15944978013E+02  0.23820995636E+02  0.41306719464E+02  0.50278496695E+02  0.00000000000E+00 0. -1.
         21    1    1    2  504  502 -0.15944978013E+02 -0.23820995636E+02  0.36629346748E+03  0.36741337275E+03  0.00000000000E+00 0. -1.
</event>
<event>
 4    1  0.2967296E+006  0.2293925E+02  0.7546771E-02  0.1493262E+00
         21   -1    0    0  503  501  0.00000000000E+00  0.00000000000E+00  0.68092595184E+01  0.68092595184E+01  0.00000000000E+00 0.  1.
         21   -1    0    0  504  502 -0.00000000000E+00 -0.00000000000E+00 -0.19953209275E+03  0.19953209275E+03  0.00000000000E+00 0. -1.
         21    1    1    2  503  502 -0.11694387650E+02 -0.19734501276E+02 -0.17711852207E+03  0.17859781663E+03  0.00000000000E+00 0. -1.
         21    1    1    2  504  501  0.11694387650E+02  0.19734501276E+02 -0.15604311160E+02  0.27743535641E+02  0.00000000000E+00 0.  1.
</event>
<event>
 4    1  0.2967296E+006  0.2405592E+02  0.7546771E-02  0.1479648E+00
         21   -1    0    0  504  501  0.00000000000E+00  0.00000000000E+00  0.17960634945E+03  0.17960634945E+03  0.00000000000E+00 0. -1.
         21   -1    0    0  503  502 -0.00000000000E+00 -0.00000000000E+00 -0.47637020004E+01  0.47637020004E+01  0.00000000000E+00 0. -1.
         21    1    1    2  503  501  0.84992674277E+01 -0.22504443377E+02  0.34977837700E+02  0.42451580049E+02  0.00000000000E+00 0. -1.
         21    1    1    2  504  502 -0.84992674277E+01  0.22504443377E+02  0.13986480975E+03  0.14191847140E+03  0.00000000000E+00 0. -1.
</event>
<event>
 4    1  0.2967296E+006  0.2007352E+02  0.7546771E-02  0.1532915E+00
         21   -1    0    0  504  501  0.00000000000E+00  0.00000000000E+00  0.10861780908E+02  0.10861780908E+02  0.00000000000E+00 0. -1.
         21   -1    0    0  503  502 -0.00000000000E+00 -0.00000000000E+00 -0.23708729747E+03  0.23708729747E+03  0.00000000000E+00 0.  1.
         21    1    1    2  503  501  0.19736824167E+02  0.36611689097E+01  0.75011348255E+00  0.20087534847E+02  0.00000000000E+00 0. -1.
         21    1    1    2  504  502 -0.19736824167E+02 -0.36611689097E+01 -0.22697563004E+03  0.22786154353E+03  0.00000000000E+00 0.  1.
</event>
<event>
 4    1  0.2967296E+006  0.2327789E+02  0.7546771E-02  0.1489038E+00
         21   -1    0    0  504  501  0.00000000000E+00  0.00000000000E+00  0.28773260064E+02  0.28773260064E+02  0.00000000000E+00 0. -1.
         21   -1    0    0  503  502 -0.00000000000E+00 -0.00000000000E+00 -0.81203340336E+02  0.81203340336E+02  0.00000000000E+00 0. -1.
         21    1    1    2  503  501 -0.59988023501E+01  0.22491650965E+02 -0.74407117695E+02  0.77963319301E+02  0.00000000000E+00 0. -1.
         21    1    1    2  504  502  0.59988023501E+01 -0.22491650965E+02  0.21977037423E+02  0.32013281098E+02  0.00000000000E+00 0. -1.
</event>
<event>
 4    1  0.2967296E+006  0.2194431E+02  0.7546771E-02  0.1506198E+00
         21   -1    0    0  503  501  0.00000000000E+00  0.00000000000E+00  0.20409851210E+02  0.20409851210E+02  0.00000000000E+00 0.  1.
         21   -1    0    0  501  502 -0.00000000000E+00 -0.00000000000E+00 -0.11723573914E+03  0.11723573914E+03  0.00000000000E+00 0. -1.
         21    1    1    2  503  504 -0.10326805092E+02 -0.19362590665E+02  0.13095779304E+02  0.25554887130E+02  0.00000000000E+00 0.  1.
         21    1    1    2  504  502  0.10326805092E+02  0.19362590665E+02 -0.10992166723E+03  0.11209070322E+03  0.00000000000E+00 0. -1.
</event>
<event>
 4    1  0.2967296E+006  0.2234323E+02  0.7546771E-02  0.1500914E+00
         21   -1    0    0  504  501  0.00000000000E+00  0.00000000000E+00  0.39509790594E+02  0.39509790594E+02  0.00000000000E+00 0. -1.
         21   -1    0    0  501  502 -0.00000000000E+00 -0.00000000000E+00 -0.26346514459E+03  0.26346514459E+03  0.00000000000E+00 0.  1.
         21    1    1    2  503  502 -0.14816183780E+02  0.16724246247E+02 -0.25978797407E+03  0.26074702527E+03  0.00000000000E+00 0.  1.
         21    1    1    2  504  503  0.14816183780E+02 -0.16724246247E+02  0.35832620076E+02  0.42227909916E+02  0.00000000000E+00 0. -1.
</event>
<event>
 4    1  0.2967296E+006  0.2551251E+02  0.7546771E-02  0.1463151E+00
         21   -1    0    0  504  501  0.00000000000E+00  0.00000000000E+00  0.67522762799E+01  0.67522762799E+01  0.00000000000E+00 0.  1.
         21   -1    0    0  503  502 -0.00000000000E+00 -0.00000000000E+00 -0.30721340263E+03  0.30721340263E+03  0.00000000000E+00 0. -1.
         21    1    1    2  503  501  0.21324317316E+02 -0.14005767537E+02 -0.28027326976E+03  0.28143204113E+03  0.00000000000E+00 0. -1.
         21    1    1    2  504  502 -0.21324317316E+02  0.14005767537E+02 -0.20187856587E+02  0.32533637775E+02  0.00000000000E+00 0.  1.
</event>
<event>
 4    1  0.2967296E+006  0.3075990E+02  0.7546771E-02  0.1413106E+00
         21   -1    0    0  503  501  0.00000000000E+00  0.00000000000E+00  0.20636063728E+03  0.20636063728E+03  0.00000000000E+00 0.  1.
         21   -1    0    0  504  502 -0.00000000000E+00 -0.00000000000E+00 -0.70965400954E+02  0.70965400954E+02  0.00000000000E+00 0. -1.
         21    1    1    2  503  502 -0.17874779355E+02 -0.25033247905E+02 -0.66411138086E+02  0.73188868686E+02  0.00000000000E+00 0. -1.
         21    1    1    2  504  501  0.17874779355E+02  0.25033247905E+02  0.20180637441E+03  0.20413716955E+03  0.00000000000E+00 0.  1.
</event>
<event>
 4    1  0.2967296E+006  0.2562096E+02  0.7546771E-02  0.1461975E+00
         21   -1    0    0  504  501  0.00000000000E+00  0.00000000000E+00  0.17526558902E+01  0.17526558902E+01  0.00000000000E+00 0.  1.
         21   -1    0    0  501  502 -0.00000000000E+00 -0.00000000000E+00 -0.14520909687E+04  0.14520909687E+04  0.00000000000E+00 0. -1.
         21    1    1    2  503  502  0.22562080306E+02  0.12140259602E+02 -0.13513653614E+04  0.13516082174E+04  0.00000000000E+00 0. -1.
         21    1    1    2  504  503 -0.22562080306E+02 -0.12140259602E+02 -0.98972951380E+02  0.10223540715E+03  0.00000000000E+00 0.  1.
</event>
<event>
 4    1  0.2967296E+006  0.2279274E+02  0.7546771E-02  0.1495117E+00
         21   -1    0    0  504  501  0.00000000000E+00  0.00000000000E+00  0.69674837408E+02  0.69674837408E+02  0.00000000000E+00 0. -1.
         21   -1    0    0  503  502 -0.00000000000E+00 -0.00000000000E+00 -0.17302574616E+03  0.17302574616E+03  0.00000000000E+00 0. -1.
         21    1    1    2  503  501 -0.12803125575E+02 -0.18857071819E+02 -0.17038228097E+03  0.17190006065E+03  0.00000000000E+00 0. -1.
         21    1    1    2  504  502  0.12803125575E+02  0.18857071819E+02  0.67031372227E+02  0.70800522913E+02  0.00000000000E+00 0. -1.
</event>
<event>
 4    1  0.2967296E+006  0.2114099E+02  0.7546771E-02  0.1517261E+00
         21   -1    0    0  502  501  0.00000000000E+00  0.00000000000E+00  0.54542715429E+03  0.54542715429E+03  0.00000000000E+00 0.  1.
         21   -1    0    0  504  502 -0.00000000000E+00 -0.00000000000E+00 -0.33034283112E+02  0.33034283112E+02  0.00000000000E+00 0. -1.
         21    1    1    2  503  501 -0.20727892161E+02  0.41588409760E+01  0.54181736322E+03  0.54222965297E+03  0.00000000000E+00 0.  1.
         21    1    1    2  504  503  0.20727892161E+02 -0.41588409760E+01 -0.29424492039E+02  0.36231784436E+02  0.00000000000E+00 0. -1.
</event>
<event>
 4    1  0.2967296E+006  0.2544862E+02  0.7546771E-02  0.1463847E+00
         21   -1    0    0  502  501  0.00000000000E+00  0.00000000000E+00  0.82917597974E+03  0.82917597974E+03  0.00000000000E+00 0. -1.
         21   -1    0    0  503  502 -0.00000000000E+00 -0.00000000000E+00 -0.17020577198E+02  0.17020577198E+02  0.00000000000E+00 0.  1.
         21    1    1    2  503  504  0.37044697587E+01 -0.25177549466E+02 -0.71988257334E+01  0.26447215075E+02  0.00000000000E+00 0.  1.
         21    1    1    2  504  501 -0.37044697587E+01  0.25177549466E+02  0.81935422828E+03  0.81974934186E+03  0.00000000000E+00 0. -1.
</event>
<event>
 4    1  0.2967296E+006  0.4803808E+02  0.7546771E-02  0.1306910E+00
         21   -1    0    0  503  501  0.00000000000E+00  0.00000000000E+00  0.69347465025E+02  0.69347465025E+02  0.00000000000E+00 0.  1.
         21   -1    0    0  501  502 -0.00000000000E+00 -0.00000000000E+00 -0.48093848549E+03  0.48093848549E+03  0.00000000000E+00 0.  1.
         21    1    1    2  503  504 -0.30562158985E+02  0.37062268903E+02  0.59658112665E+02  0.76594697890E+02  0.00000000000E+00 0.  1.
         21    1    1    2  504  502  0.30562158985E+02 -0.37062268903E+02 -0.47124913313E+03  0.47369125263E+03  0.00000000000E+00 0.  1.
</event>
<event>
 4    1  0.2967296E+006  0.2038410E+02  0.7546771E-02  0.1528243E+00
         21   -1    0    0  502  501  0.00000000000E+00  0.00000000000E+00  0.43729016257E+02  0.43729016257E+02  0.00000000000E+00 0. -1.
         21   -1    0    0  503  502 -0.00000000000E+00 -0.00000000000E+00 -0.16920731482E+02  0.16920731482E+02  0.00000000000E+00 0.  1.
         21    1    1    2  503  504  0.10833175957E+02  0.17267136531E+02 -0.66754644224E+01  0.21449324711E+02  0.00000000000E+00 0.  1.
         21    1    1    2  504  501 -0.10833175957E+02 -0.17267136531E+02  0.33483749197E+02  0.39200423028E+02  0.00000000000E+00 0. -1.
</event>
<event>
 4    1  0.2967296E+006  0.4149903E+02  0.7546771E-02  0.1339919E+00
         21   -1    0    0  504  501  0.00000000000E+00  0.00000000000E+00  0.21619831030E+03  0.21619831030E+03  0.00000000000E+00 0. -1.
         21   -1    0    0  503  502 -0.00000000000E+00 -0.00000000000E+00 -0.10595186061E+02  0.10595186061E+02  0.00000000000E+00 0. -1.
         21    1    1    2  503  501 -0.22806224503E+02 -0.34670527847E+02  0.46310164770E+02  0.62183605061E+02  0.00000000000E+00 0. -1.
         21    1    1    2  504  502  0.22806224503E+02  0.34670527847E+02  0.15929295947E+03  0.16460989130E+03  0.00000000000E+00 0. -1.
</event>
<event>
 4    1  0.2967296E+006  0.2078034E+02  0.7546771E-02  0.1522424E+00
         21   -1    0    0  504  501  0.00000000000E+00  0.00000000000E+00  0.13800789439E+02  0.13800789439E+02  0.00000000000E+00 0. -1.
         21   -1    0    0  503  502 -0.00000000000E+00 -0.00000000000E+00 -0.60506517232E+02  0.60506517232E+02  0.00000000000E+00 0.  1.
         21    1    1    2  503  501  0.76382962614E+01 -0.19325606779E+02 -0.49170522429E+02  0.53381297503E+02  0.00000000000E+00 0.  1.
         21    1    1    2  504  502 -0.76382962614E+01  0.19325606779E+02  0.24647946357E+01  0.20926009169E+02  0.00000000000E+00 0. -1.
</event>
<event>
 4    1  0.2967296E+006  0.3315671E+02  0.7546771E-02  0.1394007E+00
         21   -1    0    0  504  501  0.00000000000E+00  0.00000000000E+00  0.31390716355E+02  0.31390716355E+02  0.00000000000E+00 0. -1.
         21   -1    0    0  501  502 -0.00000000000E+00 -0.00000000000E+00 -0.42433738351E+02  0.42433738351E+02  0.00000000000E+00 0. -1.
         21    1    1    2  503  502 -0.23374138365E+02 -0.23516317395E+02 -0.20948206553E+02  0.39219827714E+02  0.00000000000E+00 0. -1.
         21    1    1    2  504  503  0.23374138365E+02  0.23516317395E+02  0.99051845575E+01  0.34604626992E+02  0.00000000000E+00 0. -1.
</event>
<event>
 4    1  0.2967296E+006  0.2002663E+02  0.7546771E-02  0.1533629E+00
         21   -1    0    0  503  501  0.00000000000E+00  0.00000000000E+00  0.37691853126E+03  0.37691853126E+03  0.00000000000E+00 0.  1.
         21   -1    0    0  504  502 -0.00000000000E+00 -0.00000000000E+00 -0.37254507854E+02  0.37254507854E+02  0.00000000000E+00 0.  1.
         21    1    1    2  503  502  0.47919736300E+01  0.19444870155E+02  0.37393969808E+03  0.37447558503E+03  0.00000000000E+00 0.  1.
         21    1    1    2  504  501 -0.47919736300E+01 -0.19444870155E+02 -0.34275674670E+02  0.39697454083E+02  0.00000000000E+00 0.  1.
</event>
<event>
 4    1  0.2967296E+006  0.2148069E+02  0.7546771E-02  0.1512511E+00
         21   -1    0    0  503  501  0.00000000000E+00  0.00000000000E+00  0.36235216677E+02  0.36235216677E+02  0.00000000000E+00 0.  1.
         21   -1    0    0  504  502 -0.00000000000E+00 -0.00000000000E+00 -0.16821151689E+03  0.16821151689E+03  0.00000000000E+00 0.  1.
         21    1    1    2  503  502  0.82924386045E+01  0.19815533617E+02 -0.16426610025E+03  0.16566463594E+03  0.00000000000E+00 0.  1.
         21    1    1    2  504  501 -0.82924386045E+01 -0.19815533617E+02  0.32289800031E+02  0.38782097630E+02  0.00000000000E+00 0.  1.
</event>
<event>
 4    1  0.2967296E+006  0.3248209E+02  0.7546771E-02  0.1399185E+00
         21   -1    0    0  504  501  0.00000000000E+00  0.00000000000E+00  0.22205427576E+02  0.22205427576E+02  0.00000000000E+00 0.  1.
         21   -1    0    0  503  502 -0.00000000000E+00 -0.00000000000E+00 -0.74282286888E+02  0.74282286888E+02  0.00000000000E+00 0.  1.
         21    1    1    2  503  501 -0.32303653454E+02 -0.34000212030E+01  0.29218860674E+01  0.32613242538E+02  0.00000000000E+00 0.  1.
         21    1    1    2  504  502  0.32303653454E+02  0.34000212030E+01 -0.54998745379E+02  0.63874471927E+02  0.00000000000E+00 0.  1.
</event>
<event>
 4    1  0.2967296E+006  0.2648743E+02  0.7546771E-02  0.1452826E+00
         21   -1    0    0  503  501  0.00000000000E+00  0.00000000000E+00  0.55605046131E+03  0.55605046131E+03  0.00000000000E+00 0. -1.
         21   -1    0    0  501  502 -0.00000000000E+00 -0.00000000000E+00 -0.59355542645E+01  0.59355542645E+01  0.00000000000E+00 0.  1.
         21    1    1    2  503  504 -0.14888592898E+02 -0.21906929074E+02  0.52440276920E+03  0.52507127905E+03  0.00000000000E+00 0. -1.
         21    1    1    2  504  502  0.14888592898E+02  0.21906929074E+02  0.25712137842E+02  0.36914736520E+02  0.00000000000E+00 0.  1.
</event>
<event>
 4    1  0.2967296E+006  0.2607433E+02  0.7546771E-02  0.1457135E+00
         21   -1    0    0  504  501  0.00000000000E+00  0.00000000000E+00  0.13664413483E+03  0.13664413483E+03  0.00000000000E+00 0.  1.
         21   -1    0    0  503  502 -0.00000000000E+00 -0.00000000000E+00 -0.87863471088E+01  0.87863471088E+01  0.00000000000E+00 0.  1.
         21    1    1    2  503  501 -0.18672692685E+02  0.18198928057E+02  0.11181759492E+03  0.11481744191E+03  0.00000000000E+00 0.  1.
         21    1    1    2  504  502  0.18672692685E+02 -0.18198928057E+02  0.16040192808E+02  0.30613040029E+02  0.00000000000E+00 0.  1.
</event>
<event>
 4    1  0.2967296E+006  0.2183528E+02  0.7546771E-02  0.1507665E+00
         21   -1    0    0  504  501  0.00000000000E+00  0.00000000000E+00  0.41946072416E+01  0.41946072416E+01  0.00000000000E+00 0. -1.
         21   -1    0    0  503  502 -0.00000000000E+00 -0.00000000000E+00 -0.12340961553E+04  0.12340961553E+04  0.00000000000E+00 0.  1.
         21    1    1    2  503  501  0.90735886254E+01 -0.19860749129E+02 -0.25006817017E+02  0.33198196695E+02  0.00000000000E+00 0. -1.
         21    1    1    2  504  502 -0.90735886254E+01  0.19860749129E+02 -0.12048947311E+04  0.12050925659E+04  0.00000000000E+00 0.  1.
</event>
<event>
 4    1  0.2967296E+006  0.3141402E+02  0.7546771E-02  0.1407694E+00
         21   -1    0    0  504  501  0.00000000000E+00  0.00000000000E+00  0.12862083699E+03  0.12862083699E+03  0.00000000000E+00 0. -1.
         21   -1    0    0  501  502 -0.00000000000E+00 -0.00000000000E+00 -0.37952618969E+02  0.37952618969E+02  0.00000000000E+00 0. -1.
         21    1    1    2  503  502 -0.31018339110E+02 -0.49702331211E+01 -0.29059198846E+02  0.42793429589E+02  0.00000000000E+00 0. -1.
         21    1    1    2  504  503  0.31018339110E+02  0.49702331211E+01  0.11972741687E+03  0.12378002637E+03  0.00000000000E+00 0. -1.
</event>
<event>
 4    1  0.2967296E+006  0.2060040E+02  0.7546771E-02  0.1525047E+00
         21   -1    0    0  504  501  0.00000000000E+00  0.00000000000E+00  0.70013649489E+01  0.70013649489E+01  0.00000000000E+00 0. -1.
         21   -1    0    0  501  502 -0.00000000000E+00 -0.00000000000E+00 -0.20152479209E+03  0.20152479209E+03  0.00000000000E+00 0. -1.
         21    1    1    2  503  502 -0.14642407242E+02  0.14490563958E+02 -0.18444622856E+03  0.18559307035E+03  0.00000000000E+00 0. -1.
         21    1    1    2  504  503  0.14642407242E+02 -0.14490563958E+02 -0.10077198583E+02  0.22933086686E+02  0.00000000000E+00 0. -1.
</event>
<event>
 4    1  0.2967296E+006  0.2054277E+02  0.7546771E-02  0.1525894E+00
         21   -1    0    0  502  501  0.00000000000E+00  0.00000000000E+00  0.38825102309E+02  0.38825102309E+02  0.00000000000E+00 0.  1.
         21   -1    0    0  503  502 -0.00000000000E+00 -0.00000000000E+00 -0.58350812973E+03  0.58350812973E+03  0.00000000000E+00 0.  1.
         21    1    1    2  503  504  0.20445954415E+02  0.19921063096E+01 -0.58059635091E+03  0.58095966145E+03  0.00000000000E+00 0.  1.
         21    1    1    2  504  501 -0.20445954415E+02 -0.19921063096E+01  0.35913323489E+02  0.41373570591E+02  0.00000000000E+00 0.  1.
</event>
<event>
 4    1  0.2967296E+006  0.2777498E+02  0.7546771E-02  0.1439975E+00
         21   -1    0    0  504  501  0.00000000000E+00  0.00000000000E+00  0.54610356442E+03  0.54610356442E+03  0.00000000000E+00 0.  1.
         21   -1    0    0  503  502 -0.00000000000E+00 -0.00000000000E+00 -0.17149157891E+01  0.17149157891E+01  0.00000000000E+00 0. -1.
         21    1    1    2  503  501 -0.19085091151E+02 -0.20179420588E+02  0.15719789371E+03  0.15963278957E+03  0.00000000000E+00 0. -1.
         21    1    1    2  504  502  0.19085091151E+02  0.20179420588E+02  0.38719075492E+03  0.38818569064E+03  0.00000000000E+00 0.  1.
</event>
<event>
 4    1  0.2967296E+006  0.2076026E+02  0.7546771E-02  0.1522715E+00
         21   -1    0    0  503  501  0.00000000000E+00  0.00000000000E+00  0.13019223323E+01  0.13019223323E+01  0.00000000000E+00 0. -1.
         21   -1    0    0  504  502 -0.00000000000E+00 -0.00000000000E+00 -0.34379084048E+03  0.34379084048E+03  0.00000000000E+00 0. -1.
         21    1    1    2  503  502 -0.49957018606E+01  0.20150220600E+02 -0.13801468821E+03  0.13956734070E+03  0.00000000000E+00 0. -1.
         21    1    1    2  504  501  0.49957018606E+01 -0.20150220600E+02 -0.20447422994E+03  0.20552542212E+03  0.00000000000E+00 0. -1.
</event>
<event>
 4    1  0.2967296E+006  0.5567521E+02  0.7546771E-02  0.1275280E+00
         21   -1    0    0  504  501  0.00000000000E+00  0.00000000000E+00  0.26917604309E+03  0.26917604309E+03  0.00000000000E+00 0. -1.
         21   -1    0    0  503  502 -0.00000000000E+00 -0.00000000000E+00 -0.15366954457E+02  0.15366954457E+02  0.00000000000E+00 0. -1.
         21    1    1    2  503  501 -0.55647860578E+02 -0.17447787123E+01  0.19812909250E+03  0.20580297844E+03  0.00000000000E+00 0. -1.
         21    1    1    2  504  502  0.55647860578E+02  0.17447787123E+01  0.55679996133E+02  0.78740019107E+02  0.00000000000E+00 0. -1.
</event>
<event>
 4    1  0.2967296E+006  0.3914091E+02  0.7546771E-02  0.1353595E+00
         21   -1    0    0  504  501  0.00000000000E+00  0.00000000000E+00  0.36623074942E+01  0.36623074942E+01  0.00000000000E+00 0. -1.
         21   -1    0    0  503  502 -0.00000000000E+00 -0.00000000000E+00 -0.61364743181E+03  0.61364743181E+03  0.00000000000E+00 0. -1.
         21    1    1    2  503  501 -0.35693937271E+02  0.16060928149E+02 -0.47913197818E+03  0.48072805523E+03  0.00000000000E+00 0. -1.
         21    1    1    2  504  502  0.35693937271E+02 -0.16060928149E+02 -0.13085314614E+03  0.13658168408E+03  0.00000000000E+00 0. -1.
</event>
<event>
 4    1  0.2967296E+006  0.2060419E+02  0.7546771E-02  0.1524992E+00
         21   -1    0    0  502  501  0.00000000000E+00  0.00000000000E+00  0.54587658156E+01  0.54587658156E+01  0.00000000000E+00 0. -1.
         21   -1    0    0  504  502 -0.00000000000E+00 -0.00000000000E+00 -0.11265333243E+03  0.11265333243E+03  0.00000000000E+00 0. -1.
         21    1    1    2  503  501  0.19809667766E+01  0.20508736359E+02 -0.20735095655E+02  0.29231433222E+02  0.00000000000E+00 0. -1.
         21    1    1    2  504  503 -0.19809667766E+01 -0.20508736359E+02 -0.86459470956E+02  0.88880665020E+02  0.00000000000E+00 0. -1.
</event>
<event>
 4    1  0.2967296E+006  0.2171956E+02  0.7546771E-02  0.1509235E+00
         21   -1    0    0  504  501  0.00000000000E+00  0.00000000000E+00  0.94939740919E+02  0.94939740919E+02  0.00000000000E+00 0.  1.
         21   -1    0    0  503  502 -0.00000000000E+00 -0.00000000000E+00 -0.52229581266E+01  0.52229581266E+01  0.00000000000E+00 0.  1.
         21    1    1    2  503  501  0.18174719254E+01  0.21643384560E+02  0.55905415961E+02  0.59976285590E+02  0.00000000000E+00 0.  1.
         21    1    1    2  504  502 -0.18174719254E+01 -0.21643384560E+02  0.33811366831E+02  0.40186413455E+02  0.00000000000E+00 0.  1.
</event>
<event>
 4    1  0.2967296E+006  0.3233521E+02  0.7546771E-02  0.1400332E+00
         21   -1    0    0  503  501  0.00000000000E+00  0.00000000000E+00  0.17048307710E+03  0.17048307710E+03  0.00000000000E+00 0. -1.
         21   -1    0    0  504  502 -0.00000000000E+00 -0.00000000000E+00 -0.85756162223E+01  0.85756162223E+01  0.00000000000E+00 0.  1.
         21    1    1    2  503  502 -0.43181433154E+01  0.32045579846E+02  0.33171755069E+02  0.46324193288E+02  0.00000000000E+00 0.  1.
         21    1    1    2  504  501  0.43181433154E+01 -0.32045579846E+02  0.12873570581E+03  0.13273450003E+03  0.00000000000E+00 0. -1.
</event>
<event>
 4    1  0.2967296E+006  0.3004090E+02  0.7546771E-02  0.1419241E+00
         21   -1    0    0  503  501  0.00000000000E+00  0.00000000000E+00  0.32076995187E+02  0.32076995187E+02  0.00000000000E+00 0.  1.
         21   -1    0    0  504  502 -0.00000000000E+00 -0.00000000000E+00 -0.37449818851E+02  0.37449818851E+02  0.00000000000E+00 0.  1.
         21    1    1    2  503  502  0.64496739142E+01 -0.29340374110E+02  0.14651898861E+02  0.33423554370E+02  0.00000000000E+00 0.  1.
         21    1    1    2  504  501 -0.64496739142E+01  0.29340374110E+02 -0.20024722525E+02  0.36103259669E+02  0.00000000000E+00 0.  1.
</event>
<event>
 4    1  0.2967296E+006  0.2421530E+02  0.7546771E-02  0.1477777E+00
         21   -1    0    0  503  501  0.00000000000E+00  0.00000000000E+00  0.56319886801E+01  0.56319886801E+01  0.00000000000E+00 0. -1.
         21   -1    0    0  504  502 -0.00000000000E+00 -0.00000000000E+00 -0.11385188773E+03  0.11385188773E+03  0.00000000000E+00 0. -1.
         21    1    1    2  503  502 -0.24013989482E+02  0.31159405846E+01 -0.36639888504E+02  0.43918813806E+02  0.00000000000E+00 0. -1.
         21    1    1    2  504  501  0.24013989482E+02 -0.31159405846E+01 -0.71580010550E+02  0.75565062608E+02  0.00000000000E+00 0. -1.
</event>
<event>
 4    1  0.2967296E+006  0.2785367E+02  0.7546771E-02  0.1439216E+00
         21   -1    0    0  503  501  0.00000000000E+00  0.00000000000E+00  0.49530649489E+01  0.49530649489E+01  0.00000000000E+00 0.  1.
         21   -1    0    0  504  502 -0.00000000000E+00 -0.00000000000E+00 -0.22647203630E+03  0.22647203630E+03  0.00000000000E+00 0.  1.
         21    1    1    2  503  502  0.16470668231E+02  0.22462052523E+02 -0.46503446997E+02  0.54206985695E+02  0.00000000000E+00 0.  1.
         21    1    1    2  504  501 -0.16470668231E+02 -0.22462052523E+02 -0.17501552436E+03  0.17721811556E+03  0.00000000000E+00 0.  1.
</event>
<event>
 4    1  0.2967296E+006  0.5439360E+02  0.7546771E-02  0.1280170E+00
         21   -1    0    0  503  501  0.00000000000E+00  0.00000000000E+00  0.99112816211E+02  0.99112816211E+02  0.00000000000E+00 0.  1.
         21   -1    0    0  501  502 -0.00000000000E+00 -0.00000000000E+00 -0.29968578391E+02  0.29968578391E+02  0.00000000000E+00 0.  1.
         21    1    1    2  503  504 -0.14258578475E+02  0.52491493010E+02  0.30537684696E+02  0.62379596705E+02  0.00000000000E+00 0.  1.
         21    1    1    2  504  502  0.14258578475E+02 -0.52491493010E+02  0.38606553123E+02  0.66701797896E+02  0.00000000000E+00 0.  1.
</event>
<event>
 4    1  0.2967296E+006  0.4303389E+02  0.7546771E-02  0.1331569E+00
         21   -1    0    0  504  501  0.00000000000E+00  0.00000000000E+00  0.13189542972E+03  0.13189542972E+03  0.00000000000E+00 0.  1.
         21   -1    0    0  503  502 -0.00000000000E+00 -0.00000000000E+00 -0.17556189572E+02  0.17556189572E+02  0.00000000000E+00 0. -1.
         21    1    1    2  503  501  0.26322450769E+02 -0.34044735928E+02  0.90607837236E+02  0.10030800381E+03  0.00000000000E+00 0. -1.
         21    1    1    2  504  502 -0.26322450769E+02  0.34044735928E+02  0.23731402912E+02  0.49143615486E+02  0.00000000000E+00 0.  1.
</event>
<event>
 4    1  0.2967296E+006  0.2540720E+02  0.7546771E-02  0.1464299E+00
         21   -1    0    0  503  501  0.00000000000E+00  0.00000000000E+00  0.14937335788E+02  0.14937335788E+02  0.00000000000E+00 0. -1.
         21   -1    0    0  504  502 -0.00000000000E+00 -0.00000000000E+00 -0.43422891322E+02  0.43422891322E+02  0.00000000000E+00 0. -1.
         21    1    1    2  503  502 -0.42191654018E+01 -0.25054432942E+02 -0.16258893634E+02  0.30164177246E+02  0.00000000000E+00 0. -1.
         21    1    1    2  504  501  0.42191654018E+01  0.25054432942E+02 -0.12226661899E+02  0.28196049864E+02  0.00000000000E+00 0. -1.
</event>
<event>
 4    1  0.2967296E+006  0.2907121E+02  0.7546771E-02  0.1427843E+00
         21   -1    0    0  504  501  0.00000000000E+00  0.00000000000E+00  0.33165046602E+02  0.33165046602E+02  0.00000000000E+00 0. -1.
         21   -1    0    0  501  502 -0.00000000000E+00 -0.00000000000E+00 -0.36107354573E+02  0.36107354573E+02  0.00000000000E+00 0. -1.
         21    1    1    2  503  502  0.73794084514E+01 -0.28119024756E+02 -0.20259547255E+02  0.35434227483E+02  0.00000000000E+00 0. -1.
         21    1    1    2  504  503 -0.73794084514E+01  0.28119024756E+02  0.17317239285E+02  0.33838173692E+02  0.00000000000E+00 0. -1.
</event>
<event>
 4    1  0.2967296E+006  0.2104554E+02  0.7546771E-02  0.1518616E+00
         21   -1    0    0  502  501  0.00000000000E+00  0.00000000000E+00  0.13165150978E+04  0.13165150978E+04  0.00000000000E+00 0. -1.
         21   -1    0    0  504  502 -0.00000000000E+00 -0.00000000000E+00 -0.30383828091E+01  0.30383828091E+01  0.00000000000E+00 0.  1.
         21    1    1    2  503  501  0.68885647100E+00 -0.21034262279E+02  0.12789163765E+04  0.12790895249E+04  0.00000000000E+00 0. -1.
         21    1    1    2  504  503 -0.68885647100E+00  0.21034262279E+02  0.34560338531E+02  0.40463955716E+02  0.00000000000E+00 0.  1.
</event>
<event>
 4    1  0.2967296E+006  0.2498631E+02  0.7546771E-02  0.1468957E+00
         21   -1    0    0  504  501  0.00000000000E+00  0.00000000000E+00  0.48775548584E+02  0.48775548584E+02  0.00000000000E+00 0. -1.
         21   -1    0    0  503  502 -0.00000000000E+00 -0.00000000000E+00 -0.13088811603E+02  0.13088811603E+02  0.00000000000E+00 0. -1.
         21    1    1    2  503  501 -0.15764271108E+02  0.19385655676E+02  0.13246741369E+02  0.28280594874E+02  0.00000000000E+00 0. -1.
         21    1    1    2  504  502  0.15764271108E+02 -0.19385655676E+02  0.22439995611E+02  0.33583765312E+02  0.00000000000E+00 0. -1.
</event>
<event>
 4    1  0.2967296E+006  0.2286379E+02  0.7546771E-02  0.1494216E+00
         21   -1    0    0  504  501  0.00000000000E+00  0.00000000000E+00  0.71987504546E+01  0.71987504546E+01  0.00000000000E+00 0.  1.
         21   -1    0    0  501  502 -0.00000000000E+00 -0.00000000000E+00 -0.72648624162E+02  0.72648624162E+02  0.00000000000E+00 0.  1.
         21    1    1    2  503  502 -0.21993244257E+02  0.62490116578E+01 -0.33555560174E+02  0.40604538641E+02  0.00000000000E+00 0.  1.
         21    1    1    2  504  503  0.21993244257E+02 -0.62490116578E+01 -0.31894313534E+02  0.39242835976E+02  0.00000000000E+00 0.  1.
</event>
<event>
 4    1  0.2967296E+006  0.2286533E+02  0.7546771E-02  0.1494196E+00
         21   -1    0    0  503  501  0.00000000000E+00  0.00000000000E+00  0.29936470266E+02  0.29936470266E+02  0.00000000000E+00 0. -1.
         21   -1    0    0  504  502 -0.00000000000E+00 -0.00000000000E+00 -0.17559485465E+02  0.17559485465E+02  0.00000000000E+00 0. -1.
         21    1    1    2  503  502 -0.19035480214E+02  0.12667825454E+02  0.44412005729E+01  0.23292650584E+02  0.00000000000E+00 0. -1.
         21    1    1    2  504  501  0.19035480214E+02 -0.12667825454E+02  0.79357842286E+01  0.24203305147E+02  0.00000000000E+00 0. -1.
</event>
<event>
 4    1  0.2967296E+006  0.2225011E+02  0.7546771E-02  0.1502136E+00
         21   -1    0    0  504  501  0.00000000000E+00  0.00000000000E+00  0.31309833835E+02  0.31309833835E+02  0.00000000000E+00 0.  1.
         21   -1    0    0  503  502 -0.00000000000E+00 -0.00000000000E+00 -0.31301950277E+02  0.31301950277E+02  0.00000000000E+00 0.  1.
         21    1    1    2  503  501  0.17747463281E+02  0.13419939032E+02 -0.22018584257E+02  0.31303119161E+02  0.00000000000E+00 0.  1.
         21    1    1    2  504  502 -0.17747463281E+02 -0.13419939032E+02  0.22026467815E+02  0.31308664950E+02  0.00000000000E+00 0.  1.
</event>
<event>
 4    1  0.2967296E+006  0.2305541E+02  0.7546771E-02  0.1491803E+00
         21   -1    0    0  503  501  0.00000000000E+00  0.00000000000E+00  0.76083983957E+00  0.76083983957E+00  0.00000000000E+00 0. -1.
         21   -1    0    0  504  502 -0.00000000000E+00 -0.00000000000E+00 -0.99317969009E+03  0.99317969009E+03  0.00000000000E+00 0. -1.
         21    1    1    2  503  502 -0.81811782015E+01 -0.21555056627E+02 -0.22557105220E+03  0.22674622761E+03  0.00000000000E+00 0. -1.
         21    1    1    2  504  501  0.81811782015E+01  0.21555056627E+02 -0.76684779805E+03  0.76719430233E+03  0.00000000000E+00 0. -1.
</event>
<event>
 4    1  0.2967296E+006  0.2071298E+02  0.7546771E-02  0.1523402E+00
         21   -1    0    0  503  501  0.00000000000E+00  0.00000000000E+00  0.24432827964E+03  0.24432827964E+03  0.00000000000E+00 0.  1.
         21   -1    0    0  504  502 -0.00000000000E+00 -0.00000000000E+00 -0.30146627226E+01  0.30146627226E+01  0.00000000000E+00 0. -1.
         21    1    1    2  503  502  0.94443720286E+01 -0.18434519171E+02  0.40744461810E+02  0.45707098226E+02  0.00000000000E+00 0. -1.
         21    1    1    2  504  501 -0.94443720286E+01  0.18434519171E+02  0.20056915511E+03  0.20163584414E+03  0.00000000000E+00 0.  1.
</event>
<event>
 4    1  0.2967296E+006  0.2711110E+02  0.7546771E-02  0.1446495E+00
         21   -1    0    0  504  501  0.00000000000E+00  0.00000000000E+00  0.12335120525E+02  0.12335120525E+02  0.00000000000E+00 0.  1.
         21   -1    0    0  503  502 -0.00000000000E+00 -0.00000000000E+00 -0.69513989478E+02  0.69513989478E+02  0.00000000000E+00 0.  1.
         21    1    1    2  503  501 -0.18220855236E+02 -0.20075157400E+02 -0.44054756742E+02  0.51728455436E+02  0.00000000000E+00 0.  1.
         21    1    1    2  504  502  0.18220855236E+02  0.20075157400E+02 -0.13124112211E+02  0.30120654566E+02  0.00000000000E+00 0.  1.
</event>
<event>
 4    1  0.2967296E+006  0.2260800E+02  0.7546771E-02  0.1497480E+00
         21   -1    0    0  504  501  0.00000000000E+00  0.00000000000E+00  0.67856770605E+02  0.67856770605E+02  0.00000000000E+00 0. -1.
         21   -1    0    0  503  502 -0.00000000000E+00 -0.00000000000E+00 -0.10642135074E+02  0.10642135074E+02  0.00000000000E+00 0. -1.
         21    1    1    2  503  501  0.22569895623E+02 -0.13120848645E+01  0.73903372190E+01  0.23785265173E+02  0.00000000000E+00 0. -1.
         21    1    1    2  504  502 -0.22569895623E+02  0.13120848645E+01  0.49824298312E+02  0.54713640506E+02  0.00000000000E+00 0. -1.
</event>
<event>
 4    1  0.2967296E+006  0.3038179E+02  0.7546771E-02  0.1416307E+00
         21   -1    0    0  503  501  0.00000000000E+00  0.00000000000E+00  0.14634694717E+02  0.14634694717E+02  0.00000000000E+00 0.  1.
         21   -1    0    0  504  502 -0.00000000000E+00 -0.00000000000E+00 -0.10710955518E+03  0.10710955518E+03  0.00000000000E+00 0.  1.
         21    1    1    2  503  502  0.11400794493E+01  0.30360394978E+02 -0.85268573424E+02  0.90519517112E+02  0.00000000000E+00 0.  1.
         21    1    1    2  504  501 -0.11400794493E+01 -0.30360394978E+02 -0.72062870345E+01  0.31224732780E+02  0.00000000000E+00 0.  1.
</event>
<event>
 4    1  0.2967296E+006  0.3301438E+02  0.7546771E-02  0.1395087E+00
         21   -1    0    0  502  501  0.00000000000E+00  0.00000000000E+00  0.18488490274E+03  0.18488490274E+03  0.00000000000E+00 0. -1.
         21   -1    0    0  504  502 -0.00000000000E+00 -0.00000000000E+00 -0.45276494944E+02  0.45276494944E+02  0.00000000000E+00 0. -1.
         21    1    1    2  503  501 -0.10617575468E+02  0.31260463685E+02  0.17713160412E+03  0.18018200431E+03  0.00000000000E+00 0. -1.
         21    1    1    2  504  503  0.10617575468E+02 -0.31260463685E+02 -0.37523196331E+02  0.49979393369E+02  0.00000000000E+00 0. -1.
</event>
<event>
 4    1  0.2967296E+006  0.3804675E+02  0.7546771E-02  0.1360328E+00
         21   -1    0    0  503  501  0.00000000000E+00  0.00000000000E+00  0.35499223154E+02  0.35499223154E+02  0.00000000000E+00 0. -1.
         21   -1    0    0  504  502 -0.00000000000E+00 -0.00000000000E+00 -0.56409312453E+02  0.56409312453E+02  0.00000000000E+00 0. -1.
         21    1    1    2  503  502 -0.37832830084E+02  0.40288962946E+01  0.13736344243E+02  0.40450490612E+02  0.00000000000E+00 0. -1.
         21    1    1    2  504  501  0.37832830084E+02 -0.40288962946E+01 -0.34646433543E+02  0.51458044996E+02  0.00000000000E+00 0. -1.
</event>
<event>
 4    1  0.2967296E+006  0.2240537E+02  0.7546771E-02  0.1500103E+00
         21   -1    0    0  504  501  0.00000000000E+00  0.00000000000E+00  0.54226995073E+01  0.54226995073E+01  0.00000000000E+00 0.  1.
         21   -1    0    0  501  502 -0.00000000000E+00 -0.00000000000E+00 -0.25788226759E+03  0.25788226759E+03  0.00000000000E+00 0. -1.
         21    1    1    2  503  502 -0.19305359907E+02  0.11371170151E+02 -0.23163588218E+03  0.23271695758E+03  0.00000000000E+00 0. -1.
         21    1    1    2  504  503  0.19305359907E+02 -0.11371170151E+02 -0.20823685905E+02  0.30588009520E+02  0.00000000000E+00 0.  1.
</event>
<event>
 4    1  0.2967296E+006  0.2576958E+02  0.7546771E-02  0.1460375E+00
         21   -1    0    0  504  501  0.00000000000E+00  0.00000000000E+00  0.41611860223E+01  0.41611860223E+01  0.00000000000E+00 0.  1.
         21   -1    0    0  501  502 -0.00000000000E+00 -0.00000000000E+00 -0.64199219471E+03  0.64199219471E+03  0.00000000000E+00 0. -1.
         21    1    1    2  503  502 -0.20851555953E+00 -0.25768739900E+02 -0.59897268543E+03  0.59952677115E+03  0.00000000000E+00 0. -1.
         21    1    1    2  504  503  0.20851555953E+00  0.25768739900E+02 -0.38858323261E+02  0.46626609586E+02  0.00000000000E+00 0.  1.
</event>
<event>
 4    1  0.2967296E+006  0.2017337E+02  0.7546771E-02  0.1531402E+00
         21   -1    0    0  503  501  0.00000000000E+00  0.00000000000E+00  0.31434669809E+02  0.31434669809E+02  0.00000000000E+00 0.  1.
         21   -1    0    0  504  502 -0.00000000000E+00 -0.00000000000E+00 -0.32309069645E+02  0.32309069645E+02  0.00000000000E+00 0.  1.
         21    1    1    2  503  502 -0.15994317905E+02 -0.12294170780E+02  0.24236159145E+02  0.31533414825E+02  0.00000000000E+00 0.  1.
         21    1    1    2  504  501  0.15994317905E+02  0.12294170780E+02 -0.25110558980E+02  0.32210324629E+02  0.00000000000E+00 0.  1.
</event>
<event>
 4    1  0.2967296E+006  0.4719795E+02  0.7546771E-02  0.1310801E+00
         21   -1    0    0  503  501  0.00000000000E+00  0.00000000000E+00  0.79540816772E+01  0.79540816772E+01  0.00000000000E+00 0.  1.
         21   -1    0    0  504  502 -0.00000000000E+00 -0.00000000000E+00 -0.28095798055E+03  0.28095798055E+03  0.00000000000E+00 0.  1.
         21    1    1    2  503  502  0.35736541785E+02 -0.30830929939E+02 -0.12835040432E+03  0.13675332884E+03  0.00000000000E+00 0.  1.
         21    1    1    2  504  501 -0.35736541785E+02  0.30830929939E+02 -0.14465349454E+03  0.15215873338E+03  0.00000000000E+00 0.  1.
</event>
<event>
 4    1  0.2967296E+006  0.2216567E+02  0.7546771E-02  0.1503249E+00
         21   -1    0    0  504  501  0.00000000000E+00  0.00000000000E+00  0.21528366100E+03  0.21528366100E+03  0.00000000000E+00 0. -1.
         21   -1    0    0  501  502 -0.00000000000E+00 -0.00000000000E+00 -0.36090856678E+01  0.36090856678E+01  0.00000000000E+00 0.  1.
         21    1    1    2  503  502  0.21462489088E+02  0.55388105090E+01  0.39474869849E+02  0.45272311729E+02  0.00000000000E+00 0.  1.
         21    1    1    2  504  503 -0.21462489088E+02 -0.55388105090E+01  0.17219970548E+03  0.17362043494E+03  0.00000000000E+00 0. -1.
</event>
<event>
 4    1  0.2967296E+006  0.2220292E+02  0.7546771E-02  0.1502757E+00
         21   -1    0    0  504  501  0.00000000000E+00  0.00000000000E+00  0.22395539950E+02  0.22395539950E+02  0.00000000000E+00 0.  1.
         21   -1    0    0  503  502 -0.00000000000E+00 -0.00000000000E+00 -0.22020108401E+02  0.22020108401E+02  0.00000000000E+00 0.  1.
         21    1    1    2  503  501 -0.12366118322E+02  0.18440405908E+02  0.61524128104E+00  0.22211437915E+02  0.00000000000E+00 0.  1.
         21    1    1    2  504  502  0.12366118322E+02 -0.18440405908E+02 -0.23980973222E+00  0.22204210437E+02  0.00000000000E+00 0.  1.
</event>
<event>
 4    1  0.2967296E+006  0.2038127E+02  0.7546771E-02  0.1528285E+00
         21   -1    0    0  503  501  0.00000000000E+00  0.00000000000E+00  0.10442183878E+02  0.10442183878E+02  0.00000000000E+00 0. -1.
         21   -1    0    0  504  502 -0.00000000000E+00 -0.00000000000E+00 -0.15158206876E+03  0.15158206876E+03  0.00000000000E+00 0.  1.
         21    1    1    2  503  502  0.13235325537E+02  0.15499110353E+02 -0.14014440895E+03  0.14161868388E+03  0.00000000000E+00 0.  1.
         21    1    1    2  504  501 -0.13235325537E+02 -0.15499110353E+02 -0.99547592572E+00  0.20405568753E+02  0.00000000000E+00 0. -1.
</event>
<event>
 4    1  0.2967296E+006  0.2293369E+02  0.7546771E-02  0.1493332E+00
         21   -1    0    0  504  501  0.00000000000E+00  0.00000000000E+00  0.51228628623E+02  0.51228628623E+02  0.00000000000E+00 0. -1.
         21   -1    0    0  503  502 -0.00000000000E+00 -0.00000000000E+00 -0.10407655725E+02  0.10407655725E+02  0.00000000000E+00 0. -1.
         21    1    1    2  503  501 -0.17831412671E+02  0.14422028356E+02  0.16825278290E+02  0.28443701751E+02  0.00000000000E+00 0. -1.
         21    1    1    2  504  502  0.17831412671E+02 -0.14422028356E+02  0.23995694608E+02  0.33192582597E+02  0.00000000000E+00 0. -1.
</event>
<event>
 4    1  0.2967296E+006  0.2638953E+02  0.7546771E-02  0.1453839E+00
         21   -1    0    0  504  501  0.00000000000E+00  0.00000000000E+00  0.53276638311E+02  0.53276638311E+02  0.00000000000E+00 0.  1.
         21   -1    0    0  503  502 -0.00000000000E+00 -0.00000000000E+00 -0.13355176869E+02  0.13355176869E+02  0.00000000000E+00 0.  1.
         21    1    1    2  503  501  0.23415312499E+02  0.12170878702E+02  0.15105428936E+02  0.30406925710E+02  0.00000000000E+00 0.  1.
         21    1    1    2  504  502 -0.23415312499E+02 -0.12170878702E+02  0.24816032506E+02  0.36224889470E+02  0.00000000000E+00 0.  1.
</event>
<event>
 4    1  0.2967296E+006  0.2163663E+02  0.7546771E-02  0.1510366E+00
         21   -1    0    0  504  501  0.00000000000E+00  0.00000000000E+00  0.63237729301E+02  0.63237729301E+02  0.00000000000E+00 0.  1.
         21   -1    0    0  501  502 -0.00000000000E+00 -0.00000000000E+00 -0.23723053740E+03  0.23723053740E+03  0.00000000000E+00 0. -1.
         21    1    1    2  503  502  0.14492779295E+02 -0.16065582004E+02 -0.23486788799E+03  0.23586239290E+03  0.00000000000E+00 0. -1.
         21    1    1    2  504  503 -0.14492779295E+02  0.16065582004E+02  0.60875079894E+02  0.64605873795E+02  0.00000000000E+00 0.  1.
</event>
<event>
 4    1  0.2967296E+006  0.4607660E+02  0.7546771E-02  0.1316142E+00
         21   -1    0    0  503  501  0.00000000000E+00  0.00000000000E+00  0.71109034361E+01  0.71109034361E+01  0.00000000000E+00 0. -1.
         21   -1    0    0  501  502 -0.00000000000E+00 -0.00000000000E+00 -0.32880046666E+03  0.32880046666E+03  0.00000000000E+00 0. -1.
         21    1    1    2  503  504  0.34258847840E+02 -0.30812078893E+02 -0.10991157760E+03  0.11917888971E+03  0.00000000000E+00 0. -1.
         21    1    1    2  504  502 -0.34258847840E+02  0.30812078893E+02 -0.21177798562E+03  0.21673248039E+03  0.00000000000E+00 0. -1.
</event>
<event>
 4    1  0.2967296E+006  0.2743960E+02  0.7546771E-02  0.1443242E+00
         21   -1    0    0  504  501  0.00000000000E+00  0.00000000000E+00  0.16059982999E+02  0.16059982999E+02  0.00000000000E+00 0. -1.
         21   -1    0    0  503  502 -0.00000000000E+00 -0.00000000000E+00 -0.10933804413E+03  0.10933804413E+03  0.00000000000E+00 0.  1.
         21    1    1    2  503  501  0.21112708545E+02  0.17526704063E+02  0.74812367230E+00  0.27449799752E+02  0.00000000000E+00 0. -1.
         21    1    1    2  504  502 -0.21112708545E+02 -0.17526704063E+02 -0.94026184808E+02  0.97948227380E+02  0.00000000000E+00 0.  1.
</event>
<event>
 4    1  0.2967296E+006  0.2520949E+02  0.7546771E-02  0.1466473E+00
         21   -1    0    0  503  501  0.00000000000E+00  0.00000000000E+00  0.33309138554E+02  0.33309138554E+02  0.00000000000E+00 0.  1.
         21   -1    0    0  504  502 -0.00000000000E+00 -0.00000000000E+00 -0.20989038590E+02  0.20989038590E+02  0.00000000000E+00 0.  1.
         21    1    1    2  503  502 -0.13740701816E+02  0.21135554062E+02 -0.20290099124E+01  0.25291014474E+02  0.00000000000E+00 0.  1.
         21    1    1    2  504  501  0.13740701816E+02 -0.21135554062E+02  0.14349109877E+02  0.29007162670E+02  0.00000000000E+00 0.  1.
</event>
<event>
 4    1  0.2967296E+006  0.2154491E+02  0.7546771E-02  0.1511625E+00
         21   -1    0    0  503  501  0.00000000000E+00  0.00000000000E+00  0.10834444394E+03  0.10834444394E+03  0.00000000000E+00 0. -1.
         21   -1    0    0  501  502 -0.00000000000E+00 -0.00000000000E+00 -0.14806007840E+02  0.14806007840E+02  0.00000000000E+00 0. -1.
         21    1    1    2  503  504 -0.10772930413E+02 -0.18658161152E+02  0.98676655811E+02  0.10100131390E+03  0.00000000000E+00 0. -1.
         21    1    1    2  504  502  0.10772930413E+02  0.18658161152E+02 -0.51382197076E+01  0.22149137884E+02  0.00000000000E+00 0. -1.
</event>
<event>
 4    1  0.2967296E+006  0.2892761E+02  0.7546771E-02  0.1429150E+00
         21   -1    0    0  504  501  0.00000000000E+00  0.00000000000E+00  0.54062995354E+03  0.54062995354E+03  0.00000000000E+00 0.  1.
         21   -1    0    0  503  502 -0.00000000000E+00 -0.00000000000E+00 -0.15510796795E+01  0.15510796795E+01  0.00000000000E+00 0. -1.
         21    1    1    2  503  501  0.28658304815E+02  0.39380142609E+01  0.25714204582E+03  0.25876405878E+03  0.00000000000E+00 0. -1.
         21    1    1    2  504  502 -0.28658304815E+02 -0.39380142609E+01  0.28193682804E+03  0.28341697444E+03  0.00000000000E+00 0.  1.
</event>
<event>
 4    1  0.2967296E+006  0.3571194E+02  0.7546771E-02  0.1375626E+00
         21   -1    0    0  504  501  0.00000000000E+00  0.00000000000E+00  0.24708744822E+02  0.24708744822E+02  0.00000000000E+00 0. -1.
         21   -1    0    0  501  502 -0.00000000000E+00 -0.00000000000E+00 -0.51651766469E+02  0.51651766469E+02  0.00000000000E+00 0. -1.
         21    1    1    2  503  502  0.34388331240E+02 -0.96325120694E+01 -0.14489733548E+02  0.38539525069E+02  0.00000000000E+00 0. -1.
         21    1    1    2  504  503 -0.34388331240E+02  0.96325120694E+01 -0.12453288099E+02  0.37820986221E+02  0.00000000000E+00 0. -1.
</event>
<event>
 4    1  0.2967296E+006  0.2580400E+02  0.7546771E-02  0.1460007E+00
         21   -1    0    0  503  501  0.00000000000E+00  0.00000000000E+00  0.22936864667E+02  0.22936864667E+02  0.00000000000E+00 0.  1.
         21   -1    0    0  501  502 -0.00000000000E+00 -0.00000000000E+00 -0.50459262896E+02  0.50459262896E+02  0.00000000000E+00 0.  1.
         21    1    1    2  503  504  0.22901134660E+02 -0.11890523910E+02  0.10154386684E+02  0.27730093698E+02  0.00000000000E+00 0.  1.
         21    1    1    2  504  502 -0.22901134660E+02  0.11890523910E+02 -0.37676784913E+02  0.45666033865E+02  0.00000000000E+00 0.  1.
</event>
<event>
 4    1  0.2967296E+006  0.3406122E+02  0.7546771E-02  0.1387286E+00
         21   -1    0    0  503  501  0.00000000000E+00  0.00000000000E+00  0.34723796056E+01  0.34723796056E+01  0.00000000000E+00 0.  1.
         21   -1    0    0  504  502 -0.00000000000E+00 -0.00000000000E+00 -0.35934673007E+03  0.35934673007E+03  0.00000000000E+00 0.  1.
         21    1    1    2  503  502  0.64037469809E+00 -0.34055197851E+02 -0.12986481012E+03  0.13425734798E+03  0.00000000000E+00 0.  1.
         21    1    1    2  504  501 -0.64037469809E+00  0.34055197851E+02 -0.22600954035E+03  0.22856176170E+03  0.00000000000E+00 0.  1.
</event>
<event>
 4    1  0.2967296E+006  0.2455673E+02  0.7546771E-02  0.1473824E+00
         21   -1    0    0  503  501  0.00000000000E+00  0.00000000000E+00  0.24346005451E+02  0.24346005451E+02  0.00000000000E+00 0. -1.
         21   -1    0    0  504  502 -0.00000000000E+00 -0.00000000000E+00 -0.14347154599E+03  0.14347154599E+03  0.00000000000E+00 0. -1.
         21    1    1    2  503  502 -0.12572284695E+02  0.21094325816E+02  0.16759979341E+02  0.29730957462E+02  0.00000000000E+00 0. -1.
         21    1    1    2  504  501  0.12572284695E+02 -0.21094325816E+02 -0.13588551988E+03  0.13808659398E+03  0.00000000000E+00 0. -1.
</event>
<event>
 4    1  0.2967296E+006  0.3171815E+02  0.7546771E-02  0.1405231E+00
         21   -1    0    0  504  501  0.00000000000E+00  0.00000000000E+00  0.70098466367E+01  0.70098466367E+01  0.00000000000E+00 0. -1.
         21   -1    0    0  503  502 -0.00000000000E+00 -0.00000000000E+00 -0.40484036503E+03  0.40484036503E+03  0.00000000000E+00 0. -1.
         21    1    1    2  503  501  0.13752044289E+02 -0.28581854074E+02 -0.33469570450E+02  0.46111313694E+02  0.00000000000E+00 0. -1.
         21    1    1    2  504  502 -0.13752044289E+02  0.28581854074E+02 -0.36436094795E+03  0.36573889798E+03  0.00000000000E+00 0. -1.
</event>
<event>
 4    1  0.2967296E+006  0.2300851E+02  0.7546771E-02  0.1492391E+00
         21   -1    0    0  503  501  0.00000000000E+00  0.00000000000E+00  0.39049696368E+00  0.39049696368E+00  0.00000000000E+00 0.  1.
         21   -1    0    0  504  502 -0.00000000000E+00 -0.00000000000E+00 -0.15491944704E+04  0.15491944704E+04  0.00000000000E+00 0. -1.
         21    1    1    2  503  502 -0.12655378537E+01 -0.22973678495E+02 -0.50057151212E+03  0.50110002019E+03  0.00000000000E+00 0.  1.
         21    1    1    2  504  501  0.12655378537E+01  0.22973678495E+02 -0.10482324613E+04  0.10484849472E+04  0.00000000000E+00 0. -1.
</event>
<event>
 4    1  0.2967296E+006  0.2138016E+02  0.7546771E-02  0.1513906E+00
         21   -1    0    0  504  501  0.00000000000E+00  0.00000000000E+00  0.19552613495E+03  0.19552613495E+03  0.00000000000E+00 0.  1.
         21   -1    0    0  503  502 -0.00000000000E+00 -0.00000000000E+00 -0.13406097868E+02  0.13406097868E+02  0.00000000000E+00 0.  1.
         21    1    1    2  503  501  0.57152495982E+01  0.20602117360E+02  0.18598131052E+03  0.18720619429E+03  0.00000000000E+00 0.  1.
         21    1    1    2  504  502 -0.57152495982E+01 -0.20602117360E+02 -0.38612734367E+01  0.21726038531E+02  0.00000000000E+00 0.  1.
</event>
<event>
 4    1  0.2967296E+006  0.2265632E+02  0.7546771E-02  0.1496859E+00
         21   -1    0    0  504  501  0.00000000000E+00  0.00000000000E+00  0.49636549335E+02  0.49636549335E+02  0.00000000000E+00 0. -1.
         21   -1    0    0  501  502 -0.00000000000E+00 -0.00000000000E+00 -0.43099192331E+02  0.43099192331E+02  0.00000000000E+00 0. -1.
         21    1    1    2  503  502 -0.22046578243E+02 -0.52208296622E+01 -0.37155412817E+02  0.43518195921E+02  0.00000000000E+00 0. -1.
         21    1    1    2  504  503  0.22046578243E+02  0.52208296622E+01  0.43692769821E+02  0.49217545745E+02  0.00000000000E+00 0. -1.
</event>
<event>
 4    1  0.2967296E+006  0.2812742E+02  0.7546771E-02  0.1436600E+00
         21   -1    0    0  504  501  0.00000000000E+00  0.00000000000E+00  0.11263195876E+04  0.11263195876E+04  0.00000000000E+00 0. -1.
         21   -1    0    0  503  502 -0.00000000000E+00 -0.00000000000E+00 -0.82911307251E+00  0.82911307251E+00  0.00000000000E+00 0. -1.
         21    1    1    2  503  501 -0.18499406692E+02 -0.21187814602E+02  0.78304677541E+03  0.78355178771E+03  0.00000000000E+00 0. -1.
         21    1    1    2  504  502  0.18499406692E+02  0.21187814602E+02  0.34244369910E+03  0.34359691295E+03  0.00000000000E+00 0. -1.
</event>
<event>
 4    1  0.2967296E+006  0.3439028E+02  0.7546771E-02  0.1384901E+00
         21   -1    0    0  503  501  0.00000000000E+00  0.00000000000E+00  0.60811234838E+03  0.60811234838E+03  0.00000000000E+00 0.  1.
         21   -1    0    0  501  502 -0.00000000000E+00 -0.00000000000E+00 -0.61469182147E+02  0.61469182147E+02  0.00000000000E+00 0. -1.
         21    1    1    2  503  504  0.34115261612E+02 -0.43405014871E+01  0.60277346753E+03  0.60375371153E+03  0.00000000000E+00 0.  1.
         21    1    1    2  504  502 -0.34115261612E+02  0.43405014871E+01 -0.56130301305E+02  0.65827818988E+02  0.00000000000E+00 0. -1.
</event>
<event>
 4    1  0.2967296E+006  0.2177897E+02  0.7546771E-02  0.1508427E+00
         21   -1    0    0  502  501  0.00000000000E+00  0.00000000000E+00  0.21818408932E+01  0.21818408932E+01  0.00000000000E+00 0.  1.
         21   -1    0    0  503  502 -0.00000000000E+00 -0.00000000000E+00 -0.11135862591E+04  0.11135862591E+04  0.00000000000E+00 0. -1.
         21    1    1    2  503  504 -0.19141327029E+02  0.10389097213E+02 -0.10561768703E+04  0.10564013939E+04  0.00000000000E+00 0. -1.
         21    1    1    2  504  501  0.19141327029E+02 -0.10389097213E+02 -0.55227547955E+02  0.59366706111E+02  0.00000000000E+00 0.  1.
</event>
<event>
 4    1  0.2967296E+006  0.3984077E+02  0.7546771E-02  0.1349421E+00
         21   -1    0    0  504  501  0.00000000000E+00  0.00000000000E+00  0.10686077676E+03  0.10686077676E+03  0.00000000000E+00 0.  1.
         21   -1    0    0  501  502 -0.00000000000E+00 -0.00000000000E+00 -0.56534741736E+02  0.56534741736E+02  0.00000000000E+00 0.  1.
         21    1    1    2  503  502 -0.17375591160E+02  0.35852136919E+02 -0.44985950114E+02  0.60091784775E+02  0.00000000000E+00 0.  1.
         21    1    1    2  504  503  0.17375591160E+02 -0.35852136919E+02  0.95311985139E+02  0.10330373372E+03  0.00000000000E+00 0.  1.
</event>
<event>
 4    1  0.2967296E+006  0.2786783E+02  0.7546771E-02  0.1439080E+00
         21   -1    0    0  503  501  0.00000000000E+00  0.00000000000E+00  0.80465396973E+02  0.80465396973E+02  0.00000000000E+00 0.  1.
         21   -1    0    0  501  502 -0.00000000000E+00 -0.00000000000E+00 -0.37078812902E+02  0.37078812902E+02  0.00000000000E+00 0. -1.
         21    1    1    2  503  504 -0.27821131112E+02 -0.16126386664E+01  0.72240777468E+02  0.77429618809E+02  0.00000000000E+00 0.  1.
         21    1    1    2  504  502  0.27821131112E+02  0.16126386664E+01 -0.28854193396E+02  0.40114591066E+02  0.00000000000E+00 0. -1.
</event>
<event>
 4    1  0.2967296E+006  0.6534008E+02  0.7546771E-02  0.1242694E+00
         21   -1    0    0  503  501  0.00000000000E+00  0.00000000000E+00  0.81693333371E+03  0.81693333371E+03  0.00000000000E+00 0. -1.
         21   -1    0    0  504  502 -0.00000000000E+00 -0.00000000000E+00 -0.27222660317E+02  0.27222660317E+02  0.00000000000E+00 0. -1.
         21    1    1    2  503  502 -0.65279543303E+02 -0.28120868083E+01  0.15448278259E+02  0.67141461909E+02  0.00000000000E+00 0. -1.
         21    1    1    2  504  501  0.65279543303E+02  0.28120868083E+01  0.77426239514E+03  0.77701453212E+03  0.00000000000E+00 0. -1.
</event>
<event>
 4    1  0.2967296E+006  0.2195811E+02  0.7546771E-02  0.1506013E+00
         21   -1    0    0  503  501  0.00000000000E+00  0.00000000000E+00  0.40849773229E+03  0.40849773229E+03  0.00000000000E+00 0.  1.
         21   -1    0    0  504  502 -0.00000000000E+00 -0.00000000000E+00 -0.15561720166E+01  0.15561720166E+01  0.00000000000E+00 0.  1.
         21    1    1    2  503  502 -0.21946143232E+02 -0.72489906640E+00  0.10271042374E+03  0.10503137544E+03  0.00000000000E+00 0.  1.
         21    1    1    2  504  501  0.21946143232E+02  0.72489906640E+00  0.30423113653E+03  0.30502252887E+03  0.00000000000E+00 0.  1.
</event>
<event>
 4    1  0.2967296E+006  0.2149568E+02  0.7546771E-02  0.1512304E+00
         21   -1    0    0  503  501  0.00000000000E+00  0.00000000000E+00  0.30115850473E+03  0.30115850473E+03  0.00000000000E+00 0. -1.
         21   -1    0    0  504  502 -0.00000000000E+00 -0.00000000000E+00 -0.59552479939E+01  0.59552479939E+01  0.00000000000E+00 0. -1.
         21    1    1    2  503  502  0.14113490032E+02  0.16213378597E+02  0.27990703018E+03  0.28073120559E+03  0.00000000000E+00 0. -1.
         21    1    1    2  504  501 -0.14113490032E+02 -0.16213378597E+02  0.15296226550E+02  0.26382547130E+02  0.00000000000E+00 0. -1.
</event>
<event>
 4    1  0.2967296E+006  0.2555038E+02  0.7546771E-02  0.1462740E+00
         21   -1    0    0  504  501  0.00000000000E+00  0.00000000000E+00  0.17536328636E+02  0.17536328636E+02  0.00000000000E+00 0. -1.
         21   -1    0    0  501  502 -0.00000000000E+00 -0.00000000000E+00 -0.63336243656E+02  0.63336243656E+02  0.00000000000E+00 0.  1.
         21    1    1    2  503  502 -0.13632954384E+01 -0.25513985338E+02 -0.48862284958E+02  0.55139322752E+02  0.00000000000E+00 0.  1.
         21    1    1    2  504  503  0.13632954384E+01  0.25513985338E+02  0.30623699372E+01  0.25733249540E+02  0.00000000000E+00 0. -1.
</event>
<event>
 4    1  0.2967296E+006  0.3235984E+02  0.7546771E-02  0.1400139E+00
         21   -1    0    0  504  501  0.00000000000E+00  0.00000000000E+00  0.91027521556E+02  0.91027521556E+02  0.00000000000E+00 0.  1.
         21   -1    0    0  503  502 -0.00000000000E+00 -0.00000000000E+00 -0.14282707220E+02  0.14282707220E+02  0.00000000000E+00 0.  1.
         21    1    1    2  503  501 -0.25567535508E+02 -0.19835836324E+02  0.61598438219E+02  0.69581081233E+02  0.00000000000E+00 0.  1.
         21    1    1    2  504  502  0.25567535508E+02  0.19835836324E+02  0.15146376118E+02  0.35729147543E+02  0.00000000000E+00 0.  1.
</event>
<event>
 4    1  0.2967296E+006  0.3691670E+02  0.7546771E-02  0.1367567E+00
         21   -1    0    0  502  501  0.00000000000E+00  0.00000000000E+00  0.76796982639E+02  0.76796982639E+02  0.00000000000E+00 0.  1.
         21   -1    0    0  503  502 -0.00000000000E+00 -0.00000000000E+00 -0.11353795180E+03  0.11353795180E+03  0.00000000000E+00 0. -1.
         21    1    1    2  503  504 -0.35768994638E+02  0.91335382742E+01 -0.10578476741E+03  0.11204132949E+03  0.00000000000E+00 0. -1.
         21    1    1    2  504  501  0.35768994638E+02 -0.91335382742E+01  0.69043798248E+02  0.78293604946E+02  0.00000000000E+00 0.  1.
</event>
<event>
 4    1  0.2967296E+006  0.3435874E+02  0.7546771E-02  0.1385128E+00
         21   -1    0    0  503  501  0.00000000000E+00  0.00000000000E+00  0.11302685705E+02  0.11302685705E+02  0.00000000000E+00 0.  1.
         21   -1    0    0  504  502 -0.00000000000E+00 -0.00000000000E+00 -0.49838445484E+03  0.49838445484E+03  0.00000000000E+00 0. -1.
         21    1    1    2  503  502 -0.20188306818E+02  0.27802073563E+02 -0.16969273364E+02  0.38320741969E+02  0.00000000000E+00 0.  1.
         21    1    1    2  504  501  0.20188306818E+02 -0.27802073563E+02 -0.47011249577E+03  0.47136639857E+03  0.00000000000E+00 0. -1.
</event>
<event>
 4    1  0.2967296E+006  0.2552660E+02  0.7546771E-02  0.1462998E+00
         21   -1    0    0  503  501  0.00000000000E+00  0.00000000000E+00  0.13595527053E+02  0.13595527053E+02  0.00000000000E+00 0.  1.
         21   -1    0    0  504  502 -0.00000000000E+00 -0.00000000000E+00 -0.76619519167E+02  0.76619519167E+02  0.00000000000E+00 0.  1.
         21    1    1    2  503  502 -0.15213603330E+02  0.20497654111E+02 -0.59114940562E+02  0.64390866961E+02  0.00000000000E+00 0.  1.
         21    1    1    2  504  501  0.15213603330E+02 -0.20497654111E+02 -0.39090515517E+01  0.25824179259E+02  0.00000000000E+00 0.  1.
</event>
<event>
 4    1  0.2967296E+006  0.2165097E+02  0.7546771E-02  0.1510170E+00
         21   -1    0    0  503  501  0.00000000000E+00  0.00000000000E+00  0.52287451013E+02  0.52287451013E+02  0.00000000000E+00 0.  1.
         21   -1    0    0  504  502 -0.00000000000E+00 -0.00000000000E+00 -0.10786251947E+02  0.10786251947E+02  0.00000000000E+00 0.  1.
         21    1    1    2  503  502  0.90239218469E+01  0.19680790220E+02  0.77922236046E+01  0.23010506684E+02  0.00000000000E+00 0.  1.
         21    1    1    2  504  501 -0.90239218469E+01 -0.19680790220E+02  0.33708975461E+02  0.40063196276E+02  0.00000000000E+00 0.  1.
</event>
<event>
 4    1  0.2967296E+006  0.3479775E+02  0.7546771E-02  0.1381991E+00
         21   -1    0    0  503  501  0.00000000000E+00  0.00000000000E+00  0.64525070865E+01  0.64525070865E+01  0.00000000000E+00 0. -1.
         21   -1    0    0  504  502 -0.00000000000E+00 -0.00000000000E+00 -0.69910620656E+03  0.69910620656E+03  0.00000000000E+00 0. -1.
         21    1    1    2  503  502 -0.34253734201E+02  0.61290286522E+01 -0.44588032806E+02  0.56559490525E+02  0.00000000000E+00 0. -1.
         21    1    1    2  504  501  0.34253734201E+02 -0.61290286522E+01 -0.64806566667E+03  0.64899922312E+03  0.00000000000E+00 0. -1.
</event>
<event>
 4    1  0.2967296E+006  0.2883066E+02  0.7546771E-02  0.1430038E+00
         21   -1    0    0  504  501  0.00000000000E+00  0.00000000000E+00  0.63565911181E+03  0.63565911181E+03  0.00000000000E+00 0. -1.
         21   -1    0    0  501  502 -0.00000000000E+00 -0.00000000000E+00 -0.95928341508E+02  0.95928341508E+02  0.00000000000E+00 0.  1.
         21    1    1    2  503  502  0.18150391209E+02  0.22400223897E+02 -0.93426661712E+02  0.97773963049E+02  0.00000000000E+00 0.  1.
         21    1    1    2  504  503 -0.18150391209E+02 -0.22400223897E+02  0.63315743201E+03  0.63381349027E+03  0.00000000000E+00 0. -1.
</event>
<event>
 4    1  0.2967296E+006  0.2760160E+02  0.7546771E-02  0.1441657E+00
         21   -1    0    0  503  501  0.00000000000E+00  0.00000000000E+00  0.94800063070E+02  0.94800063070E+02  0.00000000000E+00 0. -1.
         21   -1    0    0  504  502 -0.00000000000E+00 -0.00000000000E+00 -0.10239433959E+02  0.10239433959E+02  0.00000000000E+00 0. -1.
         21    1    1    2  503  502  0.78867232508E+01 -0.26450863095E+02  0.66641478229E+02  0.72131374468E+02  0.00000000000E+00 0. -1.
         21    1    1    2  504  501 -0.78867232508E+01  0.26450863095E+02  0.17919150882E+02  0.32908122561E+02  0.00000000000E+00 0. -1.
</event>
<event>
 4    1  0.2967296E+006  0.2157611E+02  0.7546771E-02  0.1511196E+00
         21   -1    0    0  503  501  0.00000000000E+00  0.00000000000E+00  0.24123629501E+03  0.24123629501E+03  0.00000000000E+00 0.  1.
         21   -1    0    0  504  502 -0.00000000000E+00 -0.00000000000E+00 -0.59938602497E+01  0.59938602497E+01  0.00000000000E+00 0.  1.
         21    1    1    2  503  502  0.21303703130E+02 -0.34177372690E+01  0.21941007152E+03  0.22046838363E+03  0.00000000000E+00 0.  1.
         21    1    1    2  504  501 -0.21303703130E+02  0.34177372690E+01  0.15832363240E+02  0.26761771631E+02  0.00000000000E+00 0.  1.
</event>
<event>
 4    1  0.2967296E+006  0.2962576E+02  0.7546771E-02  0.1422877E+00
         21   -1    0    0  503  501  0.00000000000E+00  0.00000000000E+00  0.33866658654E+02  0.33866658654E+02  0.00000000000E+00 0.  1.
         21   -1    0    0  504  502 -0.00000000000E+00 -0.00000000000E+00 -0.36178658934E+02  0.36178658934E+02  0.00000000000E+00 0.  1.
         21    1    1    2  503  502  0.24305974913E+02  0.16938279490E+02 -0.19809247584E+02  0.35638350389E+02  0.00000000000E+00 0.  1.
         21    1    1    2  504  501 -0.24305974913E+02 -0.16938279490E+02  0.17497247304E+02  0.34406967199E+02  0.00000000000E+00 0.  1.
</event>
<event>
 4    1  0.2967296E+006  0.2484709E+02  0.7546771E-02  0.1470521E+00
         21   -1    0    0  504  501  0.00000000000E+00  0.00000000000E+00  0.18216988638E+02  0.18216988638E+02  0.00000000000E+00 0.  1.
         21   -1    0    0  503  502 -0.00000000000E+00 -0.00000000000E+00 -0.34841484029E+02  0.34841484029E+02  0.00000000000E+00 0. -1.
         21    1    1    2  503  501 -0.97575540376E+01 -0.22850995683E+02 -0.39287017522E+01  0.25155765978E+02  0.00000000000E+00 0. -1.
         21    1    1    2  504  502  0.97575540376E+01  0.22850995683E+02 -0.12695793639E+02  0.27902706690E+02  0.00000000000E+00 0.  1.
</event>
<event>
 4    1  0.2967296E+006  0.2309133E+02  0.7546771E-02  0.1491355E+00
         21   -1    0    0  502  501  0.00000000000E+00  0.00000000000E+00  0.48680178518E+00  0.48680178518E+00  0.00000000000E+00 0.  1.
         21   -1    0    0  504  502 -0.00000000000E+00 -0.00000000000E+00 -0.14297710723E+04  0.14297710723E+04  0.00000000000E+00 0. -1.
         21    1    1    2  503  501 -0.22947748086E+02  0.25710477510E+01 -0.36877460231E+03  0.36949684267E+03  0.00000000000E+00 0.  1.
         21    1    1    2  504  503  0.22947748086E+02 -0.25710477510E+01 -0.10605096682E+04  0.10607610314E+04  0.00000000000E+00 0. -1.
</event>
<event>
 4    1  0.2967296E+006  0.2195208E+02  0.7546771E-02  0.1506093E+00
         21   -1    0    0  503  501  0.00000000000E+00  0.00000000000E+00  0.12614240730E+02  0.12614240730E+02  0.00000000000E+00 0.  1.
         21   -1    0    0  504  502 -0.00000000000E+00 -0.00000000000E+00 -0.70449279305E+02  0.70449279305E+02  0.00000000000E+00 0. -1.
         21    1    1    2  503  502 -0.13921530793E+02  0.16973061198E+02 -0.81882484608E+00  0.21967346226E+02  0.00000000000E+00 0.  1.
         21    1    1    2  504  501  0.13921530793E+02 -0.16973061198E+02 -0.57016213729E+02  0.61096173809E+02  0.00000000000E+00 0. -1.
</event>
<event>
 4    1  0.2967296E+006  0.4430817E+02  0.7546771E-02  0.1324935E+00
         21   -1    0    0  502  501  0.00000000000E+00  0.00000000000E+00  0.36340704287E+01  0.36340704287E+01  0.00000000000E+00 0.  1.
         21   -1    0    0  504  502 -0.00000000000E+00 -0.00000000000E+00 -0.67313346797E+03  0.67313346797E+03  0.00000000000E+00 0.  1.
         21    1    1    2  503  501 -0.30498666406E+02  0.32141018422E+02 -0.18438837257E+03  0.18963724754E+03  0.00000000000E+00 0.  1.
         21    1    1    2  504  503  0.30498666406E+02 -0.32141018422E+02 -0.48511102498E+03  0.48713029086E+03  0.00000000000E+00 0.  1.
</event>
<event>
 4    1  0.2967296E+006  0.7610055E+02  0.7546771E-02  0.1213202E+00
         21   -1    0    0  503  501  0.00000000000E+00  0.00000000000E+00  0.10085961686E+03  0.10085961686E+03  0.00000000000E+00 0.  1.
         21   -1    0    0  504  502 -0.00000000000E+00 -0.00000000000E+00 -0.83847382059E+02  0.83847382059E+02  0.00000000000E+00 0.  1.
         21    1    1    2  503  502  0.58117594478E+02 -0.49128797335E+02 -0.43342959102E+02  0.87577997346E+02  0.00000000000E+00 0.  1.
         21    1    1    2  504  501 -0.58117594478E+02  0.49128797335E+02  0.60355193904E+02  0.97129001574E+02  0.00000000000E+00 0.  1.
</event>
<event>
 4    1  0.2967296E+006  0.2538463E+02  0.7546771E-02  0.1464546E+00
         21   -1    0    0  504  501  0.00000000000E+00  0.00000000000E+00  0.27538723732E+03  0.27538723732E+03  0.00000000000E+00 0. -1.
         21   -1    0    0  503  502 -0.00000000000E+00 -0.00000000000E+00 -0.14151140961E+02  0.14151140961E+02  0.00000000000E+00 0. -1.
         21    1    1    2  503  501  0.12246061901E+02 -0.22235405527E+02 -0.16418341068E+01  0.25437667155E+02  0.00000000000E+00 0. -1.
         21    1    1    2  504  502 -0.12246061901E+02  0.22235405527E+02  0.26287793047E+03  0.26410071113E+03  0.00000000000E+00 0. -1.
</event>
<event>
 4    1  0.2967296E+006  0.2317064E+02  0.7546771E-02  0.1490366E+00
         21   -1    0    0  503  501  0.00000000000E+00  0.00000000000E+00  0.14805824756E+02  0.14805824756E+02  0.00000000000E+00 0. -1.
         21   -1    0    0  504  502 -0.00000000000E+00 -0.00000000000E+00 -0.79819246278E+02  0.79819246278E+02  0.00000000000E+00 0. -1.
         21    1    1    2  503  502  0.21329302499E+02 -0.90520320333E+01 -0.67457429989E+02  0.71325894946E+02  0.00000000000E+00 0. -1.
         21    1    1    2  504  501 -0.21329302499E+02  0.90520320333E+01  0.24440084667E+01  0.23299176088E+02  0.00000000000E+00 0. -1.
</event>
<event>
 4    1  0.2967296E+006  0.2115054E+02  0.7546771E-02  0.1517126E+00
         21   -1    0    0  503  501  0.00000000000E+00  0.00000000000E+00  0.21734282569E+03  0.21734282569E+03  0.00000000000E+00 0.  1.
         21   -1    0    0  504  502 -0.00000000000E+00 -0.00000000000E+00 -0.16013989605E+02  0.16013989605E+02  0.00000000000E+00 0. -1.
         21    1    1    2  503  502  0.20869815623E+02  0.34345663586E+01  0.20958681283E+03  0.21065131750E+03  0.00000000000E+00 0.  1.
         21    1    1    2  504  501 -0.20869815623E+02 -0.34345663586E+01 -0.82579767492E+01  0.22705497797E+02  0.00000000000E+00 0. -1.
</event>
<event>
 4    1  0.2967296E+006  0.2179539E+02  0.7546771E-02  0.1508205E+00
         21   -1    0    0  503  501  0.00000000000E+00  0.00000000000E+00  0.34927649465E+03  0.34927649465E+03  0.00000000000E+00 0.  1.
         21   -1    0    0  504  502 -0.00000000000E+00 -0.00000000000E+00 -0.28119427271E+01  0.28119427271E+01  0.00000000000E+00 0. -1.
         21    1    1    2  503  502  0.19122567961E+02 -0.10457846186E+02  0.29973019320E+03  0.30052159302E+03  0.00000000000E+00 0.  1.
         21    1    1    2  504  501 -0.19122567961E+02  0.10457846186E+02  0.46734358724E+02  0.51566844364E+02  0.00000000000E+00 0. -1.
</event>
<event>
 4    1  0.2967296E+006  0.4894118E+02  0.7546771E-02  0.1302830E+00
         21   -1    0    0  503  501  0.00000000000E+00  0.00000000000E+00  0.81379079691E+03  0.81379079691E+03  0.00000000000E+00 0. -1.
         21   -1    0    0  504  502 -0.00000000000E+00 -0.00000000000E+00 -0.18182195913E+03  0.18182195913E+03  0.00000000000E+00 0. -1.
         21    1    1    2  503  502  0.37731796941E+02 -0.31169708955E+02 -0.17777630644E+03  0.18438995197E+03  0.00000000000E+00 0. -1.
         21    1    1    2  504  501 -0.37731796941E+02  0.31169708955E+02  0.80974514422E+03  0.81122280407E+03  0.00000000000E+00 0. -1.
</event>
<event>
 4    1  0.2967296E+006  0.2156843E+02  0.7546771E-02  0.1511302E+00
         21   -1    0    0  503  501  0.00000000000E+00  0.00000000000E+00  0.65949330929E+03  0.65949330929E+03  0.00000000000E+00 0.  1.
         21   -1    0    0  501  502 -0.00000000000E+00 -0.00000000000E+00 -0.28764939812E+01  0.28764939812E+01  0.00000000000E+00 0.  1.
         21    1    1    2  503  504 -0.20749232127E+02 -0.58878218328E+01  0.61603469856E+03  0.61641215669E+03  0.00000000000E+00 0.  1.
         21    1    1    2  504  502  0.20749232127E+02  0.58878218328E+01  0.40582116742E+02  0.45957646579E+02  0.00000000000E+00 0.  1.
</event>
<event>
 4    1  0.2967296E+006  0.2154743E+02  0.7546771E-02  0.1511591E+00
         21   -1    0    0  503  501  0.00000000000E+00  0.00000000000E+00  0.31787729700E+03  0.31787729700E+03  0.00000000000E+00 0. -1.
         21   -1    0    0  504  502 -0.00000000000E+00 -0.00000000000E+00 -0.15780692332E+01  0.15780692332E+01  0.00000000000E+00 0. -1.
         21    1    1    2  503  502 -0.19062879232E+02 -0.10044807609E+02  0.20172884418E+03  0.20287636161E+03  0.00000000000E+00 0. -1.
         21    1    1    2  504  501  0.19062879232E+02  0.10044807609E+02  0.11457038358E+03  0.11657900462E+03  0.00000000000E+00 0. -1.
</event>
<event>
 4    1  0.2967296E+006  0.2144460E+02  0.7546771E-02  0.1513011E+00
         21   -1    0    0  503  501  0.00000000000E+00  0.00000000000E+00  0.10213114910E+02  0.10213114910E+02  0.00000000000E+00 0.  1.
         21   -1    0    0  504  502 -0.00000000000E+00 -0.00000000000E+00 -0.85932783559E+02  0.85932783559E+02  0.00000000000E+00 0.  1.
         21    1    1    2  503  502  0.21408189161E+02  0.12491321986E+01 -0.71027209377E+02  0.74193903835E+02  0.00000000000E+00 0.  1.
         21    1    1    2  504  501 -0.21408189161E+02 -0.12491321986E+01 -0.46924592722E+01  0.21951994635E+02  0.00000000000E+00 0.  1.
</event>
<event>
 4    1  0.2967296E+006  0.2048142E+02  0.7546771E-02  0.1526799E+00
         21   -1    0    0  503  501  0.00000000000E+00  0.00000000000E+00  0.28260593252E+02  0.28260593252E+02  0.00000000000E+00 0.  1.
         21   -1    0    0  504  502 -0.00000000000E+00 -0.00000000000E+00 -0.51985031692E+02  0.51985031692E+02  0.00000000000E+00 0.  1.
         21    1    1    2  503  502  0.19582928294E+02  0.59997925494E+01 -0.45776421350E+02  0.50149470016E+02  0.00000000000E+00 0.  1.
         21    1    1    2  504  501 -0.19582928294E+02 -0.59997925494E+01  0.22051982911E+02  0.30096154929E+02  0.00000000000E+00 0.  1.
</event>
<event>
 4    1  0.2967296E+006  0.3128264E+02  0.7546771E-02  0.1408768E+00
         21   -1    0    0  504  501  0.00000000000E+00  0.00000000000E+00  0.18813587387E+03  0.18813587387E+03  0.00000000000E+00 0.  1.
         21   -1    0    0  503  502 -0.00000000000E+00 -0.00000000000E+00 -0.93644921807E+01  0.93644921807E+01  0.00000000000E+00 0. -1.
         21    1    1    2  503  501 -0.22933345168E+02  0.21275929315E+02  0.15522640064E+03  0.15834721009E+03  0.00000000000E+00 0.  1.
         21    1    1    2  504  502  0.22933345168E+02 -0.21275929315E+02  0.23544981050E+02  0.39153155958E+02  0.00000000000E+00 0. -1.
</event>
<event>
 4    1  0.2967296E+006  0.2195116E+02  0.7546771E-02  0.1506106E+00
         21   -1    0    0  503  501  0.00000000000E+00  0.00000000000E+00  0.12164812674E+03  0.12164812674E+03  0.00000000000E+00 0. -1.
         21   -1    0    0  504  502 -0.00000000000E+00 -0.00000000000E+00 -0.67091957298E+01  0.67091957298E+01  0.00000000000E+00 0.  1.
         21    1    1    2  503  502 -0.19208734464E+02  0.10624402421E+02  0.98544306453E+02  0.10095956488E+03  0.00000000000E+00 0. -1.
         21    1    1    2  504  501  0.19208734464E+02 -0.10624402421E+02  0.16394624555E+02  0.27397757587E+02  0.00000000000E+00 0.  1.
</event>
<event>
 4    1  0.2967296E+006  0.3376786E+02  0.7546771E-02  0.1389439E+00
         21   -1    0    0  504  501  0.00000000000E+00  0.00000000000E+00  0.35775999919E+03  0.35775999919E+03  0.00000000000E+00 0.  1.
         21   -1    0    0  503  502 -0.00000000000E+00 -0.00000000000E+00 -0.36016069041E+01  0.36016069041E+01  0.00000000000E+00 0.  1.
         21    1    1    2  503  501  0.96659941555E+01  0.32354864552E+02  0.11579424236E+03  0.12061747496E+03  0.00000000000E+00 0.  1.
         21    1    1    2  504  502 -0.96659941555E+01 -0.32354864552E+02  0.23836414993E+03  0.24074413113E+03  0.00000000000E+00 0.  1.
</event>
<event>
 4    1  0.2967296E+006  0.2469344E+02  0.7546771E-02  0.1472262E+00
         21   -1    0    0  504  501  0.00000000000E+00  0.00000000000E+00  0.84203331270E+02  0.84203331270E+02  0.00000000000E+00 0.  1.
         21   -1    0    0  503  502 -0.00000000000E+00 -0.00000000000E+00 -0.54355129646E+02  0.54355129646E+02  0.00000000000E+00 0. -1.
         21    1    1    2  503  501  0.77064850455E+01  0.23460097503E+02 -0.49575295432E+02  0.55384799392E+02  0.00000000000E+00 0. -1.
         21    1    1    2  504  502 -0.77064850455E+01 -0.23460097503E+02  0.79423497056E+02  0.83173661523E+02  0.00000000000E+00 0.  1.
</event>
<event>
 4    1  0.2967296E+006  0.2816687E+02  0.7546771E-02  0.1436226E+00
         21   -1    0    0  503  501  0.00000000000E+00  0.00000000000E+00  0.54566049748E+03  0.54566049748E+03  0.00000000000E+00 0. -1.
         21   -1    0    0  501  502 -0.00000000000E+00 -0.00000000000E+00 -0.50882138550E+01  0.50882138550E+01  0.00000000000E+00 0.  1.
         21    1    1    2  503  504  0.19921270773E+02  0.19912694419E+02  0.50301381083E+03  0.50380181254E+03  0.00000000000E+00 0. -1.
         21    1    1    2  504  502 -0.19921270773E+02 -0.19912694419E+02  0.37558472796E+02  0.46946898801E+02  0.00000000000E+00 0.  1.
</event>
<event>
 4    1  0.2967296E+006  0.2007464E+02  0.7546771E-02  0.1532898E+00
         21   -1    0    0  504  501  0.00000000000E+00  0.00000000000E+00  0.29191437751E+01  0.29191437751E+01  0.00000000000E+00 0.  1.
         21   -1    0    0  503  502 -0.00000000000E+00 -0.00000000000E+00 -0.36245433631E+03  0.36245433631E+03  0.00000000000E+00 0. -1.
         21    1    1    2  503  501 -0.18768859733E+02  0.71218776875E+01 -0.32351329506E+03  0.32413553233E+03  0.00000000000E+00 0. -1.
         21    1    1    2  504  502  0.18768859733E+02 -0.71218776875E+01 -0.36021897473E+02  0.41237947755E+02  0.00000000000E+00 0.  1.
</event>
<event>
 4    1  0.2967296E+006  0.2016033E+02  0.7546771E-02  0.1531599E+00
         21   -1    0    0  503  501  0.00000000000E+00  0.00000000000E+00  0.52248952141E+02  0.52248952141E+02  0.00000000000E+00 0.  1.
         21   -1    0    0  504  502 -0.00000000000E+00 -0.00000000000E+00 -0.20701730413E+02  0.20701730413E+02  0.00000000000E+00 0.  1.
         21    1    1    2  503  502  0.18309076092E+02  0.84389840645E+01  0.44592356425E+02  0.48937888909E+02  0.00000000000E+00 0.  1.
         21    1    1    2  504  501 -0.18309076092E+02 -0.84389840645E+01 -0.13045134696E+02  0.24012793645E+02  0.00000000000E+00 0.  1.
</event>
<event>
 4    1  0.2967296E+006  0.2361731E+02  0.7546771E-02  0.1484889E+00
         21   -1    0    0  504  501  0.00000000000E+00  0.00000000000E+00  0.83495985823E+02  0.83495985823E+02  0.00000000000E+00 0. -1.
         21   -1    0    0  501  502 -0.00000000000E+00 -0.00000000000E+00 -0.20185542230E+02  0.20185542230E+02  0.00000000000E+00 0.  1.
         21    1    1    2  503  502  0.10490584294E+02  0.21159511589E+02 -0.10748361152E+02  0.25948112782E+02  0.00000000000E+00 0.  1.
         21    1    1    2  504  503 -0.10490584294E+02 -0.21159511589E+02  0.74058804744E+02  0.77733415271E+02  0.00000000000E+00 0. -1.
</event>
<event>
 4    1  0.2967296E+006  0.2800288E+02  0.7546771E-02  0.1437786E+00
         21   -1    0    0  502  501  0.00000000000E+00  0.00000000000E+00  0.71085933063E+01  0.71085933063E+01  0.00000000000E+00 0.  1.
         21   -1    0    0  504  502 -0.00000000000E+00 -0.00000000000E+00 -0.34254823325E+03  0.34254823325E+03  0.00000000000E+00 0.  1.
         21    1    1    2  503  501  0.23767772159E+02  0.14807235127E+02 -0.23768253722E+02  0.36729975367E+02  0.00000000000E+00 0.  1.
         21    1    1    2  504  503 -0.23767772159E+02 -0.14807235127E+02 -0.31167138622E+03  0.31292685119E+03  0.00000000000E+00 0.  1.
</event>
<event>
 4    1  0.2967296E+006  0.2533706E+02  0.7546771E-02  0.1465068E+00
         21   -1    0    0  504  501  0.00000000000E+00  0.00000000000E+00  0.65677821519E+02  0.65677821519E+02  0.00000000000E+00 0.  1.
         21   -1    0    0  503  502 -0.00000000000E+00 -0.00000000000E+00 -0.11093883452E+03  0.11093883452E+03  0.00000000000E+00 0. -1.
         21    1    1    2  503  501  0.15612647291E+02 -0.19955240087E+02  0.61697848052E+02  0.66697757208E+02  0.00000000000E+00 0.  1.
         21    1    1    2  504  502 -0.15612647291E+02  0.19955240087E+02 -0.10695886105E+03  0.10991889883E+03  0.00000000000E+00 0. -1.
</event>
<event>
 4    1  0.2967296E+006  0.3016899E+02  0.7546771E-02  0.1418133E+00
         21   -1    0    0  503  501  0.00000000000E+00  0.00000000000E+00  0.23395667862E+02  0.23395667862E+02  0.00000000000E+00 0.  1.
         21   -1    0    0  504  502 -0.00000000000E+00 -0.00000000000E+00 -0.12661343098E+03  0.12661343098E+03  0.00000000000E+00 0. -1.
         21    1    1    2  503  502  0.11900203654E+02 -0.27722792723E+02 -0.11403590977E+03  0.11795913191E+03  0.00000000000E+00 0. -1.
         21    1    1    2  504  501 -0.11900203654E+02  0.27722792723E+02  0.10818146654E+02  0.32049966932E+02  0.00000000000E+00 0.  1.
</event>
<event>
 4    1  0.2967296E+006  0.2141342E+02  0.7546771E-02  0.1513443E+00
         21   -1    0    0  504  501  0.00000000000E+00  0.00000000000E+00  0.80383233936E+01  0.80383233936E+01  0.00000000000E+00 0.  1.
         21   -1    0    0  503  502 -0.00000000000E+00 -0.00000000000E+00 -0.57305315350E+02  0.57305315350E+02  0.00000000000E+00 0. -1.
         21    1    1    2  503  501 -0.12458528158E+02 -0.17416072549E+02 -0.26841660781E+02  0.34336704274E+02  0.00000000000E+00 0.  1.
         21    1    1    2  504  502  0.12458528158E+02  0.17416072549E+02 -0.22425331175E+02  0.31006934469E+02  0.00000000000E+00 0. -1.
</event>
<event>
 4    1  0.2967296E+006  0.2936070E+02  0.7546771E-02  0.1425234E+00
         21   -1    0    0  503  501  0.00000000000E+00  0.00000000000E+00  0.21694015490E+01  0.21694015490E+01  0.00000000000E+00 0. -1.
         21   -1    0    0  504  502 -0.00000000000E+00 -0.00000000000E+00 -0.42289995106E+03  0.42289995106E+03  0.00000000000E+00 0. -1.
         21    1    1    2  503  502  0.25523709416E+02 -0.14511751084E+02 -0.15814329333E+03  0.16084573941E+03  0.00000000000E+00 0. -1.
         21    1    1    2  504  501 -0.25523709416E+02  0.14511751084E+02 -0.26258725618E+03  0.26422361319E+03  0.00000000000E+00 0. -1.
</event>
<event>
 4    1  0.2967296E+006  0.2115695E+02  0.7546771E-02  0.1517036E+00
         21   -1    0    0  504  501  0.00000000000E+00  0.00000000000E+00  0.42969566155E+03  0.42969566155E+03  0.00000000000E+00 0.  1.
         21   -1    0    0  501  502 -0.00000000000E+00 -0.00000000000E+00 -0.26397265556E+02  0.26397265556E+02  0.00000000000E+00 0.  1.
         21    1    1    2  503  502  0.20711593460E+02 -0.43181376239E+01 -0.21852318006E+02  0.30416117741E+02  0.00000000000E+00 0.  1.
         21    1    1    2  504  503 -0.20711593460E+02  0.43181376239E+01  0.42515071400E+03  0.42567680936E+03  0.00000000000E+00 0.  1.
</event>
<event>
 4    1  0.2967296E+006  0.2086665E+02  0.7546771E-02  0.1521177E+00
         21   -1    0    0  504  501  0.00000000000E+00  0.00000000000E+00  0.85828307360E+01  0.85828307360E+01  0.00000000000E+00 0.  1.
         21   -1    0    0  503  502 -0.00000000000E+00 -0.00000000000E+00 -0.75860114292E+02  0.75860114292E+02  0.00000000000E+00 0. -1.
         21    1    1    2  503  501 -0.20487099837E+02 -0.39618060369E+01 -0.93382302395E+01  0.22860877297E+02  0.00000000000E+00 0.  1.
         21    1    1    2  504  502  0.20487099837E+02  0.39618060369E+01 -0.57939053316E+02  0.61582067730E+02  0.00000000000E+00 0. -1.
</event>
<event>
 4    1  0.2967296E+006  0.2360512E+02  0.7546771E-02  0.1485036E+00
         21   -1    0    0  503  501  0.00000000000E+00  0.00000000000E+00  0.52781592041E+03  0.52781592041E+03  0.00000000000E+00 0. -1.
         21   -1    0    0  501  502 -0.00000000000E+00 -0.00000000000E+00 -0.14958074770E+01  0.14958074770E+01  0.00000000000E+00 0. -1.
         21    1    1    2  503  504 -0.47986244327E+01 -0.23112225939E+02  0.40672078310E+03  0.40740520025E+03  0.00000000000E+00 0. -1.
         21    1    1    2  504  502  0.47986244327E+01  0.23112225939E+02  0.11959932983E+03  0.12190652764E+03  0.00000000000E+00 0. -1.
</event>
<event>
 4    1  0.2967296E+006  0.2373594E+02  0.7546771E-02  0.1483458E+00
         21   -1    0    0  504  501  0.00000000000E+00  0.00000000000E+00  0.11502460538E+03  0.11502460538E+03  0.00000000000E+00 0. -1.
         21   -1    0    0  501  502 -0.00000000000E+00 -0.00000000000E+00 -0.87628210255E+02  0.87628210255E+02  0.00000000000E+00 0. -1.
         21    1    1    2  503  502 -0.56931147495E+01  0.23043072241E+02 -0.84755638784E+02  0.88016549804E+02  0.00000000000E+00 0. -1.
         21    1    1    2  504  503  0.56931147495E+01 -0.23043072241E+02  0.11215203391E+03  0.11463626584E+03  0.00000000000E+00 0. -1.
</event>
<event>
 4    1  0.2967296E+006  0.2752673E+02  0.7546771E-02  0.1442388E+00
         21   -1    0    0  504  501  0.00000000000E+00  0.00000000000E+00  0.17162045108E+04  0.17162045108E+04  0.00000000000E+00 0.  1.
         21   -1    0    0  503  502 -0.00000000000E+00 -0.00000000000E+00 -0.32836511852E+01  0.32836511852E+01  0.00000000000E+00 0.  1.
         21    1    1    2  503  501  0.60254690161E+01  0.26859157265E+02  0.16563196361E+04  0.16565483566E+04  0.00000000000E+00 0.  1.
         21    1    1    2  504  502 -0.60254690161E+01 -0.26859157265E+02  0.56601223436E+02  0.62939805373E+02  0.00000000000E+00 0.  1.
</event>
<event>
 4    1  0.2967296E+006  0.3064210E+02  0.7546771E-02  0.1414097E+00
         21   -1    0    0  503  501  0.00000000000E+00  0.00000000000E+00  0.52427682696E+02  0.52427682696E+02  0.00000000000E+00 0. -1.
         21   -1    0    0  504  502 -0.00000000000E+00 -0.00000000000E+00 -0.23175092502E+03  0.23175092502E+03  0.00000000000E+00 0.  1.
         21    1    1    2  503  502 -0.58957202315E+01  0.30069564995E+02 -0.22615037391E+03  0.22821684836E+03  0.00000000000E+00 0.  1.
         21    1    1    2  504  501  0.58957202315E+01 -0.30069564995E+02  0.46827131594E+02  0.55961759348E+02  0.00000000000E+00 0. -1.
</event>
<event>
 4    1  0.2967296E+006  0.2054927E+02  0.7546771E-02  0.1525798E+00
         21   -1    0    0  504  501  0.00000000000E+00  0.00000000000E+00  0.10270017162E+04  0.10270017162E+04  0.00000000000E+00 0.  1.
         21   -1    0    0  503  502 -0.00000000000E+00 -0.00000000000E+00 -0.42546800531E+00  0.42546800531E+00  0.00000000000E+00 0.  1.
         21    1    1    2  503  501  0.10124483186E+02  0.17882039051E+02  0.41911594976E+03  0.41961941307E+03  0.00000000000E+00 0.  1.
         21    1    1    2  504  502 -0.10124483186E+02 -0.17882039051E+02  0.60746029843E+03  0.60780777113E+03  0.00000000000E+00 0.  1.
</event>
<event>
 4    1  0.2967296E+006  0.4811337E+02  0.7546771E-02  0.1306566E+00
         21   -1    0    0  503  501  0.00000000000E+00  0.00000000000E+00  0.23652515091E+03  0.23652515091E+03  0.00000000000E+00 0. -1.
         21   -1    0    0  504  502 -0.00000000000E+00 -0.00000000000E+00 -0.99356823706E+01  0.99356823706E+01  0.00000000000E+00 0. -1.
         21    1    1    2  503  502  0.30805740075E+02  0.36958118203E+02  0.98225275551E+02  0.10937596116E+03  0.00000000000E+00 0. -1.
         21    1    1    2  504  501 -0.30805740075E+02 -0.36958118203E+02  0.12836419299E+03  0.13708487212E+03  0.00000000000E+00 0. -1.
</event>
<event>
 4    1  0.2967296E+006  0.2596675E+02  0.7546771E-02  0.1458273E+00
         21   -1    0    0  503  501  0.00000000000E+00  0.00000000000E+00  0.21067741618E+03  0.21067741618E+03  0.00000000000E+00 0. -1.
         21   -1    0    0  504  502 -0.00000000000E+00 -0.00000000000E+00 -0.85346194765E+02  0.85346194765E+02  0.00000000000E+00 0. -1.
         21    1    1    2  503  502  0.13713866390E+02 -0.22049990460E+02  0.20787566552E+03  0.20949120393E+03  0.00000000000E+00 0. -1.
         21    1    1    2  504  501 -0.13713866390E+02  0.22049990460E+02 -0.82544444105E+02  0.86532407011E+02  0.00000000000E+00 0. -1.
</event>
<event>
 4    1  0.2967296E+006  0.2672340E+02  0.7546771E-02  0.1450407E+00
         21   -1    0    0  504  501  0.00000000000E+00  0.00000000000E+00  0.28521659711E+01  0.28521659711E+01  0.00000000000E+00 0.  1.
         21   -1    0    0  503  502 -0.00000000000E+00 -0.00000000000E+00 -0.33328741260E+03  0.33328741260E+03  0.00000000000E+00 0.  1.
         21    1    1    2  503  501 -0.10226844150E+01  0.26703822021E+02 -0.24904066214E+03  0.25047034035E+03  0.00000000000E+00 0.  1.
         21    1    1    2  504  502  0.10226844150E+01 -0.26703822021E+02 -0.81394584489E+02  0.85669238225E+02  0.00000000000E+00 0.  1.
</event>
<event>
 4    1  0.2967296E+006  0.2083519E+02  0.7546771E-02  0.1521631E+00
         21   -1    0    0  504  501  0.00000000000E+00  0.00000000000E+00  0.38777089650E+02  0.38777089650E+02  0.00000000000E+00 0. -1.
         21   -1    0    0  501  502 -0.00000000000E+00 -0.00000000000E+00 -0.39242760587E+02  0.39242760587E+02  0.00000000000E+00 0. -1.
         21    1    1    2  503  502 -0.20512206476E+02 -0.36544101493E+01 -0.33212427103E+02  0.39206767810E+02  0.00000000000E+00 0. -1.
         21    1    1    2  504  503  0.20512206476E+02  0.36544101493E+01  0.32746756167E+02  0.38813082427E+02  0.00000000000E+00 0. -1.
</event>
<event>
 4    1  0.2967296E+006  0.2830547E+02  0.7546771E-02  0.1434917E+00
         21   -1    0    0  503  501  0.00000000000E+00  0.00000000000E+00  0.35629890721E+02  0.35629890721E+02  0.00000000000E+00 0. -1.
         21   -1    0    0  504  502 -0.00000000000E+00 -0.00000000000E+00 -0.32278334887E+02  0.32278334887E+02  0.00000000000E+00 0. -1.
         21    1    1    2  503  502 -0.20373720267E+02  0.19649710984E+02  0.20376735121E+02  0.34877083500E+02  0.00000000000E+00 0. -1.
         21    1    1    2  504  501  0.20373720267E+02 -0.19649710984E+02 -0.17025179287E+02  0.33031142109E+02  0.00000000000E+00 0. -1.
</event>
<event>
 4    1  0.2967296E+006  0.2114873E+02  0.7546771E-02  0.1517152E+00
         21   -1    0    0  502  501  0.00000000000E+00  0.00000000000E+00  0.57679132568E+03  0.57679132568E+03  0.00000000000E+00 0.  1.
         21   -1    0    0  503  502 -0.00000000000E+00 -0.00000000000E+00 -0.64874372840E+02  0.64874372840E+02  0.00000000000E+00 0.  1.
         21    1    1    2  503  504 -0.12867698711E+02 -0.16783650288E+02 -0.62951152814E+02  0.66408705963E+02  0.00000000000E+00 0.  1.
         21    1    1    2  504  501  0.12867698711E+02  0.16783650288E+02  0.57486810565E+03  0.57525699256E+03  0.00000000000E+00 0.  1.
</event>
<event>
 4    1  0.2967296E+006  0.2611329E+02  0.7546771E-02  0.1456724E+00
         21   -1    0    0  503  501  0.00000000000E+00  0.00000000000E+00  0.25139626120E+01  0.25139626120E+01  0.00000000000E+00 0.  1.
         21   -1    0    0  504  502 -0.00000000000E+00 -0.00000000000E+00 -0.27541067207E+03  0.27541067207E+03  0.00000000000E+00 0.  1.
         21    1    1    2  503  502  0.21538551750E+02  0.14764648807E+02 -0.11936156409E+03  0.12218464326E+03  0.00000000000E+00 0.  1.
         21    1    1    2  504  501 -0.21538551750E+02 -0.14764648807E+02 -0.15353514537E+03  0.15573999143E+03  0.00000000000E+00 0.  1.
</event>
<event>
 4    1  0.2967296E+006  0.2364308E+02  0.7546771E-02  0.1484577E+00
         21   -1    0    0  503  501  0.00000000000E+00  0.00000000000E+00  0.24439614191E+03  0.24439614191E+03  0.00000000000E+00 0.  1.
         21   -1    0    0  504  502 -0.00000000000E+00 -0.00000000000E+00 -0.50251129291E+01  0.50251129291E+01  0.00000000000E+00 0.  1.
         21    1    1    2  503  502 -0.20726655760E+02  0.11375456224E+02  0.21173817413E+03  0.21305410028E+03  0.00000000000E+00 0.  1.
         21    1    1    2  504  501  0.20726655760E+02 -0.11375456224E+02  0.27632854849E+02  0.36367154555E+02  0.00000000000E+00 0.  1.
</event>
<event>
 4    1  0.2967296E+006  0.2507585E+02  0.7546771E-02  0.1467957E+00
         21   -1    0    0  503  501  0.00000000000E+00  0.00000000000E+00  0.27314380403E+03  0.27314380403E+03  0.00000000000E+00 0. -1.
         21   -1    0    0  504  502 -0.00000000000E+00 -0.00000000000E+00 -0.56300850139E+01  0.56300850139E+01  0.00000000000E+00 0. -1.
         21    1    1    2  503  502 -0.25062506835E+02 -0.81792891118E+00  0.26590924217E+02  0.36549630741E+02  0.00000000000E+00 0. -1.
         21    1    1    2  504  501  0.25062506835E+02  0.81792891118E+00  0.24092279479E+03  0.24222425830E+03  0.00000000000E+00 0. -1.
</event>
<event>
 4    1  0.2967296E+006  0.2527497E+02  0.7546771E-02  0.1465751E+00
         21   -1    0    0  503  501  0.00000000000E+00  0.00000000000E+00  0.32157575718E+01  0.32157575718E+01  0.00000000000E+00 0.  1.
         21   -1    0    0  504  502 -0.00000000000E+00 -0.00000000000E+00 -0.25488026136E+03  0.25488026136E+03  0.00000000000E+00 0.  1.
         21    1    1    2  503  502 -0.24458876130E+01 -0.25156346075E+02 -0.18644327283E+03  0.18814865957E+03  0.00000000000E+00 0.  1.
         21    1    1    2  504  501  0.24458876130E+01  0.25156346075E+02 -0.65221230951E+02  0.69947359355E+02  0.00000000000E+00 0.  1.
</event>
<event>
 4    1  0.2967296E+006  0.2245299E+02  0.7546771E-02  0.1499484E+00
         21   -1    0    0  503  501  0.00000000000E+00  0.00000000000E+00  0.14190098695E+02  0.14190098695E+02  0.00000000000E+00 0. -1.
         21   -1    0    0  504  502 -0.00000000000E+00 -0.00000000000E+00 -0.36566760534E+02  0.36566760534E+02  0.00000000000E+00 0. -1.
         21    1    1    2  503  502  0.17293490436E+02 -0.14320333429E+02 -0.69096221209E+01  0.23492118654E+02  0.00000000000E+00 0. -1.
         21    1    1    2  504  501 -0.17293490436E+02  0.14320333429E+02 -0.15467039717E+02  0.27264740575E+02  0.00000000000E+00 0. -1.
</event>
<event>
 4    1  0.2967296E+006  0.4286932E+02  0.7546771E-02  0.1332445E+00
         21   -1    0    0  502  501  0.00000000000E+00  0.00000000000E+00  0.62179122515E+03  0.62179122515E+03  0.00000000000E+00 0.  1.
         21   -1    0    0  504  502 -0.00000000000E+00 -0.00000000000E+00 -0.69583253630E+02  0.69583253630E+02  0.00000000000E+00 0.  1.
         21    1    1    2  503  501 -0.11877016107E+02 -0.41191199107E+02  0.61436985332E+03  0.61586369845E+03  0.00000000000E+00 0.  1.
         21    1    1    2  504  503  0.11877016107E+02  0.41191199107E+02 -0.62161881808E+02  0.75510780326E+02  0.00000000000E+00 0.  1.
</event>
<event>
 4    1  0.2967296E+006  0.2524586E+02  0.7546771E-02  0.1466072E+00
         21   -1    0    0  503  501  0.00000000000E+00  0.00000000000E+00  0.24434782973E+01  0.24434782973E+01  0.00000000000E+00 0. -1.
         21   -1    0    0  501  502 -0.00000000000E+00 -0.00000000000E+00 -0.81903559133E+03  0.81903559133E+03  0.00000000000E+00 0. -1.
         21    1    1    2  503  504  0.16604911243E+01 -0.25191191980E+02 -0.69210823338E+02  0.73671510445E+02  0.00000000000E+00 0. -1.
         21    1    1    2  504  502 -0.16604911243E+01  0.25191191980E+02 -0.74738128969E+03  0.74780755918E+03  0.00000000000E+00 0. -1.
</event>
<event>
 4    1  0.2967296E+006  0.2486152E+02  0.7546771E-02  0.1470359E+00
         21   -1    0    0  504  501  0.00000000000E+00  0.00000000000E+00  0.16543512308E+02  0.16543512308E+02  0.00000000000E+00 0.  1.
         21   -1    0    0  503  502 -0.00000000000E+00 -0.00000000000E+00 -0.42962223563E+02  0.42962223563E+02  0.00000000000E+00 0.  1.
         21    1    1    2  503  501 -0.52046229214E+00  0.24856075139E+02 -0.24670871161E+01  0.24983632064E+02  0.00000000000E+00 0.  1.
         21    1    1    2  504  502  0.52046229214E+00 -0.24856075139E+02 -0.23951624139E+02  0.34522103806E+02  0.00000000000E+00 0.  1.
</event>
<event>
 4    1  0.2967296E+006  0.2260535E+02  0.7546771E-02  0.1497514E+00
         21   -1    0    0  503  501  0.00000000000E+00  0.00000000000E+00  0.72430033056E+02  0.72430033056E+02  0.00000000000E+00 0. -1.
         21   -1    0    0  504  502 -0.00000000000E+00 -0.00000000000E+00 -0.60974084500E+02  0.60974084500E+02  0.00000000000E+00 0. -1.
         21    1    1    2  503  502  0.12311582751E+02 -0.18958559016E+02  0.68452501484E+02  0.72088466409E+02  0.00000000000E+00 0. -1.
         21    1    1    2  504  501 -0.12311582751E+02  0.18958559016E+02 -0.56996552928E+02  0.61315651146E+02  0.00000000000E+00 0. -1.
</event>
<event>
 4    1  0.2967296E+006  0.2769310E+02  0.7546771E-02  0.1440767E+00
         21   -1    0    0  504  501  0.00000000000E+00  0.00000000000E+00  0.57895827709E+01  0.57895827709E+01  0.00000000000E+00 0. -1.
         21   -1    0    0  503  502 -0.00000000000E+00 -0.00000000000E+00 -0.13569279436E+03  0.13569279436E+03  0.00000000000E+00 0. -1.
         21    1    1    2  503  501  0.27230867290E+02 -0.50386346190E+01 -0.54038390713E+02  0.60721130120E+02  0.00000000000E+00 0. -1.
         21    1    1    2  504  502 -0.27230867290E+02  0.50386346190E+01 -0.75864820873E+02  0.80761247008E+02  0.00000000000E+00 0. -1.
</event>
<event>
 4    1  0.2967296E+006  0.2937026E+02  0.7546771E-02  0.1425149E+00
         21   -1    0    0  503  501  0.00000000000E+00  0.00000000000E+00  0.47670050303E+01  0.47670050303E+01  0.00000000000E+00 0. -1.
         21   -1    0    0  504  502 -0.00000000000E+00 -0.00000000000E+00 -0.18351008320E+03  0.18351008320E+03  0.00000000000E+00 0.  1.
         21    1    1    2  503  502 -0.15392373769E+02  0.25013737980E+02 -0.78262914014E+02  0.83592439658E+02  0.00000000000E+00 0. -1.
         21    1    1    2  504  501  0.15392373769E+02 -0.25013737980E+02 -0.10048016416E+03  0.10468464858E+03  0.00000000000E+00 0.  1.
</event>
<event>
 4    1  0.2967296E+006  0.2236343E+02  0.7546771E-02  0.1500650E+00
         21   -1    0    0  503  501  0.00000000000E+00  0.00000000000E+00  0.43624818382E+03  0.43624818382E+03  0.00000000000E+00 0.  1.
         21   -1    0    0  504  502 -0.00000000000E+00 -0.00000000000E+00 -0.14969479188E+01  0.14969479188E+01  0.00000000000E+00 0.  1.
         21    1    1    2  503  502  0.86413025673E+01  0.20626463846E+02  0.11146243197E+03  0.11368375812E+03  0.00000000000E+00 0.  1.
         21    1    1    2  504  501 -0.86413025673E+01 -0.20626463846E+02  0.32328880393E+03  0.32406137361E+03  0.00000000000E+00 0.  1.
</event>
<event>
 4    1  0.2967296E+006  0.2423604E+02  0.7546771E-02  0.1477534E+00
         21   -1    0    0  503  501  0.00000000000E+00  0.00000000000E+00  0.42296242225E+02  0.42296242225E+02  0.00000000000E+00 0.  1.
         21   -1    0    0  501  502 -0.00000000000E+00 -0.00000000000E+00 -0.16860995743E+02  0.16860995743E+02  0.00000000000E+00 0. -1.
         21    1    1    2  503  504 -0.36797005793E+01  0.23955067382E+02  0.25139184471E+02  0.34919393544E+02  0.00000000000E+00 0.  1.
         21    1    1    2  504  502  0.36797005793E+01 -0.23955067382E+02  0.29606201048E+00  0.24237844424E+02  0.00000000000E+00 0. -1.
</event>
<event>
 4    1  0.2967296E+006  0.2184255E+02  0.7546771E-02  0.1507567E+00
         21   -1    0    0  503  501  0.00000000000E+00  0.00000000000E+00  0.54073858132E+01  0.54073858132E+01  0.00000000000E+00 0.  1.
         21   -1    0    0  501  502 -0.00000000000E+00 -0.00000000000E+00 -0.70689014681E+03  0.70689014681E+03  0.00000000000E+00 0. -1.
         21    1    1    2  503  504  0.20032692278E+02  0.87056354058E+01 -0.17559524723E+02  0.28025591095E+02  0.00000000000E+00 0.  1.
         21    1    1    2  504  502 -0.20032692278E+02 -0.87056354058E+01 -0.68392323627E+03  0.68427194153E+03  0.00000000000E+00 0. -1.
</event>
<event>
 4    1  0.2967296E+006  0.2184403E+02  0.7546771E-02  0.1507547E+00
         21   -1    0    0  502  501  0.00000000000E+00  0.00000000000E+00  0.38395161029E+02  0.38395161029E+02  0.00000000000E+00 0. -1.
         21   -1    0    0  504  502 -0.00000000000E+00 -0.00000000000E+00 -0.34117107354E+02  0.34117107354E+02  0.00000000000E+00 0. -1.
         21    1    1    2  503  501 -0.29412995198E+01  0.21645099453E+02  0.31047140315E+02  0.37961645050E+02  0.00000000000E+00 0. -1.
         21    1    1    2  504  503  0.29412995198E+01 -0.21645099453E+02 -0.26769086639E+02  0.34550623333E+02  0.00000000000E+00 0. -1.
</event>
<event>
 4    1  0.2967296E+006  0.2189504E+02  0.7546771E-02  0.1506860E+00
         21   -1    0    0  504  501  0.00000000000E+00  0.00000000000E+00  0.28364051050E+03  0.28364051050E+03  0.00000000000E+00 0. -1.
         21   -1    0    0  503  502 -0.00000000000E+00 -0.00000000000E+00 -0.19087341742E+02  0.19087341742E+02  0.00000000000E+00 0. -1.
         21    1    1    2  503  501  0.12425668398E+02  0.18027632571E+02 -0.12230564641E+02  0.25079463366E+02  0.00000000000E+00 0. -1.
         21    1    1    2  504  502 -0.12425668398E+02 -0.18027632571E+02  0.27678373340E+03  0.27764838887E+03  0.00000000000E+00 0. -1.
</event>
<event>
 4    1  0.2967296E+006  0.4265504E+02  0.7546771E-02  0.1333592E+00
         21   -1    0    0  504  501  0.00000000000E+00  0.00000000000E+00  0.59805100710E+02  0.59805100710E+02  0.00000000000E+00 0.  1.
         21   -1    0    0  503  502 -0.00000000000E+00 -0.00000000000E+00 -0.24593669656E+03  0.24593669656E+03  0.00000000000E+00 0.  1.
         21    1    1    2  503  501 -0.18083231790E+02  0.38632229303E+02  0.50037801680E+02  0.65751304244E+02  0.00000000000E+00 0.  1.
         21    1    1    2  504  502  0.18083231790E+02 -0.38632229303E+02 -0.23616939753E+03  0.23999049302E+03  0.00000000000E+00 0.  1.
</event>
<event>
 4    1  0.2967296E+006  0.2617407E+02  0.7546771E-02  0.1456086E+00
         21   -1    0    0  503  501  0.00000000000E+00  0.00000000000E+00  0.76656075515E+01  0.76656075515E+01  0.00000000000E+00 0.  1.
         21   -1    0    0  504  502 -0.00000000000E+00 -0.00000000000E+00 -0.13274571061E+03  0.13274571061E+03  0.00000000000E+00 0.  1.
         21    1    1    2  503  502 -0.21119099893E+02  0.15461741592E+02 -0.22408963202E+02  0.34456399480E+02  0.00000000000E+00 0.  1.
         21    1    1    2  504  501  0.21119099893E+02 -0.15461741592E+02 -0.10267113986E+03  0.10595491868E+03  0.00000000000E+00 0.  1.
</event>
<event>
 4    1  0.2967296E+006  0.2386452E+02  0.7546771E-02  0.1481919E+00
         21   -1    0    0  503  501  0.00000000000E+00  0.00000000000E+00  0.15667525844E+02  0.15667525844E+02  0.00000000000E+00 0. -1.
         21   -1    0    0  504  502 -0.00000000000E+00 -0.00000000000E+00 -0.96247418672E+03  0.96247418672E+03  0.00000000000E+00 0.  1.
         21    1    1    2  503  502  0.14983940330E+02 -0.18574093396E+02 -0.95314985711E+03  0.95344856469E+03  0.00000000000E+00 0.  1.
         21    1    1    2  504  501 -0.14983940330E+02  0.18574093396E+02  0.63431962319E+01  0.24693147870E+02  0.00000000000E+00 0. -1.
</event>
<event>
 4    1  0.2967296E+006  0.2606970E+02  0.7546771E-02  0.1457184E+00
         21   -1    0    0  504  501  0.00000000000E+00  0.00000000000E+00  0.63161428496E+02  0.63161428496E+02  0.00000000000E+00 0.  1.
         21   -1    0    0  503  502 -0.00000000000E+00 -0.00000000000E+00 -0.32146531553E+03  0.32146531553E+03  0.00000000000E+00 0. -1.
         21    1    1    2  503  501 -0.20197276426E+02 -0.16483298837E+02  0.59915446594E+02  0.65341333443E+02  0.00000000000E+00 0.  1.
         21    1    1    2  504  502  0.20197276426E+02  0.16483298837E+02 -0.31821933363E+03  0.31928541058E+03  0.00000000000E+00 0. -1.
</event>
<event>
 4    1  0.2967296E+006  0.3105753E+02  0.7546771E-02  0.1410624E+00
         21   -1    0    0  503  501  0.00000000000E+00  0.00000000000E+00  0.58008700342E+02  0.58008700342E+02  0.00000000000E+00 0. -1.
         21   -1    0    0  504  502 -0.00000000000E+00 -0.00000000000E+00 -0.16863567433E+02  0.16863567433E+02  0.00000000000E+00 0. -1.
         21    1    1    2  503  502 -0.24713779405E+02  0.18809546806E+02  0.16148174029E+02  0.35004763504E+02  0.00000000000E+00 0. -1.
         21    1    1    2  504  501  0.24713779405E+02 -0.18809546806E+02  0.24996958880E+02  0.39867504270E+02  0.00000000000E+00 0. -1.
</event>
<event>
 4    1  0.2967296E+006  0.2459325E+02  0.7546771E-02  0.1473405E+00
         21   -1    0    0  502  501  0.00000000000E+00  0.00000000000E+00  0.38925269309E+03  0.38925269309E+03  0.00000000000E+00 0. -1.
         21   -1    0    0  504  502 -0.00000000000E+00 -0.00000000000E+00 -0.70907808219E+01  0.70907808219E+01  0.00000000000E+00 0.  1.
         21    1    1    2  503  501  0.22237392503E+02 -0.10503640661E+02  0.36619882511E+03  0.36702371532E+03  0.00000000000E+00 0. -1.
         21    1    1    2  504  503 -0.22237392503E+02  0.10503640661E+02  0.15963087156E+02  0.29319758594E+02  0.00000000000E+00 0.  1.
</event>
<event>
 4    1  0.2967296E+006  0.2325752E+02  0.7546771E-02  0.1489290E+00
         21   -1    0    0  504  501  0.00000000000E+00  0.00000000000E+00  0.12967193476E+03  0.12967193476E+03  0.00000000000E+00 0.  1.
         21   -1    0    0  503  502 -0.00000000000E+00 -0.00000000000E+00 -0.13958947499E+02  0.13958947499E+02  0.00000000000E+00 0. -1.
         21    1    1    2  503  501 -0.20318970516E+02  0.11315982116E+02  0.11799168435E+03  0.12026200393E+03  0.00000000000E+00 0.  1.
         21    1    1    2  504  502  0.20318970516E+02 -0.11315982116E+02 -0.22786970846E+01  0.23368878332E+02  0.00000000000E+00 0. -1.
</event>
<event>
 4    1  0.2967296E+006  0.2101923E+02  0.7546771E-02  0.1518990E+00
         21   -1    0    0  503  501  0.00000000000E+00  0.00000000000E+00  0.80162668425E+01  0.80162668425E+01  0.00000000000E+00 0.  1.
         21   -1    0    0  504  502 -0.00000000000E+00 -0.00000000000E+00 -0.29492197340E+03  0.29492197340E+03  0.00000000000E+00 0. -1.
         21    1    1    2  503  502 -0.10413968812E+02 -0.18258077365E+02 -0.28003765959E+03  0.28082538867E+03  0.00000000000E+00 0. -1.
         21    1    1    2  504  501  0.10413968812E+02  0.18258077365E+02 -0.68680469726E+01  0.22112851573E+02  0.00000000000E+00 0.  1.
</event>
<event>
 4    1  0.2967296E+006  0.5355127E+02  0.7546771E-02  0.1283468E+00
         21   -1    0    0  503  501  0.00000000000E+00  0.00000000000E+00  0.36398720705E+04  0.36398720705E+04  0.00000000000E+00 0. -1.
         21   -1    0    0  501  502 -0.00000000000E+00 -0.00000000000E+00 -0.11274222355E+01  0.11274222355E+01  0.00000000000E+00 0.  1.
         21    1    1    2  503  504  0.39139956247E+02 -0.36548632148E+02  0.28184561037E+04  0.28189648006E+04  0.00000000000E+00 0. -1.
         21    1    1    2  504  502 -0.39139956247E+02  0.36548632148E+02  0.82028854453E+03  0.82203469207E+03  0.00000000000E+00 0.  1.
</event>
<event>
 4    1  0.2967296E+006  0.3006490E+02  0.7546771E-02  0.1419033E+00
         21   -1    0    0  502  501  0.00000000000E+00  0.00000000000E+00  0.75372538910E+03  0.75372538910E+03  0.00000000000E+00 0.  1.
         21   -1    0    0  504  502 -0.00000000000E+00 -0.00000000000E+00 -0.12393748066E+01  0.12393748066E+01  0.00000000000E+00 0.  1.
         21    1    1    2  503  501  0.29906985760E+02 -0.30774443625E+01  0.44417119312E+03  0.44518754167E+03  0.00000000000E+00 0.  1.
         21    1    1    2  504  503 -0.29906985760E+02  0.30774443625E+01  0.30831482117E+03  0.30977722224E+03  0.00000000000E+00 0.  1.
</event>
<event>
 4    1  0.2967296E+006  0.2218845E+02  0.7546771E-02  0.1502948E+00
         21   -1    0    0  503  501  0.00000000000E+00  0.00000000000E+00  0.52283327644E+01  0.52283327644E+01  0.00000000000E+00 0. -1.
         21   -1    0    0  501  502 -0.00000000000E+00 -0.00000000000E+00 -0.27479428020E+03  0.27479428020E+03  0.00000000000E+00 0. -1.
         21    1    1    2  503  504 -0.10193300125E+02 -0.19708476721E+02 -0.21268039441E+02  0.30735271656E+02  0.00000000000E+00 0. -1.
         21    1    1    2  504  502  0.10193300125E+02  0.19708476721E+02 -0.24829790799E+03  0.24928734130E+03  0.00000000000E+00 0. -1.
</event>
<event>
 4    1  0.2967296E+006  0.2020952E+02  0.7546771E-02  0.1530857E+00
         21   -1    0    0  504  501  0.00000000000E+00  0.00000000000E+00  0.12726029817E+02  0.12726029817E+02  0.00000000000E+00 0. -1.
         21   -1    0    0  503  502 -0.00000000000E+00 -0.00000000000E+00 -0.65368569533E+02  0.65368569533E+02  0.00000000000E+00 0. -1.
         21    1    1    2  503  501  0.16230766700E+02 -0.12041046129E+02  0.15377034714E+01  0.20267933084E+02  0.00000000000E+00 0. -1.
         21    1    1    2  504  502 -0.16230766700E+02  0.12041046129E+02 -0.54180243188E+02  0.57826666266E+02  0.00000000000E+00 0. -1.
</event>
<event>
 4    1  0.2967296E+006  0.5641191E+02  0.7546771E-02  0.1272536E+00
         21   -1    0    0  502  501  0.00000000000E+00  0.00000000000E+00  0.19296107090E+03  0.19296107090E+03  0.00000000000E+00 0.  1.
         21   -1    0    0  503  502 -0.00000000000E+00 -0.00000000000E+00 -0.15725454355E+03  0.15725454355E+03  0.00000000000E+00 0. -1.
         21    1    1    2  503  504 -0.37000554992E+02  0.42582425123E+02 -0.14781813592E+03  0.15821664042E+03  0.00000000000E+00 0. -1.
         21    1    1    2  504  501  0.37000554992E+02 -0.42582425123E+02  0.18352466327E+03  0.19199897403E+03  0.00000000000E+00 0.  1.
</event>
<event>
 4    1  0.2967296E+006  0.3279424E+02  0.7546771E-02  0.1396771E+00
         21   -1    0    0  503  501  0.00000000000E+00  0.00000000000E+00  0.20176554975E+02  0.20176554975E+02  0.00000000000E+00 0. -1.
         21   -1    0    0  504  502 -0.00000000000E+00 -0.00000000000E+00 -0.56425060015E+02  0.56425060015E+02  0.00000000000E+00 0.  1.
         21    1    1    2  503  502  0.32793081777E+02  0.27588266886E+00 -0.27134197422E+02  0.42564386445E+02  0.00000000000E+00 0. -1.
         21    1    1    2  504  501 -0.32793081777E+02 -0.27588266886E+00 -0.91143076173E+01  0.34037228545E+02  0.00000000000E+00 0.  1.
</event>
<event>
 4    1  0.2967296E+006  0.2353995E+02  0.7546771E-02  0.1485827E+00
         21   -1    0    0  504  501  0.00000000000E+00  0.00000000000E+00  0.18862935962E+02  0.18862935962E+02  0.00000000000E+00 0. -1.
         21   -1    0    0  503  502 -0.00000000000E+00 -0.00000000000E+00 -0.45057096738E+02  0.45057096738E+02  0.00000000000E+00 0. -1.
         21    1    1    2  503  501  0.22278881132E+02 -0.76013617108E+01  0.57569873938E+01  0.24233698608E+02  0.00000000000E+00 0. -1.
         21    1    1    2  504  502 -0.22278881132E+02  0.76013617108E+01 -0.31951148170E+02  0.39686334093E+02  0.00000000000E+00 0. -1.
</event>
<event>
 4    1  0.2967296E+006  0.2561477E+02  0.7546771E-02  0.1462042E+00
         21   -1    0    0  503  501  0.00000000000E+00  0.00000000000E+00  0.79503489707E+01  0.79503489707E+01  0.00000000000E+00 0.  1.
         21   -1    0    0  504  502 -0.00000000000E+00 -0.00000000000E+00 -0.13875250322E+03  0.13875250322E+03  0.00000000000E+00 0.  1.
         21    1    1    2  503  502 -0.82223143690E+01  0.24259225848E+02 -0.18707647431E+02  0.31718962227E+02  0.00000000000E+00 0.  1.
         21    1    1    2  504  501  0.82223143690E+01 -0.24259225848E+02 -0.11209450682E+03  0.11498388996E+03  0.00000000000E+00 0.  1.
</event>
<event>
 4    1  0.2967296E+006  0.2583412E+02  0.7546771E-02  0.1459685E+00
         21   -1    0    0  504  501  0.00000000000E+00  0.00000000000E+00  0.44661462772E+01  0.44661462772E+01  0.00000000000E+00 0. -1.
         21   -1    0    0  503  502 -0.00000000000E+00 -0.00000000000E+00 -0.21776856892E+03  0.21776856892E+03  0.00000000000E+00 0. -1.
         21    1    1    2  503  501 -0.29972602790E+01 -0.25659659061E+02 -0.44406973937E+02  0.51374906390E+02  0.00000000000E+00 0. -1.
         21    1    1    2  504  502  0.29972602790E+01  0.25659659061E+02 -0.16889544871E+03  0.17085980881E+03  0.00000000000E+00 0. -1.
</event>
<event>
 4    1  0.2967296E+006  0.2657410E+02  0.7546771E-02  0.1451934E+00
         21   -1    0    0  504  501  0.00000000000E+00  0.00000000000E+00  0.76728319330E+03  0.76728319330E+03  0.00000000000E+00 0.  1.
         21   -1    0    0  503  502 -0.00000000000E+00 -0.00000000000E+00 -0.18421131870E+01  0.18421131870E+01  0.00000000000E+00 0.  1.
         21    1    1    2  503  501 -0.16323691589E+02  0.20969493422E+02  0.65474909367E+03  0.65528814900E+03  0.00000000000E+00 0.  1.
         21    1    1    2  504  502  0.16323691589E+02 -0.20969493422E+02  0.11069198645E+03  0.11383715749E+03  0.00000000000E+00 0.  1.
</event>
<event>
 4    1  0.2967296E+006  0.2549952E+02  0.7546771E-02  0.1463292E+00
         21   -1    0    0  503  501  0.00000000000E+00  0.00000000000E+00  0.26462340095E+02  0.26462340095E+02  0.00000000000E+00 0.  1.
         21   -1    0    0  504  502 -0.00000000000E+00 -0.00000000000E+00 -0.11255782026E+03  0.11255782026E+03  0.00000000000E+00 0.  1.
         21    1    1    2  503  502 -0.18208274919E+02 -0.17851733852E+02 -0.10450411561E+03  0.10757014389E+03  0.00000000000E+00 0.  1.
         21    1    1    2  504  501  0.18208274919E+02  0.17851733852E+02  0.18408635441E+02  0.31450016468E+02  0.00000000000E+00 0.  1.
</event>
<event>
 4    1  0.2967296E+006  0.2817432E+02  0.7546771E-02  0.1436156E+00
         21   -1    0    0  503  501  0.00000000000E+00  0.00000000000E+00  0.10569954754E+03  0.10569954754E+03  0.00000000000E+00 0.  1.
         21   -1    0    0  501  502 -0.00000000000E+00 -0.00000000000E+00 -0.90964824731E+02  0.90964824731E+02  0.00000000000E+00 0. -1.
         21    1    1    2  503  504 -0.38965559688E+01 -0.27903567156E+02  0.10155305844E+03  0.10538887934E+03  0.00000000000E+00 0.  1.
         21    1    1    2  504  502  0.38965559688E+01  0.27903567156E+02 -0.86818335633E+02  0.91275492935E+02  0.00000000000E+00 0. -1.
</event>
<event>
 4    1  0.2967296E+006  0.2677989E+02  0.7546771E-02  0.1449832E+00
         21   -1    0    0  504  501  0.00000000000E+00  0.00000000000E+00  0.13489736057E+03  0.13489736057E+03  0.00000000000E+00 0. -1.
         21   -1    0    0  503  502 -0.00000000000E+00 -0.00000000000E+00 -0.74402364412E+01  0.74402364412E+01  0.00000000000E+00 0.  1.
         21    1    1    2  503  501 -0.16851524990E+02 -0.20813184796E+02  0.25704266752E+02  0.37119696727E+02  0.00000000000E+00 0.  1.
         21    1    1    2  504  502  0.16851524990E+02  0.20813184796E+02  0.10175285738E+03  0.10521790028E+03  0.00000000000E+00 0. -1.
</event>
<event>
 4    1  0.2967296E+006  0.2679341E+02  0.7546771E-02  0.1449694E+00
         21   -1    0    0  503  501  0.00000000000E+00  0.00000000000E+00  0.22653714161E+03  0.22653714161E+03  0.00000000000E+00 0.  1.
         21   -1    0    0  501  502 -0.00000000000E+00 -0.00000000000E+00 -0.10142384470E+02  0.10142384470E+02  0.00000000000E+00 0. -1.
         21    1    1    2  503  504  0.25307463848E+02  0.87988255208E+01  0.20632329431E+03  0.20805573492E+03  0.00000000000E+00 0.  1.
         21    1    1    2  504  502 -0.25307463848E+02 -0.87988255208E+01  0.10071462829E+02  0.28623791162E+02  0.00000000000E+00 0. -1.
</event>
<event>
 4    1  0.2967296E+006  0.2178046E+02  0.7546771E-02  0.1508407E+00
         21   -1    0    0  503  501  0.00000000000E+00  0.00000000000E+00  0.52657125630E+03  0.52657125630E+03  0.00000000000E+00 0.  1.
         21   -1    0    0  501  502 -0.00000000000E+00 -0.00000000000E+00 -0.24167151934E+01  0.24167151934E+01  0.00000000000E+00 0.  1.
         21    1    1    2  503  504 -0.16978729986E+02  0.13642251267E+02  0.47154934119E+03  0.47205208343E+03  0.00000000000E+00 0.  1.
         21    1    1    2  504  502  0.16978729986E+02 -0.13642251267E+02  0.52605199911E+02  0.56935888060E+02  0.00000000000E+00 0.  1.
</event>
<event>
 4    1  0.2967296E+006  0.3365419E+02  0.7546771E-02  0.1390280E+00
         21   -1    0    0  504  501  0.00000000000E+00  0.00000000000E+00  0.24819408395E+03  0.24819408395E+03  0.00000000000E+00 0. -1.
         21   -1    0    0  501  502 -0.00000000000E+00 -0.00000000000E+00 -0.59945707996E+01  0.59945707996E+01  0.00000000000E+00 0. -1.
         21    1    1    2  503  502 -0.32671659139E+02 -0.80726175513E+01  0.58999191205E+02  0.67922816696E+02  0.00000000000E+00 0. -1.
         21    1    1    2  504  503  0.32671659139E+02  0.80726175513E+01  0.18320032194E+03  0.18626583805E+03  0.00000000000E+00 0. -1.
</event>
<event>
 4    1  0.2967296E+006  0.2418849E+02  0.7546771E-02  0.1478090E+00
         21   -1    0    0  503  501  0.00000000000E+00  0.00000000000E+00  0.15331552066E+03  0.15331552066E+03  0.00000000000E+00 0. -1.
         21   -1    0    0  504  502 -0.00000000000E+00 -0.00000000000E+00 -0.79539548180E+01  0.79539548180E+01  0.00000000000E+00 0. -1.
         21    1    1    2  503  502 -0.17768685020E+01  0.24123133446E+02  0.14522316397E+02  0.28213126422E+02  0.00000000000E+00 0. -1.
         21    1    1    2  504  501  0.17768685020E+01 -0.24123133446E+02  0.13083924945E+03  0.13305634906E+03  0.00000000000E+00 0. -1.
</event>
<event>
 4    1  0.2967296E+006  0.3137979E+02  0.7546771E-02  0.1407973E+00
         21   -1    0    0  502  501  0.00000000000E+00  0.00000000000E+00  0.83992540931E+01  0.83992540931E+01  0.00000000000E+00 0. -1.
         21   -1    0    0  504  502 -0.00000000000E+00 -0.00000000000E+00 -0.36408418799E+03  0.36408418799E+03  0.00000000000E+00 0. -1.
         21    1    1    2  503  501  0.24593087073E+02 -0.19490293175E+02 -0.24489774701E+02  0.39805031400E+02  0.00000000000E+00 0. -1.
         21    1    1    2  504  503 -0.24593087073E+02  0.19490293175E+02 -0.33119515919E+03  0.33267841068E+03  0.00000000000E+00 0. -1.
</event>
<event>
 4    1  0.2967296E+006  0.4703093E+02  0.7546771E-02  0.1311585E+00
         21   -1    0    0  502  501  0.00000000000E+00  0.00000000000E+00  0.39585297266E+02  0.39585297266E+02  0.00000000000E+00 0.  1.
         21   -1    0    0  503  502 -0.00000000000E+00 -0.00000000000E+00 -0.72464899521E+02  0.72464899521E+02  0.00000000000E+00 0.  1.
         21    1    1    2  503  504  0.45091943819E+02  0.13365081442E+02 -0.43244695517E+02  0.63890629122E+02  0.00000000000E+00 0.  1.
         21    1    1    2  504  501 -0.45091943819E+02 -0.13365081442E+02  0.10365093262E+02  0.48159567664E+02  0.00000000000E+00 0.  1.
</event>
<event>
 4    1  0.2967296E+006  0.2241943E+02  0.7546771E-02  0.1499920E+00
         21   -1    0    0  503  501  0.00000000000E+00  0.00000000000E+00  0.42526306747E+03  0.42526306747E+03  0.00000000000E+00 0.  1.
         21   -1    0    0  501  502 -0.00000000000E+00 -0.00000000000E+00 -0.17802217867E+03  0.17802217867E+03  0.00000000000E+00 0.  1.
         21    1    1    2  503  504  0.14768555481E+02 -0.16867741279E+02  0.42426006319E+03  0.42485201205E+03  0.00000000000E+00 0.  1.
         21    1    1    2  504  502 -0.14768555481E+02  0.16867741279E+02 -0.17701917439E+03  0.17843323409E+03  0.00000000000E+00 0.  1.
</event>
<event>
 4    1  0.2967296E+006  0.4755494E+02  0.7546771E-02  0.1309136E+00
         21   -1    0    0  503  501  0.00000000000E+00  0.00000000000E+00  0.21820408710E+02  0.21820408710E+02  0.00000000000E+00 0.  1.
         21   -1    0    0  504  502 -0.00000000000E+00 -0.00000000000E+00 -0.14506013811E+03  0.14506013811E+03  0.00000000000E+00 0.  1.
         21    1    1    2  503  502 -0.21664362136E+02 -0.42333528576E+02 -0.10620665694E+03  0.11636720417E+03  0.00000000000E+00 0.  1.
         21    1    1    2  504  501  0.21664362136E+02  0.42333528576E+02 -0.17033072466E+02  0.50513342654E+02  0.00000000000E+00 0.  1.
</event>
<event>
 4    1  0.2967296E+006  0.2249736E+02  0.7546771E-02  0.1498908E+00
         21   -1    0    0  502  501  0.00000000000E+00  0.00000000000E+00  0.39239362381E+02  0.39239362381E+02  0.00000000000E+00 0.  1.
         21   -1    0    0  503  502 -0.00000000000E+00 -0.00000000000E+00 -0.23576246175E+02  0.23576246175E+02  0.00000000000E+00 0. -1.
         21    1    1    2  503  504 -0.15919497999E+02  0.15896570187E+02 -0.13305219437E+02  0.26137333922E+02  0.00000000000E+00 0. -1.
         21    1    1    2  504  501  0.15919497999E+02 -0.15896570187E+02  0.28968335643E+02  0.36678274634E+02  0.00000000000E+00 0.  1.
</event>
<event>
 4    1  0.2967296E+006  0.4322819E+02  0.7546771E-02  0.1330541E+00
         21   -1    0    0  504  501  0.00000000000E+00  0.00000000000E+00  0.56802956164E+02  0.56802956164E+02  0.00000000000E+00 0.  1.
         21   -1    0    0  503  502 -0.00000000000E+00 -0.00000000000E+00 -0.59081053127E+02  0.59081053127E+02  0.00000000000E+00 0. -1.
         21    1    1    2  503  501 -0.43122859570E+02  0.30158230264E+01  0.37433963592E+02  0.57183720028E+02  0.00000000000E+00 0.  1.
         21    1    1    2  504  502  0.43122859570E+02 -0.30158230264E+01 -0.39712060555E+02  0.58700289263E+02  0.00000000000E+00 0. -1.
</event>
<event>
 4    1  0.2967296E+006  0.3638611E+02  0.7546771E-02  0.1371072E+00
         21   -1    0    0  504  501  0.00000000000E+00  0.00000000000E+00  0.88749611916E+01  0.88749611916E+01  0.00000000000E+00 0. -1.
         21   -1    0    0  503  502 -0.00000000000E+00 -0.00000000000E+00 -0.46353687642E+03  0.46353687642E+03  0.00000000000E+00 0.  1.
         21    1    1    2  503  501 -0.49135827345E+00 -0.36382795519E+02 -0.42184970888E+03  0.42341602016E+03  0.00000000000E+00 0.  1.
         21    1    1    2  504  502  0.49135827345E+00  0.36382795519E+02 -0.32812206350E+02  0.48995817457E+02  0.00000000000E+00 0. -1.
</event>
<event>
 4    1  0.2967296E+006  0.3164263E+02  0.7546771E-02  0.1405839E+00
         21   -1    0    0  502  501  0.00000000000E+00  0.00000000000E+00  0.97170304135E+02  0.97170304135E+02  0.00000000000E+00 0. -1.
         21   -1    0    0  503  502 -0.00000000000E+00 -0.00000000000E+00 -0.13209331248E+02  0.13209331248E+02  0.00000000000E+00 0. -1.
         21    1    1    2  503  504 -0.18892254551E+02 -0.25383831903E+02  0.16097995433E+02  0.35502136007E+02  0.00000000000E+00 0. -1.
         21    1    1    2  504  501  0.18892254551E+02  0.25383831903E+02  0.67862977454E+02  0.74877499377E+02  0.00000000000E+00 0. -1.
</event>
<event>
 4    1  0.2967296E+006  0.3002471E+02  0.7546771E-02  0.1419382E+00
         21   -1    0    0  503  501  0.00000000000E+00  0.00000000000E+00  0.92958636849E+02  0.92958636849E+02  0.00000000000E+00 0.  1.
         21   -1    0    0  504  502 -0.00000000000E+00 -0.00000000000E+00 -0.16951516673E+02  0.16951516673E+02  0.00000000000E+00 0.  1.
         21    1    1    2  503  502 -0.28871115214E+02  0.82426890551E+01  0.73952607883E+02  0.79815233066E+02  0.00000000000E+00 0.  1.
         21    1    1    2  504  501  0.28871115214E+02 -0.82426890551E+01  0.20545122926E+01  0.30094920457E+02  0.00000000000E+00 0.  1.
</event>
<event>
 4    1  0.2967296E+006  0.2023550E+02  0.7546771E-02  0.1530466E+00
         21   -1    0    0  502  501  0.00000000000E+00  0.00000000000E+00  0.69355959675E+03  0.69355959675E+03  0.00000000000E+00 0. -1.
         21   -1    0    0  504  502 -0.00000000000E+00 -0.00000000000E+00 -0.77986244921E+00  0.77986244921E+00  0.00000000000E+00 0. -1.
         21    1    1    2  503  501  0.19189130540E+02  0.64228237098E+01  0.51750879092E+03  0.51790426150E+03  0.00000000000E+00 0. -1.
         21    1    1    2  504  503 -0.19189130540E+02 -0.64228237098E+01  0.17527094338E+03  0.17643519770E+03  0.00000000000E+00 0. -1.
</event>
<event>
 4    1  0.2967296E+006  0.2280674E+02  0.7546771E-02  0.1494939E+00
         21   -1    0    0  502  501  0.00000000000E+00  0.00000000000E+00  0.14390426696E+02  0.14390426696E+02  0.00000000000E+00 0. -1.
         21   -1    0    0  504  502 -0.00000000000E+00 -0.00000000000E+00 -0.37511524673E+02  0.37511524673E+02  0.00000000000E+00 0. -1.
         21    1    1    2  503  501 -0.18508454417E+02 -0.13326083896E+02 -0.66080981961E+01  0.23744775397E+02  0.00000000000E+00 0. -1.
         21    1    1    2  504  503  0.18508454417E+02  0.13326083896E+02 -0.16512999782E+02  0.28157175972E+02  0.00000000000E+00 0. -1.
</event>
<event>
 4    1  0.2967296E+006  0.2080522E+02  0.7546771E-02  0.1522064E+00
         21   -1    0    0  502  501  0.00000000000E+00  0.00000000000E+00  0.15462325617E+02  0.15462325617E+02  0.00000000000E+00 0.  1.
         21   -1    0    0  503  502 -0.00000000000E+00 -0.00000000000E+00 -0.14634531000E+03  0.14634531000E+03  0.00000000000E+00 0. -1.
         21    1    1    2  503  504  0.10985280064E+02  0.17668634630E+02 -0.13819695214E+03  0.13975426508E+03  0.00000000000E+00 0. -1.
         21    1    1    2  504  501 -0.10985280064E+02 -0.17668634630E+02  0.73139677534E+01  0.22053370538E+02  0.00000000000E+00 0.  1.
</event>
<event>
 4    1  0.2967296E+006  0.3114498E+02  0.7546771E-02  0.1409901E+00
         21   -1    0    0  502  501  0.00000000000E+00  0.00000000000E+00  0.14385657251E+03  0.14385657251E+03  0.00000000000E+00 0. -1.
         21   -1    0    0  504  502 -0.00000000000E+00 -0.00000000000E+00 -0.68436136474E+01  0.68436136474E+01  0.00000000000E+00 0. -1.
         21    1    1    2  503  501  0.21369188821E+02  0.22657617137E+02  0.59365457126E+02  0.67039297020E+02  0.00000000000E+00 0. -1.
         21    1    1    2  504  503 -0.21369188821E+02 -0.22657617137E+02  0.77647501736E+02  0.83660889136E+02  0.00000000000E+00 0. -1.
</event>
<event>
 4    1  0.2967296E+006  0.3433009E+02  0.7546771E-02  0.1385335E+00
         21   -1    0    0  504  501  0.00000000000E+00  0.00000000000E+00  0.22519458462E+03  0.22519458462E+03  0.00000000000E+00 0. -1.
         21   -1    0    0  503  502 -0.00000000000E+00 -0.00000000000E+00 -0.59739144686E+01  0.59739144686E+01  0.00000000000E+00 0. -1.
         21    1    1    2  503  501  0.30427384153E+02  0.15897457398E+02  0.68918440673E+02  0.76995495472E+02  0.00000000000E+00 0. -1.
         21    1    1    2  504  502 -0.30427384153E+02 -0.15897457398E+02  0.15030222948E+03  0.15417300362E+03  0.00000000000E+00 0. -1.
</event>
<event>
 4    1  0.2967296E+006  0.2857899E+02  0.7546771E-02  0.1432361E+00
         21   -1    0    0  504  501  0.00000000000E+00  0.00000000000E+00  0.63280783351E+02  0.63280783351E+02  0.00000000000E+00 0.  1.
         21   -1    0    0  503  502 -0.00000000000E+00 -0.00000000000E+00 -0.13165540826E+02  0.13165540826E+02  0.00000000000E+00 0.  1.
         21    1    1    2  503  501  0.11694694043E+02  0.26076671925E+02  0.30415051591E+02  0.41735285439E+02  0.00000000000E+00 0.  1.
         21    1    1    2  504  502 -0.11694694043E+02 -0.26076671925E+02  0.19700190934E+02  0.34711038738E+02  0.00000000000E+00 0.  1.
</event>
<event>
 4    1  0.2967296E+006  0.2633234E+02  0.7546771E-02  0.1454433E+00
         21   -1    0    0  503  501  0.00000000000E+00  0.00000000000E+00  0.49208056558E+03  0.49208056558E+03  0.00000000000E+00 0. -1.
         21   -1    0    0  501  502 -0.00000000000E+00 -0.00000000000E+00 -0.25936711685E+01  0.25936711685E+01  0.00000000000E+00 0.  1.
         21    1    1    2  503  504  0.71062823734E+01  0.25355335838E+02  0.41189554447E+03  0.41273639512E+03  0.00000000000E+00 0. -1.
         21    1    1    2  504  502 -0.71062823734E+01 -0.25355335838E+02  0.77591349949E+02  0.81937841633E+02  0.00000000000E+00 0.  1.
</event>
<event>
 4    1  0.2967296E+006  0.2429241E+02  0.7546771E-02  0.1476877E+00
         21   -1    0    0  504  501  0.00000000000E+00  0.00000000000E+00  0.23964299924E+01  0.23964299924E+01  0.00000000000E+00 0. -1.
         21   -1    0    0  503  502 -0.00000000000E+00 -0.00000000000E+00 -0.28562568876E+03  0.28562568876E+03  0.00000000000E+00 0. -1.
         21    1    1    2  503  501  0.15586767746E+02  0.18632603678E+02 -0.88144595500E+02  0.91430798774E+02  0.00000000000E+00 0. -1.
         21    1    1    2  504  502 -0.15586767746E+02 -0.18632603678E+02 -0.19508466327E+03  0.19659131998E+03  0.00000000000E+00 0. -1.
</event>
<event>
 4    1  0.2967296E+006  0.2480313E+02  0.7546771E-02  0.1471018E+00
         21   -1    0    0  502  501  0.00000000000E+00  0.00000000000E+00  0.74241156384E+02  0.74241156384E+02  0.00000000000E+00 0. -1.
         21   -1    0    0  503  502 -0.00000000000E+00 -0.00000000000E+00 -0.18128594161E+02  0.18128594161E+02  0.00000000000E+00 0.  1.
         21    1    1    2  503  504  0.10979644541E+01 -0.24778821143E+02 -0.59737707184E+01  0.25512378167E+02  0.00000000000E+00 0.  1.
         21    1    1    2  504  501 -0.10979644541E+01  0.24778821143E+02  0.62086332941E+02  0.66857372378E+02  0.00000000000E+00 0. -1.
</event>
<event>
 4    1  0.2967296E+006  0.8096174E+02  0.7546771E-02  0.1201632E+00
         21   -1    0    0  502  501  0.00000000000E+00  0.00000000000E+00  0.16167317709E+02  0.16167317709E+02  0.00000000000E+00 0.  1.
         21   -1    0    0  503  502 -0.00000000000E+00 -0.00000000000E+00 -0.41161746268E+03  0.41161746268E+03  0.00000000000E+00 0.  1.
         21    1    1    2  503  504 -0.80047678212E+02  0.12131484531E+02 -0.22393787417E+03  0.23812386523E+03  0.00000000000E+00 0.  1.
         21    1    1    2  504  501  0.80047678212E+02 -0.12131484531E+02 -0.17151227080E+03  0.18966091516E+03  0.00000000000E+00 0.  1.
</event>
<event>
 4    1  0.2967296E+006  0.2214072E+02  0.7546771E-02  0.1503579E+00
         21   -1    0    0  504  501  0.00000000000E+00  0.00000000000E+00  0.32585433356E+03  0.32585433356E+03  0.00000000000E+00 0. -1.
         21   -1    0    0  503  502 -0.00000000000E+00 -0.00000000000E+00 -0.83945744160E+01  0.83945744160E+01  0.00000000000E+00 0. -1.
         21    1    1    2  503  501  0.73080198295E+01 -0.20899867458E+02  0.31014042368E+03  0.31092972520E+03  0.00000000000E+00 0. -1.
         21    1    1    2  504  502 -0.73080198295E+01  0.20899867458E+02  0.73193354626E+01  0.23319182773E+02  0.00000000000E+00 0. -1.
</event>
<event>
 4    1  0.2967296E+006  0.2238257E+02  0.7546771E-02  0.1500400E+00
         21   -1    0    0  504  501  0.00000000000E+00  0.00000000000E+00  0.41382480274E+03  0.41382480274E+03  0.00000000000E+00 0.  1.
         21   -1    0    0  503  502 -0.00000000000E+00 -0.00000000000E+00 -0.12356343455E+01  0.12356343455E+01  0.00000000000E+00 0.  1.
         21    1    1    2  503  501  0.17910899422E+00  0.22381858358E+02  0.17675978005E+03  0.17817126454E+03  0.00000000000E+00 0.  1.
         21    1    1    2  504  502 -0.17910899422E+00 -0.22381858358E+02  0.23582938835E+03  0.23688917255E+03  0.00000000000E+00 0.  1.
</event>
<event>
 4    1  0.2967296E+006  0.2725560E+02  0.7546771E-02  0.1445057E+00
         21   -1    0    0  503  501  0.00000000000E+00  0.00000000000E+00  0.84821883572E+02  0.84821883572E+02  0.00000000000E+00 0. -1.
         21   -1    0    0  504  502 -0.00000000000E+00 -0.00000000000E+00 -0.15046456898E+02  0.15046456898E+02  0.00000000000E+00 0. -1.
         21    1    1    2  503  502  0.20390909642E+02 -0.18085319487E+02  0.26062208411E+01  0.27379926297E+02  0.00000000000E+00 0. -1.
         21    1    1    2  504  501 -0.20390909642E+02  0.18085319487E+02  0.67169205833E+02  0.72488414172E+02  0.00000000000E+00 0. -1.
</event>
<event>
 4    1  0.2967296E+006  0.2787671E+02  0.7546771E-02  0.1438995E+00
         21   -1    0    0  504  501  0.00000000000E+00  0.00000000000E+00  0.84090679149E+01  0.84090679149E+01  0.00000000000E+00 0.  1.
         21   -1    0    0  503  502 -0.00000000000E+00 -0.00000000000E+00 -0.15880210672E+03  0.15880210672E+03  0.00000000000E+00 0.  1.
         21    1    1    2  503  501  0.79745684241E+01 -0.26711742973E+02 -0.21139247813E+02  0.34985407706E+02  0.00000000000E+00 0.  1.
         21    1    1    2  504  502 -0.79745684241E+01  0.26711742973E+02 -0.12925379099E+03  0.13222576693E+03  0.00000000000E+00 0.  1.
</event>
<event>
 4    1  0.2967296E+006  0.4986902E+02  0.7546771E-02  0.1298741E+00
         21   -1    0    0  503  501  0.00000000000E+00  0.00000000000E+00  0.12845415809E+02  0.12845415809E+02  0.00000000000E+00 0. -1.
         21   -1    0    0  504  502 -0.00000000000E+00 -0.00000000000E+00 -0.19360973520E+03  0.19360973520E+03  0.00000000000E+00 0. -1.
         21    1    1    2  503  502  0.28868301884E+02 -0.40663744998E+02 -0.90962269000E+02  0.10373549726E+03  0.00000000000E+00 0. -1.
         21    1    1    2  504  501 -0.28868301884E+02  0.40663744998E+02 -0.89802050387E+02  0.10271965374E+03  0.00000000000E+00 0. -1.
</event>
<event>
 4    1  0.2967296E+006  0.2131062E+02  0.7546771E-02  0.1514876E+00
         21   -1    0    0  503  501  0.00000000000E+00  0.00000000000E+00  0.21443262197E+02  0.21443262197E+02  0.00000000000E+00 0. -1.
         21   -1    0    0  504  502 -0.00000000000E+00 -0.00000000000E+00 -0.52253733394E+02  0.52253733394E+02  0.00000000000E+00 0.  1.
         21    1    1    2  503  502  0.20325549952E+02 -0.64042613766E+01 -0.43821450845E+02  0.48728452662E+02  0.00000000000E+00 0.  1.
         21    1    1    2  504  501 -0.20325549952E+02  0.64042613766E+01  0.13010979648E+02  0.24968542930E+02  0.00000000000E+00 0. -1.
</event>
<event>
 4    1  0.2967296E+006  0.2578166E+02  0.7546771E-02  0.1460246E+00
         21   -1    0    0  504  501  0.00000000000E+00  0.00000000000E+00  0.41615757820E+03  0.41615757820E+03  0.00000000000E+00 0.  1.
         21   -1    0    0  503  502 -0.00000000000E+00 -0.00000000000E+00 -0.18108681129E+01  0.18108681129E+01  0.00000000000E+00 0. -1.
         21    1    1    2  503  501  0.70461376558E+01  0.24800114556E+02  0.13539008983E+03  0.13782296674E+03  0.00000000000E+00 0. -1.
         21    1    1    2  504  502 -0.70461376558E+01 -0.24800114556E+02  0.27895662025E+03  0.28014547957E+03  0.00000000000E+00 0.  1.
</event>
<event>
 4    1  0.2967296E+006  0.2289495E+02  0.7546771E-02  0.1493821E+00
         21   -1    0    0  504  501  0.00000000000E+00  0.00000000000E+00  0.42349936626E+02  0.42349936626E+02  0.00000000000E+00 0.  1.
         21   -1    0    0  503  502 -0.00000000000E+00 -0.00000000000E+00 -0.82151218743E+02  0.82151218743E+02  0.00000000000E+00 0.  1.
         21    1    1    2  503  501 -0.50088409536E+01  0.22340331551E+02  0.37469096408E+02  0.43910273138E+02  0.00000000000E+00 0.  1.
         21    1    1    2  504  502  0.50088409536E+01 -0.22340331551E+02 -0.77270378524E+02  0.80590882231E+02  0.00000000000E+00 0.  1.
</event>
<event>
 4    1  0.2967296E+006  0.2369280E+02  0.7546771E-02  0.1483977E+00
         21   -1    0    0  504  501  0.00000000000E+00  0.00000000000E+00  0.85057981653E+02  0.85057981653E+02  0.00000000000E+00 0.  1.
         21   -1    0    0  501  502 -0.00000000000E+00 -0.00000000000E+00 -0.84764630702E+01  0.84764630702E+01  0.00000000000E+00 0.  1.
         21    1    1    2  503  502  0.22828197439E+02  0.63420884121E+01  0.16284283623E+02  0.28749375243E+02  0.00000000000E+00 0.  1.
         21    1    1    2  504  503 -0.22828197439E+02 -0.63420884121E+01  0.60297234960E+02  0.64785069480E+02  0.00000000000E+00 0.  1.
</event>
<event>
 4    1  0.2967296E+006  0.2538319E+02  0.7546771E-02  0.1464562E+00
         21   -1    0    0  503  501  0.00000000000E+00  0.00000000000E+00  0.99984295991E+00  0.99984295991E+00  0.00000000000E+00 0.  1.
         21   -1    0    0  501  502 -0.00000000000E+00 -0.00000000000E+00 -0.64452839668E+03  0.64452839668E+03  0.00000000000E+00 0.  1.
         21    1    1    2  503  504 -0.46877303408E+01  0.24946576627E+02 -0.31734741624E+03  0.31836094153E+03  0.00000000000E+00 0.  1.
         21    1    1    2  504  502  0.46877303408E+01 -0.24946576627E+02 -0.32618113748E+03  0.32716729810E+03  0.00000000000E+00 0.  1.
</event>
<event>
 4    1  0.2967296E+006  0.3787715E+02  0.7546771E-02  0.1361396E+00
         21   -1    0    0  504  501  0.00000000000E+00  0.00000000000E+00  0.28065743363E+01  0.28065743363E+01  0.00000000000E+00 0.  1.
         21   -1    0    0  503  502 -0.00000000000E+00 -0.00000000000E+00 -0.58738654765E+03  0.58738654765E+03  0.00000000000E+00 0.  1.
         21    1    1    2  503  501  0.34857702345E+02 -0.14819547815E+02 -0.18600196033E+03  0.18981940801E+03  0.00000000000E+00 0.  1.
         21    1    1    2  504  502 -0.34857702345E+02  0.14819547815E+02 -0.39857801298E+03  0.40037371397E+03  0.00000000000E+00 0.  1.
</event>
<event>
 4    1  0.2967296E+006  0.2318434E+02  0.7546771E-02  0.1490196E+00
         21   -1    0    0  503  501  0.00000000000E+00  0.00000000000E+00  0.15358656677E+03  0.15358656677E+03  0.00000000000E+00 0.  1.
         21   -1    0    0  504  502 -0.00000000000E+00 -0.00000000000E+00 -0.73335979433E+01  0.73335979433E+01  0.00000000000E+00 0. -1.
         21    1    1    2  503  502 -0.17926918712E+02  0.14701666149E+02  0.13130194140E+03  0.13333309123E+03  0.00000000000E+00 0.  1.
         21    1    1    2  504  501  0.17926918712E+02 -0.14701666149E+02  0.14951027424E+02  0.27587073479E+02  0.00000000000E+00 0. -1.
</event>
<event>
 4    1  0.2967296E+006  0.2067197E+02  0.7546771E-02  0.1524000E+00
         21   -1    0    0  503  501  0.00000000000E+00  0.00000000000E+00  0.31775968552E+01  0.31775968552E+01  0.00000000000E+00 0. -1.
         21   -1    0    0  504  502 -0.00000000000E+00 -0.00000000000E+00 -0.34096015161E+03  0.34096015161E+03  0.00000000000E+00 0. -1.
         21    1    1    2  503  502  0.14764138971E+02  0.14468957441E+02 -0.30279333247E+03  0.30349815933E+03  0.00000000000E+00 0. -1.
         21    1    1    2  504  501 -0.14764138971E+02 -0.14468957441E+02 -0.34989222289E+02  0.40639589139E+02  0.00000000000E+00 0. -1.
</event>
<event>
 4    1  0.2967296E+006  0.2028396E+02  0.7546771E-02  0.1529738E+00
         21   -1    0    0  503  501  0.00000000000E+00  0.00000000000E+00  0.43760147875E+03  0.43760147875E+03  0.00000000000E+00 0.  1.
         21   -1    0    0  501  502 -0.00000000000E+00 -0.00000000000E+00 -0.69057778879E+02  0.69057778879E+02  0.00000000000E+00 0.  1.
         21    1    1    2  503  504 -0.91565662307E+01  0.18099625252E+02  0.43587104080E+03  0.43634275902E+03  0.00000000000E+00 0.  1.
         21    1    1    2  504  502  0.91565662307E+01 -0.18099625252E+02 -0.67327340933E+02  0.70316498608E+02  0.00000000000E+00 0.  1.
</event>
<event>
 4    1  0.2967296E+006  0.2013665E+02  0.7546771E-02  0.1531957E+00
         21   -1    0    0  502  501  0.00000000000E+00  0.00000000000E+00  0.57690476939E+01  0.57690476939E+01  0.00000000000E+00 0.  1.
         21   -1    0    0  503  502 -0.00000000000E+00 -0.00000000000E+00 -0.11369350597E+03  0.11369350597E+03  0.00000000000E+00 0. -1.
         21    1    1    2  503  504 -0.11944414515E+02 -0.16211593052E+02 -0.90869767851E+02  0.93074161273E+02  0.00000000000E+00 0. -1.
         21    1    1    2  504  501  0.11944414515E+02  0.16211593052E+02 -0.17054690420E+02  0.26388392386E+02  0.00000000000E+00 0.  1.
</event>
<event>
 4    1  0.2967296E+006  0.2395279E+02  0.7546771E-02  0.1480868E+00
         21   -1    0    0  503  501  0.00000000000E+00  0.00000000000E+00  0.93318195596E+01  0.93318195596E+01  0.00000000000E+00 0.  1.
         21   -1    0    0  504  502 -0.00000000000E+00 -0.00000000000E+00 -0.89308639743E+02  0.89308639743E+02  0.00000000000E+00 0.  1.
         21    1    1    2  503  502 -0.23923339718E+02 -0.11873670702E+01 -0.67518724161E+02  0.71641567097E+02  0.00000000000E+00 0.  1.
         21    1    1    2  504  501  0.23923339718E+02  0.11873670702E+01 -0.12458096023E+02  0.26998892206E+02  0.00000000000E+00 0.  1.
</event>
<event>
 4    1  0.2967296E+006  0.2264818E+02  0.7546771E-02  0.1496964E+00
         21   -1    0    0  504  501  0.00000000000E+00  0.00000000000E+00  0.54054065843E+02  0.54054065843E+02  0.00000000000E+00 0. -1.
         21   -1    0    0  503  502 -0.00000000000E+00 -0.00000000000E+00 -0.11924220604E+02  0.11924220604E+02  0.00000000000E+00 0.  1.
         21    1    1    2  503  501  0.10918794366E+02 -0.19842383479E+02  0.35971920141E+02  0.42507873285E+02  0.00000000000E+00 0. -1.
         21    1    1    2  504  502 -0.10918794366E+02  0.19842383479E+02  0.61579250972E+01  0.23470413163E+02  0.00000000000E+00 0.  1.
</event>
<event>
 4    1  0.2967296E+006  0.2157855E+02  0.7546771E-02  0.1511163E+00
         21   -1    0    0  503  501  0.00000000000E+00  0.00000000000E+00  0.93562850315E+02  0.93562850315E+02  0.00000000000E+00 0. -1.
         21   -1    0    0  504  502 -0.00000000000E+00 -0.00000000000E+00 -0.11151316563E+03  0.11151316563E+03  0.00000000000E+00 0. -1.
         21    1    1    2  503  502 -0.18259674330E+02 -0.11498617137E+02  0.91248662734E+02  0.93765411285E+02  0.00000000000E+00 0. -1.
         21    1    1    2  504  501  0.18259674330E+02  0.11498617137E+02 -0.10919897805E+03  0.11131060466E+03  0.00000000000E+00 0. -1.
</event>
<event>
 4    1  0.2967296E+006  0.5999633E+02  0.7546771E-02  0.1259845E+00
         21   -1    0    0  504  501  0.00000000000E+00  0.00000000000E+00  0.37908768123E+01  0.37908768123E+01  0.00000000000E+00 0. -1.
         21   -1    0    0  503  502 -0.00000000000E+00 -0.00000000000E+00 -0.18414950331E+04  0.18414950331E+04  0.00000000000E+00 0.  1.
         21    1    1    2  503  501 -0.59842797126E+02  0.42893928245E+01 -0.27672380118E+03  0.28315299998E+03  0.00000000000E+00 0. -1.
         21    1    1    2  504  502  0.59842797126E+02 -0.42893928245E+01 -0.15609803551E+04  0.15621329099E+04  0.00000000000E+00 0.  1.
</event>
<event>
 4    1  0.2967296E+006  0.2283231E+02  0.7546771E-02  0.1494615E+00
         21   -1    0    0  504  501  0.00000000000E+00  0.00000000000E+00  0.23211863028E+03  0.23211863028E+03  0.00000000000E+00 0.  1.
         21   -1    0    0  503  502 -0.00000000000E+00 -0.00000000000E+00 -0.42797829769E+01  0.42797829769E+01  0.00000000000E+00 0.  1.
         21    1    1    2  503  501 -0.22707874701E+02  0.23805199409E+01  0.19540242715E+03  0.19673185554E+03  0.00000000000E+00 0.  1.
         21    1    1    2  504  502  0.22707874701E+02 -0.23805199409E+01  0.32436420152E+02  0.39666557715E+02  0.00000000000E+00 0.  1.
</event>
<event>
 4    1  0.2967296E+006  0.2021016E+02  0.7546771E-02  0.1530847E+00
         21   -1    0    0  502  501  0.00000000000E+00  0.00000000000E+00  0.40559672222E+03  0.40559672222E+03  0.00000000000E+00 0.  1.
         21   -1    0    0  503  502 -0.00000000000E+00 -0.00000000000E+00 -0.10930362770E+01  0.10930362770E+01  0.00000000000E+00 0.  1.
         21    1    1    2  503  504  0.68984607766E+01 -0.18996358658E+02  0.14521355472E+03  0.14661318794E+03  0.00000000000E+00 0.  1.
         21    1    1    2  504  501 -0.68984607766E+01  0.18996358658E+02  0.25929013122E+03  0.26007657056E+03  0.00000000000E+00 0.  1.
</event>
<event>
 4    1  0.2967296E+006  0.3286776E+02  0.7546771E-02  0.1396207E+00
         21   -1    0    0  503  501  0.00000000000E+00  0.00000000000E+00  0.54221589940E+02  0.54221589940E+02  0.00000000000E+00 0.  1.
         21   -1    0    0  501  502 -0.00000000000E+00 -0.00000000000E+00 -0.21907052194E+02  0.21907052194E+02  0.00000000000E+00 0.  1.
         21    1    1    2  503  504 -0.32280653118E+01  0.32708851787E+02  0.27610729828E+02  0.42926003687E+02  0.00000000000E+00 0.  1.
         21    1    1    2  504  502  0.32280653118E+01 -0.32708851787E+02  0.47038079184E+01  0.33202638447E+02  0.00000000000E+00 0.  1.
</event>
<event>
 4    1  0.2967296E+006  0.7240418E+02  0.7546771E-02  0.1222672E+00
         21   -1    0    0  503  501  0.00000000000E+00  0.00000000000E+00  0.18502347273E+03  0.18502347273E+03  0.00000000000E+00 0. -1.
         21   -1    0    0  504  502 -0.00000000000E+00 -0.00000000000E+00 -0.13240747726E+03  0.13240747726E+03  0.00000000000E+00 0. -1.
         21    1    1    2  503  502  0.18190999852E+02 -0.70081753424E+02  0.16702094843E+03  0.18203945136E+03  0.00000000000E+00 0. -1.
         21    1    1    2  504  501 -0.18190999852E+02  0.70081753424E+02 -0.11440495295E+03  0.13539149862E+03  0.00000000000E+00 0. -1.
</event>
<event>
 4    1  0.2967296E+006  0.3018641E+02  0.7546771E-02  0.1417983E+00
         21   -1    0    0  502  501  0.00000000000E+00  0.00000000000E+00  0.46134545287E+03  0.46134545287E+03  0.00000000000E+00 0. -1.
         21   -1    0    0  503  502 -0.00000000000E+00 -0.00000000000E+00 -0.15005893833E+03  0.15005893833E+03  0.00000000000E+00 0.  1.
         21    1    1    2  503  504  0.28802261235E+02 -0.90359998960E+01 -0.14804038759E+03  0.15108665032E+03  0.00000000000E+00 0.  1.
         21    1    1    2  504  501 -0.28802261235E+02  0.90359998960E+01  0.45932690213E+03  0.46031774088E+03  0.00000000000E+00 0. -1.
</event>
<event>
 4    1  0.2967296E+006  0.3027366E+02  0.7546771E-02  0.1417233E+00
         21   -1    0    0  502  501  0.00000000000E+00  0.00000000000E+00  0.18523041282E+03  0.18523041282E+03  0.00000000000E+00 0. -1.
         21   -1    0    0  503  502 -0.00000000000E+00 -0.00000000000E+00 -0.55844434223E+01  0.55844434223E+01  0.00000000000E+00 0. -1.
         21    1    1    2  503  504 -0.20932031011E+02  0.21871085044E+02  0.57610838708E+02  0.65080742312E+02  0.00000000000E+00 0. -1.
         21    1    1    2  504  501  0.20932031011E+02 -0.21871085044E+02  0.12203513069E+03  0.12573411393E+03  0.00000000000E+00 0. -1.
</event>
<event>
 4    1  0.2967296E+006  0.1335195E+03  0.7546771E-02  0.1115819E+00
         21   -1    0    0  504  501  0.00000000000E+00  0.00000000000E+00  0.54684684537E+02  0.54684684537E+02  0.00000000000E+00 0. -1.
         21   -1    0    0  503  502 -0.00000000000E+00 -0.00000000000E+00 -0.51452051925E+03  0.51452051925E+03  0.00000000000E+00 0. -1.
         21    1    1    2  503  501 -0.24573495370E+02 -0.13123868752E+03 -0.40218873689E+03  0.42377261575E+03  0.00000000000E+00 0. -1.
         21    1    1    2  504  502  0.24573495370E+02  0.13123868752E+03 -0.57647097822E+02  0.14543258804E+03  0.00000000000E+00 0. -1.
</event>
<event>
 4    1  0.2967296E+006  0.2013050E+02  0.7546771E-02  0.1532050E+00
         21   -1    0    0  504  501  0.00000000000E+00  0.00000000000E+00  0.10192019192E+03  0.10192019192E+03  0.00000000000E+00 0.  1.
         21   -1    0    0  503  502 -0.00000000000E+00 -0.00000000000E+00 -0.48450327304E+01  0.48450327304E+01  0.00000000000E+00 0.  1.
         21    1    1    2  503  501 -0.14523206636E+02 -0.13939636716E+02  0.25929491095E+02  0.32826445303E+02  0.00000000000E+00 0.  1.
         21    1    1    2  504  502  0.14523206636E+02  0.13939636716E+02  0.71145668091E+02  0.73938779344E+02  0.00000000000E+00 0.  1.
</event>
<event>
 4    1  0.2967296E+006  0.2088635E+02  0.7546771E-02  0.1520894E+00
         21   -1    0    0  504  501  0.00000000000E+00  0.00000000000E+00  0.15596952306E+03  0.15596952306E+03  0.00000000000E+00 0. -1.
         21   -1    0    0  503  502 -0.00000000000E+00 -0.00000000000E+00 -0.78769067520E+01  0.78769067520E+01  0.00000000000E+00 0. -1.
         21    1    1    2  503  501  0.18181332036E+02 -0.10280028259E+02  0.82564565009E+01  0.22459049169E+02  0.00000000000E+00 0. -1.
         21    1    1    2  504  502 -0.18181332036E+02  0.10280028259E+02  0.13983615981E+03  0.14138738065E+03  0.00000000000E+00 0. -1.
</event>
<event>
 4    1  0.2967296E+006  0.2952209E+02  0.7546771E-02  0.1423795E+00
         21   -1    0    0  503  501  0.00000000000E+00  0.00000000000E+00  0.24313151889E+02  0.24313151889E+02  0.00000000000E+00 0. -1.
         21   -1    0    0  504  502 -0.00000000000E+00 -0.00000000000E+00 -0.93190998435E+03  0.93190998435E+03  0.00000000000E+00 0.  1.
         21    1    1    2  503  502 -0.16806387902E+02  0.24271367175E+02 -0.92262424957E+03  0.92309645207E+03  0.00000000000E+00 0.  1.
         21    1    1    2  504  501  0.16806387902E+02 -0.24271367175E+02  0.15027417108E+02  0.33126684165E+02  0.00000000000E+00 0. -1.
</event>
<event>
 4    1  0.2967296E+006  0.2218028E+02  0.7546771E-02  0.1503056E+00
         21   -1    0    0  503  501  0.00000000000E+00  0.00000000000E+00  0.38590060431E+02  0.38590060431E+02  0.00000000000E+00 0.  1.
         21   -1    0    0  504  502 -0.00000000000E+00 -0.00000000000E+00 -0.12772464964E+02  0.12772464964E+02  0.00000000000E+00 0.  1.
         21    1    1    2  503  502 -0.20860527583E+02 -0.75367995255E+01  0.14021471128E+02  0.26240552790E+02  0.00000000000E+00 0.  1.
         21    1    1    2  504  501  0.20860527583E+02  0.75367995255E+01  0.11796124339E+02  0.25121972605E+02  0.00000000000E+00 0.  1.
</event>
<event>
 4    1  0.2967296E+006  0.3328839E+02  0.7546771E-02  0.1393013E+00
         21   -1    0    0  504  501  0.00000000000E+00  0.00000000000E+00  0.33502626562E+02  0.33502626562E+02  0.00000000000E+00 0. -1.
         21   -1    0    0  503  502 -0.00000000000E+00 -0.00000000000E+00 -0.33086932966E+02  0.33086932966E+02  0.00000000000E+00 0. -1.
         21    1    1    2  503  501  0.48256729031E+01 -0.32936758322E+02  0.82591345713E+00  0.33298638122E+02  0.00000000000E+00 0. -1.
         21    1    1    2  504  502 -0.48256729031E+01  0.32936758322E+02 -0.41021986201E+00  0.33290921406E+02  0.00000000000E+00 0. -1.
</event>
<event>
 4    1  0.2967296E+006  0.2759888E+02  0.7546771E-02  0.1441683E+00
         21   -1    0    0  503  501  0.00000000000E+00  0.00000000000E+00  0.13545977202E+03  0.13545977202E+03  0.00000000000E+00 0. -1.
         21   -1    0    0  504  502 -0.00000000000E+00 -0.00000000000E+00 -0.17133258651E+03  0.17133258651E+03  0.00000000000E+00 0.  1.
         21    1    1    2  503  502  0.24312579839E+02  0.13061256071E+02  0.13292157676E+03  0.13575655975E+03  0.00000000000E+00 0. -1.
         21    1    1    2  504  501 -0.24312579839E+02 -0.13061256071E+02 -0.16879439124E+03  0.17103579878E+03  0.00000000000E+00 0.  1.
</event>
<event>
 4    1  0.2967296E+006  0.2042525E+02  0.7546771E-02  0.1527631E+00
         21   -1    0    0  502  501  0.00000000000E+00  0.00000000000E+00  0.12179901663E+03  0.12179901663E+03  0.00000000000E+00 0. -1.
         21   -1    0    0  503  502 -0.00000000000E+00 -0.00000000000E+00 -0.31230346101E+02  0.31230346101E+02  0.00000000000E+00 0.  1.
         21    1    1    2  503  504  0.15094763656E+02  0.13760044809E+02 -0.26912583454E+02  0.33785764326E+02  0.00000000000E+00 0.  1.
         21    1    1    2  504  501 -0.15094763656E+02 -0.13760044809E+02  0.11748125398E+03  0.11924359840E+03  0.00000000000E+00 0. -1.
</event>
<event>
 4    1  0.2967296E+006  0.2790857E+02  0.7546771E-02  0.1438689E+00
         21   -1    0    0  503  501  0.00000000000E+00  0.00000000000E+00  0.11491939645E+02  0.11491939645E+02  0.00000000000E+00 0.  1.
         21   -1    0    0  504  502 -0.00000000000E+00 -0.00000000000E+00 -0.16344461877E+03  0.16344461877E+03  0.00000000000E+00 0.  1.
         21    1    1    2  503  502  0.43586990387E+01 -0.27566098914E+02 -0.14289511328E+03  0.14559499122E+03  0.00000000000E+00 0.  1.
         21    1    1    2  504  501 -0.43586990387E+01  0.27566098914E+02 -0.90575658363E+01  0.29341567196E+02  0.00000000000E+00 0.  1.
</event>
<event>
 4    1  0.2967296E+006  0.2284998E+02  0.7546771E-02  0.1494391E+00
         21   -1    0    0  503  501  0.00000000000E+00  0.00000000000E+00  0.62188953505E+02  0.62188953505E+02  0.00000000000E+00 0.  1.
         21   -1    0    0  504  502 -0.00000000000E+00 -0.00000000000E+00 -0.26953440958E+02  0.26953440958E+02  0.00000000000E+00 0. -1.
         21    1    1    2  503  502  0.85931186995E+01  0.21172623266E+02  0.54601374243E+02  0.59189794172E+02  0.00000000000E+00 0.  1.
         21    1    1    2  504  501 -0.85931186995E+01 -0.21172623266E+02 -0.19365861695E+02  0.29952600290E+02  0.00000000000E+00 0. -1.
</event>
<event>
 4    1  0.2967296E+006  0.2073216E+02  0.7546771E-02  0.1523124E+00
         21   -1    0    0  502  501  0.00000000000E+00  0.00000000000E+00  0.41329412968E+02  0.41329412968E+02  0.00000000000E+00 0.  1.
         21   -1    0    0  503  502 -0.00000000000E+00 -0.00000000000E+00 -0.12390624694E+03  0.12390624694E+03  0.00000000000E+00 0.  1.
         21    1    1    2  503  504  0.11732441425E+02  0.17093045797E+02 -0.12036305751E+03  0.12213553131E+03  0.00000000000E+00 0.  1.
         21    1    1    2  504  501 -0.11732441425E+02 -0.17093045797E+02  0.37786223532E+02  0.43100128599E+02  0.00000000000E+00 0.  1.
</event>
<event>
 4    1  0.2967296E+006  0.4044714E+02  0.7546771E-02  0.1345885E+00
         21   -1    0    0  503  501  0.00000000000E+00  0.00000000000E+00  0.15653179152E+02  0.15653179152E+02  0.00000000000E+00 0.  1.
         21   -1    0    0  504  502 -0.00000000000E+00 -0.00000000000E+00 -0.29751191204E+03  0.29751191204E+03  0.00000000000E+00 0.  1.
         21    1    1    2  503  502  0.37519958682E+02  0.15107077994E+02 -0.14814044435E+02  0.43074667933E+02  0.00000000000E+00 0.  1.
         21    1    1    2  504  501 -0.37519958682E+02 -0.15107077994E+02 -0.26704468845E+03  0.27009042326E+03  0.00000000000E+00 0.  1.
</event>
<event>
 4    1  0.2967296E+006  0.3562751E+02  0.7546771E-02  0.1376205E+00
         21   -1    0    0  504  501  0.00000000000E+00  0.00000000000E+00  0.12486327147E+03  0.12486327147E+03  0.00000000000E+00 0. -1.
         21   -1    0    0  503  502 -0.00000000000E+00 -0.00000000000E+00 -0.11122323998E+02  0.11122323998E+02  0.00000000000E+00 0. -1.
         21    1    1    2  503  501  0.29910946591E+02 -0.19355994183E+02  0.76811238736E+02  0.84671634170E+02  0.00000000000E+00 0. -1.
         21    1    1    2  504  502 -0.29910946591E+02  0.19355994183E+02  0.36929708737E+02  0.51313961299E+02  0.00000000000E+00 0. -1.
</event>
<event>
 4    1  0.2967296E+006  0.2348257E+02  0.7546771E-02  0.1486526E+00
         21   -1    0    0  502  501  0.00000000000E+00  0.00000000000E+00  0.49690280138E+01  0.49690280138E+01  0.00000000000E+00 0.  1.
         21   -1    0    0  503  502 -0.00000000000E+00 -0.00000000000E+00 -0.48983795410E+03  0.48983795410E+03  0.00000000000E+00 0. -1.
         21    1    1    2  503  504  0.19657091521E+02 -0.12846396458E+02 -0.46001570670E+03  0.46061467797E+03  0.00000000000E+00 0. -1.
         21    1    1    2  504  501 -0.19657091521E+02  0.12846396458E+02 -0.24853219391E+02  0.34192304150E+02  0.00000000000E+00 0.  1.
</event>
<event>
 4    1  0.2967296E+006  0.2191506E+02  0.7546771E-02  0.1506590E+00
         21   -1    0    0  504  501  0.00000000000E+00  0.00000000000E+00  0.77740650182E+02  0.77740650182E+02  0.00000000000E+00 0.  1.
         21   -1    0    0  503  502 -0.00000000000E+00 -0.00000000000E+00 -0.76306488277E+01  0.76306488277E+01  0.00000000000E+00 0.  1.
         21    1    1    2  503  501 -0.21691206336E+02  0.31243151948E+01  0.16429649343E+02  0.27389836715E+02  0.00000000000E+00 0.  1.
         21    1    1    2  504  502  0.21691206336E+02 -0.31243151948E+01  0.53680352011E+02  0.57981462294E+02  0.00000000000E+00 0.  1.
</event>
<event>
 4    1  0.2967296E+006  0.2200496E+02  0.7546771E-02  0.1505386E+00
         21   -1    0    0  504  501  0.00000000000E+00  0.00000000000E+00  0.99405360123E+01  0.99405360123E+01  0.00000000000E+00 0. -1.
         21   -1    0    0  503  502 -0.00000000000E+00 -0.00000000000E+00 -0.39470210366E+03  0.39470210366E+03  0.00000000000E+00 0.  1.
         21    1    1    2  503  501  0.17575410648E+02  0.13240968781E+02 -0.29550022388E+01  0.22202485265E+02  0.00000000000E+00 0. -1.
         21    1    1    2  504  502 -0.17575410648E+02 -0.13240968781E+02 -0.38180656541E+03  0.38244015441E+03  0.00000000000E+00 0.  1.
</event>
<event>
 4    1  0.2967296E+006  0.2168772E+02  0.7546771E-02  0.1509668E+00
         21   -1    0    0  504  501  0.00000000000E+00  0.00000000000E+00  0.11264159635E+03  0.11264159635E+03  0.00000000000E+00 0. -1.
         21   -1    0    0  503  502 -0.00000000000E+00 -0.00000000000E+00 -0.73369631001E+01  0.73369631001E+01  0.00000000000E+00 0.  1.
         21    1    1    2  503  501 -0.11657192075E+01 -0.21656370177E+02  0.92029617999E+02  0.94550557161E+02  0.00000000000E+00 0. -1.
         21    1    1    2  504  502  0.11657192075E+01  0.21656370177E+02  0.13275015253E+02  0.25428002291E+02  0.00000000000E+00 0.  1.
</event>
<event>
 4    1  0.2967296E+006  0.2187681E+02  0.7546771E-02  0.1507105E+00
         21   -1    0    0  503  501  0.00000000000E+00  0.00000000000E+00  0.31885042112E+01  0.31885042112E+01  0.00000000000E+00 0.  1.
         21   -1    0    0  501  502 -0.00000000000E+00 -0.00000000000E+00 -0.60477038208E+03  0.60477038208E+03  0.00000000000E+00 0.  1.
         21    1    1    2  503  504  0.20588432842E+02  0.73966947194E+01 -0.37220157740E+02  0.43173311222E+02  0.00000000000E+00 0.  1.
         21    1    1    2  504  502 -0.20588432842E+02 -0.73966947194E+01 -0.56436172013E+03  0.56478557507E+03  0.00000000000E+00 0.  1.
</event>
<event>
 4    1  0.2967296E+006  0.2096454E+02  0.7546771E-02  0.1519772E+00
         21   -1    0    0  502  501  0.00000000000E+00  0.00000000000E+00  0.25916064165E+02  0.25916064165E+02  0.00000000000E+00 0.  1.
         21   -1    0    0  504  502 -0.00000000000E+00 -0.00000000000E+00 -0.71872982305E+02  0.71872982305E+02  0.00000000000E+00 0. -1.
         21    1    1    2  503  501 -0.18914764978E+02 -0.90412053839E+01  0.19759981323E+02  0.28809175463E+02  0.00000000000E+00 0.  1.
         21    1    1    2  504  503  0.18914764978E+02  0.90412053839E+01 -0.65716899464E+02  0.68979871007E+02  0.00000000000E+00 0. -1.
</event>
<event>
 4    1  0.2967296E+006  0.3012991E+02  0.7546771E-02  0.1418471E+00
         21   -1    0    0  504  501  0.00000000000E+00  0.00000000000E+00  0.77611390307E+02  0.77611390307E+02  0.00000000000E+00 0. -1.
         21   -1    0    0  503  502 -0.00000000000E+00 -0.00000000000E+00 -0.10929534709E+03  0.10929534709E+03  0.00000000000E+00 0.  1.
         21    1    1    2  503  501  0.19855039752E+02 -0.22662505004E+02  0.72469184718E+02  0.78483083975E+02  0.00000000000E+00 0. -1.
         21    1    1    2  504  502 -0.19855039752E+02  0.22662505004E+02 -0.10415314150E+03  0.10842365342E+03  0.00000000000E+00 0.  1.
</event>
<event>
 4    1  0.2967296E+006  0.2453073E+02  0.7546771E-02  0.1474122E+00
         21   -1    0    0  504  501  0.00000000000E+00  0.00000000000E+00  0.33696421610E+01  0.33696421610E+01  0.00000000000E+00 0.  1.
         21   -1    0    0  501  502 -0.00000000000E+00 -0.00000000000E+00 -0.17983338401E+03  0.17983338401E+03  0.00000000000E+00 0.  1.
         21    1    1    2  503  502 -0.24274758794E+02 -0.35344861833E+01 -0.80589807458E+02  0.84240569640E+02  0.00000000000E+00 0.  1.
         21    1    1    2  504  503  0.24274758794E+02  0.35344861833E+01 -0.95873934392E+02  0.98962456532E+02  0.00000000000E+00 0.  1.
</event>
<event>
 4    1  0.2967296E+006  0.2023544E+02  0.7546771E-02  0.1530467E+00
         21   -1    0    0  504  501  0.00000000000E+00  0.00000000000E+00  0.20785943790E+02  0.20785943790E+02  0.00000000000E+00 0.  1.
         21   -1    0    0  501  502 -0.00000000000E+00 -0.00000000000E+00 -0.47740961523E+02  0.47740961523E+02  0.00000000000E+00 0.  1.
         21    1    1    2  503  502  0.18417898100E+02  0.83817729607E+01 -0.39736964623E+02  0.44592594070E+02  0.00000000000E+00 0.  1.
         21    1    1    2  504  503 -0.18417898100E+02 -0.83817729607E+01  0.12781946890E+02  0.23934311243E+02  0.00000000000E+00 0.  1.
</event>
<event>
 4    1  0.2967296E+006  0.2966030E+02  0.7546771E-02  0.1422572E+00
         21   -1    0    0  504  501  0.00000000000E+00  0.00000000000E+00  0.71362257930E+00  0.71362257930E+00  0.00000000000E+00 0. -1.
         21   -1    0    0  503  502 -0.00000000000E+00 -0.00000000000E+00 -0.14652467504E+04  0.14652467504E+04  0.00000000000E+00 0. -1.
         21    1    1    2  503  501  0.25064867843E+02 -0.15858302975E+02 -0.44030513452E+03  0.44130300798E+03  0.00000000000E+00 0. -1.
         21    1    1    2  504  502 -0.25064867843E+02  0.15858302975E+02 -0.10242279933E+04  0.10246573650E+04  0.00000000000E+00 0. -1.
</event>
<event>
 4    1  0.2967296E+006  0.2389813E+02  0.7546771E-02  0.1481518E+00
         21   -1    0    0  503  501  0.00000000000E+00  0.00000000000E+00  0.16105714264E+03  0.16105714264E+03  0.00000000000E+00 0. -1.
         21   -1    0    0  504  502 -0.00000000000E+00 -0.00000000000E+00 -0.30772824942E+02  0.30772824942E+02  0.00000000000E+00 0. -1.
         21    1    1    2  503  502 -0.63249157231E+01 -0.23045958472E+02 -0.25077394622E+02  0.34640965371E+02  0.00000000000E+00 0. -1.
         21    1    1    2  504  501  0.63249157231E+01  0.23045958472E+02  0.15536171232E+03  0.15718900221E+03  0.00000000000E+00 0. -1.
</event>
<event>
 4    1  0.2967296E+006  0.2152582E+02  0.7546771E-02  0.1511888E+00
         21   -1    0    0  504  501  0.00000000000E+00  0.00000000000E+00  0.66915627557E+01  0.66915627557E+01  0.00000000000E+00 0. -1.
         21   -1    0    0  501  502 -0.00000000000E+00 -0.00000000000E+00 -0.14157512571E+04  0.14157512571E+04  0.00000000000E+00 0.  1.
         21    1    1    2  503  502 -0.11233927268E+02 -0.18361915079E+02 -0.13981399984E+04  0.13983056948E+04  0.00000000000E+00 0.  1.
         21    1    1    2  504  503  0.11233927268E+02  0.18361915079E+02 -0.10919696016E+02  0.24137125105E+02  0.00000000000E+00 0. -1.
</event>
<event>
 4    1  0.2967296E+006  0.2135945E+02  0.7546771E-02  0.1514194E+00
         21   -1    0    0  503  501  0.00000000000E+00  0.00000000000E+00  0.10064056739E+02  0.10064056739E+02  0.00000000000E+00 0. -1.
         21   -1    0    0  504  502 -0.00000000000E+00 -0.00000000000E+00 -0.69374894674E+02  0.69374894674E+02  0.00000000000E+00 0.  1.
         21    1    1    2  503  502  0.21343630051E+02  0.82185310086E+00 -0.62727666638E+01  0.22261482158E+02  0.00000000000E+00 0. -1.
         21    1    1    2  504  501 -0.21343630051E+02 -0.82185310086E+00 -0.53038071271E+02  0.57177469255E+02  0.00000000000E+00 0.  1.
</event>
<event>
 4    1  0.2967296E+006  0.2019651E+02  0.7546771E-02  0.1531053E+00
         21   -1    0    0  503  501  0.00000000000E+00  0.00000000000E+00  0.15203465955E+03  0.15203465955E+03  0.00000000000E+00 0. -1.
         21   -1    0    0  501  502 -0.00000000000E+00 -0.00000000000E+00 -0.31408260188E+01  0.31408260188E+01  0.00000000000E+00 0. -1.
         21    1    1    2  503  504 -0.17825368069E+02 -0.94950213167E+01  0.10407148505E+03  0.10601308022E+03  0.00000000000E+00 0. -1.
         21    1    1    2  504  502  0.17825368069E+02  0.94950213167E+01  0.44822348482E+02  0.49162405353E+02  0.00000000000E+00 0. -1.
</event>
<event>
 4    1  0.2967296E+006  0.2895808E+02  0.7546771E-02  0.1428872E+00
         21   -1    0    0  504  501  0.00000000000E+00  0.00000000000E+00  0.12380342453E+04  0.12380342453E+04  0.00000000000E+00 0. -1.
         21   -1    0    0  501  502 -0.00000000000E+00 -0.00000000000E+00 -0.15284137230E+01  0.15284137230E+01  0.00000000000E+00 0.  1.
         21    1    1    2  503  502 -0.94628319745E+01 -0.27368327421E+02  0.15576378603E+03  0.15843272254E+03  0.00000000000E+00 0.  1.
         21    1    1    2  504  503  0.94628319745E+01  0.27368327421E+02  0.10807420456E+04  0.10811299365E+04  0.00000000000E+00 0. -1.
</event>
<event>
 4    1  0.2967296E+006  0.2663472E+02  0.7546771E-02  0.1451312E+00
         21   -1    0    0  504  501  0.00000000000E+00  0.00000000000E+00  0.23504697970E+02  0.23504697970E+02  0.00000000000E+00 0. -1.
         21   -1    0    0  503  502 -0.00000000000E+00 -0.00000000000E+00 -0.26207637825E+03  0.26207637825E+03  0.00000000000E+00 0.  1.
         21    1    1    2  503  501 -0.32877797707E+01  0.26431020585E+02  0.15031170467E+02  0.30583401227E+02  0.00000000000E+00 0. -1.
         21    1    1    2  504  502  0.32877797707E+01 -0.26431020585E+02 -0.25360285075E+03  0.25499767499E+03  0.00000000000E+00 0.  1.
</event>
<event>
 4    1  0.2967296E+006  0.2146964E+02  0.7546771E-02  0.1512664E+00
         21   -1    0    0  503  501  0.00000000000E+00  0.00000000000E+00  0.14269021416E+03  0.14269021416E+03  0.00000000000E+00 0.  1.
         21   -1    0    0  504  502 -0.00000000000E+00 -0.00000000000E+00 -0.33019470812E+01  0.33019470812E+01  0.00000000000E+00 0.  1.
         21    1    1    2  503  502  0.11647807720E+02  0.18035353744E+02  0.80439790228E+02  0.83255662037E+02  0.00000000000E+00 0.  1.
         21    1    1    2  504  501 -0.11647807720E+02 -0.18035353744E+02  0.58948476856E+02  0.62736499209E+02  0.00000000000E+00 0.  1.
</event>
<event>
 4    1  0.2967296E+006  0.2868993E+02  0.7546771E-02  0.1431333E+00
         21   -1    0    0  502  501  0.00000000000E+00  0.00000000000E+00  0.46882609872E+03  0.46882609872E+03  0.00000000000E+00 0. -1.
         21   -1    0    0  504  502 -0.00000000000E+00 -0.00000000000E+00 -0.32371620659E+01  0.32371620659E+01  0.00000000000E+00 0. -1.
         21    1    1    2  503  501 -0.24592050749E+02  0.14776433747E+02  0.39246881106E+03  0.39351604746E+03  0.00000000000E+00 0. -1.
         21    1    1    2  504  503  0.24592050749E+02 -0.14776433747E+02  0.73120125597E+02  0.78547213328E+02  0.00000000000E+00 0. -1.
</event>
<event>
 4    1  0.2967296E+006  0.3237130E+02  0.7546771E-02  0.1400050E+00
         21   -1    0    0  504  501  0.00000000000E+00  0.00000000000E+00  0.67945378596E+01  0.67945378596E+01  0.00000000000E+00 0.  1.
         21   -1    0    0  501  502 -0.00000000000E+00 -0.00000000000E+00 -0.30847693650E+03  0.30847693650E+03  0.00000000000E+00 0.  1.
         21    1    1    2  503  502 -0.25273567714E+02 -0.20227406402E+02 -0.26231064168E+03  0.26430053714E+03  0.00000000000E+00 0.  1.
         21    1    1    2  504  503  0.25273567714E+02  0.20227406402E+02 -0.39371756960E+02  0.50970937218E+02  0.00000000000E+00 0.  1.
</event>
<event>
 4    1  0.2967296E+006  0.2534394E+02  0.7546771E-02  0.1464992E+00
         21   -1    0    0  504  501  0.00000000000E+00  0.00000000000E+00  0.18155684316E+02  0.18155684316E+02  0.00000000000E+00 0.  1.
         21   -1    0    0  501  502 -0.00000000000E+00 -0.00000000000E+00 -0.76033653267E+02  0.76033653267E+02  0.00000000000E+00 0. -1.
         21    1    1    2  503  502  0.20472170771E+01 -0.25261119727E+02 -0.63376219111E+02  0.68255845291E+02  0.00000000000E+00 0. -1.
         21    1    1    2  504  503 -0.20472170771E+01  0.25261119727E+02  0.54982501598E+01  0.25933492291E+02  0.00000000000E+00 0.  1.
</event>
<event>
 4    1  0.2967296E+006  0.2419916E+02  0.7546771E-02  0.1477965E+00
         21   -1    0    0  502  501  0.00000000000E+00  0.00000000000E+00  0.25545173206E+02  0.25545173206E+02  0.00000000000E+00 0.  1.
         21   -1    0    0  503  502 -0.00000000000E+00 -0.00000000000E+00 -0.20573726946E+03  0.20573726946E+03  0.00000000000E+00 0.  1.
         21    1    1    2  503  504 -0.16407543618E+02 -0.17787412271E+02 -0.19910444434E+03  0.20056963699E+03  0.00000000000E+00 0.  1.
         21    1    1    2  504  501  0.16407543618E+02  0.17787412271E+02  0.18912348087E+02  0.30712805685E+02  0.00000000000E+00 0.  1.
</event>
<event>
 4    1  0.2967296E+006  0.2257037E+02  0.7546771E-02  0.1497965E+00
         21   -1    0    0  502  501  0.00000000000E+00  0.00000000000E+00  0.22486568593E+02  0.22486568593E+02  0.00000000000E+00 0. -1.
         21   -1    0    0  504  502 -0.00000000000E+00 -0.00000000000E+00 -0.22230483367E+03  0.22230483367E+03  0.00000000000E+00 0. -1.
         21    1    1    2  503  501 -0.20610513055E+02 -0.91993688746E+01  0.16082523179E+02  0.27714061194E+02  0.00000000000E+00 0. -1.
         21    1    1    2  504  503  0.20610513055E+02  0.91993688746E+01 -0.21590078825E+03  0.21707734107E+03  0.00000000000E+00 0. -1.
</event>
<event>
 4    1  0.2967296E+006  0.2990887E+02  0.7546771E-02  0.1420390E+00
         21   -1    0    0  504  501  0.00000000000E+00  0.00000000000E+00  0.55324263214E+01  0.55324263214E+01  0.00000000000E+00 0. -1.
         21   -1    0    0  503  502 -0.00000000000E+00 -0.00000000000E+00 -0.22683330935E+03  0.22683330935E+03  0.00000000000E+00 0. -1.
         21    1    1    2  503  501 -0.28224856349E+02 -0.98943462296E+01 -0.48388590881E+02  0.56885818362E+02  0.00000000000E+00 0. -1.
         21    1    1    2  504  502  0.28224856349E+02  0.98943462296E+01 -0.17291229215E+03  0.17547991731E+03  0.00000000000E+00 0. -1.
</event>
<event>
 4    1  0.2967296E+006  0.2008405E+02  0.7546771E-02  0.1532755E+00
         21   -1    0    0  504  501  0.00000000000E+00  0.00000000000E+00  0.45619142678E+01  0.45619142678E+01  0.00000000000E+00 0. -1.
         21   -1    0    0  503  502 -0.00000000000E+00 -0.00000000000E+00 -0.22371372940E+03  0.22371372940E+03  0.00000000000E+00 0.  1.
         21    1    1    2  503  501 -0.50692396985E+01  0.19433781268E+02 -0.19833655926E+03  0.19935084596E+03  0.00000000000E+00 0.  1.
         21    1    1    2  504  502  0.50692396985E+01 -0.19433781268E+02 -0.20815255875E+02  0.28924797711E+02  0.00000000000E+00 0. -1.
</event>
<event>
 4    1  0.2967296E+006  0.2389352E+02  0.7546771E-02  0.1481573E+00
         21   -1    0    0  503  501  0.00000000000E+00  0.00000000000E+00  0.15626507260E+03  0.15626507260E+03  0.00000000000E+00 0.  1.
         21   -1    0    0  504  502 -0.00000000000E+00 -0.00000000000E+00 -0.75639187997E+02  0.75639187997E+02  0.00000000000E+00 0. -1.
         21    1    1    2  503  502 -0.71000742754E+01 -0.22814233610E+02 -0.72804260110E+02  0.76624804079E+02  0.00000000000E+00 0. -1.
         21    1    1    2  504  501  0.71000742754E+01  0.22814233610E+02  0.15343014472E+03  0.15527945652E+03  0.00000000000E+00 0.  1.
</event>
<event>
 4    1  0.2967296E+006  0.2775357E+02  0.7546771E-02  0.1440182E+00
         21   -1    0    0  504  501  0.00000000000E+00  0.00000000000E+00  0.12838303154E+04  0.12838303154E+04  0.00000000000E+00 0. -1.
         21   -1    0    0  503  502 -0.00000000000E+00 -0.00000000000E+00 -0.68283899315E+00  0.68283899315E+00  0.00000000000E+00 0. -1.
         21    1    1    2  503  501 -0.79693122172E+01 -0.26584785186E+02  0.41783393148E+03  0.41875464778E+03  0.00000000000E+00 0. -1.
         21    1    1    2  504  502  0.79693122172E+01  0.26584785186E+02  0.86531354489E+03  0.86575850657E+03  0.00000000000E+00 0. -1.
</event>
<event>
 4    1  0.2967296E+006  0.2400078E+02  0.7546771E-02  0.1480300E+00
         21   -1    0    0  504  501  0.00000000000E+00  0.00000000000E+00  0.10477738091E+04  0.10477738091E+04  0.00000000000E+00 0.  1.
         21   -1    0    0  503  502 -0.00000000000E+00 -0.00000000000E+00 -0.12566540716E+01  0.12566540716E+01  0.00000000000E+00 0. -1.
         21    1    1    2  503  501  0.20294684236E+02 -0.12812612323E+02  0.12986835816E+03  0.13206751188E+03  0.00000000000E+00 0. -1.
         21    1    1    2  504  502 -0.20294684236E+02  0.12812612323E+02  0.91664879688E+03  0.91696295130E+03  0.00000000000E+00 0.  1.
</event>
<event>
 4    1  0.2967296E+006  0.2464269E+02  0.7546771E-02  0.1472841E+00
         21   -1    0    0  504  501  0.00000000000E+00  0.00000000000E+00  0.36199360510E+02  0.36199360510E+02  0.00000000000E+00 0. -1.
         21   -1    0    0  501  502 -0.00000000000E+00 -0.00000000000E+00 -0.39797545439E+02  0.39797545439E+02  0.00000000000E+00 0.  1.
         21    1    1    2  503  502 -0.33006599831E+01  0.24420639900E+02 -0.30699889490E+02  0.39366803580E+02  0.00000000000E+00 0.  1.
         21    1    1    2  504  503  0.33006599831E+01 -0.24420639900E+02  0.27101704561E+02  0.36630102369E+02  0.00000000000E+00 0. -1.
</event>
<event>
 4    1  0.2967296E+006  0.3476200E+02  0.7546771E-02  0.1382244E+00
         21   -1    0    0  503  501  0.00000000000E+00  0.00000000000E+00  0.26079203821E+02  0.26079203821E+02  0.00000000000E+00 0. -1.
         21   -1    0    0  504  502 -0.00000000000E+00 -0.00000000000E+00 -0.49813489297E+02  0.49813489297E+02  0.00000000000E+00 0. -1.
         21    1    1    2  503  502 -0.34753305694E+02 -0.77721288066E+00 -0.18405691788E+01  0.34810688178E+02  0.00000000000E+00 0. -1.
         21    1    1    2  504  501  0.34753305694E+02  0.77721288066E+00 -0.21893716298E+02  0.41082004940E+02  0.00000000000E+00 0. -1.
</event>
<event>
 4    1  0.2967296E+006  0.2052316E+02  0.7546771E-02  0.1526183E+00
         21   -1    0    0  503  501  0.00000000000E+00  0.00000000000E+00  0.15079873423E+01  0.15079873423E+01  0.00000000000E+00 0.  1.
         21   -1    0    0  504  502 -0.00000000000E+00 -0.00000000000E+00 -0.28632928596E+03  0.28632928596E+03  0.00000000000E+00 0. -1.
         21    1    1    2  503  502  0.15388314830E+02 -0.13579396332E+02 -0.16493968079E+03  0.16621160771E+03  0.00000000000E+00 0. -1.
         21    1    1    2  504  501 -0.15388314830E+02  0.13579396332E+02 -0.11988161783E+03  0.12162566559E+03  0.00000000000E+00 0.  1.
</event>
<event>
 4    1  0.2967296E+006  0.2128094E+02  0.7546771E-02  0.1515291E+00
         21   -1    0    0  503  501  0.00000000000E+00  0.00000000000E+00  0.29756287811E+01  0.29756287811E+01  0.00000000000E+00 0.  1.
         21   -1    0    0  504  502 -0.00000000000E+00 -0.00000000000E+00 -0.39069291231E+03  0.39069291231E+03  0.00000000000E+00 0. -1.
         21    1    1    2  503  502 -0.13062474627E+02 -0.16800304563E+02 -0.34764734237E+03  0.34829808086E+03  0.00000000000E+00 0. -1.
         21    1    1    2  504  501  0.13062474627E+02  0.16800304563E+02 -0.40069941166E+02  0.45370460234E+02  0.00000000000E+00 0.  1.
</event>
<event>
 4    1  0.2967296E+006  0.4763037E+02  0.7546771E-02  0.1308787E+00
         21   -1    0    0  504  501  0.00000000000E+00  0.00000000000E+00  0.10075474702E+03  0.10075474702E+03  0.00000000000E+00 0. -1.
         21   -1    0    0  503  502 -0.00000000000E+00 -0.00000000000E+00 -0.17745121541E+03  0.17745121541E+03  0.00000000000E+00 0.  1.
         21    1    1    2  503  501 -0.47421927445E+02 -0.44511857229E+01 -0.16832664023E+03  0.17493573125E+03  0.00000000000E+00 0.  1.
         21    1    1    2  504  502  0.47421927445E+02  0.44511857229E+01  0.91630171836E+02  0.10327023118E+03  0.00000000000E+00 0. -1.
</event>
<event>
 4    1  0.2967296E+006  0.2327090E+02  0.7546771E-02  0.1489124E+00
         21   -1    0    0  503  501  0.00000000000E+00  0.00000000000E+00  0.24618777463E+03  0.24618777463E+03  0.00000000000E+00 0.  1.
         21   -1    0    0  504  502 -0.00000000000E+00 -0.00000000000E+00 -0.68274215714E+02  0.68274215714E+02  0.00000000000E+00 0. -1.
         21    1    1    2  503  502  0.23079823987E+02 -0.29759895426E+01 -0.65720618332E+02  0.69718967742E+02  0.00000000000E+00 0. -1.
         21    1    1    2  504  501 -0.23079823987E+02  0.29759895426E+01  0.24363417724E+03  0.24474302260E+03  0.00000000000E+00 0.  1.
</event>
<event>
 4    1  0.2967296E+006  0.2264457E+02  0.7546771E-02  0.1497010E+00
         21   -1    0    0  504  501  0.00000000000E+00  0.00000000000E+00  0.50252083435E+02  0.50252083435E+02  0.00000000000E+00 0.  1.
         21   -1    0    0  501  502 -0.00000000000E+00 -0.00000000000E+00 -0.25907544977E+03  0.25907544977E+03  0.00000000000E+00 0. -1.
         21    1    1    2  503  502  0.15989556393E+02  0.16034670571E+02 -0.25599901756E+03  0.25699858670E+03  0.00000000000E+00 0. -1.
         21    1    1    2  504  503 -0.15989556393E+02 -0.16034670571E+02  0.47175651224E+02  0.52328946506E+02  0.00000000000E+00 0.  1.
</event>
<event>
 4    1  0.2967296E+006  0.2026044E+02  0.7546771E-02  0.1530091E+00
         21   -1    0    0  504  501  0.00000000000E+00  0.00000000000E+00  0.15687049638E+01  0.15687049638E+01  0.00000000000E+00 0.  1.
         21   -1    0    0  503  502 -0.00000000000E+00 -0.00000000000E+00 -0.33845564169E+03  0.33845564169E+03  0.00000000000E+00 0.  1.
         21    1    1    2  503  501 -0.11795409469E+02 -0.16472816070E+02 -0.87465858100E+02  0.89781744732E+02  0.00000000000E+00 0.  1.
         21    1    1    2  504  502  0.11795409469E+02  0.16472816070E+02 -0.24942107862E+03  0.25024260192E+03  0.00000000000E+00 0.  1.
</event>
<event>
 4    1  0.2967296E+006  0.4271043E+02  0.7546771E-02  0.1333295E+00
         21   -1    0    0  502  501  0.00000000000E+00  0.00000000000E+00  0.19170074905E+01  0.19170074905E+01  0.00000000000E+00 0. -1.
         21   -1    0    0  503  502 -0.00000000000E+00 -0.00000000000E+00 -0.25290715990E+04  0.25290715990E+04  0.00000000000E+00 0. -1.
         21    1    1    2  503  504  0.41591981233E+02  0.97101931425E+01 -0.22630329645E+04  0.22634359676E+04  0.00000000000E+00 0. -1.
         21    1    1    2  504  501 -0.41591981233E+02 -0.97101931425E+01 -0.26412162703E+03  0.26755263897E+03  0.00000000000E+00 0. -1.
</event>
<event>
 4    1  0.2967296E+006  0.2027472E+02  0.7546771E-02  0.1529877E+00
         21   -1    0    0  504  501  0.00000000000E+00  0.00000000000E+00  0.43809766832E+02  0.43809766832E+02  0.00000000000E+00 0.  1.
         21   -1    0    0  503  502 -0.00000000000E+00 -0.00000000000E+00 -0.10975557008E+04  0.10975557008E+04  0.00000000000E+00 0.  1.
         21    1    1    2  503  501  0.43865623228E-01 -0.20274669221E+02 -0.10951110998E+04  0.10952987652E+04  0.00000000000E+00 0.  1.
         21    1    1    2  504  502 -0.43865623228E-01  0.20274669221E+02  0.41365165790E+02  0.46066702477E+02  0.00000000000E+00 0.  1.
</event>
<event>
 4    1  0.2967296E+006  0.2526369E+02  0.7546771E-02  0.1465875E+00
         21   -1    0    0  504  501  0.00000000000E+00  0.00000000000E+00  0.15277616941E+03  0.15277616941E+03  0.00000000000E+00 0. -1.
         21   -1    0    0  503  502 -0.00000000000E+00 -0.00000000000E+00 -0.10719328335E+02  0.10719328335E+02  0.00000000000E+00 0. -1.
         21    1    1    2  503  501  0.23389602384E+02 -0.95488388017E+01  0.71675594424E+01  0.26260764089E+02  0.00000000000E+00 0. -1.
         21    1    1    2  504  502 -0.23389602384E+02  0.95488388017E+01  0.13488928164E+03  0.13723473366E+03  0.00000000000E+00 0. -1.
</event>
<event>
 4    1  0.2967296E+006  0.2257509E+02  0.7546771E-02  0.1497904E+00
         21   -1    0    0  502  501  0.00000000000E+00  0.00000000000E+00  0.18634919248E+03  0.18634919248E+03  0.00000000000E+00 0.  1.
         21   -1    0    0  503  502 -0.00000000000E+00 -0.00000000000E+00 -0.31311582182E+01  0.31311582182E+01  0.00000000000E+00 0.  1.
         21    1    1    2  503  504  0.17144895339E+02 -0.14686301099E+02  0.57903210623E+02  0.62148344118E+02  0.00000000000E+00 0.  1.
         21    1    1    2  504  501 -0.17144895339E+02  0.14686301099E+02  0.12531482364E+03  0.12733200658E+03  0.00000000000E+00 0.  1.
</event>
<event>
 4    1  0.2967296E+006  0.2316854E+02  0.7546771E-02  0.1490393E+00
         21   -1    0    0  504  501  0.00000000000E+00  0.00000000000E+00  0.19122822234E+02  0.19122822234E+02  0.00000000000E+00 0. -1.
         21   -1    0    0  501  502 -0.00000000000E+00 -0.00000000000E+00 -0.18977687184E+03  0.18977687184E+03  0.00000000000E+00 0. -1.
         21    1    1    2  503  502  0.13687813091E+02  0.18692913524E+02 -0.18174325568E+03  0.18321406122E+03  0.00000000000E+00 0. -1.
         21    1    1    2  504  503 -0.13687813091E+02 -0.18692913524E+02  0.11089206082E+02  0.25685632847E+02  0.00000000000E+00 0. -1.
</event>
<event>
 4    1  0.2967296E+006  0.2134669E+02  0.7546771E-02  0.1514372E+00
         21   -1    0    0  504  501  0.00000000000E+00  0.00000000000E+00  0.82601172291E+02  0.82601172291E+02  0.00000000000E+00 0.  1.
         21   -1    0    0  501  502 -0.00000000000E+00 -0.00000000000E+00 -0.83412860496E+01  0.83412860496E+01  0.00000000000E+00 0. -1.
         21    1    1    2  503  502  0.96742280079E+01 -0.19028672722E+02  0.10669197844E+02  0.23864468479E+02  0.00000000000E+00 0. -1.
         21    1    1    2  504  503 -0.96742280079E+01  0.19028672722E+02  0.63590688397E+02  0.67077989862E+02  0.00000000000E+00 0.  1.
</event>
<event>
 4    1  0.2967296E+006  0.2288579E+02  0.7546771E-02  0.1493937E+00
         21   -1    0    0  503  501  0.00000000000E+00  0.00000000000E+00  0.34897740848E+02  0.34897740848E+02  0.00000000000E+00 0. -1.
         21   -1    0    0  504  502 -0.00000000000E+00 -0.00000000000E+00 -0.15453647957E+03  0.15453647957E+03  0.00000000000E+00 0. -1.
         21    1    1    2  503  502  0.10340414726E+02  0.20416540568E+02  0.30180885275E+02  0.37876709750E+02  0.00000000000E+00 0. -1.
         21    1    1    2  504  501 -0.10340414726E+02 -0.20416540568E+02 -0.14981962400E+03  0.15155751067E+03  0.00000000000E+00 0. -1.
</event>
<event>
 4    1  0.2967296E+006  0.3199187E+02  0.7546771E-02  0.1403042E+00
         21   -1    0    0  503  501  0.00000000000E+00  0.00000000000E+00  0.92552090013E+01  0.92552090013E+01  0.00000000000E+00 0.  1.
         21   -1    0    0  504  502 -0.00000000000E+00 -0.00000000000E+00 -0.33814183353E+03  0.33814183353E+03  0.00000000000E+00 0. -1.
         21    1    1    2  503  502  0.27073614893E+02 -0.17044037268E+02 -0.21950689776E+02  0.38798358360E+02  0.00000000000E+00 0.  1.
         21    1    1    2  504  501 -0.27073614893E+02  0.17044037268E+02 -0.30693593476E+03  0.30859868417E+03  0.00000000000E+00 0. -1.
</event>
<event>
 4    1  0.2967296E+006  0.3114969E+02  0.7546771E-02  0.1409862E+00
         21   -1    0    0  503  501  0.00000000000E+00  0.00000000000E+00  0.28465690617E+02  0.28465690617E+02  0.00000000000E+00 0.  1.
         21   -1    0    0  504  502 -0.00000000000E+00 -0.00000000000E+00 -0.59120757971E+03  0.59120757971E+03  0.00000000000E+00 0.  1.
         21    1    1    2  503  502 -0.13973774132E+02  0.27839485162E+02 -0.58214298579E+03  0.58297577926E+03  0.00000000000E+00 0.  1.
         21    1    1    2  504  501  0.13973774132E+02 -0.27839485162E+02  0.19401096698E+02  0.36697491068E+02  0.00000000000E+00 0.  1.
</event>
<event>
 4    1  0.2967296E+006  0.2409071E+02  0.7546771E-02  0.1479238E+00
         21   -1    0    0  503  501  0.00000000000E+00  0.00000000000E+00  0.23463483326E+03  0.23463483326E+03  0.00000000000E+00 0. -1.
         21   -1    0    0  504  502 -0.00000000000E+00 -0.00000000000E+00 -0.40327793089E+02  0.40327793089E+02  0.00000000000E+00 0. -1.
         21    1    1    2  503  502 -0.13920264385E+01 -0.24050455894E+02 -0.36044934868E+02  0.43354348063E+02  0.00000000000E+00 0. -1.
         21    1    1    2  504  501  0.13920264385E+01  0.24050455894E+02  0.23035197504E+03  0.23160827829E+03  0.00000000000E+00 0. -1.
</event>
<event>
 4    1  0.2967296E+006  0.5097222E+02  0.7546771E-02  0.1294011E+00
         21   -1    0    0  504  501  0.00000000000E+00  0.00000000000E+00  0.43670134147E+02  0.43670134147E+02  0.00000000000E+00 0.  1.
         21   -1    0    0  503  502 -0.00000000000E+00 -0.00000000000E+00 -0.82949870291E+02  0.82949870291E+02  0.00000000000E+00 0.  1.
         21    1    1    2  503  501 -0.31760476992E+01 -0.50873178289E+02  0.14025103530E+02  0.52866540243E+02  0.00000000000E+00 0.  1.
         21    1    1    2  504  502  0.31760476992E+01  0.50873178289E+02 -0.53304839674E+02  0.73753464196E+02  0.00000000000E+00 0.  1.
</event>
<event>
 4    1  0.2967296E+006  0.2479919E+02  0.7546771E-02  0.1471062E+00
         21   -1    0    0  504  501  0.00000000000E+00  0.00000000000E+00  0.10034274682E+03  0.10034274682E+03  0.00000000000E+00 0. -1.
         21   -1    0    0  503  502 -0.00000000000E+00 -0.00000000000E+00 -0.71778700445E+01  0.71778700445E+01  0.00000000000E+00 0. -1.
         21    1    1    2  503  501  0.24672176299E+02 -0.25066502844E+01  0.67133161138E+02  0.71567177557E+02  0.00000000000E+00 0. -1.
         21    1    1    2  504  502 -0.24672176299E+02  0.25066502844E+01  0.26031715635E+02  0.35953439306E+02  0.00000000000E+00 0. -1.
</event>
<event>
 4    1  0.2967296E+006  0.2562779E+02  0.7546771E-02  0.1461901E+00
         21   -1    0    0  504  501  0.00000000000E+00  0.00000000000E+00  0.23662288931E+03  0.23662288931E+03  0.00000000000E+00 0. -1.
         21   -1    0    0  501  502 -0.00000000000E+00 -0.00000000000E+00 -0.77278487462E+01  0.77278487462E+01  0.00000000000E+00 0. -1.
         21    1    1    2  503  502  0.55000267183E+01 -0.25030651752E+02  0.16644310477E+02  0.30558417700E+02  0.00000000000E+00 0. -1.
         21    1    1    2  504  503 -0.55000267183E+01  0.25030651752E+02  0.21225073008E+03  0.21379232035E+03  0.00000000000E+00 0. -1.
</event>
<event>
 4    1  0.2967296E+006  0.2041316E+02  0.7546771E-02  0.1527811E+00
         21   -1    0    0  504  501  0.00000000000E+00  0.00000000000E+00  0.11522203862E+03  0.11522203862E+03  0.00000000000E+00 0.  1.
         21   -1    0    0  503  502 -0.00000000000E+00 -0.00000000000E+00 -0.41238543034E+01  0.41238543034E+01  0.00000000000E+00 0.  1.
         21    1    1    2  503  501  0.61841824515E+00 -0.20403792735E+02  0.34617909337E+02  0.40188267517E+02  0.00000000000E+00 0.  1.
         21    1    1    2  504  502 -0.61841824515E+00  0.20403792735E+02  0.76480274979E+02  0.79157625406E+02  0.00000000000E+00 0.  1.
</event>
<event>
 4    1  0.2967296E+006  0.2002351E+02  0.7546771E-02  0.1533677E+00
         21   -1    0    0  502  501  0.00000000000E+00  0.00000000000E+00  0.18671902040E+02  0.18671902040E+02  0.00000000000E+00 0. -1.
         21   -1    0    0  504  502 -0.00000000000E+00 -0.00000000000E+00 -0.11761966099E+03  0.11761966099E+03  0.00000000000E+00 0. -1.
         21    1    1    2  503  501 -0.51146891742E+01 -0.19359257117E+02  0.12138250578E+02  0.23415337037E+02  0.00000000000E+00 0. -1.
         21    1    1    2  504  503  0.51146891742E+01  0.19359257117E+02 -0.11108600953E+03  0.11287622600E+03  0.00000000000E+00 0. -1.
</event>
<event>
 4    1  0.2967296E+006  0.2077870E+02  0.7546771E-02  0.1522448E+00
         21   -1    0    0  504  501  0.00000000000E+00  0.00000000000E+00  0.53457265312E+01  0.53457265312E+01  0.00000000000E+00 0. -1.
         21   -1    0    0  503  502 -0.00000000000E+00 -0.00000000000E+00 -0.27363902328E+03  0.27363902328E+03  0.00000000000E+00 0. -1.
         21    1    1    2  503  501  0.10979262039E+02 -0.17641149697E+02 -0.17035861254E+02  0.26869591106E+02  0.00000000000E+00 0. -1.
         21    1    1    2  504  502 -0.10979262039E+02  0.17641149697E+02 -0.25125743550E+03  0.25211515871E+03  0.00000000000E+00 0. -1.
</event>
<event>
 4    1  0.2967296E+006  0.2433982E+02  0.7546771E-02  0.1476326E+00
         21   -1    0    0  504  501  0.00000000000E+00  0.00000000000E+00  0.29309453412E+03  0.29309453412E+03  0.00000000000E+00 0.  1.
         21   -1    0    0  503  502 -0.00000000000E+00 -0.00000000000E+00 -0.38393070205E+02  0.38393070205E+02  0.00000000000E+00 0.  1.
         21    1    1    2  503  501 -0.21433995821E+02  0.11533017608E+02  0.28867258550E+03  0.28969689037E+03  0.00000000000E+00 0.  1.
         21    1    1    2  504  502  0.21433995821E+02 -0.11533017608E+02 -0.33971121579E+02  0.41790713960E+02  0.00000000000E+00 0.  1.
</event>
<event>
 4    1  0.2967296E+006  0.2182127E+02  0.7546771E-02  0.1507855E+00
         21   -1    0    0  503  501  0.00000000000E+00  0.00000000000E+00  0.46359203109E+02  0.46359203109E+02  0.00000000000E+00 0. -1.
         21   -1    0    0  504  502 -0.00000000000E+00 -0.00000000000E+00 -0.64776522527E+02  0.64776522527E+02  0.00000000000E+00 0. -1.
         21    1    1    2  503  502 -0.17734714221E+02 -0.12714084340E+02  0.41763618555E+02  0.47120779534E+02  0.00000000000E+00 0. -1.
         21    1    1    2  504  501  0.17734714221E+02  0.12714084340E+02 -0.60180937973E+02  0.64014946102E+02  0.00000000000E+00 0. -1.
</event>
<event>
 4    1  0.2967296E+006  0.2934799E+02  0.7546771E-02  0.1425348E+00
         21   -1    0    0  504  501  0.00000000000E+00  0.00000000000E+00  0.65848449931E+02  0.65848449931E+02  0.00000000000E+00 0.  1.
         21   -1    0    0  503  502 -0.00000000000E+00 -0.00000000000E+00 -0.12725637684E+03  0.12725637684E+03  0.00000000000E+00 0. -1.
         21    1    1    2  503  501  0.29028534485E+02  0.43184128582E+01 -0.12215977115E+03  0.12563564061E+03  0.00000000000E+00 0. -1.
         21    1    1    2  504  502 -0.29028534485E+02 -0.43184128582E+01  0.60751844236E+02  0.67469186167E+02  0.00000000000E+00 0.  1.
</event>
<event>
 4    1  0.2967296E+006  0.2079842E+02  0.7546771E-02  0.1522163E+00
         21   -1    0    0  503  501  0.00000000000E+00  0.00000000000E+00  0.33177631660E+01  0.33177631660E+01  0.00000000000E+00 0.  1.
         21   -1    0    0  501  502 -0.00000000000E+00 -0.00000000000E+00 -0.77239189893E+03  0.77239189893E+03  0.00000000000E+00 0.  1.
         21    1    1    2  503  504  0.18251321207E+02 -0.99731312120E+01 -0.30929566221E+02  0.37272136222E+02  0.00000000000E+00 0.  1.
         21    1    1    2  504  502 -0.18251321207E+02  0.99731312120E+01 -0.73814456955E+03  0.73843752588E+03  0.00000000000E+00 0.  1.
</event>
<event>
 4    1  0.2967296E+006  0.2461688E+02  0.7546771E-02  0.1473135E+00
         21   -1    0    0  504  501  0.00000000000E+00  0.00000000000E+00  0.10066909976E+02  0.10066909976E+02  0.00000000000E+00 0. -1.
         21   -1    0    0  501  502 -0.00000000000E+00 -0.00000000000E+00 -0.61948830984E+02  0.61948830984E+02  0.00000000000E+00 0. -1.
         21    1    1    2  503  502 -0.23718642172E+02 -0.65891258397E+01 -0.31997377782E+02  0.40371063285E+02  0.00000000000E+00 0. -1.
         21    1    1    2  504  503  0.23718642172E+02  0.65891258397E+01 -0.19884543227E+02  0.31644677675E+02  0.00000000000E+00 0. -1.
</event>
<event>
 4    1  0.2967296E+006  0.3228819E+02  0.7546771E-02  0.1400701E+00
         21   -1    0    0  502  501  0.00000000000E+00  0.00000000000E+00  0.60296514169E+02  0.60296514169E+02  0.00000000000E+00 0. -1.
         21   -1    0    0  503  502 -0.00000000000E+00 -0.00000000000E+00 -0.41110697447E+02  0.41110697447E+02  0.00000000000E+00 0. -1.
         21    1    1    2  503  504 -0.17208279800E+02  0.27320358810E+02 -0.29002766048E+02  0.43401466999E+02  0.00000000000E+00 0. -1.
         21    1    1    2  504  501  0.17208279800E+02 -0.27320358810E+02  0.48188582770E+02  0.58005744617E+02  0.00000000000E+00 0. -1.
</event>
<event>
 4    1  0.2967296E+006  0.2454426E+02  0.7546771E-02  0.1473967E+00
         21   -1    0    0  502  501  0.00000000000E+00  0.00000000000E+00  0.59965967025E+02  0.59965967025E+02  0.00000000000E+00 0. -1.
         21   -1    0    0  503  502 -0.00000000000E+00 -0.00000000000E+00 -0.31838286816E+02  0.31838286816E+02  0.00000000000E+00 0. -1.
         21    1    1    2  503  504 -0.22972974045E+02  0.86407807667E+01 -0.23912136203E+02  0.34266760666E+02  0.00000000000E+00 0. -1.
         21    1    1    2  504  501  0.22972974045E+02 -0.86407807667E+01  0.52039816412E+02  0.57537493176E+02  0.00000000000E+00 0. -1.
</event>
<event>
 4    1  0.2967296E+006  0.5421870E+02  0.7546771E-02  0.1280849E+00
         21   -1    0    0  504  501  0.00000000000E+00  0.00000000000E+00  0.16826889127E+03  0.16826889127E+03  0.00000000000E+00 0. -1.
         21   -1    0    0  503  502 -0.00000000000E+00 -0.00000000000E+00 -0.79984420744E+02  0.79984420744E+02  0.00000000000E+00 0. -1.
         21    1    1    2  503  501 -0.80406290215E+01  0.53619170356E+02  0.15387902745E+03  0.16315153151E+03  0.00000000000E+00 0. -1.
         21    1    1    2  504  502  0.80406290215E+01 -0.53619170356E+02 -0.65594556932E+02  0.85101780497E+02  0.00000000000E+00 0. -1.
</event>
<event>
 4    1  0.2967296E+006  0.2604997E+02  0.7546771E-02  0.1457392E+00
         21   -1    0    0  504  501  0.00000000000E+00  0.00000000000E+00  0.37351053484E+03  0.37351053484E+03  0.00000000000E+00 0. -1.
         21   -1    0    0  503  502 -0.00000000000E+00 -0.00000000000E+00 -0.18168460711E+01  0.18168460711E+01  0.00000000000E+00 0. -1.
         21    1    1    2  503  501  0.24211465756E+02 -0.96127893339E+01  0.18511377759E+03  0.18693772077E+03  0.00000000000E+00 0. -1.
         21    1    1    2  504  502 -0.24211465756E+02  0.96127893339E+01  0.18657991118E+03  0.18838966014E+03  0.00000000000E+00 0. -1.
</event>
<event>
 4    1  0.2967296E+006  0.2078304E+02  0.7546771E-02  0.1522385E+00
         21   -1    0    0  502  501  0.00000000000E+00  0.00000000000E+00  0.73054574779E+01  0.73054574779E+01  0.00000000000E+00 0.  1.
         21   -1    0    0  504  502 -0.00000000000E+00 -0.00000000000E+00 -0.34485416579E+03  0.34485416579E+03  0.00000000000E+00 0.  1.
         21    1    1    2  503  501 -0.20761245611E+02 -0.95144226397E+00 -0.84981025829E+01  0.22453336260E+02  0.00000000000E+00 0.  1.
         21    1    1    2  504  503  0.20761245611E+02  0.95144226397E+00 -0.32905060573E+03  0.32970628701E+03  0.00000000000E+00 0.  1.
</event>
<event>
 4    1  0.2967296E+006  0.3689487E+02  0.7546771E-02  0.1367710E+00
         21   -1    0    0  503  501  0.00000000000E+00  0.00000000000E+00  0.23025818490E+01  0.23025818490E+01  0.00000000000E+00 0.  1.
         21   -1    0    0  501  502 -0.00000000000E+00 -0.00000000000E+00 -0.95290506475E+03  0.95290506475E+03  0.00000000000E+00 0.  1.
         21    1    1    2  503  504 -0.71926794978E+01  0.36186974141E+02 -0.18103901190E+03  0.18476026512E+03  0.00000000000E+00 0.  1.
         21    1    1    2  504  502  0.71926794978E+01 -0.36186974141E+02 -0.76956347100E+03  0.77044738149E+03  0.00000000000E+00 0.  1.
</event>
<event>
 4    1  0.2967296E+006  0.2017794E+02  0.7546771E-02  0.1531333E+00
         21   -1    0    0  504  501  0.00000000000E+00  0.00000000000E+00  0.30371040180E+02  0.30371040180E+02  0.00000000000E+00 0. -1.
         21   -1    0    0  503  502 -0.00000000000E+00 -0.00000000000E+00 -0.81901068799E+02  0.81901068799E+02  0.00000000000E+00 0.  1.
         21    1    1    2  503  501  0.14503255479E+02 -0.14028716229E+02  0.25571604525E+02  0.32573858484E+02  0.00000000000E+00 0. -1.
         21    1    1    2  504  502 -0.14503255479E+02  0.14028716229E+02 -0.77101633144E+02  0.79698250495E+02  0.00000000000E+00 0.  1.
</event>
<event>
 4    1  0.2967296E+006  0.2083302E+02  0.7546771E-02  0.1521662E+00
         21   -1    0    0  504  501  0.00000000000E+00  0.00000000000E+00  0.31637454994E+01  0.31637454994E+01  0.00000000000E+00 0. -1.
         21   -1    0    0  503  502 -0.00000000000E+00 -0.00000000000E+00 -0.36152957335E+03  0.36152957335E+03  0.00000000000E+00 0. -1.
         21    1    1    2  503  501 -0.58851216690E+00  0.20824709621E+02 -0.35539814522E+02  0.41195792184E+02  0.00000000000E+00 0. -1.
         21    1    1    2  504  502  0.58851216690E+00 -0.20824709621E+02 -0.32282601332E+03  0.32349752666E+03  0.00000000000E+00 0. -1.
</event>
<event>
 4    1  0.2967296E+006  0.2015497E+02  0.7546771E-02  0.1531680E+00
         21   -1    0    0  503  501  0.00000000000E+00  0.00000000000E+00  0.47636508034E+02  0.47636508034E+02  0.00000000000E+00 0.  1.
         21   -1    0    0  501  502 -0.00000000000E+00 -0.00000000000E+00 -0.14145608324E+02  0.14145608324E+02  0.00000000000E+00 0.  1.
         21    1    1    2  503  504  0.64565912166E+01  0.19092802910E+02  0.36213170323E+02  0.41444135869E+02  0.00000000000E+00 0.  1.
         21    1    1    2  504  502 -0.64565912166E+01 -0.19092802910E+02 -0.27222706123E+01  0.20337980489E+02  0.00000000000E+00 0.  1.
</event>
<event>
 4    1  0.2967296E+006  0.2105966E+02  0.7546771E-02  0.1518415E+00
         21   -1    0    0  504  501  0.00000000000E+00  0.00000000000E+00  0.79943795357E+02  0.79943795357E+02  0.00000000000E+00 0. -1.
         21   -1    0    0  503  502 -0.00000000000E+00 -0.00000000000E+00 -0.20695655819E+02  0.20695655819E+02  0.00000000000E+00 0. -1.
         21    1    1    2  503  501  0.11533086221E+02  0.17620932783E+02  0.72674228565E+02  0.75664078977E+02  0.00000000000E+00 0. -1.
         21    1    1    2  504  502 -0.11533086221E+02 -0.17620932783E+02 -0.13426089027E+02  0.24975372199E+02  0.00000000000E+00 0. -1.
</event>
<event>
 4    1  0.2967296E+006  0.2552625E+02  0.7546771E-02  0.1463001E+00
         21   -1    0    0  504  501  0.00000000000E+00  0.00000000000E+00  0.98252910076E+02  0.98252910076E+02  0.00000000000E+00 0. -1.
         21   -1    0    0  503  502 -0.00000000000E+00 -0.00000000000E+00 -0.10359325239E+02  0.10359325239E+02  0.00000000000E+00 0. -1.
         21    1    1    2  503  501  0.23407848040E+02 -0.10181462467E+02  0.11370942017E+02  0.27944370635E+02  0.00000000000E+00 0. -1.
         21    1    1    2  504  502 -0.23407848040E+02  0.10181462467E+02  0.76522642821E+02  0.80667864680E+02  0.00000000000E+00 0. -1.
</event>
<event>
 4    1  0.2967296E+006  0.2312448E+02  0.7546771E-02  0.1490941E+00
         21   -1    0    0  503  501  0.00000000000E+00  0.00000000000E+00  0.76482421858E+02  0.76482421858E+02  0.00000000000E+00 0. -1.
         21   -1    0    0  504  502 -0.00000000000E+00 -0.00000000000E+00 -0.30351978692E+02  0.30351978692E+02  0.00000000000E+00 0.  1.
         21    1    1    2  503  502 -0.15898321247E+02 -0.16792404751E+02  0.69927857084E+02  0.73652200729E+02  0.00000000000E+00 0. -1.
         21    1    1    2  504  501  0.15898321247E+02  0.16792404751E+02 -0.23797413918E+02  0.33182199821E+02  0.00000000000E+00 0.  1.
</event>
<event>
 4    1  0.2967296E+006  0.2254071E+02  0.7546771E-02  0.1498347E+00
         21   -1    0    0  503  501  0.00000000000E+00  0.00000000000E+00  0.12598888991E+02  0.12598888991E+02  0.00000000000E+00 0.  1.
         21   -1    0    0  504  502 -0.00000000000E+00 -0.00000000000E+00 -0.13844537716E+03  0.13844537716E+03  0.00000000000E+00 0. -1.
         21    1    1    2  503  502 -0.22494655813E+02 -0.14401886026E+01  0.65503099221E+00  0.22550227249E+02  0.00000000000E+00 0.  1.
         21    1    1    2  504  501  0.22494655813E+02  0.14401886026E+01 -0.12650151916E+03  0.12849403890E+03  0.00000000000E+00 0. -1.
</event>
<event>
 4    1  0.2967296E+006  0.2288290E+02  0.7546771E-02  0.1493974E+00
         21   -1    0    0  504  501  0.00000000000E+00  0.00000000000E+00  0.54886352205E+01  0.54886352205E+01  0.00000000000E+00 0.  1.
         21   -1    0    0  503  502 -0.00000000000E+00 -0.00000000000E+00 -0.16720885828E+03  0.16720885828E+03  0.00000000000E+00 0. -1.
         21    1    1    2  503  501  0.22882207104E+02  0.17837995930E+00 -0.13744612728E+03  0.13933795293E+03  0.00000000000E+00 0. -1.
         21    1    1    2  504  502 -0.22882207104E+02 -0.17837995930E+00 -0.24274095775E+02  0.33359540570E+02  0.00000000000E+00 0.  1.
</event>
<event>
 4    1  0.2967296E+006  0.3926595E+02  0.7546771E-02  0.1352842E+00
         21   -1    0    0  504  501  0.00000000000E+00  0.00000000000E+00  0.19191728681E+02  0.19191728681E+02  0.00000000000E+00 0.  1.
         21   -1    0    0  503  502 -0.00000000000E+00 -0.00000000000E+00 -0.32205871211E+03  0.32205871211E+03  0.00000000000E+00 0.  1.
         21    1    1    2  503  501  0.38650685404E+02 -0.69238029843E+01 -0.29925346745E+03  0.30181857515E+03  0.00000000000E+00 0.  1.
         21    1    1    2  504  502 -0.38650685404E+02  0.69238029843E+01 -0.36135159848E+01  0.39431865638E+02  0.00000000000E+00 0.  1.
</event>
<event>
 4    1  0.2967296E+006  0.2452941E+02  0.7546771E-02  0.1474137E+00
         21   -1    0    0  504  501  0.00000000000E+00  0.00000000000E+00  0.19468847149E+03  0.19468847149E+03  0.00000000000E+00 0. -1.
         21   -1    0    0  503  502 -0.00000000000E+00 -0.00000000000E+00 -0.11292461181E+03  0.11292461181E+03  0.00000000000E+00 0. -1.
         21    1    1    2  503  501  0.95641942539E+01 -0.22588005157E+02  0.19256917129E+03  0.19412515942E+03  0.00000000000E+00 0. -1.
         21    1    1    2  504  502 -0.95641942539E+01  0.22588005157E+02 -0.11080531160E+03  0.11348792388E+03  0.00000000000E+00 0. -1.
</event>
<event>
 4    1  0.2967296E+006  0.2289256E+02  0.7546771E-02  0.1493852E+00
         21   -1    0    0  503  501  0.00000000000E+00  0.00000000000E+00  0.21285067949E+02  0.21285067949E+02  0.00000000000E+00 0.  1.
         21   -1    0    0  501  502 -0.00000000000E+00 -0.00000000000E+00 -0.17752687816E+03  0.17752687816E+03  0.00000000000E+00 0. -1.
         21    1    1    2  503  504  0.11801637658E+02 -0.19616084851E+02  0.14134508678E+02  0.26904530694E+02  0.00000000000E+00 0.  1.
         21    1    1    2  504  502 -0.11801637658E+02  0.19616084851E+02 -0.17037631889E+03  0.17190741541E+03  0.00000000000E+00 0. -1.
</event>
<event>
 4    1  0.2967296E+006  0.2098948E+02  0.7546771E-02  0.1519415E+00
         21   -1    0    0  503  501  0.00000000000E+00  0.00000000000E+00  0.60274402118E+02  0.60274402118E+02  0.00000000000E+00 0.  1.
         21   -1    0    0  504  502 -0.00000000000E+00 -0.00000000000E+00 -0.10771541680E+02  0.10771541680E+02  0.00000000000E+00 0.  1.
         21    1    1    2  503  502  0.12290952054E+02 -0.17014425446E+02  0.44891213109E+02  0.49555818932E+02  0.00000000000E+00 0.  1.
         21    1    1    2  504  501 -0.12290952054E+02  0.17014425446E+02  0.46116473301E+01  0.21490124866E+02  0.00000000000E+00 0.  1.
</event>
<event>
 4    1  0.2967296E+006  0.2203341E+02  0.7546771E-02  0.1505006E+00
         21   -1    0    0  503  501  0.00000000000E+00  0.00000000000E+00  0.10060530410E+03  0.10060530410E+03  0.00000000000E+00 0.  1.
         21   -1    0    0  504  502 -0.00000000000E+00 -0.00000000000E+00 -0.15981613895E+02  0.15981613895E+02  0.00000000000E+00 0.  1.
         21    1    1    2  503  502 -0.69013669952E+01  0.20924680064E+02 -0.63923015685E+01  0.22941940230E+02  0.00000000000E+00 0.  1.
         21    1    1    2  504  501  0.69013669952E+01 -0.20924680064E+02  0.91015991777E+02  0.93644977769E+02  0.00000000000E+00 0.  1.
</event>
<event>
 4    1  0.2967296E+006  0.2124985E+02  0.7546771E-02  0.1515727E+00
         21   -1    0    0  503  501  0.00000000000E+00  0.00000000000E+00  0.20696834858E+03  0.20696834858E+03  0.00000000000E+00 0. -1.
         21   -1    0    0  504  502 -0.00000000000E+00 -0.00000000000E+00 -0.42205694225E+01  0.42205694225E+01  0.00000000000E+00 0. -1.
         21    1    1    2  503  502  0.12494733281E+02 -0.17188301294E+02  0.17476500889E+03  0.17605216384E+03  0.00000000000E+00 0. -1.
         21    1    1    2  504  501 -0.12494733281E+02  0.17188301294E+02  0.27982770270E+02  0.35136754163E+02  0.00000000000E+00 0. -1.
</event>
<event>
 4    1  0.2967296E+006  0.2169349E+02  0.7546771E-02  0.1509590E+00
         21   -1    0    0  503  501  0.00000000000E+00  0.00000000000E+00  0.23539457465E+02  0.23539457465E+02  0.00000000000E+00 0. -1.
         21   -1    0    0  501  502 -0.00000000000E+00 -0.00000000000E+00 -0.10820399852E+03  0.10820399852E+03  0.00000000000E+00 0.  1.
         21    1    1    2  503  504  0.10928144058E+02  0.18739877572E+02  0.17143564938E+02  0.27649758819E+02  0.00000000000E+00 0. -1.
         21    1    1    2  504  502 -0.10928144058E+02 -0.18739877572E+02 -0.10180810599E+03  0.10409369716E+03  0.00000000000E+00 0.  1.
</event>
<event>
 4    1  0.2967296E+006  0.2743872E+02  0.7546771E-02  0.1443250E+00
         21   -1    0    0  503  501  0.00000000000E+00  0.00000000000E+00  0.21799242053E+02  0.21799242053E+02  0.00000000000E+00 0. -1.
         21   -1    0    0  501  502 -0.00000000000E+00 -0.00000000000E+00 -0.11430513744E+03  0.11430513744E+03  0.00000000000E+00 0.  1.
         21    1    1    2  503  504  0.98394047311E+01  0.25613847868E+02  0.10596156037E+02  0.29413629678E+02  0.00000000000E+00 0. -1.
         21    1    1    2  504  502 -0.98394047311E+01 -0.25613847868E+02 -0.10310205142E+03  0.10669074981E+03  0.00000000000E+00 0.  1.
</event>
<event>
 4    1  0.2967296E+006  0.2353267E+02  0.7546771E-02  0.1485915E+00
         21   -1    0    0  504  501  0.00000000000E+00  0.00000000000E+00  0.15451401556E+02  0.15451401556E+02  0.00000000000E+00 0.  1.
         21   -1    0    0  501  502 -0.00000000000E+00 -0.00000000000E+00 -0.54911820050E+02  0.54911820050E+02  0.00000000000E+00 0.  1.
         21    1    1    2  503  502 -0.23143830370E+02  0.42602668284E+01 -0.40463707675E+02  0.46809170004E+02  0.00000000000E+00 0.  1.
         21    1    1    2  504  503  0.23143830370E+02 -0.42602668284E+01  0.10032891812E+01  0.23554051601E+02  0.00000000000E+00 0.  1.
</event>
<event>
 4    1  0.2967296E+006  0.2423977E+02  0.7546771E-02  0.1477491E+00
         21   -1    0    0  502  501  0.00000000000E+00  0.00000000000E+00  0.20928201815E+03  0.20928201815E+03  0.00000000000E+00 0. -1.
         21   -1    0    0  504  502 -0.00000000000E+00 -0.00000000000E+00 -0.10699777691E+02  0.10699777691E+02  0.00000000000E+00 0. -1.
         21    1    1    2  503  501  0.86512526700E+01 -0.22643371215E+02  0.19375583266E+03  0.19526620066E+03  0.00000000000E+00 0. -1.
         21    1    1    2  504  503 -0.86512526700E+01  0.22643371215E+02  0.48264078024E+01  0.24715595178E+02  0.00000000000E+00 0. -1.
</event>
<event>
 4    1  0.2967296E+006  0.2253655E+02  0.7546771E-02  0.1498401E+00
         21   -1    0    0  502  501  0.00000000000E+00  0.00000000000E+00  0.54950938745E+03  0.54950938745E+03  0.00000000000E+00 0.  1.
         21   -1    0    0  503  502 -0.00000000000E+00 -0.00000000000E+00 -0.27785180421E+01  0.27785180421E+01  0.00000000000E+00 0.  1.
         21    1    1    2  503  504  0.60704048415E+01  0.21703603022E+02  0.47779200555E+02  0.52827532639E+02  0.00000000000E+00 0.  1.
         21    1    1    2  504  501 -0.60704048415E+01 -0.21703603022E+02  0.49895166885E+03  0.49946037285E+03  0.00000000000E+00 0.  1.
</event>
<event>
 4    1  0.2967296E+006  0.2298988E+02  0.7546771E-02  0.1492625E+00
         21   -1    0    0  503  501  0.00000000000E+00  0.00000000000E+00  0.29354268091E+02  0.29354268091E+02  0.00000000000E+00 0.  1.
         21   -1    0    0  504  502 -0.00000000000E+00 -0.00000000000E+00 -0.27766429024E+02  0.27766429024E+02  0.00000000000E+00 0. -1.
         21    1    1    2  503  502 -0.18731438058E+02 -0.13329201658E+02  0.17727625348E+02  0.29031071097E+02  0.00000000000E+00 0.  1.
         21    1    1    2  504  501  0.18731438058E+02  0.13329201658E+02 -0.16139786282E+02  0.28089626017E+02  0.00000000000E+00 0. -1.
</event>
<event>
 4    1  0.2967296E+006  0.2454469E+02  0.7546771E-02  0.1473962E+00
         21   -1    0    0  504  501  0.00000000000E+00  0.00000000000E+00  0.12079284280E+02  0.12079284280E+02  0.00000000000E+00 0. -1.
         21   -1    0    0  501  502 -0.00000000000E+00 -0.00000000000E+00 -0.70096989795E+02  0.70096989795E+02  0.00000000000E+00 0. -1.
         21    1    1    2  503  502  0.24520107912E+02 -0.10981913083E+01 -0.51078220904E+02  0.56669448267E+02  0.00000000000E+00 0. -1.
         21    1    1    2  504  503 -0.24520107912E+02  0.10981913083E+01 -0.69394846111E+01  0.25506825808E+02  0.00000000000E+00 0. -1.
</event>
<event>
 4    1  0.2967296E+006  0.2314042E+02  0.7546771E-02  0.1490742E+00
         21   -1    0    0  504  501  0.00000000000E+00  0.00000000000E+00  0.39312627698E+01  0.39312627698E+01  0.00000000000E+00 0. -1.
         21   -1    0    0  503  502 -0.00000000000E+00 -0.00000000000E+00 -0.15957817450E+03  0.15957817450E+03  0.00000000000E+00 0.  1.
         21    1    1    2  503  501 -0.20545086090E+02 -0.10647922780E+02 -0.10910836387E+03  0.11153525850E+03  0.00000000000E+00 0.  1.
         21    1    1    2  504  502  0.20545086090E+02  0.10647922780E+02 -0.46538547858E+02  0.51974178769E+02  0.00000000000E+00 0. -1.
</event>
<event>
 4    1  0.2967296E+006  0.2353908E+02  0.7546771E-02  0.1485838E+00
         21   -1    0    0  503  501  0.00000000000E+00  0.00000000000E+00  0.22945468161E+02  0.22945468161E+02  0.00000000000E+00 0.  1.
         21   -1    0    0  504  502 -0.00000000000E+00 -0.00000000000E+00 -0.22321872085E+03  0.22321872085E+03  0.00000000000E+00 0.  1.
         21    1    1    2  503  502  0.12860372707E+02  0.19715458374E+02  0.16097378672E+02  0.28516908759E+02  0.00000000000E+00 0.  1.
         21    1    1    2  504  501 -0.12860372707E+02 -0.19715458374E+02 -0.21637063136E+03  0.21764728025E+03  0.00000000000E+00 0.  1.
</event>
<event>
 4    1  0.2967296E+006  0.2958827E+02  0.7546771E-02  0.1423209E+00
         21   -1    0    0  504  501  0.00000000000E+00  0.00000000000E+00  0.10888790175E+02  0.10888790175E+02  0.00000000000E+00 0. -1.
         21   -1    0    0  503  502 -0.00000000000E+00 -0.00000000000E+00 -0.12305550388E+03  0.12305550388E+03  0.00000000000E+00 0. -1.
         21    1    1    2  503  501 -0.29469439420E+02  0.26490777959E+01 -0.95513475719E+02  0.99991447219E+02  0.00000000000E+00 0. -1.
         21    1    1    2  504  502  0.29469439420E+02 -0.26490777959E+01 -0.16653237984E+02  0.33952846836E+02  0.00000000000E+00 0. -1.
</event>
<event>
 4    1  0.2967296E+006  0.5016773E+02  0.7546771E-02  0.1297447E+00
         21   -1    0    0  503  501  0.00000000000E+00  0.00000000000E+00  0.43716858702E+01  0.43716858702E+01  0.00000000000E+00 0. -1.
         21   -1    0    0  504  502 -0.00000000000E+00 -0.00000000000E+00 -0.65243686883E+03  0.65243686883E+03  0.00000000000E+00 0. -1.
         21    1    1    2  503  502  0.50089125129E+02  0.28072060016E+01 -0.43665577592E+03  0.43952823289E+03  0.00000000000E+00 0. -1.
         21    1    1    2  504  501 -0.50089125129E+02 -0.28072060016E+01 -0.21140940704E+03  0.21728032181E+03  0.00000000000E+00 0. -1.
</event>
<event>
 4    1  0.2967296E+006  0.3653666E+02  0.7546771E-02  0.1370070E+00
         21   -1    0    0  503  501  0.00000000000E+00  0.00000000000E+00  0.58569686542E+02  0.58569686542E+02  0.00000000000E+00 0. -1.
         21   -1    0    0  501  502 -0.00000000000E+00 -0.00000000000E+00 -0.62549020666E+02  0.62549020666E+02  0.00000000000E+00 0. -1.
         21    1    1    2  503  504  0.33557510802E+02  0.14450642794E+02  0.46291438659E+02  0.58973086247E+02  0.00000000000E+00 0. -1.
         21    1    1    2  504  502 -0.33557510802E+02 -0.14450642794E+02 -0.50270772783E+02  0.62145620961E+02  0.00000000000E+00 0. -1.
</event>
<event>
 4    1  0.2967296E+006  0.3465234E+02  0.7546771E-02  0.1383024E+00
         21   -1    0    0  503  501  0.00000000000E+00  0.00000000000E+00  0.20448769265E+03  0.20448769265E+03  0.00000000000E+00 0. -1.
         21   -1    0    0  504  502 -0.00000000000E+00 -0.00000000000E+00 -0.12722389149E+02  0.12722389149E+02  0.00000000000E+00 0.  1.
         21    1    1    2  503  502  0.64569384973E+01 -0.34045445490E+02  0.16190014145E+02  0.38247888456E+02  0.00000000000E+00 0.  1.
         21    1    1    2  504  501 -0.64569384973E+01  0.34045445490E+02  0.17557528936E+03  0.17896219334E+03  0.00000000000E+00 0. -1.
</event>
<event>
 4    1  0.2967296E+006  0.3321779E+02  0.7546771E-02  0.1393545E+00
         21   -1    0    0  503  501  0.00000000000E+00  0.00000000000E+00  0.33702980819E+02  0.33702980819E+02  0.00000000000E+00 0. -1.
         21   -1    0    0  504  502 -0.00000000000E+00 -0.00000000000E+00 -0.33568038769E+02  0.33568038769E+02  0.00000000000E+00 0. -1.
         21    1    1    2  503  502  0.32909430695E+02 -0.45156141997E+01 -0.52166257614E+01  0.33624910180E+02  0.00000000000E+00 0. -1.
         21    1    1    2  504  501 -0.32909430695E+02  0.45156141997E+01  0.53515678108E+01  0.33646109408E+02  0.00000000000E+00 0. -1.
</event>
<event>
 4    1  0.2967296E+006  0.2398691E+02  0.7546771E-02  0.1480464E+00
         21   -1    0    0  504  501  0.00000000000E+00  0.00000000000E+00  0.10082206601E+03  0.10082206601E+03  0.00000000000E+00 0. -1.
         21   -1    0    0  501  502 -0.00000000000E+00 -0.00000000000E+00 -0.82613029224E+02  0.82613029224E+02  0.00000000000E+00 0.  1.
         21    1    1    2  503  502 -0.19386106873E+02  0.14126245520E+02 -0.79388478473E+02  0.82933120443E+02  0.00000000000E+00 0.  1.
         21    1    1    2  504  503  0.19386106873E+02 -0.14126245520E+02  0.97597515254E+02  0.10050197479E+03  0.00000000000E+00 0. -1.
</event>
<event>
 4    1  0.2967296E+006  0.2137758E+02  0.7546771E-02  0.1513942E+00
         21   -1    0    0  502  501  0.00000000000E+00  0.00000000000E+00  0.93108231508E+02  0.93108231508E+02  0.00000000000E+00 0.  1.
         21   -1    0    0  504  502 -0.00000000000E+00 -0.00000000000E+00 -0.14981583519E+02  0.14981583519E+02  0.00000000000E+00 0.  1.
         21    1    1    2  503  501  0.21316602024E+02 -0.16134985385E+01  0.83379467902E+02  0.86076341506E+02  0.00000000000E+00 0.  1.
         21    1    1    2  504  503 -0.21316602024E+02  0.16134985385E+01 -0.52528199131E+01  0.22013473520E+02  0.00000000000E+00 0.  1.
</event>
<event>
 4    1  0.2967296E+006  0.2055628E+02  0.7546771E-02  0.1525695E+00
         21   -1    0    0  502  501  0.00000000000E+00  0.00000000000E+00  0.17724273024E+02  0.17724273024E+02  0.00000000000E+00 0. -1.
         21   -1    0    0  504  502 -0.00000000000E+00 -0.00000000000E+00 -0.66384701858E+02  0.66384701858E+02  0.00000000000E+00 0. -1.
         21    1    1    2  503  501  0.19846381099E+02  0.53555441295E+01  0.93362137651E+01  0.22577103072E+02  0.00000000000E+00 0. -1.
         21    1    1    2  504  503 -0.19846381099E+02 -0.53555441295E+01 -0.57996642599E+02  0.61531871810E+02  0.00000000000E+00 0. -1.
</event>
<event>
 4    1  0.2967296E+006  0.2614767E+02  0.7546771E-02  0.1456363E+00
         21   -1    0    0  504  501  0.00000000000E+00  0.00000000000E+00  0.82159450807E+03  0.82159450807E+03  0.00000000000E+00 0.  1.
         21   -1    0    0  501  502 -0.00000000000E+00 -0.00000000000E+00 -0.54330710935E+02  0.54330710935E+02  0.00000000000E+00 0.  1.
         21    1    1    2  503  502 -0.18292632074E+02  0.18683686316E+02 -0.50963714548E+02  0.57280020279E+02  0.00000000000E+00 0.  1.
         21    1    1    2  504  503  0.18292632074E+02 -0.18683686316E+02  0.81822751168E+03  0.81864519873E+03  0.00000000000E+00 0.  1.
</event>
<event>
 4    1  0.2967296E+006  0.2096838E+02  0.7546771E-02  0.1519717E+00
         21   -1    0    0  503  501  0.00000000000E+00  0.00000000000E+00  0.70090948208E+02  0.70090948208E+02  0.00000000000E+00 0. -1.
         21   -1    0    0  504  502 -0.00000000000E+00 -0.00000000000E+00 -0.62730311570E+01  0.62730311570E+01  0.00000000000E+00 0. -1.
         21    1    1    2  503  502  0.99750095940E+01 -0.18443752161E+02  0.32090061345E+02  0.38333338588E+02  0.00000000000E+00 0. -1.
         21    1    1    2  504  501 -0.99750095940E+01  0.18443752161E+02  0.31727855706E+02  0.38030640777E+02  0.00000000000E+00 0. -1.
</event>
<event>
 4    1  0.2967296E+006  0.2152714E+02  0.7546771E-02  0.1511870E+00
         21   -1    0    0  502  501  0.00000000000E+00  0.00000000000E+00  0.11662123240E+03  0.11662123240E+03  0.00000000000E+00 0.  1.
         21   -1    0    0  504  502 -0.00000000000E+00 -0.00000000000E+00 -0.12489219646E+03  0.12489219646E+03  0.00000000000E+00 0. -1.
         21    1    1    2  503  501  0.19503477023E+02 -0.91122083492E+01  0.11468464244E+03  0.11668755362E+03  0.00000000000E+00 0.  1.
         21    1    1    2  504  503 -0.19503477023E+02  0.91122083492E+01 -0.12295560650E+03  0.12482587523E+03  0.00000000000E+00 0. -1.
</event>
<event>
 4    1  0.2967296E+006  0.3522540E+02  0.7546771E-02  0.1378985E+00
         21   -1    0    0  504  501  0.00000000000E+00  0.00000000000E+00  0.38673097410E+02  0.38673097410E+02  0.00000000000E+00 0.  1.
         21   -1    0    0  503  502 -0.00000000000E+00 -0.00000000000E+00 -0.33390995913E+02  0.33390995913E+02  0.00000000000E+00 0. -1.
         21    1    1    2  503  501 -0.19947976714E+01  0.35168875590E+02  0.97668495455E+01  0.36554348279E+02  0.00000000000E+00 0.  1.
         21    1    1    2  504  502  0.19947976714E+01 -0.35168875590E+02 -0.44847480477E+01  0.35509745044E+02  0.00000000000E+00 0. -1.
</event>
<event>
 4    1  0.2967296E+006  0.3199128E+02  0.7546771E-02  0.1403046E+00
         21   -1    0    0  502  501  0.00000000000E+00  0.00000000000E+00  0.52907071076E+02  0.52907071076E+02  0.00000000000E+00 0.  1.
         21   -1    0    0  503  502 -0.00000000000E+00 -0.00000000000E+00 -0.19536600959E+03  0.19536600959E+03  0.00000000000E+00 0.  1.
         21    1    1    2  503  504  0.28507058978E+02 -0.14518595430E+02 -0.18906016547E+03  0.19174772018E+03  0.00000000000E+00 0.  1.
         21    1    1    2  504  501 -0.28507058978E+02  0.14518595430E+02  0.46601226956E+02  0.56525360491E+02  0.00000000000E+00 0.  1.
</event>
<event>
 4    1  0.2967296E+006  0.2023013E+02  0.7546771E-02  0.1530546E+00
         21   -1    0    0  504  501  0.00000000000E+00  0.00000000000E+00  0.17837245302E+03  0.17837245302E+03  0.00000000000E+00 0. -1.
         21   -1    0    0  503  502 -0.00000000000E+00 -0.00000000000E+00 -0.35084140528E+01  0.35084140528E+01  0.00000000000E+00 0. -1.
         21    1    1    2  503  501  0.12746187410E+02  0.15709639169E+02  0.14092701499E+03  0.14237163205E+03  0.00000000000E+00 0. -1.
         21    1    1    2  504  502 -0.12746187410E+02 -0.15709639169E+02  0.33937023977E+02  0.39509235031E+02  0.00000000000E+00 0. -1.
</event>
<event>
 4    1  0.2967296E+006  0.3395074E+02  0.7546771E-02  0.1388094E+00
         21   -1    0    0  503  501  0.00000000000E+00  0.00000000000E+00  0.88433245930E+01  0.88433245930E+01  0.00000000000E+00 0.  1.
         21   -1    0    0  504  502 -0.00000000000E+00 -0.00000000000E+00 -0.17653186340E+03  0.17653186340E+03  0.00000000000E+00 0.  1.
         21    1    1    2  503  502 -0.33075057430E+02 -0.76611478014E+01 -0.13125596898E+03  0.13557574268E+03  0.00000000000E+00 0.  1.
         21    1    1    2  504  501  0.33075057430E+02  0.76611478014E+01 -0.36432569830E+02  0.49799445319E+02  0.00000000000E+00 0.  1.
</event>
<event>
 4    1  0.2967296E+006  0.2154478E+02  0.7546771E-02  0.1511627E+00
         21   -1    0    0  503  501  0.00000000000E+00  0.00000000000E+00  0.26958987640E+02  0.26958987640E+02  0.00000000000E+00 0.  1.
         21   -1    0    0  504  502 -0.00000000000E+00 -0.00000000000E+00 -0.28799109730E+02  0.28799109730E+02  0.00000000000E+00 0.  1.
         21    1    1    2  503  502  0.11610944656E+02 -0.18148369634E+02  0.16759246109E+02  0.27295598296E+02  0.00000000000E+00 0.  1.
         21    1    1    2  504  501 -0.11610944656E+02  0.18148369634E+02 -0.18599368199E+02  0.28462499075E+02  0.00000000000E+00 0.  1.
</event>
<event>
 4    1  0.2967296E+006  0.2127144E+02  0.7546771E-02  0.1515425E+00
         21   -1    0    0  504  501  0.00000000000E+00  0.00000000000E+00  0.33553600264E+01  0.33553600264E+01  0.00000000000E+00 0.  1.
         21   -1    0    0  503  502 -0.00000000000E+00 -0.00000000000E+00 -0.13528869046E+03  0.13528869046E+03  0.00000000000E+00 0.  1.
         21    1    1    2  503  501 -0.20747204570E+02 -0.46933433331E+01 -0.62024111891E+02  0.65570301394E+02  0.00000000000E+00 0.  1.
         21    1    1    2  504  502  0.20747204570E+02  0.46933433331E+01 -0.69909218545E+02  0.73073749094E+02  0.00000000000E+00 0.  1.
</event>
<event>
 4    1  0.2967296E+006  0.2379368E+02  0.7546771E-02  0.1482765E+00
         21   -1    0    0  503  501  0.00000000000E+00  0.00000000000E+00  0.83919592504E+01  0.83919592504E+01  0.00000000000E+00 0. -1.
         21   -1    0    0  504  502 -0.00000000000E+00 -0.00000000000E+00 -0.13591730153E+03  0.13591730153E+03  0.00000000000E+00 0.  1.
         21    1    1    2  503  502 -0.23749907358E+02  0.14426318256E+01 -0.11496975289E+03  0.11740606188E+03  0.00000000000E+00 0.  1.
         21    1    1    2  504  501  0.23749907358E+02 -0.14426318256E+01 -0.12555589383E+02  0.26903198896E+02  0.00000000000E+00 0. -1.
</event>
<event>
 4    1  0.2967296E+006  0.2152445E+02  0.7546771E-02  0.1511907E+00
         21   -1    0    0  502  501  0.00000000000E+00  0.00000000000E+00  0.17388217517E+02  0.17388217517E+02  0.00000000000E+00 0.  1.
         21   -1    0    0  503  502 -0.00000000000E+00 -0.00000000000E+00 -0.27823950432E+02  0.27823950432E+02  0.00000000000E+00 0.  1.
         21    1    1    2  503  504 -0.15834005083E+02 -0.14580338259E+02 -0.98719978988E+01  0.23680336214E+02  0.00000000000E+00 0.  1.
         21    1    1    2  504  501  0.15834005083E+02  0.14580338259E+02 -0.56373501647E+00  0.21531831735E+02  0.00000000000E+00 0.  1.
</event>
<event>
 4    1  0.2967296E+006  0.2742525E+02  0.7546771E-02  0.1443383E+00
         21   -1    0    0  504  501  0.00000000000E+00  0.00000000000E+00  0.12183302984E+03  0.12183302984E+03  0.00000000000E+00 0.  1.
         21   -1    0    0  501  502 -0.00000000000E+00 -0.00000000000E+00 -0.21533878301E+03  0.21533878301E+03  0.00000000000E+00 0.  1.
         21    1    1    2  503  502  0.13319585680E+02 -0.23973583436E+02 -0.21290460846E+03  0.21466372858E+03  0.00000000000E+00 0.  1.
         21    1    1    2  504  503 -0.13319585680E+02  0.23973583436E+02  0.11939885529E+03  0.12250808426E+03  0.00000000000E+00 0.  1.
</event>
<event>
 4    1  0.2967296E+006  0.2077746E+02  0.7546771E-02  0.1522466E+00
         21   -1    0    0  502  501  0.00000000000E+00  0.00000000000E+00  0.10965650070E+03  0.10965650070E+03  0.00000000000E+00 0.  1.
         21   -1    0    0  504  502 -0.00000000000E+00 -0.00000000000E+00 -0.63665310054E+03  0.63665310054E+03  0.00000000000E+00 0. -1.
         21    1    1    2  503  501 -0.13829690685E+02 -0.15506202550E+02  0.10850097537E+03  0.11047245954E+03  0.00000000000E+00 0.  1.
         21    1    1    2  504  503  0.13829690685E+02  0.15506202550E+02 -0.63549757521E+03  0.63583714169E+03  0.00000000000E+00 0. -1.
</event>
<event>
 4    1  0.2967296E+006  0.2186375E+02  0.7546771E-02  0.1507281E+00
         21   -1    0    0  504  501  0.00000000000E+00  0.00000000000E+00  0.78134852940E+02  0.78134852940E+02  0.00000000000E+00 0. -1.
         21   -1    0    0  503  502 -0.00000000000E+00 -0.00000000000E+00 -0.68030634592E+01  0.68030634592E+01  0.00000000000E+00 0.  1.
         21    1    1    2  503  501 -0.21069838393E+02 -0.58382866660E+01  0.49143304957E+02  0.53787434436E+02  0.00000000000E+00 0. -1.
         21    1    1    2  504  502  0.21069838393E+02  0.58382866660E+01  0.22188484524E+02  0.31150481964E+02  0.00000000000E+00 0.  1.
</event>
<event>
 4    1  0.2967296E+006  0.3797908E+02  0.7546771E-02  0.1360753E+00
         21   -1    0    0  503  501  0.00000000000E+00  0.00000000000E+00  0.20795368320E+03  0.20795368320E+03  0.00000000000E+00 0.  1.
         21   -1    0    0  501  502 -0.00000000000E+00 -0.00000000000E+00 -0.69602845450E+01  0.69602845450E+01  0.00000000000E+00 0.  1.
         21    1    1    2  503  504 -0.22009166971E+02  0.30951692140E+02  0.94177109249E+02  0.10154673103E+03  0.00000000000E+00 0.  1.
         21    1    1    2  504  502  0.22009166971E+02 -0.30951692140E+02  0.10681628940E+03  0.11336723671E+03  0.00000000000E+00 0.  1.
</event>
<event>
 4    1  0.2967296E+006  0.2321859E+02  0.7546771E-02  0.1489771E+00
         21   -1    0    0  503  501  0.00000000000E+00  0.00000000000E+00  0.34461268560E+03  0.34461268560E+03  0.00000000000E+00 0. -1.
         21   -1    0    0  504  502 -0.00000000000E+00 -0.00000000000E+00 -0.86870699610E+01  0.86870699610E+01  0.00000000000E+00 0. -1.
         21    1    1    2  503  502 -0.12000423852E+02  0.19876937709E+02  0.32791820978E+03  0.32873919014E+03  0.00000000000E+00 0. -1.
         21    1    1    2  504  501  0.12000423852E+02 -0.19876937709E+02  0.80074058552E+01  0.24560565422E+02  0.00000000000E+00 0. -1.
</event>
<event>
 4    1  0.2967296E+006  0.3298574E+02  0.7546771E-02  0.1395305E+00
         21   -1    0    0  504  501  0.00000000000E+00  0.00000000000E+00  0.51911099023E+02  0.51911099023E+02  0.00000000000E+00 0.  1.
         21   -1    0    0  503  502 -0.00000000000E+00 -0.00000000000E+00 -0.21124498374E+02  0.21124498374E+02  0.00000000000E+00 0.  1.
         21    1    1    2  503  501 -0.32940337208E+02 -0.17300309134E+01  0.18615382237E+02  0.37875998709E+02  0.00000000000E+00 0.  1.
         21    1    1    2  504  502  0.32940337208E+02  0.17300309134E+01  0.12171218412E+02  0.35159598689E+02  0.00000000000E+00 0.  1.
</event>
<event>
 4    1  0.2967296E+006  0.2350377E+02  0.7546771E-02  0.1486267E+00
         21   -1    0    0  504  501  0.00000000000E+00  0.00000000000E+00  0.15425174899E+03  0.15425174899E+03  0.00000000000E+00 0. -1.
         21   -1    0    0  503  502 -0.00000000000E+00 -0.00000000000E+00 -0.27022077417E+03  0.27022077417E+03  0.00000000000E+00 0. -1.
         21    1    1    2  503  501 -0.23065813652E+02 -0.45161143834E+01 -0.26880966093E+03  0.26983524762E+03  0.00000000000E+00 0. -1.
         21    1    1    2  504  502  0.23065813652E+02  0.45161143834E+01  0.15284063575E+03  0.15463727554E+03  0.00000000000E+00 0. -1.
</event>
<event>
 4    1  0.2967296E+006  0.2134377E+02  0.7546771E-02  0.1514413E+00
         21   -1    0    0  504  501  0.00000000000E+00  0.00000000000E+00  0.19437065281E+01  0.19437065281E+01  0.00000000000E+00 0. -1.
         21   -1    0    0  503  502 -0.00000000000E+00 -0.00000000000E+00 -0.71155071446E+03  0.71155071446E+03  0.00000000000E+00 0. -1.
         21    1    1    2  503  501  0.16403644980E+02 -0.13655652023E+02 -0.64694737509E+03  0.64729936083E+03  0.00000000000E+00 0. -1.
         21    1    1    2  504  502 -0.16403644980E+02  0.13655652023E+02 -0.62659632836E+02  0.66195060148E+02  0.00000000000E+00 0. -1.
</event>
<event>
 4    1  0.2967296E+006  0.2298352E+02  0.7546771E-02  0.1492705E+00
         21   -1    0    0  503  501  0.00000000000E+00  0.00000000000E+00  0.38816473218E+02  0.38816473218E+02  0.00000000000E+00 0.  1.
         21   -1    0    0  504  502 -0.00000000000E+00 -0.00000000000E+00 -0.70166528421E+02  0.70166528421E+02  0.00000000000E+00 0.  1.
         21    1    1    2  503  502 -0.19002963699E+01 -0.22904826696E+02 -0.64597690823E+02  0.68564596344E+02  0.00000000000E+00 0.  1.
         21    1    1    2  504  501  0.19002963699E+01  0.22904826696E+02  0.33247635620E+02  0.40418405295E+02  0.00000000000E+00 0.  1.
</event>
<event>
 4    1  0.2967296E+006  0.2085225E+02  0.7546771E-02  0.1521385E+00
         21   -1    0    0  502  501  0.00000000000E+00  0.00000000000E+00  0.79069537255E+00  0.79069537255E+00  0.00000000000E+00 0.  1.
         21   -1    0    0  503  502 -0.00000000000E+00 -0.00000000000E+00 -0.66363330400E+03  0.66363330400E+03  0.00000000000E+00 0.  1.
         21    1    1    2  503  504 -0.14062477633E+02  0.15396857224E+02 -0.46894052809E+03  0.46940391495E+03  0.00000000000E+00 0.  1.
         21    1    1    2  504  501  0.14062477633E+02 -0.15396857224E+02 -0.19390208054E+03  0.19502008442E+03  0.00000000000E+00 0.  1.
</event>
<event>
 4    1  0.2967296E+006  0.2316041E+02  0.7546771E-02  0.1490494E+00
         21   -1    0    0  504  501  0.00000000000E+00  0.00000000000E+00  0.40056792163E+01  0.40056792163E+01  0.00000000000E+00 0. -1.
         21   -1    0    0  503  502 -0.00000000000E+00 -0.00000000000E+00 -0.22865354723E+03  0.22865354723E+03  0.00000000000E+00 0. -1.
         21    1    1    2  503  501  0.21051554048E+02  0.96559253777E+01 -0.18720528336E+03  0.18863250765E+03  0.00000000000E+00 0. -1.
         21    1    1    2  504  502 -0.21051554048E+02 -0.96559253777E+01 -0.37442584649E+02  0.44026718796E+02  0.00000000000E+00 0. -1.
</event>
<event>
 4    1  0.2967296E+006  0.3038093E+02  0.7546771E-02  0.1416314E+00
         21   -1    0    0  503  501  0.00000000000E+00  0.00000000000E+00  0.50463699318E+03  0.50463699318E+03  0.00000000000E+00 0.  1.
         21   -1    0    0  504  502 -0.00000000000E+00 -0.00000000000E+00 -0.37117967614E+01  0.37117967614E+01  0.00000000000E+00 0.  1.
         21    1    1    2  503  502 -0.13813599334E+02 -0.27058927630E+02  0.69438310385E+02  0.75793667546E+02  0.00000000000E+00 0.  1.
         21    1    1    2  504  501  0.13813599334E+02  0.27058927630E+02  0.43148688603E+03  0.43255512239E+03  0.00000000000E+00 0.  1.
</event>
<event>
 4    1  0.2967296E+006  0.2675666E+02  0.7546771E-02  0.1450068E+00
         21   -1    0    0  502  501  0.00000000000E+00  0.00000000000E+00  0.38543902438E+03  0.38543902438E+03  0.00000000000E+00 0. -1.
         21   -1    0    0  504  502 -0.00000000000E+00 -0.00000000000E+00 -0.10322534341E+03  0.10322534341E+03  0.00000000000E+00 0. -1.
         21    1    1    2  503  501  0.54936983776E+01  0.26186602628E+02  0.38323081912E+03  0.38416374062E+03  0.00000000000E+00 0. -1.
         21    1    1    2  504  503 -0.54936983776E+01 -0.26186602628E+02 -0.10101713815E+03  0.10450062717E+03  0.00000000000E+00 0. -1.
</event>
<event>
 4    1  0.2967296E+006  0.3155080E+02  0.7546771E-02  0.1406582E+00
         21   -1    0    0  502  501  0.00000000000E+00  0.00000000000E+00  0.35410222620E+03  0.35410222620E+03  0.00000000000E+00 0. -1.
         21   -1    0    0  504  502 -0.00000000000E+00 -0.00000000000E+00 -0.47980496052E+01  0.47980496052E+01  0.00000000000E+00 0.  1.
         21    1    1    2  503  501  0.17605322116E+01 -0.31501639311E+02  0.29012862476E+03  0.29183911948E+03  0.00000000000E+00 0. -1.
         21    1    1    2  504  503 -0.17605322116E+01  0.31501639311E+02  0.59175551836E+02  0.67061156327E+02  0.00000000000E+00 0.  1.
</event>
<event>
 4    1  0.2967296E+006  0.3135477E+02  0.7546771E-02  0.1408178E+00
         21   -1    0    0  504  501  0.00000000000E+00  0.00000000000E+00  0.66493593296E+03  0.66493593296E+03  0.00000000000E+00 0.  1.
         21   -1    0    0  501  502 -0.00000000000E+00 -0.00000000000E+00 -0.51856523199E+01  0.51856523199E+01  0.00000000000E+00 0.  1.
         21    1    1    2  503  502 -0.73766816026E+01  0.30474683449E+02  0.46578843773E+02  0.56149002217E+02  0.00000000000E+00 0.  1.
         21    1    1    2  504  503  0.73766816026E+01 -0.30474683449E+02  0.61317143687E+03  0.61397258306E+03  0.00000000000E+00 0.  1.
</event>
<event>
 4    1  0.2967296E+006  0.3178061E+02  0.7546771E-02  0.1404729E+00
         21   -1    0    0  503  501  0.00000000000E+00  0.00000000000E+00  0.13843167691E+03  0.13843167691E+03  0.00000000000E+00 0.  1.
         21   -1    0    0  504  502 -0.00000000000E+00 -0.00000000000E+00 -0.10288458804E+02  0.10288458804E+02  0.00000000000E+00 0.  1.
         21    1    1    2  503  502 -0.21196218571E+02 -0.23679688607E+02  0.10417430401E+03  0.10891415404E+03  0.00000000000E+00 0.  1.
         21    1    1    2  504  501  0.21196218571E+02  0.23679688607E+02  0.23968914097E+02  0.39805981676E+02  0.00000000000E+00 0.  1.
</event>
<event>
 4    1  0.2967296E+006  0.2359873E+02  0.7546771E-02  0.1485114E+00
         21   -1    0    0  504  501  0.00000000000E+00  0.00000000000E+00  0.95676539516E+02  0.95676539516E+02  0.00000000000E+00 0.  1.
         21   -1    0    0  503  502 -0.00000000000E+00 -0.00000000000E+00 -0.13496000535E+02  0.13496000535E+02  0.00000000000E+00 0.  1.
         21    1    1    2  503  501  0.22673180619E+02 -0.65442271434E+01 -0.74896726760E-01  0.23598848230E+02  0.00000000000E+00 0.  1.
         21    1    1    2  504  502 -0.22673180619E+02  0.65442271434E+01  0.82255435708E+02  0.85573691821E+02  0.00000000000E+00 0.  1.
</event>
<event>
 4    1  0.2967296E+006  0.4842351E+02  0.7546771E-02  0.1305156E+00
         21   -1    0    0  502  501  0.00000000000E+00  0.00000000000E+00  0.17125812063E+03  0.17125812063E+03  0.00000000000E+00 0.  1.
         21   -1    0    0  503  502 -0.00000000000E+00 -0.00000000000E+00 -0.18288595683E+03  0.18288595683E+03  0.00000000000E+00 0.  1.
         21    1    1    2  503  504  0.36385021179E+02  0.31952564095E+02 -0.17612874484E+03  0.18266409302E+03  0.00000000000E+00 0.  1.
         21    1    1    2  504  501 -0.36385021179E+02 -0.31952564095E+02  0.16450090864E+03  0.17147998444E+03  0.00000000000E+00 0.  1.
</event>
<event>
 4    1  0.2967296E+006  0.2021602E+02  0.7546771E-02  0.1530759E+00
         21   -1    0    0  503  501  0.00000000000E+00  0.00000000000E+00  0.41909933111E+03  0.41909933111E+03  0.00000000000E+00 0. -1.
         21   -1    0    0  501  502 -0.00000000000E+00 -0.00000000000E+00 -0.54131477960E+01  0.54131477960E+01  0.00000000000E+00 0. -1.
         21    1    1    2  503  504 -0.43735244935E+01  0.19737271625E+02  0.39903217981E+03  0.39954395019E+03  0.00000000000E+00 0. -1.
         21    1    1    2  504  502  0.43735244935E+01 -0.19737271625E+02  0.14654003506E+02  0.24968528721E+02  0.00000000000E+00 0. -1.
</event>
<event>
 4    1  0.2967296E+006  0.2086334E+02  0.7546771E-02  0.1521225E+00
         21   -1    0    0  504  501  0.00000000000E+00  0.00000000000E+00  0.33263975355E+03  0.33263975355E+03  0.00000000000E+00 0.  1.
         21   -1    0    0  503  502 -0.00000000000E+00 -0.00000000000E+00 -0.49199978992E+01  0.49199978992E+01  0.00000000000E+00 0.  1.
         21    1    1    2  503  501  0.16137008123E+02 -0.13224068004E+02  0.30846320723E+03  0.30916796279E+03  0.00000000000E+00 0.  1.
         21    1    1    2  504  502 -0.16137008123E+02  0.13224068004E+02  0.19256548419E+02  0.28391788650E+02  0.00000000000E+00 0.  1.
</event>
<event>
 4    1  0.2967296E+006  0.2775277E+02  0.7546771E-02  0.1440190E+00
         21   -1    0    0  502  501  0.00000000000E+00  0.00000000000E+00  0.13021486710E+03  0.13021486710E+03  0.00000000000E+00 0.  1.
         21   -1    0    0  503  502 -0.00000000000E+00 -0.00000000000E+00 -0.10041653205E+02  0.10041653205E+02  0.00000000000E+00 0.  1.
         21    1    1    2  503  504 -0.27752238199E+02 -0.17105234044E+00  0.15130215507E+02  0.31609166475E+02  0.00000000000E+00 0.  1.
         21    1    1    2  504  501  0.27752238199E+02  0.17105234044E+00  0.10504299839E+03  0.10864735383E+03  0.00000000000E+00 0.  1.
</event>
<event>
 4    1  0.2967296E+006  0.2402940E+02  0.7546771E-02  0.1479961E+00
         21   -1    0    0  503  501  0.00000000000E+00  0.00000000000E+00  0.96784651277E+02  0.96784651277E+02  0.00000000000E+00 0.  1.
         21   -1    0    0  501  502 -0.00000000000E+00 -0.00000000000E+00 -0.10715121614E+02  0.10715121614E+02  0.00000000000E+00 0. -1.
         21    1    1    2  503  504  0.98336900118E+01 -0.21925109557E+02  0.78818705709E+02  0.82400244284E+02  0.00000000000E+00 0.  1.
         21    1    1    2  504  502 -0.98336900118E+01  0.21925109557E+02  0.72508239537E+01  0.25099528608E+02  0.00000000000E+00 0. -1.
</event>
<event>
 4    1  0.2967296E+006  0.3200708E+02  0.7546771E-02  0.1402921E+00
         21   -1    0    0  503  501  0.00000000000E+00  0.00000000000E+00  0.14395096687E+03  0.14395096687E+03  0.00000000000E+00 0. -1.
         21   -1    0    0  504  502 -0.00000000000E+00 -0.00000000000E+00 -0.83076445537E+02  0.83076445537E+02  0.00000000000E+00 0.  1.
         21    1    1    2  503  502 -0.30856686551E+02  0.85039848487E+01 -0.78105574179E+02  0.84409321648E+02  0.00000000000E+00 0.  1.
         21    1    1    2  504  501  0.30856686551E+02 -0.85039848487E+01  0.13898009551E+03  0.14261809076E+03  0.00000000000E+00 0. -1.
</event>
<event>
 4    1  0.2967296E+006  0.2003157E+02  0.7546771E-02  0.1533554E+00
         21   -1    0    0  504  501  0.00000000000E+00  0.00000000000E+00  0.18769341990E+02  0.18769341990E+02  0.00000000000E+00 0. -1.
         21   -1    0    0  503  502 -0.00000000000E+00 -0.00000000000E+00 -0.34484984016E+02  0.34484984016E+02  0.00000000000E+00 0.  1.
         21    1    1    2  503  501 -0.18143216315E+02 -0.84904381302E+01  0.85575207529E+01  0.21782906127E+02  0.00000000000E+00 0. -1.
         21    1    1    2  504  502  0.18143216315E+02  0.84904381302E+01 -0.24273162779E+02  0.31471419879E+02  0.00000000000E+00 0.  1.
</event>
<event>
 4    1  0.2967296E+006  0.2037092E+02  0.7546771E-02  0.1528439E+00
         21   -1    0    0  503  501  0.00000000000E+00  0.00000000000E+00  0.60763557491E+00  0.60763557491E+00  0.00000000000E+00 0.  1.
         21   -1    0    0  504  502 -0.00000000000E+00 -0.00000000000E+00 -0.98433816537E+03  0.98433816537E+03  0.00000000000E+00 0.  1.
         21    1    1    2  503  502 -0.10793596881E+02 -0.17276361560E+02 -0.21935334628E+03  0.22029721952E+03  0.00000000000E+00 0.  1.
         21    1    1    2  504  501  0.10793596881E+02  0.17276361560E+02 -0.76437718351E+03  0.76464858143E+03  0.00000000000E+00 0.  1.
</event>
<event>
 4    1  0.2967296E+006  0.2706417E+02  0.7546771E-02  0.1446965E+00
         21   -1    0    0  503  501  0.00000000000E+00  0.00000000000E+00  0.55442193622E+02  0.55442193622E+02  0.00000000000E+00 0.  1.
         21   -1    0    0  501  502 -0.00000000000E+00 -0.00000000000E+00 -0.48356555050E+02  0.48356555050E+02  0.00000000000E+00 0.  1.
         21    1    1    2  503  504 -0.14350916784E+02 -0.22946028936E+02  0.47788121977E+02  0.54919701916E+02  0.00000000000E+00 0.  1.
         21    1    1    2  504  502  0.14350916784E+02  0.22946028936E+02 -0.40702483404E+02  0.48879046756E+02  0.00000000000E+00 0.  1.
</event>
<event>
 4    1  0.2967296E+006  0.2297444E+02  0.7546771E-02  0.1492819E+00
         21   -1    0    0  504  501  0.00000000000E+00  0.00000000000E+00  0.60327180837E+01  0.60327180837E+01  0.00000000000E+00 0. -1.
         21   -1    0    0  503  502 -0.00000000000E+00 -0.00000000000E+00 -0.88983659252E+02  0.88983659252E+02  0.00000000000E+00 0. -1.
         21    1    1    2  503  501 -0.22462002856E+02  0.48253006114E+01 -0.47622905853E+02  0.52875006007E+02  0.00000000000E+00 0. -1.
         21    1    1    2  504  502  0.22462002856E+02 -0.48253006114E+01 -0.35328035315E+02  0.42141371329E+02  0.00000000000E+00 0. -1.
</event>
<event>
 4    1  0.2967296E+006  0.2003072E+02  0.7546771E-02  0.1533566E+00
         21   -1    0    0  503  501  0.00000000000E+00  0.00000000000E+00  0.86076077395E+01  0.86076077395E+01  0.00000000000E+00 0.  1.
         21   -1    0    0  504  502 -0.00000000000E+00 -0.00000000000E+00 -0.15781620917E+03  0.15781620917E+03  0.00000000000E+00 0.  1.
         21    1    1    2  503  502 -0.19782770798E+02  0.31419590374E+01 -0.14445448296E+03  0.14583664689E+03  0.00000000000E+00 0.  1.
         21    1    1    2  504  501  0.19782770798E+02 -0.31419590374E+01 -0.47541184644E+01  0.20587170020E+02  0.00000000000E+00 0.  1.
</event>
<event>
 4    1  0.2967296E+006  0.2059189E+02  0.7546771E-02  0.1525172E+00
         21   -1    0    0  504  501  0.00000000000E+00  0.00000000000E+00  0.26247502924E+01  0.26247502924E+01  0.00000000000E+00 0.  1.
         21   -1    0    0  503  502 -0.00000000000E+00 -0.00000000000E+00 -0.31456826334E+03  0.31456826334E+03  0.00000000000E+00 0.  1.
         21    1    1    2  503  501  0.91017356356E+01 -0.18471173995E+02 -0.26658552229E+03  0.26737963003E+03  0.00000000000E+00 0.  1.
         21    1    1    2  504  502 -0.91017356356E+01  0.18471173995E+02 -0.45357990755E+02  0.49813383600E+02  0.00000000000E+00 0.  1.
</event>
<event>
 4    1  0.2967296E+006  0.2456242E+02  0.7546771E-02  0.1473758E+00
         21   -1    0    0  503  501  0.00000000000E+00  0.00000000000E+00  0.54519018297E+03  0.54519018297E+03  0.00000000000E+00 0.  1.
         21   -1    0    0  504  502 -0.00000000000E+00 -0.00000000000E+00 -0.12379172308E+02  0.12379172308E+02  0.00000000000E+00 0.  1.
         21    1    1    2  503  502 -0.19701731462E+02  0.14668140402E+02  0.37316742448E+00  0.24565256347E+02  0.00000000000E+00 0.  1.
         21    1    1    2  504  501  0.19701731462E+02 -0.14668140402E+02  0.53243784324E+03  0.53300409893E+03  0.00000000000E+00 0.  1.
</event>
<event>
 4    1  0.2967296E+006  0.2225422E+02  0.7546771E-02  0.1502081E+00
         21   -1    0    0  503  501  0.00000000000E+00  0.00000000000E+00  0.37922139256E+03  0.37922139256E+03  0.00000000000E+00 0. -1.
         21   -1    0    0  501  502 -0.00000000000E+00 -0.00000000000E+00 -0.98767372013E+02  0.98767372013E+02  0.00000000000E+00 0. -1.
         21    1    1    2  503  504 -0.18721934902E+02 -0.12030773954E+02  0.37763606511E+03  0.37829122121E+03  0.00000000000E+00 0. -1.
         21    1    1    2  504  502  0.18721934902E+02  0.12030773954E+02 -0.97182044563E+02  0.99697543369E+02  0.00000000000E+00 0. -1.
</event>
<event>
 4    1  0.2967296E+006  0.3504251E+02  0.7546771E-02  0.1380265E+00
         21   -1    0    0  503  501  0.00000000000E+00  0.00000000000E+00  0.12606940900E+02  0.12606940900E+02  0.00000000000E+00 0. -1.
         21   -1    0    0  501  502 -0.00000000000E+00 -0.00000000000E+00 -0.47084928521E+03  0.47084928521E+03  0.00000000000E+00 0. -1.
         21    1    1    2  503  504  0.13396459935E+02 -0.32380739218E+02 -0.13843400185E+02  0.37677806993E+02  0.00000000000E+00 0. -1.
         21    1    1    2  504  502 -0.13396459935E+02  0.32380739218E+02 -0.44439894412E+03  0.44577841911E+03  0.00000000000E+00 0. -1.
</event>
<event>
 4    1  0.2967296E+006  0.2346880E+02  0.7546771E-02  0.1486694E+00
         21   -1    0    0  504  501  0.00000000000E+00  0.00000000000E+00  0.16058710079E+02  0.16058710079E+02  0.00000000000E+00 0. -1.
         21   -1    0    0  503  502 -0.00000000000E+00 -0.00000000000E+00 -0.35843759846E+02  0.35843759846E+02  0.00000000000E+00 0.  1.
         21    1    1    2  503  501 -0.19193648828E+02 -0.13505118389E+02 -0.15281402156E+02  0.28005457145E+02  0.00000000000E+00 0.  1.
         21    1    1    2  504  502  0.19193648828E+02  0.13505118389E+02 -0.45036476109E+01  0.23897012781E+02  0.00000000000E+00 0. -1.
</event>
<event>
 4    1  0.2967296E+006  0.3086267E+02  0.7546771E-02  0.1412245E+00
         21   -1    0    0  504  501  0.00000000000E+00  0.00000000000E+00  0.63151015734E+03  0.63151015734E+03  0.00000000000E+00 0. -1.
         21   -1    0    0  503  502 -0.00000000000E+00 -0.00000000000E+00 -0.15469530816E+01  0.15469530816E+01  0.00000000000E+00 0. -1.
         21    1    1    2  503  501  0.30780540432E+02 -0.22499862469E+01  0.26494473920E+03  0.26673623476E+03  0.00000000000E+00 0. -1.
         21    1    1    2  504  502 -0.30780540432E+02  0.22499862469E+01  0.36501846506E+03  0.36632087566E+03  0.00000000000E+00 0. -1.
</event>
<event>
 4    1  0.2967296E+006  0.7321025E+02  0.7546771E-02  0.1220553E+00
         21   -1    0    0  504  501  0.00000000000E+00  0.00000000000E+00  0.25738782129E+03  0.25738782129E+03  0.00000000000E+00 0. -1.
         21   -1    0    0  503  502 -0.00000000000E+00 -0.00000000000E+00 -0.23429679301E+02  0.23429679301E+02  0.00000000000E+00 0. -1.
         21    1    1    2  503  501  0.69608523757E+02  0.22680254590E+02  0.16380700305E+03  0.17942261501E+03  0.00000000000E+00 0. -1.
         21    1    1    2  504  502 -0.69608523757E+02 -0.22680254590E+02  0.70151138936E+02  0.10139488558E+03  0.00000000000E+00 0. -1.
</event>
<event>
 4    1  0.2967296E+006  0.2062649E+02  0.7546771E-02  0.1524665E+00
         21   -1    0    0  504  501  0.00000000000E+00  0.00000000000E+00  0.13431890962E+01  0.13431890962E+01  0.00000000000E+00 0.  1.
         21   -1    0    0  503  502 -0.00000000000E+00 -0.00000000000E+00 -0.55935647555E+03  0.55935647555E+03  0.00000000000E+00 0. -1.
         21    1    1    2  503  501 -0.95851874008E+01 -0.18264074549E+02 -0.46363954648E+03  0.46409813757E+03  0.00000000000E+00 0. -1.
         21    1    1    2  504  502  0.95851874008E+01  0.18264074549E+02 -0.94373739976E+02  0.96601527077E+02  0.00000000000E+00 0.  1.
</event>
<event>
 4    1  0.2967296E+006  0.2228717E+02  0.7546771E-02  0.1501649E+00
         21   -1    0    0  504  501  0.00000000000E+00  0.00000000000E+00  0.19443475346E+03  0.19443475346E+03  0.00000000000E+00 0.  1.
         21   -1    0    0  501  502 -0.00000000000E+00 -0.00000000000E+00 -0.87949840649E+02  0.87949840649E+02  0.00000000000E+00 0.  1.
         21    1    1    2  503  502  0.64050863225E+01 -0.21346963774E+02 -0.85884124700E+02  0.88728805180E+02  0.00000000000E+00 0.  1.
         21    1    1    2  504  503 -0.64050863225E+01  0.21346963774E+02  0.19236903751E+03  0.19365578893E+03  0.00000000000E+00 0.  1.
</event>
<event>
 4    1  0.2967296E+006  0.2233369E+02  0.7546771E-02  0.1501039E+00
         21   -1    0    0  504  501  0.00000000000E+00  0.00000000000E+00  0.19307032992E+02  0.19307032992E+02  0.00000000000E+00 0.  1.
         21   -1    0    0  503  502 -0.00000000000E+00 -0.00000000000E+00 -0.88479833588E+02  0.88479833588E+02  0.00000000000E+00 0.  1.
         21    1    1    2  503  501 -0.75966261665E+01 -0.21002028347E+02 -0.79934273161E+02  0.82995674282E+02  0.00000000000E+00 0.  1.
         21    1    1    2  504  502  0.75966261665E+01  0.21002028347E+02  0.10761472565E+02  0.24791192298E+02  0.00000000000E+00 0.  1.
</event>
<event>
 4    1  0.2967296E+006  0.3280475E+02  0.7546771E-02  0.1396690E+00
         21   -1    0    0  504  501  0.00000000000E+00  0.00000000000E+00  0.21120364319E+02  0.21120364319E+02  0.00000000000E+00 0. -1.
         21   -1    0    0  503  502 -0.00000000000E+00 -0.00000000000E+00 -0.92256676939E+02  0.92256676939E+02  0.00000000000E+00 0. -1.
         21    1    1    2  503  501 -0.18486881251E+02  0.27099573068E+02  0.23623949655E+01  0.32889702778E+02  0.00000000000E+00 0. -1.
         21    1    1    2  504  502  0.18486881251E+02 -0.27099573068E+02 -0.73498707585E+02  0.80487338480E+02  0.00000000000E+00 0. -1.
</event>
<event>
 4    1  0.2967296E+006  0.3262993E+02  0.7546771E-02  0.1398038E+00
         21   -1    0    0  503  501  0.00000000000E+00  0.00000000000E+00  0.10478473132E+03  0.10478473132E+03  0.00000000000E+00 0. -1.
         21   -1    0    0  504  502 -0.00000000000E+00 -0.00000000000E+00 -0.13830403464E+03  0.13830403464E+03  0.00000000000E+00 0. -1.
         21    1    1    2  503  502 -0.21415961121E+02  0.24618472513E+02 -0.13375404582E+03  0.13767664055E+03  0.00000000000E+00 0. -1.
         21    1    1    2  504  501  0.21415961121E+02 -0.24618472513E+02  0.10023474250E+03  0.10541212541E+03  0.00000000000E+00 0. -1.
</event>
<event>
 4    1  0.2967296E+006  0.2043723E+02  0.7546771E-02  0.1527453E+00
         21   -1    0    0  503  501  0.00000000000E+00  0.00000000000E+00  0.10515515780E+01  0.10515515780E+01  0.00000000000E+00 0.  1.
         21   -1    0    0  504  502 -0.00000000000E+00 -0.00000000000E+00 -0.82885537935E+03  0.82885537935E+03  0.00000000000E+00 0. -1.
         21    1    1    2  503  502 -0.18735721772E+02 -0.81641401615E+01 -0.71335348807E+03  0.71364618642E+03  0.00000000000E+00 0. -1.
         21    1    1    2  504  501  0.18735721772E+02  0.81641401615E+01 -0.11445033971E+03  0.11626074451E+03  0.00000000000E+00 0.  1.
</event>
<event>
 4    1  0.2967296E+006  0.2645567E+02  0.7546771E-02  0.1453154E+00
         21   -1    0    0  504  501  0.00000000000E+00  0.00000000000E+00  0.80715094908E+03  0.80715094908E+03  0.00000000000E+00 0.  1.
         21   -1    0    0  503  502 -0.00000000000E+00 -0.00000000000E+00 -0.14911687621E+01  0.14911687621E+01  0.00000000000E+00 0.  1.
         21    1    1    2  503  501  0.20970009652E+02  0.16129512777E+02  0.14127084406E+03  0.14372666374E+03  0.00000000000E+00 0.  1.
         21    1    1    2  504  502 -0.20970009652E+02 -0.16129512777E+02  0.66438893625E+03  0.66491545410E+03  0.00000000000E+00 0.  1.
</event>
<event>
 4    1  0.2967296E+006  0.8630300E+02  0.7546771E-02  0.1189925E+00
         21   -1    0    0  504  501  0.00000000000E+00  0.00000000000E+00  0.14395120808E+04  0.14395120808E+04  0.00000000000E+00 0.  1.
         21   -1    0    0  503  502 -0.00000000000E+00 -0.00000000000E+00 -0.79131896200E+02  0.79131896200E+02  0.00000000000E+00 0.  1.
         21    1    1    2  503  501 -0.77942098169E+02  0.37057216119E+02 -0.53887745616E+02  0.10174525572E+03  0.00000000000E+00 0.  1.
         21    1    1    2  504  502  0.77942098169E+02 -0.37057216119E+02  0.14142679302E+04  0.14168987213E+04  0.00000000000E+00 0.  1.
</event>
<event>
 4    1  0.2967296E+006  0.3324041E+02  0.7546771E-02  0.1393374E+00
         21   -1    0    0  504  501  0.00000000000E+00  0.00000000000E+00  0.49375614403E+03  0.49375614403E+03  0.00000000000E+00 0. -1.
         21   -1    0    0  501  502 -0.00000000000E+00 -0.00000000000E+00 -0.44234007326E+01  0.44234007326E+01  0.00000000000E+00 0.  1.
         21    1    1    2  503  502 -0.31728011993E+02 -0.99125296576E+01  0.69575432639E+02  0.77108143644E+02  0.00000000000E+00 0.  1.
         21    1    1    2  504  503  0.31728011993E+02  0.99125296576E+01  0.41975731065E+03  0.42107140111E+03  0.00000000000E+00 0. -1.
</event>
<event>
 4    1  0.2967296E+006  0.2033706E+02  0.7546771E-02  0.1528944E+00
         21   -1    0    0  503  501  0.00000000000E+00  0.00000000000E+00  0.96833838368E+02  0.96833838368E+02  0.00000000000E+00 0.  1.
         21   -1    0    0  504  502 -0.00000000000E+00 -0.00000000000E+00 -0.23641206887E+02  0.23641206887E+02  0.00000000000E+00 0.  1.
         21    1    1    2  503  502 -0.20157149035E+02 -0.26991388444E+01 -0.17928881749E+02  0.27111636035E+02  0.00000000000E+00 0.  1.
         21    1    1    2  504  501  0.20157149035E+02  0.26991388444E+01  0.91121513231E+02  0.93363409220E+02  0.00000000000E+00 0.  1.
</event>
<event>
 4    1  0.2967296E+006  0.4719434E+02  0.7546771E-02  0.1310818E+00
         21   -1    0    0  502  501  0.00000000000E+00  0.00000000000E+00  0.35887030968E+03  0.35887030968E+03  0.00000000000E+00 0. -1.
         21   -1    0    0  504  502 -0.00000000000E+00 -0.00000000000E+00 -0.12783911663E+02  0.12783911663E+02  0.00000000000E+00 0.  1.
         21    1    1    2  503  501  0.44164303876E+02 -0.16637904483E+02  0.30633603841E+03  0.30995011539E+03  0.00000000000E+00 0. -1.
         21    1    1    2  504  503 -0.44164303876E+02  0.16637904483E+02  0.39750359611E+02  0.61704105955E+02  0.00000000000E+00 0.  1.
</event>
<event>
 4    1  0.2967296E+006  0.2016029E+02  0.7546771E-02  0.1531599E+00
         21   -1    0    0  503  501  0.00000000000E+00  0.00000000000E+00  0.11757186416E+03  0.11757186416E+03  0.00000000000E+00 0.  1.
         21   -1    0    0  504  502 -0.00000000000E+00 -0.00000000000E+00 -0.43324592112E+01  0.43324592112E+01  0.00000000000E+00 0.  1.
         21    1    1    2  503  502 -0.19783077040E+02 -0.38816537345E+01  0.29219240143E+02  0.35499315027E+02  0.00000000000E+00 0.  1.
         21    1    1    2  504  501  0.19783077040E+02  0.38816537345E+01  0.84020164810E+02  0.86405008348E+02  0.00000000000E+00 0.  1.
</event>
<event>
 4    1  0.2967296E+006  0.2993816E+02  0.7546771E-02  0.1420135E+00
         21   -1    0    0  504  501  0.00000000000E+00  0.00000000000E+00  0.11980044274E+02  0.11980044274E+02  0.00000000000E+00 0.  1.
         21   -1    0    0  503  502 -0.00000000000E+00 -0.00000000000E+00 -0.22540914213E+03  0.22540914213E+03  0.00000000000E+00 0. -1.
         21    1    1    2  503  501 -0.26133688681E+02  0.14605602287E+02 -0.96974116431E+01  0.31469558224E+02  0.00000000000E+00 0.  1.
         21    1    1    2  504  502  0.26133688681E+02 -0.14605602287E+02 -0.20373168621E+03  0.20591962818E+03  0.00000000000E+00 0. -1.
</event>
<event>
 4    1  0.2967296E+006  0.2944598E+02  0.7546771E-02  0.1424473E+00
         21   -1    0    0  504  501  0.00000000000E+00  0.00000000000E+00  0.20912397307E+03  0.20912397307E+03  0.00000000000E+00 0. -1.
         21   -1    0    0  503  502 -0.00000000000E+00 -0.00000000000E+00 -0.25159549425E+02  0.25159549425E+02  0.00000000000E+00 0. -1.
         21    1    1    2  503  501 -0.21689157066E+02  0.19915979260E+02 -0.15073085332E+02  0.33079656370E+02  0.00000000000E+00 0. -1.
         21    1    1    2  504  502  0.21689157066E+02 -0.19915979260E+02  0.19903750898E+03  0.20120386613E+03  0.00000000000E+00 0. -1.
</event>
<event>
 4    1  0.2967296E+006  0.2015530E+02  0.7546771E-02  0.1531675E+00
         21   -1    0    0  503  501  0.00000000000E+00  0.00000000000E+00  0.82021109768E+03  0.82021109768E+03  0.00000000000E+00 0.  1.
         21   -1    0    0  504  502 -0.00000000000E+00 -0.00000000000E+00 -0.20805181991E+01  0.20805181991E+01  0.00000000000E+00 0.  1.
         21    1    1    2  503  502 -0.61729166298E+01 -0.19186740849E+02  0.76795175130E+03  0.76821619889E+03  0.00000000000E+00 0.  1.
         21    1    1    2  504  501  0.61729166298E+01  0.19186740849E+02  0.50178828181E+02  0.54075416982E+02  0.00000000000E+00 0.  1.
</event>
<event>
 4    1  0.2967296E+006  0.2535147E+02  0.7546771E-02  0.1464910E+00
         21   -1    0    0  503  501  0.00000000000E+00  0.00000000000E+00  0.26244133287E+02  0.26244133287E+02  0.00000000000E+00 0.  1.
         21   -1    0    0  504  502 -0.00000000000E+00 -0.00000000000E+00 -0.82361353487E+03  0.82361353487E+03  0.00000000000E+00 0.  1.
         21    1    1    2  503  502  0.24796257888E+02  0.52766331476E+01  0.19879082726E+02  0.32216070410E+02  0.00000000000E+00 0.  1.
         21    1    1    2  504  501 -0.24796257888E+02 -0.52766331476E+01 -0.81724848431E+03  0.81764159775E+03  0.00000000000E+00 0.  1.
</event>
<event>
 4    1  0.2967296E+006  0.2270937E+02  0.7546771E-02  0.1496180E+00
         21   -1    0    0  503  501  0.00000000000E+00  0.00000000000E+00  0.48498539563E+02  0.48498539563E+02  0.00000000000E+00 0.  1.
         21   -1    0    0  504  502 -0.00000000000E+00 -0.00000000000E+00 -0.13140324785E+02  0.13140324785E+02  0.00000000000E+00 0.  1.
         21    1    1    2  503  502  0.22287716912E+02  0.43558118401E+01  0.42182570305E+01  0.23097816224E+02  0.00000000000E+00 0.  1.
         21    1    1    2  504  501 -0.22287716912E+02 -0.43558118401E+01  0.31139957747E+02  0.38541048124E+02  0.00000000000E+00 0.  1.
</event>
<event>
 4    1  0.2967296E+006  0.2661854E+02  0.7546771E-02  0.1451478E+00
         21   -1    0    0  504  501  0.00000000000E+00  0.00000000000E+00  0.19080441389E+03  0.19080441389E+03  0.00000000000E+00 0.  1.
         21   -1    0    0  503  502 -0.00000000000E+00 -0.00000000000E+00 -0.10479868748E+02  0.10479868748E+02  0.00000000000E+00 0.  1.
         21    1    1    2  503  501 -0.15259523101E+02 -0.21810395703E+02  0.17103102638E+03  0.17309002973E+03  0.00000000000E+00 0.  1.
         21    1    1    2  504  502  0.15259523101E+02  0.21810395703E+02  0.92935187540E+01  0.28194252904E+02  0.00000000000E+00 0.  1.
</event>
<event>
 4    1  0.2967296E+006  0.3548719E+02  0.7546771E-02  0.1377170E+00
         21   -1    0    0  502  501  0.00000000000E+00  0.00000000000E+00  0.76825597587E+02  0.76825597587E+02  0.00000000000E+00 0. -1.
         21   -1    0    0  503  502 -0.00000000000E+00 -0.00000000000E+00 -0.30240879259E+03  0.30240879259E+03  0.00000000000E+00 0. -1.
         21    1    1    2  503  504  0.66200287807E+01  0.34864246246E+02 -0.29719805553E+03  0.29930924586E+03  0.00000000000E+00 0. -1.
         21    1    1    2  504  501 -0.66200287807E+01 -0.34864246246E+02  0.71614860521E+02  0.79925144322E+02  0.00000000000E+00 0. -1.
</event>
<event>
 4    1  0.2967296E+006  0.2126150E+02  0.7546771E-02  0.1515564E+00
         21   -1    0    0  504  501  0.00000000000E+00  0.00000000000E+00  0.48314978583E+03  0.48314978583E+03  0.00000000000E+00 0.  1.
         21   -1    0    0  501  502 -0.00000000000E+00 -0.00000000000E+00 -0.13640017031E+01  0.13640017031E+01  0.00000000000E+00 0.  1.
         21    1    1    2  503  502 -0.14451147980E+01 -0.21212336373E+02  0.10513132778E+03  0.10725972055E+03  0.00000000000E+00 0.  1.
         21    1    1    2  504  503  0.14451147980E+01  0.21212336373E+02  0.37665445634E+03  0.37725406698E+03  0.00000000000E+00 0.  1.
</event>
<event>
 4    1  0.2967296E+006  0.2360885E+02  0.7546771E-02  0.1484991E+00
         21   -1    0    0  504  501  0.00000000000E+00  0.00000000000E+00  0.18984093293E+03  0.18984093293E+03  0.00000000000E+00 0. -1.
         21   -1    0    0  503  502 -0.00000000000E+00 -0.00000000000E+00 -0.13215949442E+02  0.13215949442E+02  0.00000000000E+00 0. -1.
         21    1    1    2  503  501 -0.72744101860E+01  0.22460198688E+02 -0.12308942389E+01  0.23640910923E+02  0.00000000000E+00 0. -1.
         21    1    1    2  504  502  0.72744101860E+01 -0.22460198688E+02  0.17785587773E+03  0.17941597145E+03  0.00000000000E+00 0. -1.
</event>
<event>
 4    1  0.2967296E+006  0.2473004E+02  0.7546771E-02  0.1471846E+00
         21   -1    0    0  503  501  0.00000000000E+00  0.00000000000E+00  0.19406360147E+02  0.19406360147E+02  0.00000000000E+00 0. -1.
         21   -1    0    0  504  502 -0.00000000000E+00 -0.00000000000E+00 -0.14764233283E+03  0.14764233283E+03  0.00000000000E+00 0. -1.
         21    1    1    2  503  502 -0.35057246540E+01  0.24480297177E+02  0.99578291815E+01  0.26659583966E+02  0.00000000000E+00 0. -1.
         21    1    1    2  504  501  0.35057246540E+01 -0.24480297177E+02 -0.13819380186E+03  0.14038910901E+03  0.00000000000E+00 0. -1.
</event>
<event>
 4    1  0.2967296E+006  0.4065020E+02  0.7546771E-02  0.1344717E+00
         21   -1    0    0  502  501  0.00000000000E+00  0.00000000000E+00  0.35421612702E+02  0.35421612702E+02  0.00000000000E+00 0.  1.
         21   -1    0    0  504  502 -0.00000000000E+00 -0.00000000000E+00 -0.64323447042E+02  0.64323447042E+02  0.00000000000E+00 0.  1.
         21    1    1    2  503  501 -0.38304217326E+02  0.13609769839E+02  0.11690564943E+02  0.42297851113E+02  0.00000000000E+00 0.  1.
         21    1    1    2  504  503  0.38304217326E+02 -0.13609769839E+02 -0.40592399283E+02  0.57447208632E+02  0.00000000000E+00 0.  1.
</event>
<event>
 4    1  0.2967296E+006  0.3435517E+02  0.7546771E-02  0.1385154E+00
         21   -1    0    0  504  501  0.00000000000E+00  0.00000000000E+00  0.21687552965E+03  0.21687552965E+03  0.00000000000E+00 0. -1.
         21   -1    0    0  503  502 -0.00000000000E+00 -0.00000000000E+00 -0.18168004551E+02  0.18168004551E+02  0.00000000000E+00 0. -1.
         21    1    1    2  503  501 -0.26522430340E+02 -0.21836628877E+02  0.19771126814E+03  0.20067392263E+03  0.00000000000E+00 0. -1.
         21    1    1    2  504  502  0.26522430340E+02  0.21836628877E+02  0.99625695725E+00  0.34369611575E+02  0.00000000000E+00 0. -1.
</event>
<event>
 4    1  0.2967296E+006  0.2776452E+02  0.7546771E-02  0.1440076E+00
         21   -1    0    0  504  501  0.00000000000E+00  0.00000000000E+00  0.52418605700E+02  0.52418605700E+02  0.00000000000E+00 0.  1.
         21   -1    0    0  503  502 -0.00000000000E+00 -0.00000000000E+00 -0.11199802723E+03  0.11199802723E+03  0.00000000000E+00 0. -1.
         21    1    1    2  503  501 -0.27733919792E+02 -0.13032490063E+01 -0.10641094834E+03  0.10997344539E+03  0.00000000000E+00 0. -1.
         21    1    1    2  504  502  0.27733919792E+02  0.13032490063E+01  0.46831526814E+02  0.54443187533E+02  0.00000000000E+00 0.  1.
</event>
<event>
 4    1  0.2967296E+006  0.2369756E+02  0.7546771E-02  0.1483920E+00
         21   -1    0    0  502  501  0.00000000000E+00  0.00000000000E+00  0.23218486134E+01  0.23218486134E+01  0.00000000000E+00 0.  1.
         21   -1    0    0  504  502 -0.00000000000E+00 -0.00000000000E+00 -0.35429493882E+03  0.35429493882E+03  0.00000000000E+00 0.  1.
         21    1    1    2  503  501  0.13092821713E+01 -0.23661362606E+02 -0.75541161848E+02  0.79170963323E+02  0.00000000000E+00 0.  1.
         21    1    1    2  504  503 -0.13092821713E+01  0.23661362606E+02 -0.27643192835E+03  0.27744582411E+03  0.00000000000E+00 0.  1.
</event>
<event>
 4    1  0.2967296E+006  0.2434731E+02  0.7546771E-02  0.1476239E+00
         21   -1    0    0  503  501  0.00000000000E+00  0.00000000000E+00  0.24958742582E+02  0.24958742582E+02  0.00000000000E+00 0.  1.
         21   -1    0    0  501  502 -0.00000000000E+00 -0.00000000000E+00 -0.25037355181E+02  0.25037355181E+02  0.00000000000E+00 0.  1.
         21    1    1    2  503  504  0.24015904332E+02  0.40034908462E+01  0.56272078335E+01  0.24989138998E+02  0.00000000000E+00 0.  1.
         21    1    1    2  504  502 -0.24015904332E+02 -0.40034908462E+01 -0.57058204325E+01  0.25006958764E+02  0.00000000000E+00 0.  1.
</event>
<event>
 4    1  0.2967296E+006  0.2938708E+02  0.7546771E-02  0.1424999E+00
         21   -1    0    0  503  501  0.00000000000E+00  0.00000000000E+00  0.22111193022E+03  0.22111193022E+03  0.00000000000E+00 0. -1.
         21   -1    0    0  504  502 -0.00000000000E+00 -0.00000000000E+00 -0.39382370361E+01  0.39382370361E+01  0.00000000000E+00 0. -1.
         21    1    1    2  503  502  0.24745684767E+02  0.15850923455E+02  0.11881205079E+03  0.12239241848E+03  0.00000000000E+00 0. -1.
         21    1    1    2  504  501 -0.24745684767E+02 -0.15850923455E+02  0.98361642398E+02  0.10265774878E+03  0.00000000000E+00 0. -1.
</event>
<event>
 4    1  0.2967296E+006  0.2107807E+02  0.7546771E-02  0.1518153E+00
         21   -1    0    0  502  501  0.00000000000E+00  0.00000000000E+00  0.15412543823E+03  0.15412543823E+03  0.00000000000E+00 0.  1.
         21   -1    0    0  503  502 -0.00000000000E+00 -0.00000000000E+00 -0.51367947542E+01  0.51367947542E+01  0.00000000000E+00 0. -1.
         21    1    1    2  503  504 -0.72604853817E+01  0.19788132545E+02  0.21743329296E+02  0.30282952406E+02  0.00000000000E+00 0. -1.
         21    1    1    2  504  501  0.72604853817E+01 -0.19788132545E+02  0.12724531418E+03  0.12897928058E+03  0.00000000000E+00 0.  1.
</event>
<event>
 4    1  0.2967296E+006  0.3800664E+02  0.7546771E-02  0.1360580E+00
         21   -1    0    0  504  501  0.00000000000E+00  0.00000000000E+00  0.22572047058E+02  0.22572047058E+02  0.00000000000E+00 0. -1.
         21   -1    0    0  501  502 -0.00000000000E+00 -0.00000000000E+00 -0.24730384856E+03  0.24730384856E+03  0.00000000000E+00 0.  1.
         21    1    1    2  503  502  0.37919450773E+02 -0.25728854580E+01 -0.22854019577E+03  0.23167892776E+03  0.00000000000E+00 0.  1.
         21    1    1    2  504  503 -0.37919450773E+02  0.25728854580E+01  0.38083942670E+01  0.38196967857E+02  0.00000000000E+00 0. -1.
</event>
<event>
 4    1  0.2967296E+006  0.3368787E+02  0.7546771E-02  0.1390030E+00
         21   -1    0    0  502  501  0.00000000000E+00  0.00000000000E+00  0.13043682839E+01  0.13043682839E+01  0.00000000000E+00 0. -1.
         21   -1    0    0  503  502 -0.00000000000E+00 -0.00000000000E+00 -0.10751125995E+04  0.10751125995E+04  0.00000000000E+00 0.  1.
         21    1    1    2  503  504  0.30453477199E+02 -0.14403416847E+02 -0.77195454951E+03  0.77268926433E+03  0.00000000000E+00 0.  1.
         21    1    1    2  504  501 -0.30453477199E+02  0.14403416847E+02 -0.30185368174E+03  0.30372770350E+03  0.00000000000E+00 0. -1.
</event>
<event>
 4    1  0.2967296E+006  0.2314494E+02  0.7546771E-02  0.1490686E+00
         21   -1    0    0  504  501  0.00000000000E+00  0.00000000000E+00  0.14079901754E+04  0.14079901754E+04  0.00000000000E+00 0. -1.
         21   -1    0    0  503  502 -0.00000000000E+00 -0.00000000000E+00 -0.80744601581E+00  0.80744601581E+00  0.00000000000E+00 0. -1.
         21    1    1    2  503  501 -0.20195357744E+02  0.11306455702E+02  0.19135892798E+03  0.19275354142E+03  0.00000000000E+00 0. -1.
         21    1    1    2  504  502  0.20195357744E+02 -0.11306455702E+02  0.12158238014E+04  0.12160440800E+04  0.00000000000E+00 0. -1.
</event>
<event>
 4    1  0.2967296E+006  0.3770510E+02  0.7546771E-02  0.1362485E+00
         21   -1    0    0  502  501  0.00000000000E+00  0.00000000000E+00  0.62576188312E+02  0.62576188312E+02  0.00000000000E+00 0. -1.
         21   -1    0    0  504  502 -0.00000000000E+00 -0.00000000000E+00 -0.48355361309E+02  0.48355361309E+02  0.00000000000E+00 0. -1.
         21    1    1    2  503  501  0.34531868818E+02  0.15140155756E+02  0.47496350800E+02  0.60643034387E+02  0.00000000000E+00 0. -1.
         21    1    1    2  504  503 -0.34531868818E+02 -0.15140155756E+02 -0.33275523797E+02  0.50288515233E+02  0.00000000000E+00 0. -1.
</event>
<event>
 4    1  0.2967296E+006  0.2009712E+02  0.7546771E-02  0.1532556E+00
         21   -1    0    0  504  501  0.00000000000E+00  0.00000000000E+00  0.11983808564E+02  0.11983808564E+02  0.00000000000E+00 0. -1.
         21   -1    0    0  501  502 -0.00000000000E+00 -0.00000000000E+00 -0.53792145175E+02  0.53792145175E+02  0.00000000000E+00 0. -1.
         21    1    1    2  503  502 -0.74845634671E+01 -0.18651424572E+02 -0.41002259895E+02  0.45662672342E+02  0.00000000000E+00 0. -1.
         21    1    1    2  504  503  0.74845634671E+01  0.18651424572E+02 -0.80607671547E+00  0.20113281397E+02  0.00000000000E+00 0. -1.
</event>
<event>
 4    1  0.2967296E+006  0.4346861E+02  0.7546771E-02  0.1329277E+00
         21   -1    0    0  502  501  0.00000000000E+00  0.00000000000E+00  0.65289689695E+03  0.65289689695E+03  0.00000000000E+00 0. -1.
         21   -1    0    0  503  502 -0.00000000000E+00 -0.00000000000E+00 -0.10832411439E+02  0.10832411439E+02  0.00000000000E+00 0.  1.
         21    1    1    2  503  504 -0.21281846422E+02 -0.37902552341E+02  0.36937181080E+02  0.57042754204E+02  0.00000000000E+00 0.  1.
         21    1    1    2  504  501  0.21281846422E+02  0.37902552341E+02  0.60512730443E+03  0.60668655419E+03  0.00000000000E+00 0. -1.
</event>
<event>
 4    1  0.2967296E+006  0.2157169E+02  0.7546771E-02  0.1511257E+00
         21   -1    0    0  504  501  0.00000000000E+00  0.00000000000E+00  0.70031087841E+01  0.70031087841E+01  0.00000000000E+00 0. -1.
         21   -1    0    0  503  502 -0.00000000000E+00 -0.00000000000E+00 -0.68705908191E+02  0.68705908191E+02  0.00000000000E+00 0. -1.
         21    1    1    2  503  501 -0.67922132746E+01  0.20474464803E+02 -0.23988016058E+02  0.32260855298E+02  0.00000000000E+00 0. -1.
         21    1    1    2  504  502  0.67922132746E+01 -0.20474464803E+02 -0.37714783348E+02  0.43448161677E+02  0.00000000000E+00 0. -1.
</event>
<event>
 4    1  0.2967296E+006  0.2384422E+02  0.7546771E-02  0.1482161E+00
         21   -1    0    0  503  501  0.00000000000E+00  0.00000000000E+00  0.24949601131E+02  0.24949601131E+02  0.00000000000E+00 0.  1.
         21   -1    0    0  504  502 -0.00000000000E+00 -0.00000000000E+00 -0.27067260479E+02  0.27067260479E+02  0.00000000000E+00 0.  1.
         21    1    1    2  503  502 -0.48110676596E+01  0.23353808647E+02 -0.11400389338E+02  0.26429446218E+02  0.00000000000E+00 0.  1.
         21    1    1    2  504  501  0.48110676596E+01 -0.23353808647E+02  0.92827299908E+01  0.25587415391E+02  0.00000000000E+00 0.  1.
</event>
<event>
 4    1  0.2967296E+006  0.2272953E+02  0.7546771E-02  0.1495923E+00
         21   -1    0    0  503  501  0.00000000000E+00  0.00000000000E+00  0.17011749669E+03  0.17011749669E+03  0.00000000000E+00 0. -1.
         21   -1    0    0  504  502 -0.00000000000E+00 -0.00000000000E+00 -0.10226812599E+02  0.10226812599E+02  0.00000000000E+00 0. -1.
         21    1    1    2  503  502  0.13250956414E+02  0.18467367009E+02  0.15555265580E+03  0.15720451716E+03  0.00000000000E+00 0. -1.
         21    1    1    2  504  501 -0.13250956414E+02 -0.18467367009E+02  0.43380282907E+01  0.23139792125E+02  0.00000000000E+00 0. -1.
</event>
<event>
 4    1  0.2967296E+006  0.2859146E+02  0.7546771E-02  0.1432245E+00
         21   -1    0    0  503  501  0.00000000000E+00  0.00000000000E+00  0.36429399707E+02  0.36429399707E+02  0.00000000000E+00 0. -1.
         21   -1    0    0  504  502 -0.00000000000E+00 -0.00000000000E+00 -0.14280991420E+03  0.14280991420E+03  0.00000000000E+00 0.  1.
         21    1    1    2  503  502  0.23782923134E+02  0.15869592106E+02  0.29087659817E+02  0.40786803503E+02  0.00000000000E+00 0. -1.
         21    1    1    2  504  501 -0.23782923134E+02 -0.15869592106E+02 -0.13546817431E+03  0.13845251040E+03  0.00000000000E+00 0.  1.
</event>
<event>
 4    1  0.2967296E+006  0.3266244E+02  0.7546771E-02  0.1397786E+00
         21   -1    0    0  503  501  0.00000000000E+00  0.00000000000E+00  0.16619904109E+03  0.16619904109E+03  0.00000000000E+00 0. -1.
         21   -1    0    0  504  502 -0.00000000000E+00 -0.00000000000E+00 -0.95765108443E+01  0.95765108443E+01  0.00000000000E+00 0.  1.
         21    1    1    2  503  502 -0.27583068733E+02  0.17493120242E+02  0.27845613479E+02  0.42921010316E+02  0.00000000000E+00 0.  1.
         21    1    1    2  504  501  0.27583068733E+02 -0.17493120242E+02  0.12877691677E+03  0.13285454162E+03  0.00000000000E+00 0. -1.
</event>
<event>
 4    1  0.2967296E+006  0.2424329E+02  0.7546771E-02  0.1477450E+00
         21   -1    0    0  504  501  0.00000000000E+00  0.00000000000E+00  0.60610257560E+02  0.60610257560E+02  0.00000000000E+00 0. -1.
         21   -1    0    0  503  502 -0.00000000000E+00 -0.00000000000E+00 -0.10528375939E+02  0.10528375939E+02  0.00000000000E+00 0.  1.
         21    1    1    2  503  501 -0.14939567899E+00  0.24242831329E+02  0.15045645840E+02  0.28532589238E+02  0.00000000000E+00 0.  1.
         21    1    1    2  504  502  0.14939567899E+00 -0.24242831329E+02  0.35036235781E+02  0.42606044262E+02  0.00000000000E+00 0. -1.
</event>
<event>
 4    1  0.2967296E+006  0.3237934E+02  0.7546771E-02  0.1399987E+00
         21   -1    0    0  502  501  0.00000000000E+00  0.00000000000E+00  0.23096388703E+03  0.23096388703E+03  0.00000000000E+00 0. -1.
         21   -1    0    0  504  502 -0.00000000000E+00 -0.00000000000E+00 -0.76386500241E+02  0.76386500241E+02  0.00000000000E+00 0. -1.
         21    1    1    2  503  501 -0.20928996433E+02 -0.24706255236E+02  0.22632781704E+03  0.22863224336E+03  0.00000000000E+00 0. -1.
         21    1    1    2  504  503  0.20928996433E+02  0.24706255236E+02 -0.71750430249E+02  0.78718143909E+02  0.00000000000E+00 0. -1.
</event>
<event>
 4    1  0.2967296E+006  0.2086829E+02  0.7546771E-02  0.1521154E+00
         21   -1    0    0  502  501  0.00000000000E+00  0.00000000000E+00  0.39899430571E+01  0.39899430571E+01  0.00000000000E+00 0. -1.
         21   -1    0    0  503  502 -0.00000000000E+00 -0.00000000000E+00 -0.13570930648E+04  0.13570930648E+04  0.00000000000E+00 0. -1.
         21    1    1    2  503  504  0.14919666518E+02  0.14590724938E+02 -0.13291528240E+04  0.13293166346E+04  0.00000000000E+00 0. -1.
         21    1    1    2  504  501 -0.14919666518E+02 -0.14590724938E+02 -0.23950297788E+02  0.31766373217E+02  0.00000000000E+00 0. -1.
</event>
<event>
 4    1  0.2967296E+006  0.2996512E+02  0.7546771E-02  0.1419900E+00
         21   -1    0    0  504  501  0.00000000000E+00  0.00000000000E+00  0.35014788988E+02  0.35014788988E+02  0.00000000000E+00 0.  1.
         21   -1    0    0  501  502 -0.00000000000E+00 -0.00000000000E+00 -0.31253384247E+02  0.31253384247E+02  0.00000000000E+00 0.  1.
         21    1    1    2  503  502 -0.44180864152E+01  0.29637626273E+02 -0.12157001937E+02  0.32337301600E+02  0.00000000000E+00 0.  1.
         21    1    1    2  504  503  0.44180864152E+01 -0.29637626273E+02  0.15918406678E+02  0.33930871634E+02  0.00000000000E+00 0.  1.
</event>
<event>
 4    1  0.2967296E+006  0.3537162E+02  0.7546771E-02  0.1377969E+00
         21   -1    0    0  503  501  0.00000000000E+00  0.00000000000E+00  0.21474100673E+03  0.21474100673E+03  0.00000000000E+00 0. -1.
         21   -1    0    0  501  502 -0.00000000000E+00 -0.00000000000E+00 -0.35003113402E+02  0.35003113402E+02  0.00000000000E+00 0.  1.
         21    1    1    2  503  504  0.34985466927E+02 -0.52123277434E+01  0.20387572396E+03  0.20692139106E+03  0.00000000000E+00 0. -1.
         21    1    1    2  504  502 -0.34985466927E+02  0.52123277434E+01 -0.24137830641E+02  0.42822729066E+02  0.00000000000E+00 0.  1.
</event>
<event>
 4    1  0.2967296E+006  0.2339315E+02  0.7546771E-02  0.1487619E+00
         21   -1    0    0  504  501  0.00000000000E+00  0.00000000000E+00  0.13024291980E+01  0.13024291980E+01  0.00000000000E+00 0.  1.
         21   -1    0    0  501  502 -0.00000000000E+00 -0.00000000000E+00 -0.16401570345E+04  0.16401570345E+04  0.00000000000E+00 0. -1.
         21    1    1    2  503  502  0.12026058268E+02  0.20065226652E+02 -0.15272677411E+04  0.15274468870E+04  0.00000000000E+00 0. -1.
         21    1    1    2  504  503 -0.12026058268E+02 -0.20065226652E+02 -0.11158686420E+03  0.11401257676E+03  0.00000000000E+00 0.  1.
</event>
<event>
 4    1  0.2967296E+006  0.3495870E+02  0.7546771E-02  0.1380854E+00
         21   -1    0    0  503  501  0.00000000000E+00  0.00000000000E+00  0.27480144933E+02  0.27480144933E+02  0.00000000000E+00 0. -1.
         21   -1    0    0  504  502 -0.00000000000E+00 -0.00000000000E+00 -0.56468223713E+02  0.56468223713E+02  0.00000000000E+00 0. -1.
         21    1    1    2  503  502  0.22273574182E+02 -0.26944365634E+02 -0.33840133542E+02  0.48654553583E+02  0.00000000000E+00 0. -1.
         21    1    1    2  504  501 -0.22273574182E+02  0.26944365634E+02  0.48520547615E+01  0.35293815062E+02  0.00000000000E+00 0. -1.
</event>
<event>
 4    1  0.2967296E+006  0.3418799E+02  0.7546771E-02  0.1386363E+00
         21   -1    0    0  502  501  0.00000000000E+00  0.00000000000E+00  0.37297639177E+03  0.37297639177E+03  0.00000000000E+00 0.  1.
         21   -1    0    0  503  502 -0.00000000000E+00 -0.00000000000E+00 -0.34158470624E+01  0.34158470624E+01  0.00000000000E+00 0.  1.
         21    1    1    2  503  504  0.29846954040E+02 -0.16672665374E+02  0.23886232492E+03  0.24129655758E+03  0.00000000000E+00 0.  1.
         21    1    1    2  504  501 -0.29846954040E+02  0.16672665374E+02  0.13069821979E+03  0.13509568125E+03  0.00000000000E+00 0.  1.
</event>
<event>
 4    1  0.2967296E+006  0.2627800E+02  0.7546771E-02  0.1454999E+00
         21   -1    0    0  502  501  0.00000000000E+00  0.00000000000E+00  0.82623431049E+00  0.82623431049E+00  0.00000000000E+00 0.  1.
         21   -1    0    0  503  502 -0.00000000000E+00 -0.00000000000E+00 -0.11199892074E+04  0.11199892074E+04  0.00000000000E+00 0. -1.
         21    1    1    2  503  504  0.82658455545E+01 -0.24944121278E+02 -0.84189503875E+03  0.84230504549E+03  0.00000000000E+00 0. -1.
         21    1    1    2  504  501 -0.82658455545E+01  0.24944121278E+02 -0.27726793437E+03  0.27851039625E+03  0.00000000000E+00 0.  1.
</event>
<event>
 4    1  0.2967296E+006  0.2281626E+02  0.7546771E-02  0.1494818E+00
         21   -1    0    0  504  501  0.00000000000E+00  0.00000000000E+00  0.85557785964E+02  0.85557785964E+02  0.00000000000E+00 0.  1.
         21   -1    0    0  503  502 -0.00000000000E+00 -0.00000000000E+00 -0.76316133825E+01  0.76316133825E+01  0.00000000000E+00 0.  1.
         21    1    1    2  503  501 -0.57621102259E+01 -0.22076675832E+02  0.59941899091E+02  0.64137452371E+02  0.00000000000E+00 0.  1.
         21    1    1    2  504  502  0.57621102259E+01  0.22076675832E+02  0.17984273490E+02  0.29051946975E+02  0.00000000000E+00 0.  1.
</event>
<event>
 4    1  0.2967296E+006  0.2283136E+02  0.7546771E-02  0.1494627E+00
         21   -1    0    0  503  501  0.00000000000E+00  0.00000000000E+00  0.25839322739E+01  0.25839322739E+01  0.00000000000E+00 0.  1.
         21   -1    0    0  504  502 -0.00000000000E+00 -0.00000000000E+00 -0.23477787371E+03  0.23477787371E+03  0.00000000000E+00 0.  1.
         21    1    1    2  503  502  0.20860585966E+02 -0.92793864213E+01 -0.71573665626E+02  0.75126963671E+02  0.00000000000E+00 0.  1.
         21    1    1    2  504  501 -0.20860585966E+02  0.92793864213E+01 -0.16062027581E+03  0.16223484231E+03  0.00000000000E+00 0.  1.
</event>
<event>
 4    1  0.2967296E+006  0.3169629E+02  0.7546771E-02  0.1405407E+00
         21   -1    0    0  504  501  0.00000000000E+00  0.00000000000E+00  0.13920271803E+02  0.13920271803E+02  0.00000000000E+00 0.  1.
         21   -1    0    0  501  502 -0.00000000000E+00 -0.00000000000E+00 -0.87390003014E+03  0.87390003014E+03  0.00000000000E+00 0.  1.
         21    1    1    2  503  502  0.47040176392E+01 -0.31345290096E+02 -0.85517465994E+03  0.85576185589E+03  0.00000000000E+00 0.  1.
         21    1    1    2  504  503 -0.47040176392E+01  0.31345290096E+02 -0.48050984047E+01  0.32058446061E+02  0.00000000000E+00 0.  1.
</event>
<event>
 4    1  0.2967296E+006  0.2902660E+02  0.7546771E-02  0.1428248E+00
         21   -1    0    0  502  501  0.00000000000E+00  0.00000000000E+00  0.10940440355E+02  0.10940440355E+02  0.00000000000E+00 0.  1.
         21   -1    0    0  504  502 -0.00000000000E+00 -0.00000000000E+00 -0.15041338518E+03  0.15041338518E+03  0.00000000000E+00 0. -1.
         21    1    1    2  503  501  0.28268551327E+02  0.65903288115E+01 -0.13378075265E+02  0.31961169030E+02  0.00000000000E+00 0.  1.
         21    1    1    2  504  503 -0.28268551327E+02 -0.65903288115E+01 -0.12609486956E+03  0.12939265651E+03  0.00000000000E+00 0. -1.
</event>
<event>
 4    1  0.2967296E+006  0.2042207E+02  0.7546771E-02  0.1527678E+00
         21   -1    0    0  503  501  0.00000000000E+00  0.00000000000E+00  0.26010105883E+02  0.26010105883E+02  0.00000000000E+00 0.  1.
         21   -1    0    0  504  502 -0.00000000000E+00 -0.00000000000E+00 -0.17687309873E+02  0.17687309873E+02  0.00000000000E+00 0.  1.
         21    1    1    2  503  502 -0.67871351139E+01  0.19261253131E+02  0.10840161250E+02  0.23120773585E+02  0.00000000000E+00 0.  1.
         21    1    1    2  504  501  0.67871351139E+01 -0.19261253131E+02 -0.25173652403E+01  0.20576642170E+02  0.00000000000E+00 0.  1.
</event>
<event>
 4    1  0.2967296E+006  0.3239044E+02  0.7546771E-02  0.1399900E+00
         21   -1    0    0  502  501  0.00000000000E+00  0.00000000000E+00  0.45373805447E+02  0.45373805447E+02  0.00000000000E+00 0.  1.
         21   -1    0    0  503  502 -0.00000000000E+00 -0.00000000000E+00 -0.28801357918E+02  0.28801357918E+02  0.00000000000E+00 0.  1.
         21    1    1    2  503  504 -0.30189119852E+02 -0.11737022687E+02 -0.81827033863E+01  0.33408042351E+02  0.00000000000E+00 0.  1.
         21    1    1    2  504  501  0.30189119852E+02  0.11737022687E+02  0.24755150915E+02  0.40767121015E+02  0.00000000000E+00 0.  1.
</event>
<event>
 4    1  0.2967296E+006  0.2258521E+02  0.7546771E-02  0.1497773E+00
         21   -1    0    0  503  501  0.00000000000E+00  0.00000000000E+00  0.31394718773E+02  0.31394718773E+02  0.00000000000E+00 0. -1.
         21   -1    0    0  504  502 -0.00000000000E+00 -0.00000000000E+00 -0.57156596524E+03  0.57156596524E+03  0.00000000000E+00 0. -1.
         21    1    1    2  503  502 -0.14269370814E+02  0.17506481957E+02  0.27078790215E+02  0.35261207204E+02  0.00000000000E+00 0. -1.
         21    1    1    2  504  501  0.14269370814E+02 -0.17506481957E+02 -0.56725003668E+03  0.56769947681E+03  0.00000000000E+00 0. -1.
</event>
<event>
 4    1  0.2967296E+006  0.2047547E+02  0.7546771E-02  0.1526887E+00
         21   -1    0    0  503  501  0.00000000000E+00  0.00000000000E+00  0.76537340520E+02  0.76537340520E+02  0.00000000000E+00 0. -1.
         21   -1    0    0  504  502 -0.00000000000E+00 -0.00000000000E+00 -0.38454623613E+03  0.38454623613E+03  0.00000000000E+00 0. -1.
         21    1    1    2  503  502 -0.83769519714E+01 -0.18683452301E+02  0.74889480853E+02  0.77638128884E+02  0.00000000000E+00 0. -1.
         21    1    1    2  504  501  0.83769519714E+01  0.18683452301E+02 -0.38289837646E+03  0.38344544777E+03  0.00000000000E+00 0. -1.
</event>
<event>
 4    1  0.2967296E+006  0.2066304E+02  0.7546771E-02  0.1524131E+00
         21   -1    0    0  504  501  0.00000000000E+00  0.00000000000E+00  0.53588861217E+02  0.53588861217E+02  0.00000000000E+00 0. -1.
         21   -1    0    0  503  502 -0.00000000000E+00 -0.00000000000E+00 -0.19958369372E+02  0.19958369372E+02  0.00000000000E+00 0.  1.
         21    1    1    2  503  501 -0.31419573010E+01 -0.20422766460E+02 -0.11688492796E+02  0.23739885202E+02  0.00000000000E+00 0.  1.
         21    1    1    2  504  502  0.31419573010E+01  0.20422766460E+02  0.45318984642E+02  0.49807345387E+02  0.00000000000E+00 0. -1.
</event>
<event>
 4    1  0.2967296E+006  0.2404485E+02  0.7546771E-02  0.1479779E+00
         21   -1    0    0  504  501  0.00000000000E+00  0.00000000000E+00  0.77816156739E+02  0.77816156739E+02  0.00000000000E+00 0. -1.
         21   -1    0    0  503  502 -0.00000000000E+00 -0.00000000000E+00 -0.91756402774E+01  0.91756402774E+01  0.00000000000E+00 0. -1.
         21    1    1    2  503  501  0.93486104543E+01 -0.22153062604E+02  0.53293363446E+02  0.58466548449E+02  0.00000000000E+00 0. -1.
         21    1    1    2  504  502 -0.93486104543E+01  0.22153062604E+02  0.15347153015E+02  0.28525248567E+02  0.00000000000E+00 0. -1.
</event>
<event>
 4    1  0.2967296E+006  0.2432437E+02  0.7546771E-02  0.1476506E+00
         21   -1    0    0  504  501  0.00000000000E+00  0.00000000000E+00  0.21434793393E+03  0.21434793393E+03  0.00000000000E+00 0.  1.
         21   -1    0    0  503  502 -0.00000000000E+00 -0.00000000000E+00 -0.12010677623E+02  0.12010677623E+02  0.00000000000E+00 0. -1.
         21    1    1    2  503  501 -0.28672093464E+01  0.24154789996E+02  0.20049438617E+03  0.20196453564E+03  0.00000000000E+00 0.  1.
         21    1    1    2  504  502  0.28672093464E+01 -0.24154789996E+02  0.18428701298E+01  0.24394075910E+02  0.00000000000E+00 0. -1.
</event>
<event>
 4    1  0.2967296E+006  0.2514212E+02  0.7546771E-02  0.1467220E+00
         21   -1    0    0  502  501  0.00000000000E+00  0.00000000000E+00  0.27692292975E+01  0.27692292975E+01  0.00000000000E+00 0. -1.
         21   -1    0    0  503  502 -0.00000000000E+00 -0.00000000000E+00 -0.23977292687E+03  0.23977292687E+03  0.00000000000E+00 0.  1.
         21    1    1    2  503  504 -0.23118806864E+02  0.98816483508E+01 -0.14506628808E+03  0.14722891748E+03  0.00000000000E+00 0.  1.
         21    1    1    2  504  501  0.23118806864E+02 -0.98816483508E+01 -0.91937409491E+02  0.95313238686E+02  0.00000000000E+00 0. -1.
</event>
<event>
 4    1  0.2967296E+006  0.5184399E+02  0.7546771E-02  0.1290370E+00
         21   -1    0    0  503  501  0.00000000000E+00  0.00000000000E+00  0.86474113687E+02  0.86474113687E+02  0.00000000000E+00 0.  1.
         21   -1    0    0  504  502 -0.00000000000E+00 -0.00000000000E+00 -0.31720266727E+02  0.31720266727E+02  0.00000000000E+00 0.  1.
         21    1    1    2  503  502  0.48054785751E+02  0.19456012049E+02  0.18994715066E+02  0.55214110867E+02  0.00000000000E+00 0.  1.
         21    1    1    2  504  501 -0.48054785751E+02 -0.19456012049E+02  0.35759131894E+02  0.62980269547E+02  0.00000000000E+00 0.  1.
</event>
<event>
 4    1  0.2967296E+006  0.2149971E+02  0.7546771E-02  0.1512249E+00
         21   -1    0    0  504  501  0.00000000000E+00  0.00000000000E+00  0.10979801953E+03  0.10979801953E+03  0.00000000000E+00 0.  1.
         21   -1    0    0  503  502 -0.00000000000E+00 -0.00000000000E+00 -0.59315475952E+01  0.59315475952E+01  0.00000000000E+00 0.  1.
         21    1    1    2  503  501  0.14169060050E+02  0.16170191612E+02  0.83108057298E+02  0.85843966283E+02  0.00000000000E+00 0.  1.
         21    1    1    2  504  502 -0.14169060050E+02 -0.16170191612E+02  0.20758414640E+02  0.29885600845E+02  0.00000000000E+00 0.  1.
</event>
<event>
 4    1  0.2967296E+006  0.2834071E+02  0.7546771E-02  0.1434586E+00
         21   -1    0    0  504  501  0.00000000000E+00  0.00000000000E+00  0.28651261544E+01  0.28651261544E+01  0.00000000000E+00 0.  1.
         21   -1    0    0  503  502 -0.00000000000E+00 -0.00000000000E+00 -0.41015196909E+03  0.41015196909E+03  0.00000000000E+00 0. -1.
         21    1    1    2  503  501 -0.16667963041E+02 -0.22921060626E+02 -0.87463559661E+02  0.91940580163E+02  0.00000000000E+00 0.  1.
         21    1    1    2  504  502  0.16667963041E+02  0.22921060626E+02 -0.31982328328E+03  0.32107651508E+03  0.00000000000E+00 0. -1.
</event>
<event>
 4    1  0.2967296E+006  0.2066798E+02  0.7546771E-02  0.1524059E+00
         21   -1    0    0  502  501  0.00000000000E+00  0.00000000000E+00  0.37178817134E+02  0.37178817134E+02  0.00000000000E+00 0. -1.
         21   -1    0    0  504  502 -0.00000000000E+00 -0.00000000000E+00 -0.31756789913E+02  0.31756789913E+02  0.00000000000E+00 0. -1.
         21    1    1    2  503  501 -0.19517234983E+02  0.68002017336E+01  0.30246540136E+02  0.36633569239E+02  0.00000000000E+00 0. -1.
         21    1    1    2  504  503  0.19517234983E+02 -0.68002017336E+01 -0.24824512915E+02  0.32302037807E+02  0.00000000000E+00 0. -1.
</event>
<event>
 4    1  0.2967296E+006  0.2560694E+02  0.7546771E-02  0.1462127E+00
         21   -1    0    0  503  501  0.00000000000E+00  0.00000000000E+00  0.58499088998E+01  0.58499088998E+01  0.00000000000E+00 0.  1.
         21   -1    0    0  504  502 -0.00000000000E+00 -0.00000000000E+00 -0.13225072585E+03  0.13225072585E+03  0.00000000000E+00 0. -1.
         21    1    1    2  503  502 -0.60696900805E+01  0.24877185774E+02 -0.90160487629E+02  0.93726351893E+02  0.00000000000E+00 0. -1.
         21    1    1    2  504  501  0.60696900805E+01 -0.24877185774E+02 -0.36240329321E+02  0.44374282856E+02  0.00000000000E+00 0.  1.
</event>
<event>
 4    1  0.2967296E+006  0.3576640E+02  0.7546771E-02  0.1375254E+00
         21   -1    0    0  503  501  0.00000000000E+00  0.00000000000E+00  0.30234621910E+02  0.30234621910E+02  0.00000000000E+00 0. -1.
         21   -1    0    0  504  502 -0.00000000000E+00 -0.00000000000E+00 -0.70642551477E+02  0.70642551477E+02  0.00000000000E+00 0. -1.
         21    1    1    2  503  502 -0.13586750100E+02 -0.33085279067E+02 -0.52146573362E+02  0.63233698157E+02  0.00000000000E+00 0. -1.
         21    1    1    2  504  501  0.13586750100E+02  0.33085279067E+02  0.11738643795E+02  0.37643475230E+02  0.00000000000E+00 0. -1.
</event>
<event>
 4    1  0.2967296E+006  0.2418739E+02  0.7546771E-02  0.1478103E+00
         21   -1    0    0  502  501  0.00000000000E+00  0.00000000000E+00  0.31064325839E+03  0.31064325839E+03  0.00000000000E+00 0.  1.
         21   -1    0    0  504  502 -0.00000000000E+00 -0.00000000000E+00 -0.10165709277E+02  0.10165709277E+02  0.00000000000E+00 0.  1.
         21    1    1    2  503  501 -0.17735804757E+02  0.16446006524E+02  0.29502471417E+03  0.29601454672E+03  0.00000000000E+00 0.  1.
         21    1    1    2  504  503  0.17735804757E+02 -0.16446006524E+02  0.54528349407E+01  0.24794420942E+02  0.00000000000E+00 0.  1.
</event>
<event>
 4    1  0.2967296E+006  0.2534540E+02  0.7546771E-02  0.1464976E+00
         21   -1    0    0  504  501  0.00000000000E+00  0.00000000000E+00  0.43295634873E+02  0.43295634873E+02  0.00000000000E+00 0. -1.
         21   -1    0    0  503  502 -0.00000000000E+00 -0.00000000000E+00 -0.15569828293E+02  0.15569828293E+02  0.00000000000E+00 0. -1.
         21    1    1    2  503  501  0.19832003016E+02 -0.15782293987E+02  0.74786675790E+01  0.26425737754E+02  0.00000000000E+00 0. -1.
         21    1    1    2  504  502 -0.19832003016E+02  0.15782293987E+02  0.20247139001E+02  0.32439725412E+02  0.00000000000E+00 0. -1.
</event>
<event>
 4    1  0.2967296E+006  0.2086779E+02  0.7546771E-02  0.1521161E+00
         21   -1    0    0  502  501  0.00000000000E+00  0.00000000000E+00  0.49865935059E+02  0.49865935059E+02  0.00000000000E+00 0.  1.
         21   -1    0    0  503  502 -0.00000000000E+00 -0.00000000000E+00 -0.88395858820E+01  0.88395858820E+01  0.00000000000E+00 0.  1.
         21    1    1    2  503  504  0.17547713447E+02  0.11293459231E+02  0.17285540447E+02  0.27097128578E+02  0.00000000000E+00 0.  1.
         21    1    1    2  504  501 -0.17547713447E+02 -0.11293459231E+02  0.23740808731E+02  0.31608392364E+02  0.00000000000E+00 0.  1.
</event>
<event>
 4    1  0.2967296E+006  0.3095736E+02  0.7546771E-02  0.1411455E+00
         21   -1    0    0  503  501  0.00000000000E+00  0.00000000000E+00  0.10298297433E+04  0.10298297433E+04  0.00000000000E+00 0.  1.
         21   -1    0    0  504  502 -0.00000000000E+00 -0.00000000000E+00 -0.13823124626E+01  0.13823124626E+01  0.00000000000E+00 0.  1.
         21    1    1    2  503  502 -0.18845947171E+02  0.24559890402E+02  0.80896886423E+03  0.80956098055E+03  0.00000000000E+00 0.  1.
         21    1    1    2  504  501  0.18845947171E+02 -0.24559890402E+02  0.21947856662E+03  0.22165107522E+03  0.00000000000E+00 0.  1.
</event>
<event>
 4    1  0.2967296E+006  0.2486844E+02  0.7546771E-02  0.1470281E+00
         21   -1    0    0  504  501  0.00000000000E+00  0.00000000000E+00  0.27657537831E+02  0.27657537831E+02  0.00000000000E+00 0.  1.
         21   -1    0    0  503  502 -0.00000000000E+00 -0.00000000000E+00 -0.31342896265E+02  0.31342896265E+02  0.00000000000E+00 0. -1.
         21    1    1    2  503  501  0.84360949027E+01  0.23393838459E+02  0.13949756990E+02  0.28513770272E+02  0.00000000000E+00 0.  1.
         21    1    1    2  504  502 -0.84360949027E+01 -0.23393838459E+02 -0.17635115424E+02  0.30486663823E+02  0.00000000000E+00 0. -1.
</event>
<event>
 4    1  0.2967296E+006  0.2161339E+02  0.7546771E-02  0.1510685E+00
         21   -1    0    0  504  501  0.00000000000E+00  0.00000000000E+00  0.16262739732E+01  0.16262739732E+01  0.00000000000E+00 0. -1.
         21   -1    0    0  503  502 -0.00000000000E+00 -0.00000000000E+00 -0.71442529826E+03  0.71442529826E+03  0.00000000000E+00 0.  1.
         21    1    1    2  503  501 -0.10003680070E+02 -0.19158935650E+02 -0.63324771018E+03  0.63361644619E+03  0.00000000000E+00 0.  1.
         21    1    1    2  504  502  0.10003680070E+02  0.19158935650E+02 -0.79551314105E+02  0.82435126045E+02  0.00000000000E+00 0. -1.
</event>
<event>
 4    1  0.2967296E+006  0.2597535E+02  0.7546771E-02  0.1458182E+00
         21   -1    0    0  502  501  0.00000000000E+00  0.00000000000E+00  0.27647088682E+01  0.27647088682E+01  0.00000000000E+00 0. -1.
         21   -1    0    0  504  502 -0.00000000000E+00 -0.00000000000E+00 -0.63634047156E+03  0.63634047156E+03  0.00000000000E+00 0.  1.
         21    1    1    2  503  501 -0.13022222611E+02 -0.22475326648E+02 -0.65886430287E+02  0.70821891288E+02  0.00000000000E+00 0. -1.
         21    1    1    2  504  503  0.13022222611E+02  0.22475326648E+02 -0.56768933241E+03  0.56828328914E+03  0.00000000000E+00 0.  1.
</event>
<event>
 4    1  0.2967296E+006  0.2643142E+02  0.7546771E-02  0.1453405E+00
         21   -1    0    0  503  501  0.00000000000E+00  0.00000000000E+00  0.18127703217E+02  0.18127703217E+02  0.00000000000E+00 0. -1.
         21   -1    0    0  504  502 -0.00000000000E+00 -0.00000000000E+00 -0.44105401505E+02  0.44105401505E+02  0.00000000000E+00 0. -1.
         21    1    1    2  503  502 -0.12984916039E+02 -0.23021982735E+02 -0.24043399149E+02  0.35731005810E+02  0.00000000000E+00 0. -1.
         21    1    1    2  504  501  0.12984916039E+02  0.23021982735E+02 -0.19342991396E+01  0.26502098912E+02  0.00000000000E+00 0. -1.
</event>
<event>
 4    1  0.2967296E+006  0.2661350E+02  0.7546771E-02  0.1451530E+00
         21   -1    0    0  503  501  0.00000000000E+00  0.00000000000E+00  0.16700456066E+02  0.16700456066E+02  0.00000000000E+00 0. -1.
         21   -1    0    0  504  502 -0.00000000000E+00 -0.00000000000E+00 -0.47506272068E+02  0.47506272068E+02  0.00000000000E+00 0. -1.
         21    1    1    2  503  502  0.14433166671E+02  0.22359837524E+02 -0.48888587811E+01  0.27058816944E+02  0.00000000000E+00 0. -1.
         21    1    1    2  504  501 -0.14433166671E+02 -0.22359837524E+02 -0.25916957221E+02  0.37147911191E+02  0.00000000000E+00 0. -1.
</event>
<event>
 4    1  0.2967296E+006  0.2238742E+02  0.7546771E-02  0.1500337E+00
         21   -1    0    0  504  501  0.00000000000E+00  0.00000000000E+00  0.61331094888E+02  0.61331094888E+02  0.00000000000E+00 0. -1.
         21   -1    0    0  503  502 -0.00000000000E+00 -0.00000000000E+00 -0.82300308743E+01  0.82300308743E+01  0.00000000000E+00 0. -1.
         21    1    1    2  503  501 -0.55809292175E+01  0.21680633281E+02  0.29471529146E+02  0.37010372339E+02  0.00000000000E+00 0. -1.
         21    1    1    2  504  502  0.55809292175E+01 -0.21680633281E+02  0.23629534868E+02  0.32550753424E+02  0.00000000000E+00 0. -1.
</event>
<event>
 4    1  0.2967296E+006  0.2258669E+02  0.7546771E-02  0.1497754E+00
         21   -1    0    0  504  501  0.00000000000E+00  0.00000000000E+00  0.29137625857E+02  0.29137625857E+02  0.00000000000E+00 0.  1.
         21   -1    0    0  501  502 -0.00000000000E+00 -0.00000000000E+00 -0.16348833294E+03  0.16348833294E+03  0.00000000000E+00 0.  1.
         21    1    1    2  503  502  0.18995307692E+02 -0.12220349507E+02 -0.15818506487E+03  0.15978946587E+03  0.00000000000E+00 0.  1.
         21    1    1    2  504  503 -0.18995307692E+02  0.12220349507E+02  0.23834357787E+02  0.32836492923E+02  0.00000000000E+00 0.  1.
</event>
<event>
 4    1  0.2967296E+006  0.3092170E+02  0.7546771E-02  0.1411752E+00
         21   -1    0    0  502  501  0.00000000000E+00  0.00000000000E+00  0.49547635467E+03  0.49547635467E+03  0.00000000000E+00 0. -1.
         21   -1    0    0  504  502 -0.00000000000E+00 -0.00000000000E+00 -0.40598917395E+01  0.40598917395E+01  0.00000000000E+00 0. -1.
         21    1    1    2  503  501 -0.60761685311E+01 -0.30318831970E+02  0.42662666601E+03  0.42774579313E+03  0.00000000000E+00 0. -1.
         21    1    1    2  504  503  0.60761685311E+01  0.30318831970E+02  0.64789796924E+02  0.71790453275E+02  0.00000000000E+00 0. -1.
</event>
<event>
 4    1  0.2967296E+006  0.2042487E+02  0.7546771E-02  0.1527637E+00
         21   -1    0    0  503  501  0.00000000000E+00  0.00000000000E+00  0.68822469574E+02  0.68822469574E+02  0.00000000000E+00 0. -1.
         21   -1    0    0  501  502 -0.00000000000E+00 -0.00000000000E+00 -0.92178885056E+02  0.92178885056E+02  0.00000000000E+00 0.  1.
         21    1    1    2  503  504  0.81128361124E+01  0.18744521833E+02  0.66130632112E+02  0.69212973582E+02  0.00000000000E+00 0. -1.
         21    1    1    2  504  502 -0.81128361124E+01 -0.18744521833E+02 -0.89487047594E+02  0.91788381049E+02  0.00000000000E+00 0.  1.
</event>
<event>
 4    1  0.2967296E+006  0.2804598E+02  0.7546771E-02  0.1437375E+00
         21   -1    0    0  503  501  0.00000000000E+00  0.00000000000E+00  0.42401920697E+01  0.42401920697E+01  0.00000000000E+00 0. -1.
         21   -1    0    0  504  502 -0.00000000000E+00 -0.00000000000E+00 -0.52015920880E+03  0.52015920880E+03  0.00000000000E+00 0.  1.
         21    1    1    2  503  502 -0.88274292567E+01 -0.26620548024E+02 -0.46827058764E+03  0.46910971034E+03  0.00000000000E+00 0.  1.
         21    1    1    2  504  501  0.88274292567E+01  0.26620548024E+02 -0.47648429093E+02  0.55289690535E+02  0.00000000000E+00 0. -1.
</event>
<event>
 4    1  0.2967296E+006  0.2514466E+02  0.7546771E-02  0.1467192E+00
         21   -1    0    0  503  501  0.00000000000E+00  0.00000000000E+00  0.13478189759E+02  0.13478189759E+02  0.00000000000E+00 0. -1.
         21   -1    0    0  504  502 -0.00000000000E+00 -0.00000000000E+00 -0.51394185025E+02  0.51394185025E+02  0.00000000000E+00 0. -1.
         21    1    1    2  503  502 -0.17091167060E+02  0.18443044018E+02 -0.28539715408E+02  0.38036419649E+02  0.00000000000E+00 0. -1.
         21    1    1    2  504  501  0.17091167060E+02 -0.18443044018E+02 -0.93762798578E+01  0.26835955136E+02  0.00000000000E+00 0. -1.
</event>
<event>
 4    1  0.2967296E+006  0.2180262E+02  0.7546771E-02  0.1508107E+00
         21   -1    0    0  503  501  0.00000000000E+00  0.00000000000E+00  0.14593886211E+03  0.14593886211E+03  0.00000000000E+00 0.  1.
         21   -1    0    0  504  502 -0.00000000000E+00 -0.00000000000E+00 -0.48950269551E+02  0.48950269551E+02  0.00000000000E+00 0. -1.
         21    1    1    2  503  502 -0.20266763513E+02  0.80382024778E+01 -0.45652418886E+02  0.50591479051E+02  0.00000000000E+00 0. -1.
         21    1    1    2  504  501  0.20266763513E+02 -0.80382024778E+01  0.14264101144E+03  0.14429765261E+03  0.00000000000E+00 0.  1.
</event>
<event>
 4    1  0.2967296E+006  0.3827139E+02  0.7546771E-02  0.1358924E+00
         21   -1    0    0  502  501  0.00000000000E+00  0.00000000000E+00  0.17947300529E+03  0.17947300529E+03  0.00000000000E+00 0.  1.
         21   -1    0    0  504  502 -0.00000000000E+00 -0.00000000000E+00 -0.87499799018E+01  0.87499799018E+01  0.00000000000E+00 0.  1.
         21    1    1    2  503  501  0.17912462807E+02 -0.33820747932E+02  0.10977602419E+03  0.11625607426E+03  0.00000000000E+00 0.  1.
         21    1    1    2  504  503 -0.17912462807E+02  0.33820747932E+02  0.60947001193E+02  0.71966910931E+02  0.00000000000E+00 0.  1.
</event>
<event>
 4    1  0.2967296E+006  0.2105446E+02  0.7546771E-02  0.1518489E+00
         21   -1    0    0  504  501  0.00000000000E+00  0.00000000000E+00  0.80139158137E+03  0.80139158137E+03  0.00000000000E+00 0.  1.
         21   -1    0    0  503  502 -0.00000000000E+00 -0.00000000000E+00 -0.42265223747E+01  0.42265223747E+01  0.00000000000E+00 0.  1.
         21    1    1    2  503  501 -0.84587938423E+01  0.19280539370E+02  0.77410857672E+03  0.77439484692E+03  0.00000000000E+00 0.  1.
         21    1    1    2  504  502  0.84587938423E+01 -0.19280539370E+02  0.23056482283E+02  0.31223256828E+02  0.00000000000E+00 0.  1.
</event>
<event>
 4    1  0.2967296E+006  0.2077217E+02  0.7546771E-02  0.1522543E+00
         21   -1    0    0  502  501  0.00000000000E+00  0.00000000000E+00  0.11634405883E+02  0.11634405883E+02  0.00000000000E+00 0.  1.
         21   -1    0    0  503  502 -0.00000000000E+00 -0.00000000000E+00 -0.42325282734E+02  0.42325282734E+02  0.00000000000E+00 0. -1.
         21    1    1    2  503  504  0.17639548445E+01 -0.20697138963E+02 -0.24837083754E+02  0.32378446957E+02  0.00000000000E+00 0. -1.
         21    1    1    2  504  501 -0.17639548445E+01  0.20697138963E+02 -0.58537930969E+01  0.21581241659E+02  0.00000000000E+00 0.  1.
</event>
<event>
 4    1  0.2967296E+006  0.2130515E+02  0.7546771E-02  0.1514952E+00
         21   -1    0    0  503  501  0.00000000000E+00  0.00000000000E+00  0.10403722740E+03  0.10403722740E+03  0.00000000000E+00 0.  1.
         21   -1    0    0  501  502 -0.00000000000E+00 -0.00000000000E+00 -0.64715420147E+01  0.64715420147E+01  0.00000000000E+00 0.  1.
         21    1    1    2  503  504 -0.20954530164E+02 -0.38493111143E+01  0.80322635231E+02  0.83100151991E+02  0.00000000000E+00 0.  1.
         21    1    1    2  504  502  0.20954530164E+02  0.38493111143E+01  0.17243050155E+02  0.27408617424E+02  0.00000000000E+00 0.  1.
</event>
<event>
 4    1  0.2967296E+006  0.2257727E+02  0.7546771E-02  0.1497876E+00
         21   -1    0    0  504  501  0.00000000000E+00  0.00000000000E+00  0.23210706005E+03  0.23210706005E+03  0.00000000000E+00 0.  1.
         21   -1    0    0  501  502 -0.00000000000E+00 -0.00000000000E+00 -0.83445572696E+02  0.83445572696E+02  0.00000000000E+00 0. -1.
         21    1    1    2  503  502  0.12915117276E+02 -0.18518450336E+02 -0.81355558738E+02  0.84430209017E+02  0.00000000000E+00 0. -1.
         21    1    1    2  504  503 -0.12915117276E+02  0.18518450336E+02  0.23001704610E+03  0.23112242373E+03  0.00000000000E+00 0.  1.
</event>
<event>
 4    1  0.2967296E+006  0.2253432E+02  0.7546771E-02  0.1498430E+00
         21   -1    0    0  502  501  0.00000000000E+00  0.00000000000E+00  0.82426932308E+01  0.82426932308E+01  0.00000000000E+00 0. -1.
         21   -1    0    0  504  502 -0.00000000000E+00 -0.00000000000E+00 -0.30405034926E+03  0.30405034926E+03  0.00000000000E+00 0.  1.
         21    1    1    2  503  501 -0.22329951194E+02 -0.30279876686E+01 -0.84706840759E+01  0.24073801494E+02  0.00000000000E+00 0. -1.
         21    1    1    2  504  503  0.22329951194E+02  0.30279876686E+01 -0.28733697195E+03  0.28821924100E+03  0.00000000000E+00 0.  1.
</event>
<event>
 4    1  0.2967296E+006  0.2463648E+02  0.7546771E-02  0.1472911E+00
         21   -1    0    0  504  501  0.00000000000E+00  0.00000000000E+00  0.11177153562E+03  0.11177153562E+03  0.00000000000E+00 0.  1.
         21   -1    0    0  501  502 -0.00000000000E+00 -0.00000000000E+00 -0.11520347863E+03  0.11520347863E+03  0.00000000000E+00 0.  1.
         21    1    1    2  503  502  0.11282807826E+02 -0.21901012143E+02 -0.11249647246E+03  0.11516254774E+03  0.00000000000E+00 0.  1.
         21    1    1    2  504  503 -0.11282807826E+02  0.21901012143E+02  0.10906452945E+03  0.11181246652E+03  0.00000000000E+00 0.  1.
</event>
<event>
 4    1  0.2967296E+006  0.2532459E+02  0.7546771E-02  0.1465205E+00
         21   -1    0    0  504  501  0.00000000000E+00  0.00000000000E+00  0.41704263532E+01  0.41704263532E+01  0.00000000000E+00 0.  1.
         21   -1    0    0  503  502 -0.00000000000E+00 -0.00000000000E+00 -0.17311785818E+03  0.17311785818E+03  0.00000000000E+00 0.  1.
         21    1    1    2  503  501  0.23874550862E+02  0.84463367003E+01 -0.11409920116E+03  0.11687584219E+03  0.00000000000E+00 0.  1.
         21    1    1    2  504  502 -0.23874550862E+02 -0.84463367003E+01 -0.54848230670E+02  0.60412442346E+02  0.00000000000E+00 0.  1.
</event>
<event>
 4    1  0.2967296E+006  0.2307692E+02  0.7546771E-02  0.1491534E+00
         21   -1    0    0  502  501  0.00000000000E+00  0.00000000000E+00  0.95690954832E+01  0.95690954832E+01  0.00000000000E+00 0. -1.
         21   -1    0    0  503  502 -0.00000000000E+00 -0.00000000000E+00 -0.92266601840E+02  0.92266601840E+02  0.00000000000E+00 0. -1.
         21    1    1    2  503  504  0.18159662450E+02  0.14239771547E+02 -0.73424129479E+02  0.76965233864E+02  0.00000000000E+00 0. -1.
         21    1    1    2  504  501 -0.18159662450E+02 -0.14239771547E+02 -0.92733768783E+01  0.24870463460E+02  0.00000000000E+00 0. -1.
</event>
<event>
 4    1  0.2967296E+006  0.3536835E+02  0.7546771E-02  0.1377992E+00
         21   -1    0    0  504  501  0.00000000000E+00  0.00000000000E+00  0.35026354985E+02  0.35026354985E+02  0.00000000000E+00 0. -1.
         21   -1    0    0  501  502 -0.00000000000E+00 -0.00000000000E+00 -0.64471709454E+02  0.64471709454E+02  0.00000000000E+00 0.  1.
         21    1    1    2  503  502  0.29764321116E+02  0.19105110160E+02 -0.47948795255E+02  0.59581935284E+02  0.00000000000E+00 0.  1.
         21    1    1    2  504  503 -0.29764321116E+02 -0.19105110160E+02  0.18503440787E+02  0.39916129155E+02  0.00000000000E+00 0. -1.
</event>
<event>
 4    1  0.2967296E+006  0.2513784E+02  0.7546771E-02  0.1467267E+00
         21   -1    0    0  503  501  0.00000000000E+00  0.00000000000E+00  0.10895929003E+03  0.10895929003E+03  0.00000000000E+00 0. -1.
         21   -1    0    0  501  502 -0.00000000000E+00 -0.00000000000E+00 -0.14501778402E+03  0.14501778402E+03  0.00000000000E+00 0.  1.
         21    1    1    2  503  504  0.23062055977E+02 -0.10002629428E+02  0.10639413524E+03  0.10932347888E+03  0.00000000000E+00 0. -1.
         21    1    1    2  504  502 -0.23062055977E+02  0.10002629428E+02 -0.14245262923E+03  0.14465359517E+03  0.00000000000E+00 0.  1.
</event>
<event>
 4    1  0.2967296E+006  0.2006706E+02  0.7546771E-02  0.1533013E+00
         21   -1    0    0  503  501  0.00000000000E+00  0.00000000000E+00  0.11296710034E+03  0.11296710034E+03  0.00000000000E+00 0.  1.
         21   -1    0    0  501  502 -0.00000000000E+00 -0.00000000000E+00 -0.65830907581E+02  0.65830907581E+02  0.00000000000E+00 0. -1.
         21    1    1    2  503  504  0.97640432174E+01 -0.17531404904E+02  0.11051301120E+03  0.11232013329E+03  0.00000000000E+00 0.  1.
         21    1    1    2  504  502 -0.97640432174E+01  0.17531404904E+02 -0.63376818448E+02  0.66477874624E+02  0.00000000000E+00 0. -1.
</event>
<event>
 4    1  0.2967296E+006  0.2757429E+02  0.7546771E-02  0.1441923E+00
         21   -1    0    0  504  501  0.00000000000E+00  0.00000000000E+00  0.53473221978E+02  0.53473221978E+02  0.00000000000E+00 0.  1.
         21   -1    0    0  503  502 -0.00000000000E+00 -0.00000000000E+00 -0.14782814202E+03  0.14782814202E+03  0.00000000000E+00 0. -1.
         21    1    1    2  503  501 -0.26506194457E+02 -0.76001984564E+01  0.48510231997E+02  0.55799497933E+02  0.00000000000E+00 0.  1.
         21    1    1    2  504  502  0.26506194457E+02  0.76001984564E+01 -0.14286515204E+03  0.14550186606E+03  0.00000000000E+00 0. -1.
</event>
<event>
 4    1  0.2967296E+006  0.2112582E+02  0.7546771E-02  0.1517476E+00
         21   -1    0    0  503  501  0.00000000000E+00  0.00000000000E+00  0.15757194284E+03  0.15757194284E+03  0.00000000000E+00 0.  1.
         21   -1    0    0  501  502 -0.00000000000E+00 -0.00000000000E+00 -0.44369491122E+01  0.44369491122E+01  0.00000000000E+00 0.  1.
         21    1    1    2  503  504  0.18135776028E+02  0.10834850775E+02  0.12528091927E+03  0.12704963242E+03  0.00000000000E+00 0.  1.
         21    1    1    2  504  502 -0.18135776028E+02 -0.10834850775E+02  0.27854074451E+02  0.34959259532E+02  0.00000000000E+00 0.  1.
</event>
<event>
 4    1  0.2967296E+006  0.3383880E+02  0.7546771E-02  0.1388916E+00
         21   -1    0    0  504  501  0.00000000000E+00  0.00000000000E+00  0.20597812789E+02  0.20597812789E+02  0.00000000000E+00 0.  1.
         21   -1    0    0  501  502 -0.00000000000E+00 -0.00000000000E+00 -0.60551201440E+03  0.60551201440E+03  0.00000000000E+00 0.  1.
         21    1    1    2  503  502  0.33792308520E+02  0.17731834289E+01 -0.59079545116E+03  0.59176374458E+03  0.00000000000E+00 0.  1.
         21    1    1    2  504  503 -0.33792308520E+02 -0.17731834289E+01  0.58812495417E+01  0.34346082612E+02  0.00000000000E+00 0.  1.
</event>
<event>
 4    1  0.2967296E+006  0.2577333E+02  0.7546771E-02  0.1460335E+00
         21   -1    0    0  503  501  0.00000000000E+00  0.00000000000E+00  0.15642618938E+02  0.15642618938E+02  0.00000000000E+00 0. -1.
         21   -1    0    0  504  502 -0.00000000000E+00 -0.00000000000E+00 -0.34286796870E+03  0.34286796870E+03  0.00000000000E+00 0. -1.
         21    1    1    2  503  502  0.24918365313E+02 -0.65832686890E+01  0.41752171826E+01  0.26109323909E+02  0.00000000000E+00 0. -1.
         21    1    1    2  504  501 -0.24918365313E+02  0.65832686890E+01 -0.33140056694E+03  0.33240126373E+03  0.00000000000E+00 0. -1.
</event>
<event>
 4    1  0.2967296E+006  0.3588718E+02  0.7546771E-02  0.1374431E+00
         21   -1    0    0  503  501  0.00000000000E+00  0.00000000000E+00  0.28065867365E+02  0.28065867365E+02  0.00000000000E+00 0. -1.
         21   -1    0    0  504  502 -0.00000000000E+00 -0.00000000000E+00 -0.50054987954E+02  0.50054987954E+02  0.00000000000E+00 0. -1.
         21    1    1    2  503  502  0.15246095238E+02 -0.32487634173E+02  0.27529551462E+00  0.35888237373E+02  0.00000000000E+00 0. -1.
         21    1    1    2  504  501 -0.15246095238E+02  0.32487634173E+02 -0.22264416104E+02  0.42232617946E+02  0.00000000000E+00 0. -1.
</event>
<event>
 4    1  0.2967296E+006  0.3551838E+02  0.7546771E-02  0.1376955E+00
         21   -1    0    0  502  501  0.00000000000E+00  0.00000000000E+00  0.26158304858E+02  0.26158304858E+02  0.00000000000E+00 0.  1.
         21   -1    0    0  504  502 -0.00000000000E+00 -0.00000000000E+00 -0.93460230950E+02  0.93460230950E+02  0.00000000000E+00 0. -1.
         21    1    1    2  503  501  0.35067184385E+02  0.56434042196E+01  0.79573783930E+01  0.36398836558E+02  0.00000000000E+00 0.  1.
         21    1    1    2  504  503 -0.35067184385E+02 -0.56434042196E+01 -0.75259304485E+02  0.83219699251E+02  0.00000000000E+00 0. -1.
</event>
<event>
 4    1  0.2967296E+006  0.2969659E+02  0.7546771E-02  0.1422252E+00
         21   -1    0    0  504  501  0.00000000000E+00  0.00000000000E+00  0.35159719008E+03  0.35159719008E+03  0.00000000000E+00 0. -1.
         21   -1    0    0  501  502 -0.00000000000E+00 -0.00000000000E+00 -0.25085583296E+01  0.25085583296E+01  0.00000000000E+00 0. -1.
         21    1    1    2  503  502  0.18161024097E+02  0.23496053606E+02  0.17252500177E+03  0.17506217058E+03  0.00000000000E+00 0. -1.
         21    1    1    2  504  503 -0.18161024097E+02 -0.23496053606E+02  0.17656362998E+03  0.17904357783E+03  0.00000000000E+00 0. -1.
</event>
<event>
 4    1  0.2967296E+006  0.2288272E+02  0.7546771E-02  0.1493976E+00
         21   -1    0    0  503  501  0.00000000000E+00  0.00000000000E+00  0.15537567232E+02  0.15537567232E+02  0.00000000000E+00 0.  1.
         21   -1    0    0  501  502 -0.00000000000E+00 -0.00000000000E+00 -0.52344600153E+02  0.52344600153E+02  0.00000000000E+00 0.  1.
         21    1    1    2  503  504  0.19282325880E+02 -0.12321156561E+02  0.18529676921E+01  0.22957623562E+02  0.00000000000E+00 0.  1.
         21    1    1    2  504  502 -0.19282325880E+02  0.12321156561E+02 -0.38660000613E+02  0.44924543824E+02  0.00000000000E+00 0.  1.
</event>
<event>
 4    1  0.2967296E+006  0.2200174E+02  0.7546771E-02  0.1505429E+00
         21   -1    0    0  502  501  0.00000000000E+00  0.00000000000E+00  0.14209334795E+02  0.14209334795E+02  0.00000000000E+00 0. -1.
         21   -1    0    0  503  502 -0.00000000000E+00 -0.00000000000E+00 -0.35741977273E+02  0.35741977273E+02  0.00000000000E+00 0. -1.
         21    1    1    2  503  504  0.19992488518E+02 -0.91856822193E+01 -0.16172229726E+02  0.27305995116E+02  0.00000000000E+00 0. -1.
         21    1    1    2  504  501 -0.19992488518E+02  0.91856822193E+01 -0.53604127521E+01  0.22645316952E+02  0.00000000000E+00 0. -1.
</event>
<event>
 4    1  0.2967296E+006  0.2325924E+02  0.7546771E-02  0.1489268E+00
         21   -1    0    0  504  501  0.00000000000E+00  0.00000000000E+00  0.81032995442E+02  0.81032995442E+02  0.00000000000E+00 0.  1.
         21   -1    0    0  503  502 -0.00000000000E+00 -0.00000000000E+00 -0.74626764249E+01  0.74626764249E+01  0.00000000000E+00 0.  1.
         21    1    1    2  503  501  0.12623934719E+02 -0.19535318277E+02  0.51149573446E+02  0.56189600922E+02  0.00000000000E+00 0.  1.
         21    1    1    2  504  502 -0.12623934719E+02  0.19535318277E+02  0.22420745571E+02  0.32306070946E+02  0.00000000000E+00 0.  1.
</event>
<event>
 4    1  0.2967296E+006  0.2862447E+02  0.7546771E-02  0.1431939E+00
         21   -1    0    0  502  501  0.00000000000E+00  0.00000000000E+00  0.24557451967E+02  0.24557451967E+02  0.00000000000E+00 0.  1.
         21   -1    0    0  503  502 -0.00000000000E+00 -0.00000000000E+00 -0.36156885694E+03  0.36156885694E+03  0.00000000000E+00 0. -1.
         21    1    1    2  503  504  0.77214906000E+01  0.27563357033E+02 -0.35244550315E+03  0.35360598519E+03  0.00000000000E+00 0. -1.
         21    1    1    2  504  501 -0.77214906000E+01 -0.27563357033E+02  0.15434098181E+02  0.32520323717E+02  0.00000000000E+00 0.  1.
</event>
<event>
 4    1  0.2967296E+006  0.2030642E+02  0.7546771E-02  0.1529402E+00
         21   -1    0    0  502  501  0.00000000000E+00  0.00000000000E+00  0.22040778574E+04  0.22040778574E+04  0.00000000000E+00 0.  1.
         21   -1    0    0  503  502 -0.00000000000E+00 -0.00000000000E+00 -0.19000604274E+00  0.19000604274E+00  0.00000000000E+00 0.  1.
         21    1    1    2  503  504  0.20267195725E+02 -0.12615447406E+01  0.96529939820E+03  0.96551296153E+03  0.00000000000E+00 0.  1.
         21    1    1    2  504  501 -0.20267195725E+02  0.12615447406E+01  0.12385884532E+04  0.12387549019E+04  0.00000000000E+00 0.  1.
</event>
<event>
 4    1  0.2967296E+006  0.2228554E+02  0.7546771E-02  0.1501670E+00
         21   -1    0    0  503  501  0.00000000000E+00  0.00000000000E+00  0.85478390470E+02  0.85478390470E+02  0.00000000000E+00 0.  1.
         21   -1    0    0  504  502 -0.00000000000E+00 -0.00000000000E+00 -0.53973327275E+02  0.53973327275E+02  0.00000000000E+00 0.  1.
         21    1    1    2  503  502  0.20309505032E+02 -0.91743719502E+01 -0.50113529440E+02  0.54845336431E+02  0.00000000000E+00 0.  1.
         21    1    1    2  504  501 -0.20309505032E+02  0.91743719502E+01  0.81618592635E+02  0.84606381314E+02  0.00000000000E+00 0.  1.
</event>
<event>
 4    1  0.2967296E+006  0.2305415E+02  0.7546771E-02  0.1491819E+00
         21   -1    0    0  504  501  0.00000000000E+00  0.00000000000E+00  0.33768991771E+03  0.33768991771E+03  0.00000000000E+00 0.  1.
         21   -1    0    0  501  502 -0.00000000000E+00 -0.00000000000E+00 -0.44379861785E+02  0.44379861785E+02  0.00000000000E+00 0. -1.
         21    1    1    2  503  502  0.22994045497E+02  0.16636405869E+01 -0.40961802141E+02  0.47003862213E+02  0.00000000000E+00 0. -1.
         21    1    1    2  504  503 -0.22994045497E+02 -0.16636405869E+01  0.33427185807E+03  0.33506591728E+03  0.00000000000E+00 0.  1.
</event>
<event>
 4    1  0.2967296E+006  0.2848977E+02  0.7546771E-02  0.1433191E+00
         21   -1    0    0  503  501  0.00000000000E+00  0.00000000000E+00  0.21501193346E+03  0.21501193346E+03  0.00000000000E+00 0. -1.
         21   -1    0    0  504  502 -0.00000000000E+00 -0.00000000000E+00 -0.79561797978E+01  0.79561797978E+01  0.00000000000E+00 0. -1.
         21    1    1    2  503  502 -0.53678665570E+01 -0.27979505524E+02  0.22709393830E+02  0.36433271729E+02  0.00000000000E+00 0. -1.
         21    1    1    2  504  501  0.53678665570E+01  0.27979505524E+02  0.18434635983E+03  0.18653484153E+03  0.00000000000E+00 0. -1.
</event>
<event>
 4    1  0.2967296E+006  0.3604239E+02  0.7546771E-02  0.1373379E+00
         21   -1    0    0  502  501  0.00000000000E+00  0.00000000000E+00  0.53586378825E+01  0.53586378825E+01  0.00000000000E+00 0. -1.
         21   -1    0    0  503  502 -0.00000000000E+00 -0.00000000000E+00 -0.28068823094E+03  0.28068823094E+03  0.00000000000E+00 0.  1.
         21    1    1    2  503  504  0.36016042874E+02 -0.13779587724E+01 -0.19047287941E+03  0.19385296465E+03  0.00000000000E+00 0.  1.
         21    1    1    2  504  501 -0.36016042874E+02  0.13779587724E+01 -0.84856713653E+02  0.92193904173E+02  0.00000000000E+00 0. -1.
</event>
<event>
 4    1  0.2967296E+006  0.2615262E+02  0.7546771E-02  0.1456311E+00
         21   -1    0    0  503  501  0.00000000000E+00  0.00000000000E+00  0.13256469850E+03  0.13256469850E+03  0.00000000000E+00 0. -1.
         21   -1    0    0  504  502 -0.00000000000E+00 -0.00000000000E+00 -0.54319626355E+01  0.54319626355E+01  0.00000000000E+00 0. -1.
         21    1    1    2  503  502  0.25900782386E+02 -0.36206512244E+01  0.79021092624E+02  0.83236366589E+02  0.00000000000E+00 0. -1.
         21    1    1    2  504  501 -0.25900782386E+02  0.36206512244E+01  0.48111643244E+02  0.54760294549E+02  0.00000000000E+00 0. -1.
</event>
<event>
 4    1  0.2967296E+006  0.2201162E+02  0.7546771E-02  0.1505297E+00
         21   -1    0    0  502  501  0.00000000000E+00  0.00000000000E+00  0.73213356546E+01  0.73213356546E+01  0.00000000000E+00 0.  1.
         21   -1    0    0  504  502 -0.00000000000E+00 -0.00000000000E+00 -0.64531190137E+03  0.64531190137E+03  0.00000000000E+00 0.  1.
         21    1    1    2  503  501  0.33180762695E+01  0.21760096167E+02 -0.98633670152E+01  0.24120477279E+02  0.00000000000E+00 0.  1.
         21    1    1    2  504  503 -0.33180762695E+01 -0.21760096167E+02 -0.62812719870E+03  0.62851275974E+03  0.00000000000E+00 0.  1.
</event>
<event>
 4    1  0.2967296E+006  0.2147191E+02  0.7546771E-02  0.1512633E+00
         21   -1    0    0  503  501  0.00000000000E+00  0.00000000000E+00  0.60262471632E+01  0.60262471632E+01  0.00000000000E+00 0. -1.
         21   -1    0    0  504  502 -0.00000000000E+00 -0.00000000000E+00 -0.92866471501E+02  0.92866471501E+02  0.00000000000E+00 0. -1.
         21    1    1    2  503  502  0.21469771107E+02 -0.30300384170E+00 -0.64174281751E+02  0.67671126199E+02  0.00000000000E+00 0. -1.
         21    1    1    2  504  501 -0.21469771107E+02  0.30300384170E+00 -0.22665942586E+02  0.31221592465E+02  0.00000000000E+00 0. -1.
</event>
<event>
 4    1  0.2967296E+006  0.5298749E+02  0.7546771E-02  0.1285715E+00
         21   -1    0    0  502  501  0.00000000000E+00  0.00000000000E+00  0.25446514808E+03  0.25446514808E+03  0.00000000000E+00 0.  1.
         21   -1    0    0  504  502 -0.00000000000E+00 -0.00000000000E+00 -0.79237266650E+02  0.79237266650E+02  0.00000000000E+00 0.  1.
         21    1    1    2  503  501 -0.52807265261E+02 -0.43664994576E+01  0.24241302442E+03  0.24813655110E+03  0.00000000000E+00 0.  1.
         21    1    1    2  504  503  0.52807265261E+02  0.43664994576E+01 -0.67185142987E+02  0.85565863637E+02  0.00000000000E+00 0.  1.
</event>
<event>
 4    1  0.2967296E+006  0.2970683E+02  0.7546771E-02  0.1422161E+00
         21   -1    0    0  503  501  0.00000000000E+00  0.00000000000E+00  0.52836194048E+02  0.52836194048E+02  0.00000000000E+00 0.  1.
         21   -1    0    0  504  502 -0.00000000000E+00 -0.00000000000E+00 -0.13443203807E+03  0.13443203807E+03  0.00000000000E+00 0.  1.
         21    1    1    2  503  502  0.28412864207E+02  0.86720699271E+01  0.46826562146E+02  0.55454689357E+02  0.00000000000E+00 0.  1.
         21    1    1    2  504  501 -0.28412864207E+02 -0.86720699271E+01 -0.12842240617E+03  0.13181354276E+03  0.00000000000E+00 0.  1.
</event>
<event>
 4    1  0.2967296E+006  0.2283884E+02  0.7546771E-02  0.1494532E+00
         21   -1    0    0  504  501  0.00000000000E+00  0.00000000000E+00  0.19879231329E+02  0.19879231329E+02  0.00000000000E+00 0. -1.
         21   -1    0    0  503  502 -0.00000000000E+00 -0.00000000000E+00 -0.12957393817E+04  0.12957393817E+04  0.00000000000E+00 0.  1.
         21    1    1    2  503  501 -0.21686944645E+02 -0.71616385717E+01 -0.12890449086E+04  0.12892472179E+04  0.00000000000E+00 0.  1.
         21    1    1    2  504  502  0.21686944645E+02  0.71616385717E+01  0.13184758142E+02  0.26371395154E+02  0.00000000000E+00 0. -1.
</event>
<event>
 4    1  0.2967296E+006  0.3466312E+02  0.7546771E-02  0.1382947E+00
         21   -1    0    0  503  501  0.00000000000E+00  0.00000000000E+00  0.24440297841E+02  0.24440297841E+02  0.00000000000E+00 0. -1.
         21   -1    0    0  504  502 -0.00000000000E+00 -0.00000000000E+00 -0.31783403797E+03  0.31783403797E+03  0.00000000000E+00 0. -1.
         21    1    1    2  503  502  0.11818612155E+02  0.32586077561E+02 -0.30404277151E+03  0.30601231830E+03  0.00000000000E+00 0. -1.
         21    1    1    2  504  501 -0.11818612155E+02 -0.32586077561E+02  0.10649031386E+02  0.36262017505E+02  0.00000000000E+00 0. -1.
</event>
<event>
 4    1  0.2967296E+006  0.2197052E+02  0.7546771E-02  0.1505846E+00
         21   -1    0    0  503  501  0.00000000000E+00  0.00000000000E+00  0.26414403560E+01  0.26414403560E+01  0.00000000000E+00 0. -1.
         21   -1    0    0  504  502 -0.00000000000E+00 -0.00000000000E+00 -0.46088564959E+03  0.46088564959E+03  0.00000000000E+00 0. -1.
         21    1    1    2  503  502 -0.17497600380E+02  0.13286744312E+02 -0.40916776713E+03  0.40975720281E+03  0.00000000000E+00 0. -1.
         21    1    1    2  504  501  0.17497600380E+02 -0.13286744312E+02 -0.49076442107E+02  0.53769887143E+02  0.00000000000E+00 0. -1.
</event>
<event>
 4    1  0.2967296E+006  0.3498075E+02  0.7546771E-02  0.1380699E+00
         21   -1    0    0  503  501  0.00000000000E+00  0.00000000000E+00  0.41440547213E+01  0.41440547213E+01  0.00000000000E+00 0. -1.
         21   -1    0    0  504  502 -0.00000000000E+00 -0.00000000000E+00 -0.30438948209E+03  0.30438948209E+03  0.00000000000E+00 0. -1.
         21    1    1    2  503  502  0.29382538649E+02 -0.18982070244E+02 -0.17681138135E+03  0.18023850073E+03  0.00000000000E+00 0. -1.
         21    1    1    2  504  501 -0.29382538649E+02  0.18982070244E+02 -0.12343404601E+03  0.12829503608E+03  0.00000000000E+00 0. -1.
</event>
<event>
 4    1  0.2967296E+006  0.2151574E+02  0.7546771E-02  0.1512027E+00
         21   -1    0    0  504  501  0.00000000000E+00  0.00000000000E+00  0.11215238550E+02  0.11215238550E+02  0.00000000000E+00 0. -1.
         21   -1    0    0  503  502 -0.00000000000E+00 -0.00000000000E+00 -0.52555398708E+02  0.52555398708E+02  0.00000000000E+00 0. -1.
         21    1    1    2  503  501 -0.19679006862E+02 -0.86984826669E+01 -0.58989567900E+01  0.22309742333E+02  0.00000000000E+00 0. -1.
         21    1    1    2  504  502  0.19679006862E+02  0.86984826669E+01 -0.35441203368E+02  0.41460894924E+02  0.00000000000E+00 0. -1.
</event>
<event>
 4    1  0.2967296E+006  0.4556677E+02  0.7546771E-02  0.1318629E+00
         21   -1    0    0  504  501  0.00000000000E+00  0.00000000000E+00  0.48435577274E+02  0.48435577274E+02  0.00000000000E+00 0. -1.
         21   -1    0    0  501  502 -0.00000000000E+00 -0.00000000000E+00 -0.95090100071E+02  0.95090100071E+02  0.00000000000E+00 0.  1.
         21    1    1    2  503  502 -0.32742656003E+01 -0.45448978902E+02 -0.76508644004E+02  0.89050003402E+02  0.00000000000E+00 0.  1.
         21    1    1    2  504  503  0.32742656003E+01  0.45448978902E+02  0.29854121207E+02  0.54475673943E+02  0.00000000000E+00 0. -1.
</event>
<event>
 4    1  0.2967296E+006  0.2245611E+02  0.7546771E-02  0.1499443E+00
         21   -1    0    0  504  501  0.00000000000E+00  0.00000000000E+00  0.19511440864E+03  0.19511440864E+03  0.00000000000E+00 0. -1.
         21   -1    0    0  503  502 -0.00000000000E+00 -0.00000000000E+00 -0.44202436681E+02  0.44202436681E+02  0.00000000000E+00 0. -1.
         21    1    1    2  503  501 -0.21992651089E+02  0.45387276323E+01 -0.40651533163E+02  0.46441618178E+02  0.00000000000E+00 0. -1.
         21    1    1    2  504  502  0.21992651089E+02 -0.45387276323E+01  0.19156350512E+03  0.19287522714E+03  0.00000000000E+00 0. -1.
</event>
<event>
 4    1  0.2967296E+006  0.4430083E+02  0.7546771E-02  0.1324973E+00
         21   -1    0    0  502  501  0.00000000000E+00  0.00000000000E+00  0.52902148416E+01  0.52902148416E+01  0.00000000000E+00 0. -1.
         21   -1    0    0  504  502 -0.00000000000E+00 -0.00000000000E+00 -0.15978476673E+04  0.15978476673E+04  0.00000000000E+00 0.  1.
         21    1    1    2  503  501 -0.25481610764E+02  0.36238808413E+02 -0.93898848492E+02  0.10382464770E+03  0.00000000000E+00 0. -1.
         21    1    1    2  504  503  0.25481610764E+02 -0.36238808413E+02 -0.14986586040E+04  0.14993132345E+04  0.00000000000E+00 0.  1.
</event>
<event>
 4    1  0.2967296E+006  0.3429946E+02  0.7546771E-02  0.1385556E+00
         21   -1    0    0  502  501  0.00000000000E+00  0.00000000000E+00  0.71916595701E+01  0.71916595701E+01  0.00000000000E+00 0.  1.
         21   -1    0    0  503  502 -0.00000000000E+00 -0.00000000000E+00 -0.67011934750E+03  0.67011934750E+03  0.00000000000E+00 0.  1.
         21    1    1    2  503  504  0.16870033070E+02 -0.29863944303E+02 -0.62589663652E+03  0.62683574627E+03  0.00000000000E+00 0.  1.
         21    1    1    2  504  501 -0.16870033070E+02  0.29863944303E+02 -0.37031051410E+02  0.50475260808E+02  0.00000000000E+00 0.  1.
</event>
<event>
 4    1  0.2967296E+006  0.2850709E+02  0.7546771E-02  0.1433029E+00
         21   -1    0    0  503  501  0.00000000000E+00  0.00000000000E+00  0.83057160105E+01  0.83057160105E+01  0.00000000000E+00 0.  1.
         21   -1    0    0  504  502 -0.00000000000E+00 -0.00000000000E+00 -0.18767300906E+03  0.18767300906E+03  0.00000000000E+00 0. -1.
         21    1    1    2  503  502  0.12613041440E+02 -0.25564920039E+02 -0.15747735504E+03  0.16003678109E+03  0.00000000000E+00 0. -1.
         21    1    1    2  504  501 -0.12613041440E+02  0.25564920039E+02 -0.21889938005E+02  0.35941943977E+02  0.00000000000E+00 0.  1.
</event>
<event>
 4    1  0.2967296E+006  0.3870398E+02  0.7546771E-02  0.1356252E+00
         21   -1    0    0  502  501  0.00000000000E+00  0.00000000000E+00  0.16387852801E+04  0.16387852801E+04  0.00000000000E+00 0.  1.
         21   -1    0    0  503  502 -0.00000000000E+00 -0.00000000000E+00 -0.16313354147E+02  0.16313354147E+02  0.00000000000E+00 0.  1.
         21    1    1    2  503  504  0.38688516826E+02  0.10940881213E+01  0.72060118797E+01  0.39369086480E+02  0.00000000000E+00 0.  1.
         21    1    1    2  504  501 -0.38688516826E+02 -0.10940881213E+01  0.16152659140E+04  0.16157295477E+04  0.00000000000E+00 0.  1.
</event>
<event>
 4    1  0.2967296E+006  0.5000428E+02  0.7546771E-02  0.1298154E+00
         21   -1    0    0  504  501  0.00000000000E+00  0.00000000000E+00  0.72506986310E+01  0.72506986310E+01  0.00000000000E+00 0. -1.
         21   -1    0    0  503  502 -0.00000000000E+00 -0.00000000000E+00 -0.40995986744E+03  0.40995986744E+03  0.00000000000E+00 0.  1.
         21    1    1    2  503  501  0.40423233501E+02  0.29434504565E+02 -0.28448630960E+03  0.28884751724E+03  0.00000000000E+00 0.  1.
         21    1    1    2  504  502 -0.40423233501E+02 -0.29434504565E+02 -0.11822285920E+03  0.12836304882E+03  0.00000000000E+00 0. -1.
</event>
<event>
 4    1  0.2967296E+006  0.2144656E+02  0.7546771E-02  0.1512984E+00
         21   -1    0    0  504  501  0.00000000000E+00  0.00000000000E+00  0.96658496756E+01  0.96658496756E+01  0.00000000000E+00 0.  1.
         21   -1    0    0  503  502 -0.00000000000E+00 -0.00000000000E+00 -0.11662982539E+04  0.11662982539E+04  0.00000000000E+00 0.  1.
         21    1    1    2  503  501  0.10151870807E+02 -0.18891651071E+02 -0.24540474967E+01  0.21586507596E+02  0.00000000000E+00 0.  1.
         21    1    1    2  504  502 -0.10151870807E+02  0.18891651071E+02 -0.11541783568E+04  0.11543775960E+04  0.00000000000E+00 0.  1.
</event>
<event>
 4    1  0.2967296E+006  0.2023677E+02  0.7546771E-02  0.1530447E+00
         21   -1    0    0  504  501  0.00000000000E+00  0.00000000000E+00  0.72775264105E+03  0.72775264105E+03  0.00000000000E+00 0. -1.
         21   -1    0    0  503  502 -0.00000000000E+00 -0.00000000000E+00 -0.43435827753E+01  0.43435827753E+01  0.00000000000E+00 0. -1.
         21    1    1    2  503  501  0.20051056625E+02  0.27353407975E+01  0.70321899514E+03  0.70351011513E+03  0.00000000000E+00 0. -1.
         21    1    1    2  504  502 -0.20051056625E+02 -0.27353407975E+01  0.20190063133E+02  0.28586108696E+02  0.00000000000E+00 0. -1.
</event>
<event>
 4    1  0.2967296E+006  0.2123910E+02  0.7546771E-02  0.1515878E+00
         21   -1    0    0  503  501  0.00000000000E+00  0.00000000000E+00  0.19161571507E+02  0.19161571507E+02  0.00000000000E+00 0. -1.
         21   -1    0    0  504  502 -0.00000000000E+00 -0.00000000000E+00 -0.16067648667E+03  0.16067648667E+03  0.00000000000E+00 0. -1.
         21    1    1    2  503  502 -0.20527233820E+02  0.54527167002E+01  0.12313453860E+02  0.24550368504E+02  0.00000000000E+00 0. -1.
         21    1    1    2  504  501  0.20527233820E+02 -0.54527167002E+01 -0.15382836902E+03  0.15528768967E+03  0.00000000000E+00 0. -1.
</event>
<event>
 4    1  0.2967296E+006  0.2178296E+02  0.7546771E-02  0.1508373E+00
         21   -1    0    0  504  501  0.00000000000E+00  0.00000000000E+00  0.51204623150E+01  0.51204623150E+01  0.00000000000E+00 0.  1.
         21   -1    0    0  501  502 -0.00000000000E+00 -0.00000000000E+00 -0.93246758718E+02  0.93246758718E+02  0.00000000000E+00 0.  1.
         21    1    1    2  503  502 -0.16581128581E+02 -0.14126700373E+02 -0.47941577848E+02  0.52658260273E+02  0.00000000000E+00 0.  1.
         21    1    1    2  504  503  0.16581128581E+02  0.14126700373E+02 -0.40184718555E+02  0.45708960760E+02  0.00000000000E+00 0.  1.
</event>
<event>
 4    1  0.2967296E+006  0.2048123E+02  0.7546771E-02  0.1526802E+00
         21   -1    0    0  502  501  0.00000000000E+00  0.00000000000E+00  0.54027452862E+03  0.54027452862E+03  0.00000000000E+00 0.  1.
         21   -1    0    0  504  502 -0.00000000000E+00 -0.00000000000E+00 -0.39240343294E+01  0.39240343294E+01  0.00000000000E+00 0.  1.
         21    1    1    2  503  501  0.17297716683E+02  0.10966756563E+02  0.51187307056E+03  0.51228265744E+03  0.00000000000E+00 0.  1.
         21    1    1    2  504  503 -0.17297716683E+02 -0.10966756563E+02  0.24477423738E+02  0.31915905514E+02  0.00000000000E+00 0.  1.
</event>
<event>
 4    1  0.2967296E+006  0.2210426E+02  0.7546771E-02  0.1504063E+00
         21   -1    0    0  503  501  0.00000000000E+00  0.00000000000E+00  0.71739446645E+03  0.71739446645E+03  0.00000000000E+00 0. -1.
         21   -1    0    0  501  502 -0.00000000000E+00 -0.00000000000E+00 -0.77494166827E+01  0.77494166827E+01  0.00000000000E+00 0.  1.
         21    1    1    2  503  504  0.10666613790E+02 -0.19360315829E+02  0.70109541687E+03  0.70144378394E+03  0.00000000000E+00 0. -1.
         21    1    1    2  504  502 -0.10666613790E+02  0.19360315829E+02  0.85496328948E+01  0.23700099185E+02  0.00000000000E+00 0.  1.
</event>
<event>
 4    1  0.2967296E+006  0.2269467E+02  0.7546771E-02  0.1496368E+00
         21   -1    0    0  504  501  0.00000000000E+00  0.00000000000E+00  0.10870187474E+03  0.10870187474E+03  0.00000000000E+00 0. -1.
         21   -1    0    0  503  502 -0.00000000000E+00 -0.00000000000E+00 -0.34304370117E+02  0.34304370117E+02  0.00000000000E+00 0. -1.
         21    1    1    2  503  501 -0.90513045340E+01 -0.20811587001E+02  0.10358039844E+03  0.10603748021E+03  0.00000000000E+00 0. -1.
         21    1    1    2  504  502  0.90513045340E+01  0.20811587001E+02 -0.29182893825E+02  0.36968764644E+02  0.00000000000E+00 0. -1.
</event>
<event>
 4    1  0.2967296E+006  0.2643827E+02  0.7546771E-02  0.1453334E+00
         21   -1    0    0  503  501  0.00000000000E+00  0.00000000000E+00  0.10544329478E+03  0.10544329478E+03  0.00000000000E+00 0. -1.
         21   -1    0    0  504  502 -0.00000000000E+00 -0.00000000000E+00 -0.11746312481E+03  0.11746312481E+03  0.00000000000E+00 0. -1.
         21    1    1    2  503  502 -0.20825493027E+02  0.16287440379E+02 -0.11427254816E+03  0.11729107867E+03  0.00000000000E+00 0. -1.
         21    1    1    2  504  501  0.20825493027E+02 -0.16287440379E+02  0.10225271812E+03  0.10561534092E+03  0.00000000000E+00 0. -1.
</event>
<event>
 4    1  0.2967296E+006  0.2840940E+02  0.7546771E-02  0.1433942E+00
         21   -1    0    0  502  501  0.00000000000E+00  0.00000000000E+00  0.71941247807E+01  0.71941247807E+01  0.00000000000E+00 0.  1.
         21   -1    0    0  503  502 -0.00000000000E+00 -0.00000000000E+00 -0.13832278281E+03  0.13832278281E+03  0.00000000000E+00 0. -1.
         21    1    1    2  503  504  0.28408045437E+02 -0.27781703616E+00 -0.97190479328E+02  0.10125751083E+03  0.00000000000E+00 0. -1.
         21    1    1    2  504  501 -0.28408045437E+02  0.27781703616E+00 -0.33938178698E+02  0.44259396755E+02  0.00000000000E+00 0.  1.
</event>
<event>
 4    1  0.2967296E+006  0.3578847E+02  0.7546771E-02  0.1375103E+00
         21   -1    0    0  502  501  0.00000000000E+00  0.00000000000E+00  0.12784950826E+03  0.12784950826E+03  0.00000000000E+00 0.  1.
         21   -1    0    0  503  502 -0.00000000000E+00 -0.00000000000E+00 -0.29283756200E+03  0.29283756200E+03  0.00000000000E+00 0. -1.
         21    1    1    2  503  504 -0.17476181734E+02  0.31231360265E+02 -0.28920826418E+03  0.29141419811E+03  0.00000000000E+00 0. -1.
         21    1    1    2  504  501  0.17476181734E+02 -0.31231360265E+02  0.12422021044E+03  0.12927287215E+03  0.00000000000E+00 0.  1.
</event>
<event>
 4    1  0.2967296E+006  0.2603679E+02  0.7546771E-02  0.1457531E+00
         21   -1    0    0  504  501  0.00000000000E+00  0.00000000000E+00  0.24897744166E+03  0.24897744166E+03  0.00000000000E+00 0. -1.
         21   -1    0    0  503  502 -0.00000000000E+00 -0.00000000000E+00 -0.28522695385E+01  0.28522695385E+01  0.00000000000E+00 0. -1.
         21    1    1    2  503  501 -0.16886848644E+02  0.19817892334E+02  0.96235468803E+02  0.99695436051E+02  0.00000000000E+00 0. -1.
         21    1    1    2  504  502  0.16886848644E+02 -0.19817892334E+02  0.14988970332E+03  0.15213427515E+03  0.00000000000E+00 0. -1.
</event>
<event>
 4    1  0.2967296E+006  0.2004105E+02  0.7546771E-02  0.1533409E+00
         21   -1    0    0  504  501  0.00000000000E+00  0.00000000000E+00  0.85730355018E+02  0.85730355018E+02  0.00000000000E+00 0. -1.
         21   -1    0    0  503  502 -0.00000000000E+00 -0.00000000000E+00 -0.48207006919E+01  0.48207006919E+01  0.00000000000E+00 0. -1.
         21    1    1    2  503  501  0.52229753706E+01 -0.19348495515E+02  0.32857606074E+02  0.38487219013E+02  0.00000000000E+00 0. -1.
         21    1    1    2  504  502 -0.52229753706E+01  0.19348495515E+02  0.48052048252E+02  0.52063836697E+02  0.00000000000E+00 0. -1.
</event>
<event>
 4    1  0.2967296E+006  0.2173457E+02  0.7546771E-02  0.1509030E+00
         21   -1    0    0  502  501  0.00000000000E+00  0.00000000000E+00  0.11050934654E+03  0.11050934654E+03  0.00000000000E+00 0.  1.
         21   -1    0    0  504  502 -0.00000000000E+00 -0.00000000000E+00 -0.23191033747E+03  0.23191033747E+03  0.00000000000E+00 0. -1.
         21    1    1    2  503  501 -0.14997365731E+02 -0.15731194688E+02  0.10892409966E+03  0.11107137773E+03  0.00000000000E+00 0.  1.
         21    1    1    2  504  503  0.14997365731E+02  0.15731194688E+02 -0.23032509058E+03  0.23134830628E+03  0.00000000000E+00 0. -1.
</event>
<event>
 4    1  0.2967296E+006  0.2298237E+02  0.7546771E-02  0.1492720E+00
         21   -1    0    0  503  501  0.00000000000E+00  0.00000000000E+00  0.28592180845E+01  0.28592180845E+01  0.00000000000E+00 0. -1.
         21   -1    0    0  501  502 -0.00000000000E+00 -0.00000000000E+00 -0.97799437367E+03  0.97799437367E+03  0.00000000000E+00 0. -1.
         21    1    1    2  503  504  0.20426122344E+02  0.10533899770E+02 -0.45880800484E+02  0.51315079377E+02  0.00000000000E+00 0. -1.
         21    1    1    2  504  502 -0.20426122344E+02 -0.10533899770E+02 -0.92925435510E+03  0.92953851238E+03  0.00000000000E+00 0. -1.
</event>
<event>
 4    1  0.2967296E+006  0.2761224E+02  0.7546771E-02  0.1441553E+00
         21   -1    0    0  504  501  0.00000000000E+00  0.00000000000E+00  0.96641437217E+02  0.96641437217E+02  0.00000000000E+00 0. -1.
         21   -1    0    0  503  502 -0.00000000000E+00 -0.00000000000E+00 -0.11474998592E+02  0.11474998592E+02  0.00000000000E+00 0. -1.
         21    1    1    2  503  501  0.14704963144E+02 -0.23370916305E+02  0.72801573234E+02  0.77862087921E+02  0.00000000000E+00 0. -1.
         21    1    1    2  504  502 -0.14704963144E+02  0.23370916305E+02  0.12364865391E+02  0.30254347888E+02  0.00000000000E+00 0. -1.
</event>
<event>
 4    1  0.2967296E+006  0.2136483E+02  0.7546771E-02  0.1514119E+00
         21   -1    0    0  503  501  0.00000000000E+00  0.00000000000E+00  0.47027220749E+03  0.47027220749E+03  0.00000000000E+00 0. -1.
         21   -1    0    0  504  502 -0.00000000000E+00 -0.00000000000E+00 -0.69589632331E+01  0.69589632331E+01  0.00000000000E+00 0.  1.
         21    1    1    2  503  502  0.38802161296E+01 -0.21009517695E+02  0.10306454732E+02  0.23720854118E+02  0.00000000000E+00 0.  1.
         21    1    1    2  504  501 -0.38802161296E+01  0.21009517695E+02  0.45300678953E+03  0.45351031661E+03  0.00000000000E+00 0. -1.
</event>
<event>
 4    1  0.2967296E+006  0.2042931E+02  0.7546771E-02  0.1527571E+00
         21   -1    0    0  502  501  0.00000000000E+00  0.00000000000E+00  0.68581435864E+02  0.68581435864E+02  0.00000000000E+00 0.  1.
         21   -1    0    0  504  502 -0.00000000000E+00 -0.00000000000E+00 -0.17987703706E+03  0.17987703706E+03  0.00000000000E+00 0.  1.
         21    1    1    2  503  501  0.17163231247E+02  0.11080621211E+02  0.66461905599E+02  0.69530867744E+02  0.00000000000E+00 0.  1.
         21    1    1    2  504  503 -0.17163231247E+02 -0.11080621211E+02 -0.17775750680E+03  0.17892760518E+03  0.00000000000E+00 0.  1.
</event>
<event>
 4    1  0.2967296E+006  0.2293075E+02  0.7546771E-02  0.1493370E+00
         21   -1    0    0  502  501  0.00000000000E+00  0.00000000000E+00  0.14289416035E+02  0.14289416035E+02  0.00000000000E+00 0.  1.
         21   -1    0    0  503  502 -0.00000000000E+00 -0.00000000000E+00 -0.85796941692E+02  0.85796941692E+02  0.00000000000E+00 0. -1.
         21    1    1    2  503  504  0.13864910550E+02  0.18264272791E+02 -0.73572160051E+02  0.77062845391E+02  0.00000000000E+00 0. -1.
         21    1    1    2  504  501 -0.13864910550E+02 -0.18264272791E+02  0.20646343932E+01  0.23023512336E+02  0.00000000000E+00 0.  1.
</event>
<event>
 4    1  0.2967296E+006  0.2777857E+02  0.7546771E-02  0.1439940E+00
         21   -1    0    0  503  501  0.00000000000E+00  0.00000000000E+00  0.14132931409E+03  0.14132931409E+03  0.00000000000E+00 0.  1.
         21   -1    0    0  501  502 -0.00000000000E+00 -0.00000000000E+00 -0.28659841656E+02  0.28659841656E+02  0.00000000000E+00 0. -1.
         21    1    1    2  503  504 -0.31895223057E+01 -0.27594857412E+02  0.13280585152E+03  0.13567993000E+03  0.00000000000E+00 0.  1.
         21    1    1    2  504  502  0.31895223057E+01  0.27594857412E+02 -0.20136379087E+02  0.34309225740E+02  0.00000000000E+00 0. -1.
</event>
<event>
 4    1  0.2967296E+006  0.3873930E+02  0.7546771E-02  0.1356036E+00
         21   -1    0    0  504  501  0.00000000000E+00  0.00000000000E+00  0.76595388473E+02  0.76595388473E+02  0.00000000000E+00 0. -1.
         21   -1    0    0  503  502 -0.00000000000E+00 -0.00000000000E+00 -0.19757507705E+02  0.19757507705E+02  0.00000000000E+00 0. -1.
         21    1    1    2  503  501 -0.19766777469E+02 -0.33316782695E+02  0.24022907993E+02  0.45583260185E+02  0.00000000000E+00 0. -1.
         21    1    1    2  504  502  0.19766777469E+02  0.33316782695E+02  0.32814972774E+02  0.50769635993E+02  0.00000000000E+00 0. -1.
</event>
<event>
 4    1  0.2967296E+006  0.2032458E+02  0.7546771E-02  0.1529130E+00
         21   -1    0    0  504  501  0.00000000000E+00  0.00000000000E+00  0.90072501274E+03  0.90072501274E+03  0.00000000000E+00 0. -1.
         21   -1    0    0  501  502 -0.00000000000E+00 -0.00000000000E+00 -0.55824407425E+01  0.55824407425E+01  0.00000000000E+00 0. -1.
         21    1    1    2  503  502  0.12305994304E+02 -0.16175636125E+02  0.13430544365E+02  0.24361203209E+02  0.00000000000E+00 0. -1.
         21    1    1    2  504  503 -0.12305994304E+02  0.16175636125E+02  0.88171202763E+03  0.88194625027E+03  0.00000000000E+00 0. -1.
</event>
<event>
 4    1  0.2967296E+006  0.3794252E+02  0.7546771E-02  0.1360983E+00
         21   -1    0    0  504  501  0.00000000000E+00  0.00000000000E+00  0.99775394422E+02  0.99775394422E+02  0.00000000000E+00 0. -1.
         21   -1    0    0  503  502 -0.00000000000E+00 -0.00000000000E+00 -0.58633542502E+02  0.58633542502E+02  0.00000000000E+00 0. -1.
         21    1    1    2  503  501  0.29281185509E+02  0.24129801076E+02 -0.48201010063E+02  0.61343072110E+02  0.00000000000E+00 0. -1.
         21    1    1    2  504  502 -0.29281185509E+02 -0.24129801076E+02  0.89342861984E+02  0.97065864814E+02  0.00000000000E+00 0. -1.
</event>
<event>
 4    1  0.2967296E+006  0.2844725E+02  0.7546771E-02  0.1433588E+00
         21   -1    0    0  502  501  0.00000000000E+00  0.00000000000E+00  0.13547855687E+02  0.13547855687E+02  0.00000000000E+00 0.  1.
         21   -1    0    0  504  502 -0.00000000000E+00 -0.00000000000E+00 -0.61930660229E+02  0.61930660229E+02  0.00000000000E+00 0.  1.
         21    1    1    2  503  501  0.12062260989E+02  0.25763304869E+02 -0.17081241049E+02  0.33181543269E+02  0.00000000000E+00 0.  1.
         21    1    1    2  504  503 -0.12062260989E+02 -0.25763304869E+02 -0.31301563493E+02  0.42296972646E+02  0.00000000000E+00 0.  1.
</event>
<event>
 4    1  0.2967296E+006  0.3002813E+02  0.7546771E-02  0.1419352E+00
         21   -1    0    0  504  501  0.00000000000E+00  0.00000000000E+00  0.25832534682E+01  0.25832534682E+01  0.00000000000E+00 0.  1.
         21   -1    0    0  501  502 -0.00000000000E+00 -0.00000000000E+00 -0.37547474501E+03  0.37547474501E+03  0.00000000000E+00 0.  1.
         21    1    1    2  503  502  0.23830750327E+02  0.18269753064E+02 -0.23659113624E+03  0.23848910727E+03  0.00000000000E+00 0.  1.
         21    1    1    2  504  503 -0.23830750327E+02 -0.18269753064E+02 -0.13630035530E+03  0.13956889120E+03  0.00000000000E+00 0.  1.
</event>
<event>
 4    1  0.2967296E+006  0.2045460E+02  0.7546771E-02  0.1527196E+00
         21   -1    0    0  502  501  0.00000000000E+00  0.00000000000E+00  0.28893695938E+02  0.28893695938E+02  0.00000000000E+00 0.  1.
         21   -1    0    0  504  502 -0.00000000000E+00 -0.00000000000E+00 -0.88133361780E+02  0.88133361780E+02  0.00000000000E+00 0. -1.
         21    1    1    2  503  501  0.30846545854E+01 -0.20220672706E+02  0.23871250098E+02  0.31436082451E+02  0.00000000000E+00 0.  1.
         21    1    1    2  504  503 -0.30846545854E+01  0.20220672706E+02 -0.83110915940E+02  0.85590975266E+02  0.00000000000E+00 0. -1.
</event>
<event>
 4    1  0.2967296E+006  0.3138290E+02  0.7546771E-02  0.1407948E+00
         21   -1    0    0  502  501  0.00000000000E+00  0.00000000000E+00  0.15628840518E+02  0.15628840518E+02  0.00000000000E+00 0.  1.
         21   -1    0    0  504  502 -0.00000000000E+00 -0.00000000000E+00 -0.12951134590E+03  0.12951134590E+03  0.00000000000E+00 0.  1.
         21    1    1    2  503  501  0.18858535467E+02  0.25084703389E+02 -0.49422178041E+01  0.31769674548E+02  0.00000000000E+00 0.  1.
         21    1    1    2  504  503 -0.18858535467E+02 -0.25084703389E+02 -0.10894028757E+03  0.11337051187E+03  0.00000000000E+00 0.  1.
</event>
<event>
 4    1  0.2967296E+006  0.2356948E+02  0.7546771E-02  0.1485468E+00
         21   -1    0    0  503  501  0.00000000000E+00  0.00000000000E+00  0.49703241710E+00  0.49703241710E+00  0.00000000000E+00 0. -1.
         21   -1    0    0  504  502 -0.00000000000E+00 -0.00000000000E+00 -0.11218687512E+04  0.11218687512E+04  0.00000000000E+00 0. -1.
         21    1    1    2  503  502 -0.12567300736E+02 -0.19939493594E+02 -0.59499905846E+03  0.59546570012E+03  0.00000000000E+00 0. -1.
         21    1    1    2  504  501  0.12567300736E+02  0.19939493594E+02 -0.52637266032E+03  0.52690008350E+03  0.00000000000E+00 0. -1.
</event>
<event>
 4    1  0.2967296E+006  0.2782114E+02  0.7546771E-02  0.1439530E+00
         21   -1    0    0  504  501  0.00000000000E+00  0.00000000000E+00  0.33161581354E+01  0.33161581354E+01  0.00000000000E+00 0. -1.
         21   -1    0    0  503  502 -0.00000000000E+00 -0.00000000000E+00 -0.54781198220E+03  0.54781198220E+03  0.00000000000E+00 0.  1.
         21    1    1    2  503  501 -0.27789137326E+02 -0.13339480779E+01 -0.48100984933E+03  0.48181375107E+03  0.00000000000E+00 0.  1.
         21    1    1    2  504  502  0.27789137326E+02  0.13339480779E+01 -0.63485974737E+02  0.69314389264E+02  0.00000000000E+00 0. -1.
</event>
<event>
 4    1  0.2967296E+006  0.3322293E+02  0.7546771E-02  0.1393506E+00
         21   -1    0    0  502  501  0.00000000000E+00  0.00000000000E+00  0.16244252656E+02  0.16244252656E+02  0.00000000000E+00 0.  1.
         21   -1    0    0  503  502 -0.00000000000E+00 -0.00000000000E+00 -0.20633223148E+03  0.20633223148E+03  0.00000000000E+00 0.  1.
         21    1    1    2  503  504 -0.13069973432E+02 -0.30544047153E+02 -0.18618402391E+03  0.18912496869E+03  0.00000000000E+00 0.  1.
         21    1    1    2  504  501  0.13069973432E+02  0.30544047153E+02 -0.39039549171E+01  0.33451515451E+02  0.00000000000E+00 0.  1.
</event>
<event>
 4    1  0.2967296E+006  0.2763706E+02  0.7546771E-02  0.1441312E+00
         21   -1    0    0  502  501  0.00000000000E+00  0.00000000000E+00  0.55357943183E+02  0.55357943183E+02  0.00000000000E+00 0.  1.
         21   -1    0    0  503  502 -0.00000000000E+00 -0.00000000000E+00 -0.38930016377E+02  0.38930016377E+02  0.00000000000E+00 0. -1.
         21    1    1    2  503  504 -0.26505214006E+02 -0.78282175975E+01 -0.29665252237E+02  0.40544229559E+02  0.00000000000E+00 0. -1.
         21    1    1    2  504  501  0.26505214006E+02  0.78282175975E+01  0.46093179042E+02  0.53743730001E+02  0.00000000000E+00 0.  1.
</event>
<event>
 4    1  0.2967296E+006  0.2571147E+02  0.7546771E-02  0.1460999E+00
         21   -1    0    0  504  501  0.00000000000E+00  0.00000000000E+00  0.15421881798E+02  0.15421881798E+02  0.00000000000E+00 0.  1.
         21   -1    0    0  503  502 -0.00000000000E+00 -0.00000000000E+00 -0.65007018060E+03  0.65007018060E+03  0.00000000000E+00 0.  1.
         21    1    1    2  503  501  0.53370905588E+00  0.25705930841E+02 -0.63891228239E+03  0.63942942090E+03  0.00000000000E+00 0.  1.
         21    1    1    2  504  502 -0.53370905588E+00 -0.25705930841E+02  0.42639835871E+01  0.26062641496E+02  0.00000000000E+00 0.  1.
</event>
<event>
 4    1  0.2967296E+006  0.2176503E+02  0.7546771E-02  0.1508617E+00
         21   -1    0    0  504  501  0.00000000000E+00  0.00000000000E+00  0.48234144456E+02  0.48234144456E+02  0.00000000000E+00 0. -1.
         21   -1    0    0  503  502 -0.00000000000E+00 -0.00000000000E+00 -0.14401006128E+03  0.14401006128E+03  0.00000000000E+00 0. -1.
         21    1    1    2  503  501  0.20996004313E+02 -0.57344936534E+01  0.44898606842E+02  0.49895906755E+02  0.00000000000E+00 0. -1.
         21    1    1    2  504  502 -0.20996004313E+02  0.57344936534E+01 -0.14067452366E+03  0.14234829898E+03  0.00000000000E+00 0. -1.
</event>
<event>
 4    1  0.2967296E+006  0.2668779E+02  0.7546771E-02  0.1450770E+00
         21   -1    0    0  504  501  0.00000000000E+00  0.00000000000E+00  0.52887510552E+02  0.52887510552E+02  0.00000000000E+00 0. -1.
         21   -1    0    0  501  502 -0.00000000000E+00 -0.00000000000E+00 -0.20149627320E+02  0.20149627320E+02  0.00000000000E+00 0. -1.
         21    1    1    2  503  502 -0.25919829344E+02 -0.63561520347E+01 -0.46617018788E+01  0.27091874913E+02  0.00000000000E+00 0. -1.
         21    1    1    2  504  503  0.25919829344E+02  0.63561520347E+01  0.37399585111E+02  0.45945262959E+02  0.00000000000E+00 0. -1.
</event>
<event>
 4    1  0.2967296E+006  0.4232059E+02  0.7546771E-02  0.1335399E+00
         21   -1    0    0  504  501  0.00000000000E+00  0.00000000000E+00  0.16012273610E+03  0.16012273610E+03  0.00000000000E+00 0.  1.
         21   -1    0    0  503  502 -0.00000000000E+00 -0.00000000000E+00 -0.13471900955E+02  0.13471900955E+02  0.00000000000E+00 0.  1.
         21    1    1    2  503  501  0.17925083988E+02  0.38336973894E+02  0.37566833085E+02  0.56588860665E+02  0.00000000000E+00 0.  1.
         21    1    1    2  504  502 -0.17925083988E+02 -0.38336973894E+02  0.10908400206E+03  0.11700577639E+03  0.00000000000E+00 0.  1.
</event>
<event>
 4    1  0.2967296E+006  0.3139729E+02  0.7546771E-02  0.1407831E+00
         21   -1    0    0  502  501  0.00000000000E+00  0.00000000000E+00  0.29342231168E+02  0.29342231168E+02  0.00000000000E+00 0.  1.
         21   -1    0    0  503  502 -0.00000000000E+00 -0.00000000000E+00 -0.42244118860E+02  0.42244118860E+02  0.00000000000E+00 0.  1.
         21    1    1    2  503  504 -0.14197423630E+02  0.28003978741E+02 -0.22645573453E+02  0.38711905922E+02  0.00000000000E+00 0.  1.
         21    1    1    2  504  501  0.14197423630E+02 -0.28003978741E+02  0.97436857611E+01  0.32874444106E+02  0.00000000000E+00 0.  1.
</event>
<event>
 4    1  0.2967296E+006  0.3303287E+02  0.7546771E-02  0.1394946E+00
         21   -1    0    0  503  501  0.00000000000E+00  0.00000000000E+00  0.12703441958E+03  0.12703441958E+03  0.00000000000E+00 0. -1.
         21   -1    0    0  501  502 -0.00000000000E+00 -0.00000000000E+00 -0.25411643051E+02  0.25411643051E+02  0.00000000000E+00 0. -1.
         21    1    1    2  503  504  0.32588514032E+02 -0.53999124880E+01  0.11282823425E+03  0.11756436852E+03  0.00000000000E+00 0. -1.
         21    1    1    2  504  502 -0.32588514032E+02  0.53999124880E+01 -0.11205457717E+02  0.34881694115E+02  0.00000000000E+00 0. -1.
</event>
<event>
 4    1  0.2967296E+006  0.2064330E+02  0.7546771E-02  0.1524419E+00
         21   -1    0    0  502  501  0.00000000000E+00  0.00000000000E+00  0.24036818409E+03  0.24036818409E+03  0.00000000000E+00 0. -1.
         21   -1    0    0  503  502 -0.00000000000E+00 -0.00000000000E+00 -0.27308058315E+02  0.27308058315E+02  0.00000000000E+00 0. -1.
         21    1    1    2  503  504 -0.15977492077E+02  0.13071549435E+02 -0.22890655914E+02  0.30824142906E+02  0.00000000000E+00 0. -1.
         21    1    1    2  504  501  0.15977492077E+02 -0.13071549435E+02  0.23595078169E+03  0.23685209950E+03  0.00000000000E+00 0. -1.
</event>
<event>
 4    1  0.2967296E+006  0.4845922E+02  0.7546771E-02  0.1304995E+00
         21   -1    0    0  504  501  0.00000000000E+00  0.00000000000E+00  0.12098361182E+03  0.12098361182E+03  0.00000000000E+00 0.  1.
         21   -1    0    0  503  502 -0.00000000000E+00 -0.00000000000E+00 -0.58848836667E+02  0.58848836667E+02  0.00000000000E+00 0. -1.
         21    1    1    2  503  501  0.40909664826E+02  0.25974894975E+02  0.10467639972E+03  0.11534922845E+03  0.00000000000E+00 0.  1.
         21    1    1    2  504  502 -0.40909664826E+02 -0.25974894975E+02 -0.42541624571E+02  0.64483220036E+02  0.00000000000E+00 0. -1.
</event>
<event>
 4    1  0.2967296E+006  0.2521381E+02  0.7546771E-02  0.1466426E+00
         21   -1    0    0  503  501  0.00000000000E+00  0.00000000000E+00  0.80584535577E+02  0.80584535577E+02  0.00000000000E+00 0. -1.
         21   -1    0    0  504  502 -0.00000000000E+00 -0.00000000000E+00 -0.32389836517E+02  0.32389836517E+02  0.00000000000E+00 0.  1.
         21    1    1    2  503  502 -0.23045067131E+02 -0.10230405313E+02 -0.25031373811E+02  0.35528945760E+02  0.00000000000E+00 0.  1.
         21    1    1    2  504  501  0.23045067131E+02  0.10230405313E+02  0.73226072871E+02  0.77445426334E+02  0.00000000000E+00 0. -1.
</event>
<event>
 4    1  0.2967296E+006  0.2207337E+02  0.7546771E-02  0.1504474E+00
         21   -1    0    0  502  501  0.00000000000E+00  0.00000000000E+00  0.68869693263E+01  0.68869693263E+01  0.00000000000E+00 0. -1.
         21   -1    0    0  503  502 -0.00000000000E+00 -0.00000000000E+00 -0.79810697806E+02  0.79810697806E+02  0.00000000000E+00 0. -1.
         21    1    1    2  503  504  0.80228839194E+01  0.20563724783E+02 -0.51070040723E+02  0.55636161826E+02  0.00000000000E+00 0. -1.
         21    1    1    2  504  501 -0.80228839194E+01 -0.20563724783E+02 -0.21853687757E+02  0.31061505306E+02  0.00000000000E+00 0. -1.
</event>
<event>
 4    1  0.2967296E+006  0.2044714E+02  0.7546771E-02  0.1527307E+00
         21   -1    0    0  503  501  0.00000000000E+00  0.00000000000E+00  0.42612554586E+01  0.42612554586E+01  0.00000000000E+00 0. -1.
         21   -1    0    0  504  502 -0.00000000000E+00 -0.00000000000E+00 -0.12107907935E+03  0.12107907935E+03  0.00000000000E+00 0. -1.
         21    1    1    2  503  502 -0.42035098854E+01  0.20010401625E+02 -0.31114907152E+02  0.37232017345E+02  0.00000000000E+00 0. -1.
         21    1    1    2  504  501  0.42035098854E+01 -0.20010401625E+02 -0.85702916738E+02  0.88108317461E+02  0.00000000000E+00 0. -1.
</event>
<event>
 4    1  0.2967296E+006  0.2221389E+02  0.7546771E-02  0.1502613E+00
         21   -1    0    0  504  501  0.00000000000E+00  0.00000000000E+00  0.27196127137E+02  0.27196127137E+02  0.00000000000E+00 0. -1.
         21   -1    0    0  503  502 -0.00000000000E+00 -0.00000000000E+00 -0.31165485100E+02  0.31165485100E+02  0.00000000000E+00 0.  1.
         21    1    1    2  503  501  0.21157924859E+02 -0.67674965530E+01  0.16877171828E+02  0.27897951947E+02  0.00000000000E+00 0. -1.
         21    1    1    2  504  502 -0.21157924859E+02  0.67674965530E+01 -0.20846529791E+02  0.30463660290E+02  0.00000000000E+00 0.  1.
</event>
<event>
 4    1  0.2967296E+006  0.2971682E+02  0.7546771E-02  0.1422073E+00
         21   -1    0    0  504  501  0.00000000000E+00  0.00000000000E+00  0.49443195678E+02  0.49443195678E+02  0.00000000000E+00 0.  1.
         21   -1    0    0  503  502 -0.00000000000E+00 -0.00000000000E+00 -0.16126438866E+03  0.16126438866E+03  0.00000000000E+00 0.  1.
         21    1    1    2  503  501  0.29444550533E+02  0.40134761380E+01  0.43437857433E+02  0.52630191005E+02  0.00000000000E+00 0.  1.
         21    1    1    2  504  502 -0.29444550533E+02 -0.40134761380E+01 -0.15525905041E+03  0.15807739333E+03  0.00000000000E+00 0.  1.
</event>
<event>
 4    1  0.2967296E+006  0.6778182E+02  0.7546771E-02  0.1235462E+00
         21   -1    0    0  504  501  0.00000000000E+00  0.00000000000E+00  0.10543445455E+03  0.10543445455E+03  0.00000000000E+00 0.  1.
         21   -1    0    0  503  502 -0.00000000000E+00 -0.00000000000E+00 -0.94237522864E+02  0.94237522864E+02  0.00000000000E+00 0. -1.
         21    1    1    2  503  501  0.18271394640E+02 -0.65272749923E+02  0.78799257511E+02  0.10394084245E+03  0.00000000000E+00 0.  1.
         21    1    1    2  504  502 -0.18271394640E+02  0.65272749923E+02 -0.67602325826E+02  0.95731134965E+02  0.00000000000E+00 0. -1.
</event>
<event>
 4    1  0.2967296E+006  0.2056628E+02  0.7546771E-02  0.1525548E+00
         21   -1    0    0  503  501  0.00000000000E+00  0.00000000000E+00  0.51881116529E+01  0.51881116529E+01  0.00000000000E+00 0. -1.
         21   -1    0    0  504  502 -0.00000000000E+00 -0.00000000000E+00 -0.13548865419E+03  0.13548865419E+03  0.00000000000E+00 0. -1.
         21    1    1    2  503  502  0.11991324014E+01 -0.20531289765E+02 -0.20760482575E+02  0.29222755084E+02  0.00000000000E+00 0. -1.
         21    1    1    2  504  501 -0.11991324014E+01  0.20531289765E+02 -0.10954005997E+03  0.11145401076E+03  0.00000000000E+00 0. -1.
</event>
<event>
 4    1  0.2967296E+006  0.3007721E+02  0.7546771E-02  0.1418927E+00
         21   -1    0    0  502  501  0.00000000000E+00  0.00000000000E+00  0.17723931742E+03  0.17723931742E+03  0.00000000000E+00 0.  1.
         21   -1    0    0  503  502 -0.00000000000E+00 -0.00000000000E+00 -0.19264237594E+02  0.19264237594E+02  0.00000000000E+00 0. -1.
         21    1    1    2  503  504  0.27457980862E+01  0.29951612165E+02 -0.52487041903E+01  0.30531743712E+02  0.00000000000E+00 0. -1.
         21    1    1    2  504  501 -0.27457980862E+01 -0.29951612165E+02  0.16322378401E+03  0.16597181130E+03  0.00000000000E+00 0.  1.
</event>
<event>
 4    1  0.2967296E+006  0.2074990E+02  0.7546771E-02  0.1522866E+00
         21   -1    0    0  504  501  0.00000000000E+00  0.00000000000E+00  0.18006459957E+04  0.18006459957E+04  0.00000000000E+00 0.  1.
         21   -1    0    0  503  502 -0.00000000000E+00 -0.00000000000E+00 -0.23911397680E+00  0.23911397680E+00  0.00000000000E+00 0.  1.
         21    1    1    2  503  501  0.20467560264E+02 -0.34113249663E+01  0.90186363295E+03  0.90210230606E+03  0.00000000000E+00 0.  1.
         21    1    1    2  504  502 -0.20467560264E+02  0.34113249663E+01  0.89854324878E+03  0.89878280362E+03  0.00000000000E+00 0.  1.
</event>
<event>
 4    1  0.2967296E+006  0.4923237E+02  0.7546771E-02  0.1301535E+00
         21   -1    0    0  504  501  0.00000000000E+00  0.00000000000E+00  0.45136643272E+03  0.45136643272E+03  0.00000000000E+00 0. -1.
         21   -1    0    0  503  502 -0.00000000000E+00 -0.00000000000E+00 -0.10605905765E+02  0.10605905765E+02  0.00000000000E+00 0. -1.
         21    1    1    2  503  501  0.48795538243E+02 -0.65438626448E+01  0.58083813327E+02  0.76141684125E+02  0.00000000000E+00 0. -1.
         21    1    1    2  504  502 -0.48795538243E+02  0.65438626448E+01  0.38267671362E+03  0.38583065436E+03  0.00000000000E+00 0. -1.
</event>
<event>
 4    1  0.2967296E+006  0.3510156E+02  0.7546771E-02  0.1379851E+00
         21   -1    0    0  503  501  0.00000000000E+00  0.00000000000E+00  0.67464971832E+01  0.67464971832E+01  0.00000000000E+00 0. -1.
         21   -1    0    0  504  502 -0.00000000000E+00 -0.00000000000E+00 -0.21039981432E+03  0.21039981432E+03  0.00000000000E+00 0. -1.
         21    1    1    2  503  502  0.28581081107E+02 -0.20377463261E+02 -0.62382851567E+02  0.71580300194E+02  0.00000000000E+00 0. -1.
         21    1    1    2  504  501 -0.28581081107E+02  0.20377463261E+02 -0.14127046557E+03  0.14556601131E+03  0.00000000000E+00 0. -1.
</event>
<event>
 4    1  0.2967296E+006  0.2062975E+02  0.7546771E-02  0.1524617E+00
         21   -1    0    0  503  501  0.00000000000E+00  0.00000000000E+00  0.22549830729E+03  0.22549830729E+03  0.00000000000E+00 0.  1.
         21   -1    0    0  504  502 -0.00000000000E+00 -0.00000000000E+00 -0.40917984172E+02  0.40917984172E+02  0.00000000000E+00 0. -1.
         21    1    1    2  503  502 -0.12141117661E+02  0.16678728454E+02  0.22238996999E+03  0.22334476818E+03  0.00000000000E+00 0.  1.
         21    1    1    2  504  501  0.12141117661E+02 -0.16678728454E+02 -0.37809646875E+02  0.43071523280E+02  0.00000000000E+00 0. -1.
</event>
<event>
 4    1  0.2967296E+006  0.4558772E+02  0.7546771E-02  0.1318526E+00
         21   -1    0    0  503  501  0.00000000000E+00  0.00000000000E+00  0.31902796772E+02  0.31902796772E+02  0.00000000000E+00 0. -1.
         21   -1    0    0  504  502 -0.00000000000E+00 -0.00000000000E+00 -0.13193131387E+03  0.13193131387E+03  0.00000000000E+00 0. -1.
         21    1    1    2  503  502 -0.45498470447E+02 -0.28512608134E+01 -0.10829847651E+03  0.11750234259E+03  0.00000000000E+00 0. -1.
         21    1    1    2  504  501  0.45498470447E+02  0.28512608134E+01  0.82699594145E+01  0.46331768043E+02  0.00000000000E+00 0. -1.
</event>
<event>
 4    1  0.2967296E+006  0.2911305E+02  0.7546771E-02  0.1427464E+00
         21   -1    0    0  504  501  0.00000000000E+00  0.00000000000E+00  0.11427332982E+02  0.11427332982E+02  0.00000000000E+00 0. -1.
         21   -1    0    0  503  502 -0.00000000000E+00 -0.00000000000E+00 -0.94881705365E+02  0.94881705365E+02  0.00000000000E+00 0. -1.
         21    1    1    2  503  501  0.11939199213E+02  0.26552315862E+02 -0.66561524880E+02  0.72649890226E+02  0.00000000000E+00 0. -1.
         21    1    1    2  504  502 -0.11939199213E+02 -0.26552315862E+02 -0.16892847504E+02  0.33659148122E+02  0.00000000000E+00 0. -1.
</event>
<event>
 4    1  0.2967296E+006  0.2623547E+02  0.7546771E-02  0.1455443E+00
         21   -1    0    0  503  501  0.00000000000E+00  0.00000000000E+00  0.17774495992E+03  0.17774495992E+03  0.00000000000E+00 0. -1.
         21   -1    0    0  501  502 -0.00000000000E+00 -0.00000000000E+00 -0.24340393198E+03  0.24340393198E+03  0.00000000000E+00 0.  1.
         21    1    1    2  503  504 -0.25158929775E+02 -0.74382774484E+01  0.17606319181E+03  0.17800715499E+03  0.00000000000E+00 0. -1.
         21    1    1    2  504  502  0.25158929775E+02  0.74382774484E+01 -0.24172216387E+03  0.24314173690E+03  0.00000000000E+00 0.  1.
</event>
<event>
 4    1  0.2967296E+006  0.2335719E+02  0.7546771E-02  0.1488061E+00
         21   -1    0    0  504  501  0.00000000000E+00  0.00000000000E+00  0.24609519369E+02  0.24609519369E+02  0.00000000000E+00 0.  1.
         21   -1    0    0  503  502 -0.00000000000E+00 -0.00000000000E+00 -0.22263556884E+02  0.22263556884E+02  0.00000000000E+00 0.  1.
         21    1    1    2  503  501 -0.10436054216E+02 -0.20896103439E+02  0.27036466952E+01  0.23513146790E+02  0.00000000000E+00 0.  1.
         21    1    1    2  504  502  0.10436054216E+02  0.20896103439E+02 -0.35768421034E+00  0.23359929463E+02  0.00000000000E+00 0.  1.
</event>
<event>
 4    1  0.2967296E+006  0.4031364E+02  0.7546771E-02  0.1346658E+00
         21   -1    0    0  504  501  0.00000000000E+00  0.00000000000E+00  0.23826484152E+02  0.23826484152E+02  0.00000000000E+00 0.  1.
         21   -1    0    0  501  502 -0.00000000000E+00 -0.00000000000E+00 -0.58961341459E+03  0.58961341459E+03  0.00000000000E+00 0.  1.
         21    1    1    2  503  502 -0.38242556907E+02 -0.12755249941E+02 -0.57132686051E+03  0.57274738856E+03  0.00000000000E+00 0.  1.
         21    1    1    2  504  503  0.38242556907E+02  0.12755249941E+02  0.55399300729E+01  0.40692510183E+02  0.00000000000E+00 0.  1.
</event>
<event>
 4    1  0.2967296E+006  0.2437520E+02  0.7546771E-02  0.1475916E+00
         21   -1    0    0  503  501  0.00000000000E+00  0.00000000000E+00  0.56225340445E+03  0.56225340445E+03  0.00000000000E+00 0. -1.
         21   -1    0    0  504  502 -0.00000000000E+00 -0.00000000000E+00 -0.24435957982E+01  0.24435957982E+01  0.00000000000E+00 0.  1.
         21    1    1    2  503  502  0.69681518626E+01 -0.23357982878E+02  0.67194912994E+02  0.71479415476E+02  0.00000000000E+00 0.  1.
         21    1    1    2  504  501 -0.69681518626E+01  0.23357982878E+02  0.49261489566E+03  0.49321758478E+03  0.00000000000E+00 0. -1.
</event>
<event>
 4    1  0.2967296E+006  0.2681435E+02  0.7546771E-02  0.1449482E+00
         21   -1    0    0  503  501  0.00000000000E+00  0.00000000000E+00  0.60214991903E+02  0.60214991903E+02  0.00000000000E+00 0. -1.
         21   -1    0    0  504  502 -0.00000000000E+00 -0.00000000000E+00 -0.15520076951E+02  0.15520076951E+02  0.00000000000E+00 0.  1.
         21    1    1    2  503  502 -0.22265345554E+02 -0.14942012152E+02  0.40532889592E+02  0.48599634550E+02  0.00000000000E+00 0. -1.
         21    1    1    2  504  501  0.22265345554E+02  0.14942012152E+02  0.41620253605E+01  0.27135434304E+02  0.00000000000E+00 0.  1.
</event>
<event>
 4    1  0.2967296E+006  0.2698114E+02  0.7546771E-02  0.1447798E+00
         21   -1    0    0  503  501  0.00000000000E+00  0.00000000000E+00  0.22286282830E+01  0.22286282830E+01  0.00000000000E+00 0.  1.
         21   -1    0    0  504  502 -0.00000000000E+00 -0.00000000000E+00 -0.39385586119E+03  0.39385586119E+03  0.00000000000E+00 0.  1.
         21    1    1    2  503  502 -0.18251579478E+02 -0.19871122760E+02 -0.27762098150E+03  0.27892900717E+03  0.00000000000E+00 0.  1.
         21    1    1    2  504  501  0.18251579478E+02  0.19871122760E+02 -0.11400625141E+03  0.11715548230E+03  0.00000000000E+00 0.  1.
</event>
<event>
 4    1  0.2967296E+006  0.2124913E+02  0.7546771E-02  0.1515738E+00
         21   -1    0    0  503  501  0.00000000000E+00  0.00000000000E+00  0.55122465494E+03  0.55122465494E+03  0.00000000000E+00 0.  1.
         21   -1    0    0  501  502 -0.00000000000E+00 -0.00000000000E+00 -0.58502649332E+03  0.58502649332E+03  0.00000000000E+00 0. -1.
         21    1    1    2  503  504 -0.17723249701E+02  0.11722277655E+02  0.55082678197E+03  0.55123649109E+03  0.00000000000E+00 0.  1.
         21    1    1    2  504  502  0.17723249701E+02 -0.11722277655E+02 -0.58462862035E+03  0.58501465717E+03  0.00000000000E+00 0. -1.
</event>
<event>
 4    1  0.2967296E+006  0.3770405E+02  0.7546771E-02  0.1362492E+00
         21   -1    0    0  504  501  0.00000000000E+00  0.00000000000E+00  0.19436476228E+02  0.19436476228E+02  0.00000000000E+00 0. -1.
         21   -1    0    0  501  502 -0.00000000000E+00 -0.00000000000E+00 -0.17312787162E+03  0.17312787162E+03  0.00000000000E+00 0.  1.
         21    1    1    2  503  502  0.10889156016E+02 -0.36097390002E+02 -0.15001598820E+03  0.15468158261E+03  0.00000000000E+00 0.  1.
         21    1    1    2  504  503 -0.10889156016E+02  0.36097390002E+02 -0.36754071895E+01  0.37882765233E+02  0.00000000000E+00 0. -1.
</event>
<event>
 4    1  0.2967296E+006  0.3493506E+02  0.7546771E-02  0.1381020E+00
         21   -1    0    0  503  501  0.00000000000E+00  0.00000000000E+00  0.56990743897E+02  0.56990743897E+02  0.00000000000E+00 0. -1.
         21   -1    0    0  501  502 -0.00000000000E+00 -0.00000000000E+00 -0.21741078446E+02  0.21741078446E+02  0.00000000000E+00 0. -1.
         21    1    1    2  503  504  0.60244092567E+01 -0.34411701338E+02  0.22445625146E+02  0.41524267411E+02  0.00000000000E+00 0. -1.
         21    1    1    2  504  502 -0.60244092567E+01  0.34411701338E+02  0.12804040305E+02  0.37207554932E+02  0.00000000000E+00 0. -1.
</event>
<event>
 4    1  0.2967296E+006  0.2146286E+02  0.7546771E-02  0.1512758E+00
         21   -1    0    0  503  501  0.00000000000E+00  0.00000000000E+00  0.17284109211E+01  0.17284109211E+01  0.00000000000E+00 0.  1.
         21   -1    0    0  504  502 -0.00000000000E+00 -0.00000000000E+00 -0.33289522590E+03  0.33289522590E+03  0.00000000000E+00 0. -1.
         21    1    1    2  503  502 -0.21059786865E+02 -0.41400214868E+01 -0.90873359057E+02  0.93373560428E+02  0.00000000000E+00 0.  1.
         21    1    1    2  504  501  0.21059786865E+02  0.41400214868E+01 -0.24029345592E+03  0.24125007639E+03  0.00000000000E+00 0. -1.
</event>
<event>
 4    1  0.2967296E+006  0.3211071E+02  0.7546771E-02  0.1402099E+00
         21   -1    0    0  504  501  0.00000000000E+00  0.00000000000E+00  0.31119695017E+02  0.31119695017E+02  0.00000000000E+00 0.  1.
         21   -1    0    0  503  502 -0.00000000000E+00 -0.00000000000E+00 -0.33274797845E+02  0.33274797845E+02  0.00000000000E+00 0.  1.
         21    1    1    2  503  501 -0.19112938482E+02  0.25802967677E+02  0.10221963246E+01  0.32126973771E+02  0.00000000000E+00 0.  1.
         21    1    1    2  504  502  0.19112938482E+02 -0.25802967677E+02 -0.31772991526E+01  0.32267519091E+02  0.00000000000E+00 0.  1.
</event>
<event>
 4    1  0.2967296E+006  0.2229662E+02  0.7546771E-02  0.1501525E+00
         21   -1    0    0  503  501  0.00000000000E+00  0.00000000000E+00  0.95429731204E+02  0.95429731204E+02  0.00000000000E+00 0. -1.
         21   -1    0    0  501  502 -0.00000000000E+00 -0.00000000000E+00 -0.16880679626E+02  0.16880679626E+02  0.00000000000E+00 0. -1.
         21    1    1    2  503  504 -0.13441488603E+02 -0.17789482902E+02  0.85967635345E+02  0.88812012952E+02  0.00000000000E+00 0. -1.
         21    1    1    2  504  502  0.13441488603E+02  0.17789482902E+02 -0.74185837663E+01  0.23498397879E+02  0.00000000000E+00 0. -1.
</event>
<event>
 4    1  0.2967296E+006  0.2715330E+02  0.7546771E-02  0.1446074E+00
         21   -1    0    0  504  501  0.00000000000E+00  0.00000000000E+00  0.39116612675E+03  0.39116612675E+03  0.00000000000E+00 0. -1.
         21   -1    0    0  503  502 -0.00000000000E+00 -0.00000000000E+00 -0.34947629463E+01  0.34947629463E+01  0.00000000000E+00 0.  1.
         21    1    1    2  503  501 -0.24786981911E+02  0.11086356733E+02  0.59904350083E+02  0.65771064586E+02  0.00000000000E+00 0.  1.
         21    1    1    2  504  502  0.24786981911E+02 -0.11086356733E+02  0.32776701372E+03  0.32888982511E+03  0.00000000000E+00 0. -1.
</event>
<event>
 4    1  0.2967296E+006  0.2136568E+02  0.7546771E-02  0.1514107E+00
         21   -1    0    0  504  501  0.00000000000E+00  0.00000000000E+00  0.91459950198E+02  0.91459950198E+02  0.00000000000E+00 0. -1.
         21   -1    0    0  503  502 -0.00000000000E+00 -0.00000000000E+00 -0.14763666587E+03  0.14763666587E+03  0.00000000000E+00 0. -1.
         21    1    1    2  503  501 -0.10850966044E+02 -0.18405133549E+02  0.89421783054E+02  0.91938825801E+02  0.00000000000E+00 0. -1.
         21    1    1    2  504  502  0.10850966044E+02  0.18405133549E+02 -0.14559849872E+03  0.14715779027E+03  0.00000000000E+00 0. -1.
</event>
<event>
 4    1  0.2967296E+006  0.2160080E+02  0.7546771E-02  0.1510857E+00
         21   -1    0    0  504  501  0.00000000000E+00  0.00000000000E+00  0.44058195568E+03  0.44058195568E+03  0.00000000000E+00 0. -1.
         21   -1    0    0  503  502 -0.00000000000E+00 -0.00000000000E+00 -0.23407982500E+01  0.23407982500E+01  0.00000000000E+00 0. -1.
         21    1    1    2  503  501  0.17716722607E+02  0.12357673679E+02  0.38299791407E+03  0.38360656477E+03  0.00000000000E+00 0. -1.
         21    1    1    2  504  502 -0.17716722607E+02 -0.12357673679E+02  0.55243243369E+02  0.59316189161E+02  0.00000000000E+00 0. -1.
</event>
<event>
 4    1  0.2967296E+006  0.2345988E+02  0.7546771E-02  0.1486803E+00
         21   -1    0    0  504  501  0.00000000000E+00  0.00000000000E+00  0.12042465808E+02  0.12042465808E+02  0.00000000000E+00 0.  1.
         21   -1    0    0  503  502 -0.00000000000E+00 -0.00000000000E+00 -0.47398064578E+02  0.47398064578E+02  0.00000000000E+00 0.  1.
         21    1    1    2  503  501  0.18415046654E+02 -0.14534505047E+02 -0.12055902796E+02  0.26376325985E+02  0.00000000000E+00 0.  1.
         21    1    1    2  504  502 -0.18415046654E+02  0.14534505047E+02 -0.23299695974E+02  0.33064204401E+02  0.00000000000E+00 0.  1.
</event>
<event>
 4    1  0.2967296E+006  0.4663297E+02  0.7546771E-02  0.1313470E+00
         21   -1    0    0  502  501  0.00000000000E+00  0.00000000000E+00  0.12709033110E+03  0.12709033110E+03  0.00000000000E+00 0.  1.
         21   -1    0    0  503  502 -0.00000000000E+00 -0.00000000000E+00 -0.25022054323E+03  0.25022054323E+03  0.00000000000E+00 0. -1.
         21    1    1    2  503  504 -0.36629678980E+01 -0.46488890785E+02 -0.24365587630E+03  0.24807825450E+03  0.00000000000E+00 0. -1.
         21    1    1    2  504  501  0.36629678980E+01  0.46488890785E+02  0.12052566418E+03  0.12923261982E+03  0.00000000000E+00 0.  1.
</event>
<event>
 4    1  0.2967296E+006  0.2886209E+02  0.7546771E-02  0.1429749E+00
         21   -1    0    0  503  501  0.00000000000E+00  0.00000000000E+00  0.44480831364E+02  0.44480831364E+02  0.00000000000E+00 0. -1.
         21   -1    0    0  504  502 -0.00000000000E+00 -0.00000000000E+00 -0.29824017067E+03  0.29824017067E+03  0.00000000000E+00 0.  1.
         21    1    1    2  503  502  0.58431933481E+01 -0.28264417381E+02 -0.29277276430E+03  0.29419196405E+03  0.00000000000E+00 0.  1.
         21    1    1    2  504  501 -0.58431933481E+01  0.28264417381E+02  0.39013424988E+02  0.48529037984E+02  0.00000000000E+00 0. -1.
</event>
<event>
 4    1  0.2967296E+006  0.2153957E+02  0.7546771E-02  0.1511699E+00
         21   -1    0    0  503  501  0.00000000000E+00  0.00000000000E+00  0.16347364811E+02  0.16347364811E+02  0.00000000000E+00 0. -1.
         21   -1    0    0  501  502 -0.00000000000E+00 -0.00000000000E+00 -0.85278330902E+03  0.85278330902E+03  0.00000000000E+00 0.  1.
         21    1    1    2  503  504 -0.10180503107E+02  0.18981842579E+02  0.90549404707E+01  0.23365464646E+02  0.00000000000E+00 0. -1.
         21    1    1    2  504  502  0.10180503107E+02 -0.18981842579E+02 -0.84549088468E+03  0.84576520919E+03  0.00000000000E+00 0.  1.
</event>
<event>
 4    1  0.2967296E+006  0.2243925E+02  0.7546771E-02  0.1499662E+00
         21   -1    0    0  503  501  0.00000000000E+00  0.00000000000E+00  0.40023494814E+01  0.40023494814E+01  0.00000000000E+00 0.  1.
         21   -1    0    0  501  502 -0.00000000000E+00 -0.00000000000E+00 -0.36932087505E+03  0.36932087505E+03  0.00000000000E+00 0. -1.
         21    1    1    2  503  504  0.22437987453E+02 -0.23759592828E+00 -0.31088373731E+02  0.38340666583E+02  0.00000000000E+00 0.  1.
         21    1    1    2  504  502 -0.22437987453E+02  0.23759592828E+00 -0.33423015184E+03  0.33498255795E+03  0.00000000000E+00 0. -1.
</event>
<event>
 4    1  0.2967296E+006  0.4088089E+02  0.7546771E-02  0.1343400E+00
         21   -1    0    0  504  501  0.00000000000E+00  0.00000000000E+00  0.28075852745E+03  0.28075852745E+03  0.00000000000E+00 0.  1.
         21   -1    0    0  503  502 -0.00000000000E+00 -0.00000000000E+00 -0.37602994205E+02  0.37602994205E+02  0.00000000000E+00 0. -1.
         21    1    1    2  503  501  0.36914112023E+02 -0.17566897025E+02  0.26761675580E+03  0.27072121365E+03  0.00000000000E+00 0.  1.
         21    1    1    2  504  502 -0.36914112023E+02  0.17566897025E+02 -0.24461222555E+02  0.47640308001E+02  0.00000000000E+00 0. -1.
</event>
<event>
 4    1  0.2967296E+006  0.2944937E+02  0.7546771E-02  0.1424443E+00
         21   -1    0    0  503  501  0.00000000000E+00  0.00000000000E+00  0.73183508257E+02  0.73183508257E+02  0.00000000000E+00 0.  1.
         21   -1    0    0  504  502 -0.00000000000E+00 -0.00000000000E+00 -0.19586093233E+03  0.19586093233E+03  0.00000000000E+00 0.  1.
         21    1    1    2  503  502 -0.69742627427E+01 -0.28611627920E+02 -0.19172780657E+03  0.19397633207E+03  0.00000000000E+00 0.  1.
         21    1    1    2  504  501  0.69742627427E+01  0.28611627920E+02  0.69050382495E+02  0.75068108513E+02  0.00000000000E+00 0.  1.
</event>
<event>
 4    1  0.2967296E+006  0.2596089E+02  0.7546771E-02  0.1458335E+00
         21   -1    0    0  503  501  0.00000000000E+00  0.00000000000E+00  0.14723210457E+02  0.14723210457E+02  0.00000000000E+00 0.  1.
         21   -1    0    0  504  502 -0.00000000000E+00 -0.00000000000E+00 -0.46848554281E+02  0.46848554281E+02  0.00000000000E+00 0.  1.
         21    1    1    2  503  502 -0.73810682419E+00  0.25950396182E+02 -0.11404257190E+02  0.28355333638E+02  0.00000000000E+00 0.  1.
         21    1    1    2  504  501  0.73810682419E+00 -0.25950396182E+02 -0.20721086633E+02  0.33216431099E+02  0.00000000000E+00 0.  1.
</event>
<event>
 4    1  0.2967296E+006  0.5010502E+02  0.7546771E-02  0.1297718E+00
         21   -1    0    0  504  501  0.00000000000E+00  0.00000000000E+00  0.17334011750E+02  0.17334011750E+02  0.00000000000E+00 0.  1.
         21   -1    0    0  503  502 -0.00000000000E+00 -0.00000000000E+00 -0.14483697469E+03  0.14483697469E+03  0.00000000000E+00 0.  1.
         21    1    1    2  503  501 -0.39774252636E+02  0.30471655139E+02 -0.63258286766E+02  0.80697730973E+02  0.00000000000E+00 0.  1.
         21    1    1    2  504  502  0.39774252636E+02 -0.30471655139E+02 -0.64244676176E+02  0.81473255469E+02  0.00000000000E+00 0.  1.
</event>
<event>
 4    1  0.2967296E+006  0.2368782E+02  0.7546771E-02  0.1484037E+00
         21   -1    0    0  503  501  0.00000000000E+00  0.00000000000E+00  0.31175025262E+02  0.31175025262E+02  0.00000000000E+00 0.  1.
         21   -1    0    0  504  502 -0.00000000000E+00 -0.00000000000E+00 -0.18780127628E+02  0.18780127628E+02  0.00000000000E+00 0. -1.
         21    1    1    2  503  502 -0.58042449785E+01 -0.22965703919E+02  0.11027366377E+01  0.23713473899E+02  0.00000000000E+00 0. -1.
         21    1    1    2  504  501  0.58042449785E+01  0.22965703919E+02  0.11292160997E+02  0.26241678991E+02  0.00000000000E+00 0.  1.
</event>
<event>
 4    1  0.2967296E+006  0.4069679E+02  0.7546771E-02  0.1344450E+00
         21   -1    0    0  502  501  0.00000000000E+00  0.00000000000E+00  0.10485585684E+03  0.10485585684E+03  0.00000000000E+00 0.  1.
         21   -1    0    0  503  502 -0.00000000000E+00 -0.00000000000E+00 -0.41266326506E+02  0.41266326506E+02  0.00000000000E+00 0. -1.
         21    1    1    2  503  504  0.21925102681E+02 -0.34285840699E+02 -0.25605187485E+02  0.48081749408E+02  0.00000000000E+00 0. -1.
         21    1    1    2  504  501 -0.21925102681E+02  0.34285840699E+02  0.89194717816E+02  0.98040433936E+02  0.00000000000E+00 0.  1.
</event>
<event>
 4    1  0.2967296E+006  0.3150540E+02  0.7546771E-02  0.1406951E+00
         21   -1    0    0  504  501  0.00000000000E+00  0.00000000000E+00  0.30811794060E+02  0.30811794060E+02  0.00000000000E+00 0.  1.
         21   -1    0    0  503  502 -0.00000000000E+00 -0.00000000000E+00 -0.14854010727E+03  0.14854010727E+03  0.00000000000E+00 0.  1.
         21    1    1    2  503  501 -0.29953881395E+02 -0.97649861582E+01 -0.13822231473E+03  0.14176740900E+03  0.00000000000E+00 0.  1.
         21    1    1    2  504  502  0.29953881395E+02  0.97649861582E+01  0.20494001521E+02  0.37584492329E+02  0.00000000000E+00 0.  1.
</event>
<event>
 4    1  0.2967296E+006  0.2800427E+02  0.7546771E-02  0.1437773E+00
         21   -1    0    0  503  501  0.00000000000E+00  0.00000000000E+00  0.13943039483E+01  0.13943039483E+01  0.00000000000E+00 0.  1.
         21   -1    0    0  504  502 -0.00000000000E+00 -0.00000000000E+00 -0.59078934748E+03  0.59078934748E+03  0.00000000000E+00 0.  1.
         21    1    1    2  503  502  0.20288036164E+02  0.19303755617E+02 -0.35953599932E+03  0.36062497723E+03  0.00000000000E+00 0.  1.
         21    1    1    2  504  501 -0.20288036164E+02 -0.19303755617E+02 -0.22985904421E+03  0.23155867420E+03  0.00000000000E+00 0.  1.
</event>
<event>
 4    1  0.2967296E+006  0.3190982E+02  0.7546771E-02  0.1403695E+00
         21   -1    0    0  503  501  0.00000000000E+00  0.00000000000E+00  0.26486174307E+03  0.26486174307E+03  0.00000000000E+00 0. -1.
         21   -1    0    0  501  502 -0.00000000000E+00 -0.00000000000E+00 -0.44879837963E+02  0.44879837963E+02  0.00000000000E+00 0. -1.
         21    1    1    2  503  504 -0.24918014199E+02  0.19933119352E+02  0.25808014595E+03  0.26004537761E+03  0.00000000000E+00 0. -1.
         21    1    1    2  504  502  0.24918014199E+02 -0.19933119352E+02 -0.38098240851E+02  0.49696203423E+02  0.00000000000E+00 0. -1.
</event>
<event>
 4    1  0.2967296E+006  0.2775310E+02  0.7546771E-02  0.1440186E+00
         21   -1    0    0  503  501  0.00000000000E+00  0.00000000000E+00  0.71978520480E+00  0.71978520480E+00  0.00000000000E+00 0.  1.
         21   -1    0    0  501  502 -0.00000000000E+00 -0.00000000000E+00 -0.20874569440E+04  0.20874569440E+04  0.00000000000E+00 0.  1.
         21    1    1    2  503  504 -0.23249915370E+02 -0.15155065193E+02 -0.31446947282E+03  0.31569175457E+03  0.00000000000E+00 0.  1.
         21    1    1    2  504  502  0.23249915370E+02  0.15155065193E+02 -0.17722676860E+04  0.17724849746E+04  0.00000000000E+00 0.  1.
</event>
<event>
 4    1  0.2967296E+006  0.2949348E+02  0.7546771E-02  0.1424050E+00
         21   -1    0    0  502  501  0.00000000000E+00  0.00000000000E+00  0.11211848704E+03  0.11211848704E+03  0.00000000000E+00 0. -1.
         21   -1    0    0  504  502 -0.00000000000E+00 -0.00000000000E+00 -0.86474935817E+01  0.86474935817E+01  0.00000000000E+00 0. -1.
         21    1    1    2  503  501 -0.28502335161E+02  0.75817089752E+01  0.71096665626E+02  0.76971431608E+02  0.00000000000E+00 0. -1.
         21    1    1    2  504  503  0.28502335161E+02 -0.75817089752E+01  0.32374327829E+02  0.43794549010E+02  0.00000000000E+00 0. -1.
</event>
<event>
 4    1  0.2967296E+006  0.2062009E+02  0.7546771E-02  0.1524759E+00
         21   -1    0    0  502  501  0.00000000000E+00  0.00000000000E+00  0.12641808450E+02  0.12641808450E+02  0.00000000000E+00 0.  1.
         21   -1    0    0  503  502 -0.00000000000E+00 -0.00000000000E+00 -0.84623712973E+02  0.84623712973E+02  0.00000000000E+00 0.  1.
         21    1    1    2  503  504 -0.20174945794E+02  0.42614125561E+01 -0.73741769884E+02  0.76570468853E+02  0.00000000000E+00 0.  1.
         21    1    1    2  504  501  0.20174945794E+02 -0.42614125561E+01  0.17598653610E+01  0.20695052569E+02  0.00000000000E+00 0.  1.
</event>
<event>
 4    1  0.2967296E+006  0.2025867E+02  0.7546771E-02  0.1530118E+00
         21   -1    0    0  502  501  0.00000000000E+00  0.00000000000E+00  0.37644881198E+02  0.37644881198E+02  0.00000000000E+00 0.  1.
         21   -1    0    0  504  502 -0.00000000000E+00 -0.00000000000E+00 -0.37185753972E+02  0.37185753972E+02  0.00000000000E+00 0.  1.
         21    1    1    2  503  501  0.19226524606E+02 -0.63839285317E+01  0.31685512930E+02  0.37608317186E+02  0.00000000000E+00 0.  1.
         21    1    1    2  504  503 -0.19226524606E+02  0.63839285317E+01 -0.31226385704E+02  0.37222317984E+02  0.00000000000E+00 0.  1.
</event>
<event>
 4    1  0.2967296E+006  0.2431928E+02  0.7546771E-02  0.1476565E+00
         21   -1    0    0  503  501  0.00000000000E+00  0.00000000000E+00  0.38695894312E+03  0.38695894312E+03  0.00000000000E+00 0. -1.
         21   -1    0    0  504  502 -0.00000000000E+00 -0.00000000000E+00 -0.47933066653E+01  0.47933066653E+01  0.00000000000E+00 0. -1.
         21    1    1    2  503  502 -0.23402194032E+02 -0.66154709686E+01  0.35274165043E+03  0.35357898564E+03  0.00000000000E+00 0. -1.
         21    1    1    2  504  501  0.23402194032E+02  0.66154709686E+01  0.29423986032E+02  0.38173264148E+02  0.00000000000E+00 0. -1.
</event>
<event>
 4    1  0.2967296E+006  0.2115071E+02  0.7546771E-02  0.1517124E+00
         21   -1    0    0  502  501  0.00000000000E+00  0.00000000000E+00  0.81810150380E+01  0.81810150380E+01  0.00000000000E+00 0.  1.
         21   -1    0    0  504  502 -0.00000000000E+00 -0.00000000000E+00 -0.15700911841E+03  0.15700911841E+03  0.00000000000E+00 0.  1.
         21    1    1    2  503  501 -0.52612830926E+01 -0.20485878979E+02 -0.77352873876E+01  0.22520812781E+02  0.00000000000E+00 0.  1.
         21    1    1    2  504  503  0.52612830926E+01  0.20485878979E+02 -0.14109281599E+03  0.14266932067E+03  0.00000000000E+00 0.  1.
</event>
<event>
 4    1  0.2967296E+006  0.2178699E+02  0.7546771E-02  0.1508319E+00
         21   -1    0    0  503  501  0.00000000000E+00  0.00000000000E+00  0.84953211957E+02  0.84953211957E+02  0.00000000000E+00 0. -1.
         21   -1    0    0  501  502 -0.00000000000E+00 -0.00000000000E+00 -0.20535492928E+02  0.20535492928E+02  0.00000000000E+00 0. -1.
         21    1    1    2  503  504  0.20775656664E+02  0.65608707357E+01  0.77209156197E+02  0.80224227857E+02  0.00000000000E+00 0. -1.
         21    1    1    2  504  502 -0.20775656664E+02 -0.65608707357E+01 -0.12791437168E+02  0.25264477027E+02  0.00000000000E+00 0. -1.
</event>
<event>
 4    1  0.2967296E+006  0.2660416E+02  0.7546771E-02  0.1451625E+00
         21   -1    0    0  502  501  0.00000000000E+00  0.00000000000E+00  0.66488078314E+02  0.66488078314E+02  0.00000000000E+00 0. -1.
         21   -1    0    0  504  502 -0.00000000000E+00 -0.00000000000E+00 -0.19136756466E+03  0.19136756466E+03  0.00000000000E+00 0. -1.
         21    1    1    2  503  501 -0.17022844224E+02  0.20445147076E+02  0.62850827306E+02  0.68249598955E+02  0.00000000000E+00 0. -1.
         21    1    1    2  504  503  0.17022844224E+02 -0.20445147076E+02 -0.18773031365E+03  0.18960604402E+03  0.00000000000E+00 0. -1.
</event>
<event>
 4    1  0.2967296E+006  0.2167056E+02  0.7546771E-02  0.1509902E+00
         21   -1    0    0  502  501  0.00000000000E+00  0.00000000000E+00  0.19180697271E+03  0.19180697271E+03  0.00000000000E+00 0.  1.
         21   -1    0    0  503  502 -0.00000000000E+00 -0.00000000000E+00 -0.34155026382E+01  0.34155026382E+01  0.00000000000E+00 0.  1.
         21    1    1    2  503  504 -0.18970593234E+02 -0.10475206573E+02  0.42253959870E+02  0.47486950682E+02  0.00000000000E+00 0.  1.
         21    1    1    2  504  501  0.18970593234E+02  0.10475206573E+02  0.14613751021E+03  0.14773552467E+03  0.00000000000E+00 0.  1.
</event>
<event>
 4    1  0.2967296E+006  0.2827858E+02  0.7546771E-02  0.1435171E+00
         21   -1    0    0  504  501  0.00000000000E+00  0.00000000000E+00  0.34684100222E+02  0.34684100222E+02  0.00000000000E+00 0.  1.
         21   -1    0    0  501  502 -0.00000000000E+00 -0.00000000000E+00 -0.27054477034E+02  0.27054477034E+02  0.00000000000E+00 0.  1.
         21    1    1    2  503  502 -0.95393067918E+01 -0.26621036499E+02 -0.80524973589E+01  0.29402732391E+02  0.00000000000E+00 0.  1.
         21    1    1    2  504  503  0.95393067918E+01  0.26621036499E+02  0.15682120546E+02  0.32335844865E+02  0.00000000000E+00 0.  1.
</event>
<event>
 4    1  0.2967296E+006  0.2180633E+02  0.7546771E-02  0.1508057E+00
         21   -1    0    0  504  501  0.00000000000E+00  0.00000000000E+00  0.57267160401E+03  0.57267160401E+03  0.00000000000E+00 0.  1.
         21   -1    0    0  501  502 -0.00000000000E+00 -0.00000000000E+00 -0.13684819968E+01  0.13684819968E+01  0.00000000000E+00 0.  1.
         21    1    1    2  503  502 -0.69010753000E+01 -0.20685535280E+02  0.10566575560E+03  0.10789239137E+03  0.00000000000E+00 0.  1.
         21    1    1    2  504  503  0.69010753000E+01  0.20685535280E+02  0.46563736642E+03  0.46614769464E+03  0.00000000000E+00 0.  1.
</event>
<event>
 4    1  0.2967296E+006  0.3912818E+02  0.7546771E-02  0.1353672E+00
         21   -1    0    0  504  501  0.00000000000E+00  0.00000000000E+00  0.12206347798E+03  0.12206347798E+03  0.00000000000E+00 0. -1.
         21   -1    0    0  503  502 -0.00000000000E+00 -0.00000000000E+00 -0.14984549776E+03  0.14984549776E+03  0.00000000000E+00 0.  1.
         21    1    1    2  503  501  0.17911140133E+02 -0.34788013074E+02  0.11624913112E+03  0.12265755289E+03  0.00000000000E+00 0. -1.
         21    1    1    2  504  502 -0.17911140133E+02  0.34788013074E+02 -0.14403115090E+03  0.14925142286E+03  0.00000000000E+00 0.  1.
</event>
<event>
 4    1  0.2967296E+006  0.2668957E+02  0.7546771E-02  0.1450752E+00
         21   -1    0    0  504  501  0.00000000000E+00  0.00000000000E+00  0.19241447805E+03  0.19241447805E+03  0.00000000000E+00 0. -1.
         21   -1    0    0  503  502 -0.00000000000E+00 -0.00000000000E+00 -0.10119260864E+02  0.10119260864E+02  0.00000000000E+00 0. -1.
         21    1    1    2  503  501  0.15273580598E+02 -0.21887224989E+02  0.10504866183E+02  0.28682487611E+02  0.00000000000E+00 0. -1.
         21    1    1    2  504  502 -0.15273580598E+02  0.21887224989E+02  0.17179035100E+03  0.17385125130E+03  0.00000000000E+00 0. -1.
</event>
<event>
 4    1  0.2967296E+006  0.2369701E+02  0.7546771E-02  0.1483926E+00
         21   -1    0    0  502  501  0.00000000000E+00  0.00000000000E+00  0.10490700719E+03  0.10490700719E+03  0.00000000000E+00 0. -1.
         21   -1    0    0  504  502 -0.00000000000E+00 -0.00000000000E+00 -0.35640516652E+02  0.35640516652E+02  0.00000000000E+00 0. -1.
         21    1    1    2  503  501 -0.15962021819E+02  0.17514632515E+02  0.99415240464E+02  0.10220048204E+03  0.00000000000E+00 0. -1.
         21    1    1    2  504  503  0.15962021819E+02 -0.17514632515E+02 -0.30148749928E+02  0.38347041801E+02  0.00000000000E+00 0. -1.
</event>
<event>
 4    1  0.2967296E+006  0.2382621E+02  0.7546771E-02  0.1482376E+00
         21   -1    0    0  504  501  0.00000000000E+00  0.00000000000E+00  0.93078161823E+00  0.93078161823E+00  0.00000000000E+00 0. -1.
         21   -1    0    0  503  502 -0.00000000000E+00 -0.00000000000E+00 -0.64464395469E+03  0.64464395469E+03  0.00000000000E+00 0. -1.
         21    1    1    2  503  501  0.11865986958E+02 -0.20661233104E+02 -0.39678836516E+03  0.39750307537E+03  0.00000000000E+00 0. -1.
         21    1    1    2  504  502 -0.11865986958E+02  0.20661233104E+02 -0.24692480790E+03  0.24807166093E+03  0.00000000000E+00 0. -1.
</event>
<event>
 4    1  0.2967296E+006  0.2617177E+02  0.7546771E-02  0.1456110E+00
         21   -1    0    0  502  501  0.00000000000E+00  0.00000000000E+00  0.54042015853E+02  0.54042015853E+02  0.00000000000E+00 0.  1.
         21   -1    0    0  504  502 -0.00000000000E+00 -0.00000000000E+00 -0.25022181961E+02  0.25022181961E+02  0.00000000000E+00 0. -1.
         21    1    1    2  503  501  0.18224941637E+02  0.18783317571E+02  0.42280055944E+02  0.49724889616E+02  0.00000000000E+00 0.  1.
         21    1    1    2  504  503 -0.18224941637E+02 -0.18783317571E+02 -0.13260222053E+02  0.29339308198E+02  0.00000000000E+00 0. -1.
</event>
<event>
 4    1  0.2967296E+006  0.2404128E+02  0.7546771E-02  0.1479821E+00
         21   -1    0    0  503  501  0.00000000000E+00  0.00000000000E+00  0.20409187618E+03  0.20409187618E+03  0.00000000000E+00 0.  1.
         21   -1    0    0  501  502 -0.00000000000E+00 -0.00000000000E+00 -0.24053620478E+02  0.24053620478E+02  0.00000000000E+00 0.  1.
         21    1    1    2  503  504 -0.23321530999E+02  0.58386009289E+01  0.19716642163E+03  0.19862673759E+03  0.00000000000E+00 0.  1.
         21    1    1    2  504  502  0.23321530999E+02 -0.58386009289E+01 -0.17128165924E+02  0.29518759067E+02  0.00000000000E+00 0.  1.
</event>
<event>
 4    1  0.2967296E+006  0.2006983E+02  0.7546771E-02  0.1532971E+00
         21   -1    0    0  503  501  0.00000000000E+00  0.00000000000E+00  0.24301343542E+02  0.24301343542E+02  0.00000000000E+00 0. -1.
         21   -1    0    0  501  502 -0.00000000000E+00 -0.00000000000E+00 -0.15098594621E+03  0.15098594621E+03  0.00000000000E+00 0. -1.
         21    1    1    2  503  504  0.17638232495E+02  0.95755429984E+01  0.19350795127E+02  0.27879231361E+02  0.00000000000E+00 0. -1.
         21    1    1    2  504  502 -0.17638232495E+02 -0.95755429984E+01 -0.14603539780E+03  0.14740805839E+03  0.00000000000E+00 0. -1.
</event>
<event>
 4    1  0.2967296E+006  0.2084816E+02  0.7546771E-02  0.1521444E+00
         21   -1    0    0  502  501  0.00000000000E+00  0.00000000000E+00  0.38587318702E+03  0.38587318702E+03  0.00000000000E+00 0.  1.
         21   -1    0    0  503  502 -0.00000000000E+00 -0.00000000000E+00 -0.26229871023E+01  0.26229871023E+01  0.00000000000E+00 0. -1.
         21    1    1    2  503  504 -0.20435707343E+02  0.41264472020E+01  0.44897987691E+02  0.49502272673E+02  0.00000000000E+00 0. -1.
         21    1    1    2  504  501  0.20435707343E+02 -0.41264472020E+01  0.33835221223E+03  0.33899390145E+03  0.00000000000E+00 0.  1.
</event>
<event>
 4    1  0.2967296E+006  0.2686385E+02  0.7546771E-02  0.1448981E+00
         21   -1    0    0  503  501  0.00000000000E+00  0.00000000000E+00  0.13942840036E+01  0.13942840036E+01  0.00000000000E+00 0. -1.
         21   -1    0    0  504  502 -0.00000000000E+00 -0.00000000000E+00 -0.55132304107E+03  0.55132304107E+03  0.00000000000E+00 0. -1.
         21    1    1    2  503  502  0.25474206005E+02 -0.85282563535E+01 -0.34332452310E+03  0.34437391668E+03  0.00000000000E+00 0. -1.
         21    1    1    2  504  501 -0.25474206005E+02  0.85282563535E+01 -0.20660423397E+03  0.20834340839E+03  0.00000000000E+00 0. -1.
</event>
<event>
 4    1  0.2967296E+006  0.2594054E+02  0.7546771E-02  0.1458551E+00
         21   -1    0    0  504  501  0.00000000000E+00  0.00000000000E+00  0.29693491301E+03  0.29693491301E+03  0.00000000000E+00 0. -1.
         21   -1    0    0  501  502 -0.00000000000E+00 -0.00000000000E+00 -0.31632952137E+02  0.31632952137E+02  0.00000000000E+00 0. -1.
         21    1    1    2  503  502  0.90443745796E+01 -0.24312772034E+02 -0.25638934028E+02  0.36472819107E+02  0.00000000000E+00 0. -1.
         21    1    1    2  504  503 -0.90443745796E+01  0.24312772034E+02  0.29094089490E+03  0.29209504604E+03  0.00000000000E+00 0. -1.
</event>
<event>
 4    1  0.2967296E+006  0.2212302E+02  0.7546771E-02  0.1503814E+00
         21   -1    0    0  503  501  0.00000000000E+00  0.00000000000E+00  0.36767880053E+02  0.36767880053E+02  0.00000000000E+00 0.  1.
         21   -1    0    0  504  502 -0.00000000000E+00 -0.00000000000E+00 -0.13312995079E+02  0.13312995079E+02  0.00000000000E+00 0.  1.
         21    1    1    2  503  502  0.15398969363E+02 -0.15883944017E+02  0.11444105157E+02  0.24907739316E+02  0.00000000000E+00 0.  1.
         21    1    1    2  504  501 -0.15398969363E+02  0.15883944017E+02  0.12010779817E+02  0.25173135816E+02  0.00000000000E+00 0.  1.
</event>
<event>
 4    1  0.2967296E+006  0.3045771E+02  0.7546771E-02  0.1415660E+00
         21   -1    0    0  503  501  0.00000000000E+00  0.00000000000E+00  0.13245316369E+03  0.13245316369E+03  0.00000000000E+00 0. -1.
         21   -1    0    0  504  502 -0.00000000000E+00 -0.00000000000E+00 -0.30026478282E+02  0.30026478282E+02  0.00000000000E+00 0. -1.
         21    1    1    2  503  502 -0.30457178451E+02 -0.18057432685E+00  0.12235023766E+03  0.12608430902E+03  0.00000000000E+00 0. -1.
         21    1    1    2  504  501  0.30457178451E+02  0.18057432685E+00 -0.19923552250E+02  0.36395332950E+02  0.00000000000E+00 0. -1.
</event>
<event>
 4    1  0.2967296E+006  0.2633089E+02  0.7546771E-02  0.1454448E+00
         21   -1    0    0  502  501  0.00000000000E+00  0.00000000000E+00  0.11170226676E+02  0.11170226676E+02  0.00000000000E+00 0.  1.
         21   -1    0    0  503  502 -0.00000000000E+00 -0.00000000000E+00 -0.21439692605E+03  0.21439692605E+03  0.00000000000E+00 0. -1.
         21    1    1    2  503  504 -0.76280981738E+01 -0.25201740275E+02 -0.19667985385E+03  0.19843457487E+03  0.00000000000E+00 0. -1.
         21    1    1    2  504  501  0.76280981738E+01  0.25201740275E+02 -0.65468455233E+01  0.27132577853E+02  0.00000000000E+00 0.  1.
</event>
<event>
 4    1  0.2967296E+006  0.2360167E+02  0.7546771E-02  0.1485078E+00
         21   -1    0    0  503  501  0.00000000000E+00  0.00000000000E+00  0.75146684794E+01  0.75146684794E+01  0.00000000000E+00 0. -1.
         21   -1    0    0  504  502 -0.00000000000E+00 -0.00000000000E+00 -0.17983687482E+03  0.17983687482E+03  0.00000000000E+00 0. -1.
         21    1    1    2  503  502 -0.21500802765E+02  0.97341829994E+01 -0.14341011302E+02  0.27617086077E+02  0.00000000000E+00 0. -1.
         21    1    1    2  504  501  0.21500802765E+02 -0.97341829994E+01 -0.15798119504E+03  0.15973445722E+03  0.00000000000E+00 0. -1.
</event>
<event>
 4    1  0.2967296E+006  0.2833809E+02  0.7546771E-02  0.1434611E+00
         21   -1    0    0  503  501  0.00000000000E+00  0.00000000000E+00  0.62532370696E+03  0.62532370696E+03  0.00000000000E+00 0. -1.
         21   -1    0    0  501  502 -0.00000000000E+00 -0.00000000000E+00 -0.22884404112E+02  0.22884404112E+02  0.00000000000E+00 0. -1.
         21    1    1    2  503  504 -0.28311700205E+02  0.12226497763E+01  0.61609849642E+03  0.61674987193E+03  0.00000000000E+00 0. -1.
         21    1    1    2  504  502  0.28311700205E+02 -0.12226497763E+01 -0.13659193567E+02  0.31458239142E+02  0.00000000000E+00 0. -1.
</event>
<event>
 4    1  0.2967296E+006  0.2138573E+02  0.7546771E-02  0.1513828E+00
         21   -1    0    0  504  501  0.00000000000E+00  0.00000000000E+00  0.31974225380E+03  0.31974225380E+03  0.00000000000E+00 0.  1.
         21   -1    0    0  503  502 -0.00000000000E+00 -0.00000000000E+00 -0.73727296581E+01  0.73727296581E+01  0.00000000000E+00 0. -1.
         21    1    1    2  503  501  0.19518804447E+02  0.87387603156E+01  0.93476746017E+01  0.23339423286E+02  0.00000000000E+00 0. -1.
         21    1    1    2  504  502 -0.19518804447E+02 -0.87387603156E+01  0.30302184954E+03  0.30377556017E+03  0.00000000000E+00 0.  1.
</event>
<event>
 4    1  0.2967296E+006  0.2516577E+02  0.7546771E-02  0.1466957E+00
         21   -1    0    0  504  501  0.00000000000E+00  0.00000000000E+00  0.10118796599E+04  0.10118796599E+04  0.00000000000E+00 0.  1.
         21   -1    0    0  503  502 -0.00000000000E+00 -0.00000000000E+00 -0.23389248857E+01  0.23389248857E+01  0.00000000000E+00 0.  1.
         21    1    1    2  503  501  0.23714888676E+02 -0.84214150169E+01  0.93875833202E+03  0.93909558732E+03  0.00000000000E+00 0.  1.
         21    1    1    2  504  502 -0.23714888676E+02  0.84214150169E+01  0.70782403036E+02  0.75122997513E+02  0.00000000000E+00 0.  1.
</event>
<event>
 4    1  0.2967296E+006  0.2473510E+02  0.7546771E-02  0.1471789E+00
         21   -1    0    0  502  501  0.00000000000E+00  0.00000000000E+00  0.67501314757E+02  0.67501314757E+02  0.00000000000E+00 0.  1.
         21   -1    0    0  504  502 -0.00000000000E+00 -0.00000000000E+00 -0.17940448001E+03  0.17940448001E+03  0.00000000000E+00 0.  1.
         21    1    1    2  503  501 -0.16643533921E+02 -0.18298026783E+02  0.64342346137E+02  0.68933029180E+02  0.00000000000E+00 0.  1.
         21    1    1    2  504  503  0.16643533921E+02  0.18298026783E+02 -0.17624551139E+03  0.17797276559E+03  0.00000000000E+00 0.  1.
</event>
<event>
 4    1  0.2967296E+006  0.2307966E+02  0.7546771E-02  0.1491500E+00
         21   -1    0    0  504  501  0.00000000000E+00  0.00000000000E+00  0.29666373522E+00  0.29666373522E+00  0.00000000000E+00 0. -1.
         21   -1    0    0  503  502 -0.00000000000E+00 -0.00000000000E+00 -0.22483917732E+04  0.22483917732E+04  0.00000000000E+00 0. -1.
         21    1    1    2  503  501 -0.22804859257E+02  0.35509137539E+01 -0.16286425797E+04  0.16288061036E+04  0.00000000000E+00 0. -1.
         21    1    1    2  504  502  0.22804859257E+02 -0.35509137539E+01 -0.61945252974E+03  0.61988233334E+03  0.00000000000E+00 0. -1.
</event>
<event>
 4    1  0.2967296E+006  0.2381764E+02  0.7546771E-02  0.1482478E+00
         21   -1    0    0  503  501  0.00000000000E+00  0.00000000000E+00  0.98390683544E+03  0.98390683544E+03  0.00000000000E+00 0. -1.
         21   -1    0    0  501  502 -0.00000000000E+00 -0.00000000000E+00 -0.27882477619E+01  0.27882477619E+01  0.00000000000E+00 0. -1.
         21    1    1    2  503  504  0.99108890578E+01 -0.21657661688E+02  0.92994843901E+03  0.93025339518E+03  0.00000000000E+00 0. -1.
         21    1    1    2  504  502 -0.99108890578E+01  0.21657661688E+02  0.51170148666E+02  0.56441688017E+02  0.00000000000E+00 0. -1.
</event>
<event>
 4    1  0.2967296E+006  0.2457273E+02  0.7546771E-02  0.1473640E+00
         21   -1    0    0  503  501  0.00000000000E+00  0.00000000000E+00  0.13989276186E+04  0.13989276186E+04  0.00000000000E+00 0. -1.
         21   -1    0    0  504  502 -0.00000000000E+00 -0.00000000000E+00 -0.56015191184E+00  0.56015191184E+00  0.00000000000E+00 0. -1.
         21    1    1    2  503  502 -0.10023943002E+02  0.22435227211E+02  0.10343614370E+04  0.10346532759E+04  0.00000000000E+00 0. -1.
         21    1    1    2  504  501  0.10023943002E+02 -0.22435227211E+02  0.36400602971E+03  0.36483449469E+03  0.00000000000E+00 0. -1.
</event>
<event>
 4    1  0.2967296E+006  0.2031757E+02  0.7546771E-02  0.1529235E+00
         21   -1    0    0  504  501  0.00000000000E+00  0.00000000000E+00  0.29333418237E+03  0.29333418237E+03  0.00000000000E+00 0. -1.
         21   -1    0    0  503  502 -0.00000000000E+00 -0.00000000000E+00 -0.87215975194E+01  0.87215975194E+01  0.00000000000E+00 0.  1.
         21    1    1    2  503  501 -0.58689914936E+00  0.20309095505E+02  0.39987099980E+01  0.20707329439E+02  0.00000000000E+00 0.  1.
         21    1    1    2  504  502  0.58689914936E+00 -0.20309095505E+02  0.28061387486E+03  0.28134845045E+03  0.00000000000E+00 0. -1.
</event>
<event>
 4    1  0.2967296E+006  0.2219647E+02  0.7546771E-02  0.1502842E+00
         21   -1    0    0  504  501  0.00000000000E+00  0.00000000000E+00  0.13281706382E+02  0.13281706382E+02  0.00000000000E+00 0.  1.
         21   -1    0    0  503  502 -0.00000000000E+00 -0.00000000000E+00 -0.15181651427E+03  0.15181651427E+03  0.00000000000E+00 0. -1.
         21    1    1    2  503  501 -0.18472585626E+02 -0.12306367261E+02 -0.14102627235E+03  0.14276236405E+03  0.00000000000E+00 0. -1.
         21    1    1    2  504  502  0.18472585626E+02  0.12306367261E+02  0.24914644687E+01  0.22335856600E+02  0.00000000000E+00 0.  1.
</event>
<event>
 4    1  0.2967296E+006  0.2377986E+02  0.7546771E-02  0.1482931E+00
         21   -1    0    0  502  501  0.00000000000E+00  0.00000000000E+00  0.22763425627E+03  0.22763425627E+03  0.00000000000E+00 0. -1.
         21   -1    0    0  504  502 -0.00000000000E+00 -0.00000000000E+00 -0.41808656208E+02  0.41808656208E+02  0.00000000000E+00 0. -1.
         21    1    1    2  503  501 -0.97935859142E+01 -0.21669499657E+02  0.22357056005E+03  0.22483166339E+03  0.00000000000E+00 0. -1.
         21    1    1    2  504  503  0.97935859142E+01  0.21669499657E+02 -0.37744959991E+02  0.44611249088E+02  0.00000000000E+00 0. -1.
</event>
<event>
 4    1  0.2967296E+006  0.2515415E+02  0.7546771E-02  0.1467086E+00
         21   -1    0    0  504  501  0.00000000000E+00  0.00000000000E+00  0.10196599258E+02  0.10196599258E+02  0.00000000000E+00 0.  1.
         21   -1    0    0  501  502 -0.00000000000E+00 -0.00000000000E+00 -0.24824861364E+03  0.24824861364E+03  0.00000000000E+00 0. -1.
         21    1    1    2  503  502 -0.81802440376E+01  0.23786861207E+02 -0.23093877127E+03  0.23230464316E+03  0.00000000000E+00 0. -1.
         21    1    1    2  504  503  0.81802440376E+01 -0.23786861207E+02 -0.71132431112E+01  0.26140569736E+02  0.00000000000E+00 0.  1.
</event>
<event>
 4    1  0.2967296E+006  0.2713055E+02  0.7546771E-02  0.1446301E+00
         21   -1    0    0  503  501  0.00000000000E+00  0.00000000000E+00  0.72677892316E+02  0.72677892316E+02  0.00000000000E+00 0.  1.
         21   -1    0    0  504  502 -0.00000000000E+00 -0.00000000000E+00 -0.10297443595E+02  0.10297443595E+02  0.00000000000E+00 0.  1.
         21    1    1    2  503  502 -0.25700901880E+02 -0.86908103253E+01  0.36515399541E+02  0.45491108419E+02  0.00000000000E+00 0.  1.
         21    1    1    2  504  501  0.25700901880E+02  0.86908103253E+01  0.25865049180E+02  0.37484227491E+02  0.00000000000E+00 0.  1.
</event>
<event>
 4    1  0.2967296E+006  0.4297838E+02  0.7546771E-02  0.1331864E+00
         21   -1    0    0  502  501  0.00000000000E+00  0.00000000000E+00  0.17059874536E+02  0.17059874536E+02  0.00000000000E+00 0. -1.
         21   -1    0    0  504  502 -0.00000000000E+00 -0.00000000000E+00 -0.12869578915E+04  0.12869578915E+04  0.00000000000E+00 0. -1.
         21    1    1    2  503  501  0.30994233583E+02  0.29774121020E+02 -0.10969943829E+02  0.44356290034E+02  0.00000000000E+00 0. -1.
         21    1    1    2  504  503 -0.30994233583E+02 -0.29774121020E+02 -0.12589280731E+04  0.12596614760E+04  0.00000000000E+00 0. -1.
</event>
<event>
 4    1  0.2967296E+006  0.2066857E+02  0.7546771E-02  0.1524050E+00
         21   -1    0    0  502  501  0.00000000000E+00  0.00000000000E+00  0.44052772596E+02  0.44052772596E+02  0.00000000000E+00 0.  1.
         21   -1    0    0  503  502 -0.00000000000E+00 -0.00000000000E+00 -0.61768117802E+03  0.61768117802E+03  0.00000000000E+00 0. -1.
         21    1    1    2  503  504 -0.20666248208E+02 -0.31006748503E+00 -0.61507369487E+03  0.61542086419E+03  0.00000000000E+00 0. -1.
         21    1    1    2  504  501  0.20666248208E+02  0.31006748503E+00  0.41445289448E+02  0.46313086425E+02  0.00000000000E+00 0.  1.
</event>
<event>
 4    1  0.2967296E+006  0.2550366E+02  0.7546771E-02  0.1463247E+00
         21   -1    0    0  504  501  0.00000000000E+00  0.00000000000E+00  0.93377270871E+03  0.93377270871E+03  0.00000000000E+00 0.  1.
         21   -1    0    0  503  502 -0.00000000000E+00 -0.00000000000E+00 -0.22799065221E+02  0.22799065221E+02  0.00000000000E+00 0. -1.
         21    1    1    2  503  501  0.24910742810E+02 -0.54673294342E+01  0.92640961518E+03  0.92676060118E+03  0.00000000000E+00 0.  1.
         21    1    1    2  504  502 -0.24910742810E+02  0.54673294342E+01 -0.15435971694E+02  0.29811172749E+02  0.00000000000E+00 0. -1.
</event>
<event>
 4    1  0.2967296E+006  0.4938008E+02  0.7546771E-02  0.1300883E+00
         21   -1    0    0  503  501  0.00000000000E+00  0.00000000000E+00  0.13903138508E+04  0.13903138508E+04  0.00000000000E+00 0.  1.
         21   -1    0    0  504  502 -0.00000000000E+00 -0.00000000000E+00 -0.13058118031E+03  0.13058118031E+03  0.00000000000E+00 0.  1.
         21    1    1    2  503  502  0.14145066407E+02  0.47310774110E+02 -0.12545711049E+03  0.13482536417E+03  0.00000000000E+00 0.  1.
         21    1    1    2  504  501 -0.14145066407E+02 -0.47310774110E+02  0.13851897810E+04  0.13860696670E+04  0.00000000000E+00 0.  1.
</event>
<event>
 4    1  0.2967296E+006  0.2312139E+02  0.7546771E-02  0.1490980E+00
         21   -1    0    0  503  501  0.00000000000E+00  0.00000000000E+00  0.39213526092E+02  0.39213526092E+02  0.00000000000E+00 0.  1.
         21   -1    0    0  504  502 -0.00000000000E+00 -0.00000000000E+00 -0.14080572117E+02  0.14080572117E+02  0.00000000000E+00 0.  1.
         21    1    1    2  503  502  0.22567617169E+02 -0.50300204893E+01  0.78156969774E+01  0.24406629633E+02  0.00000000000E+00 0.  1.
         21    1    1    2  504  501 -0.22567617169E+02  0.50300204893E+01  0.17317256998E+02  0.28887468576E+02  0.00000000000E+00 0.  1.
</event>
<event>
 4    1  0.2967296E+006  0.2101982E+02  0.7546771E-02  0.1518982E+00
         21   -1    0    0  502  501  0.00000000000E+00  0.00000000000E+00  0.45090965438E+03  0.45090965438E+03  0.00000000000E+00 0.  1.
         21   -1    0    0  504  502 -0.00000000000E+00 -0.00000000000E+00 -0.49229307574E+01  0.49229307574E+01  0.00000000000E+00 0.  1.
         21    1    1    2  503  501 -0.17867185081E+02 -0.11072339781E+02  0.42696990249E+03  0.42748699471E+03  0.00000000000E+00 0.  1.
         21    1    1    2  504  503  0.17867185081E+02  0.11072339781E+02  0.19016821136E+02  0.28345590434E+02  0.00000000000E+00 0.  1.
</event>
<event>
 4    1  0.2967296E+006  0.2131781E+02  0.7546771E-02  0.1514775E+00
         21   -1    0    0  502  501  0.00000000000E+00  0.00000000000E+00  0.25783008412E+02  0.25783008412E+02  0.00000000000E+00 0. -1.
         21   -1    0    0  503  502 -0.00000000000E+00 -0.00000000000E+00 -0.64680534150E+02  0.64680534150E+02  0.00000000000E+00 0.  1.
         21    1    1    2  503  504 -0.13811480150E+02 -0.16238602910E+02 -0.58028379773E+02  0.61820239950E+02  0.00000000000E+00 0.  1.
         21    1    1    2  504  501  0.13811480150E+02  0.16238602910E+02  0.19130854035E+02  0.28643302612E+02  0.00000000000E+00 0. -1.
</event>
<event>
 4    1  0.2967296E+006  0.2470938E+02  0.7546771E-02  0.1472081E+00
         21   -1    0    0  503  501  0.00000000000E+00  0.00000000000E+00  0.56979826456E+02  0.56979826456E+02  0.00000000000E+00 0. -1.
         21   -1    0    0  504  502 -0.00000000000E+00 -0.00000000000E+00 -0.22990652533E+02  0.22990652533E+02  0.00000000000E+00 0. -1.
         21    1    1    2  503  502  0.22067063767E+02 -0.11117461068E+02 -0.12222833784E+02  0.27567207142E+02  0.00000000000E+00 0. -1.
         21    1    1    2  504  501 -0.22067063767E+02  0.11117461068E+02  0.46212007707E+02  0.52403271846E+02  0.00000000000E+00 0. -1.
</event>
<event>
 4    1  0.2967296E+006  0.2065005E+02  0.7546771E-02  0.1524320E+00
         21   -1    0    0  502  501  0.00000000000E+00  0.00000000000E+00  0.31198140931E+02  0.31198140931E+02  0.00000000000E+00 0. -1.
         21   -1    0    0  503  502 -0.00000000000E+00 -0.00000000000E+00 -0.10155062803E+03  0.10155062803E+03  0.00000000000E+00 0. -1.
         21    1    1    2  503  504 -0.19293510607E+02 -0.73610410562E+01 -0.96922418817E+02  0.99097829171E+02  0.00000000000E+00 0. -1.
         21    1    1    2  504  501  0.19293510607E+02  0.73610410562E+01  0.26569931720E+02  0.33650939788E+02  0.00000000000E+00 0. -1.
</event>
<event>
 4    1  0.2967296E+006  0.2685899E+02  0.7546771E-02  0.1449030E+00
         21   -1    0    0  502  501  0.00000000000E+00  0.00000000000E+00  0.14159645394E+03  0.14159645394E+03  0.00000000000E+00 0.  1.
         21   -1    0    0  504  502 -0.00000000000E+00 -0.00000000000E+00 -0.10490194805E+02  0.10490194805E+02  0.00000000000E+00 0.  1.
         21    1    1    2  503  501  0.23298401218E+02 -0.13363744154E+02  0.12008885097E+03  0.12305582995E+03  0.00000000000E+00 0.  1.
         21    1    1    2  504  503 -0.23298401218E+02  0.13363744154E+02  0.11017408160E+02  0.29030818791E+02  0.00000000000E+00 0.  1.
</event>
<event>
 4    1  0.2967296E+006  0.2395430E+02  0.7546771E-02  0.1480850E+00
         21   -1    0    0  504  501  0.00000000000E+00  0.00000000000E+00  0.51302929501E+03  0.51302929501E+03  0.00000000000E+00 0. -1.
         21   -1    0    0  501  502 -0.00000000000E+00 -0.00000000000E+00 -0.63126348396E+01  0.63126348396E+01  0.00000000000E+00 0. -1.
         21    1    1    2  503  502  0.23367928739E+02  0.52676680819E+01  0.17812252023E+02  0.29851042573E+02  0.00000000000E+00 0. -1.
         21    1    1    2  504  503 -0.23367928739E+02 -0.52676680819E+01  0.48890440815E+03  0.48949088728E+03  0.00000000000E+00 0. -1.
</event>
<event>
 4    1  0.2967296E+006  0.2304772E+02  0.7546771E-02  0.1491900E+00
         21   -1    0    0  503  501  0.00000000000E+00  0.00000000000E+00  0.20775369359E+01  0.20775369359E+01  0.00000000000E+00 0.  1.
         21   -1    0    0  504  502 -0.00000000000E+00 -0.00000000000E+00 -0.27462407572E+03  0.27462407572E+03  0.00000000000E+00 0.  1.
         21    1    1    2  503  502  0.19471799977E+02 -0.12330717620E+02 -0.99942244243E+02  0.10256534393E+03  0.00000000000E+00 0.  1.
         21    1    1    2  504  501 -0.19471799977E+02  0.12330717620E+02 -0.17260429455E+03  0.17413626873E+03  0.00000000000E+00 0.  1.
</event>
<event>
 4    1  0.2967296E+006  0.2641089E+02  0.7546771E-02  0.1453617E+00
         21   -1    0    0  503  501  0.00000000000E+00  0.00000000000E+00  0.21762702697E+02  0.21762702697E+02  0.00000000000E+00 0. -1.
         21   -1    0    0  501  502 -0.00000000000E+00 -0.00000000000E+00 -0.85141669993E+02  0.85141669993E+02  0.00000000000E+00 0. -1.
         21    1    1    2  503  504  0.18042526948E+02 -0.19287356465E+02  0.10519025737E+02  0.28428591251E+02  0.00000000000E+00 0. -1.
         21    1    1    2  504  502 -0.18042526948E+02  0.19287356465E+02 -0.73897993033E+02  0.78475781438E+02  0.00000000000E+00 0. -1.
</event>
<event>
 4    1  0.2967296E+006  0.3368915E+02  0.7546771E-02  0.1390021E+00
         21   -1    0    0  504  501  0.00000000000E+00  0.00000000000E+00  0.33770124297E+02  0.33770124297E+02  0.00000000000E+00 0. -1.
         21   -1    0    0  503  502 -0.00000000000E+00 -0.00000000000E+00 -0.33692489935E+02  0.33692489935E+02  0.00000000000E+00 0. -1.
         21    1    1    2  503  501  0.26628700212E+02 -0.20636652479E+02 -0.16465540604E+01  0.33729367631E+02  0.00000000000E+00 0. -1.
         21    1    1    2  504  502 -0.26628700212E+02  0.20636652479E+02  0.17241884232E+01  0.33733246601E+02  0.00000000000E+00 0. -1.
</event>
<event>
 4    1  0.2967296E+006  0.2311181E+02  0.7546771E-02  0.1491099E+00
         21   -1    0    0  504  501  0.00000000000E+00  0.00000000000E+00  0.22904466121E+03  0.22904466121E+03  0.00000000000E+00 0. -1.
         21   -1    0    0  503  502 -0.00000000000E+00 -0.00000000000E+00 -0.47201637375E+01  0.47201637375E+01  0.00000000000E+00 0.  1.
         21    1    1    2  503  501  0.75373977232E+01  0.21848193765E+02  0.19529903686E+03  0.19666181565E+03  0.00000000000E+00 0. -1.
         21    1    1    2  504  502 -0.75373977232E+01 -0.21848193765E+02  0.29025460605E+02  0.37103009293E+02  0.00000000000E+00 0.  1.
</event>
<event>
 4    1  0.2967296E+006  0.2035298E+02  0.7546771E-02  0.1528706E+00
         21   -1    0    0  504  501  0.00000000000E+00  0.00000000000E+00  0.51639337636E+02  0.51639337636E+02  0.00000000000E+00 0. -1.
         21   -1    0    0  503  502 -0.00000000000E+00 -0.00000000000E+00 -0.91899343935E+01  0.91899343935E+01  0.00000000000E+00 0. -1.
         21    1    1    2  503  501  0.19962130751E+02 -0.39695212199E+01  0.32067986220E+02  0.37981567938E+02  0.00000000000E+00 0. -1.
         21    1    1    2  504  502 -0.19962130751E+02  0.39695212199E+01  0.10381417023E+02  0.22847704091E+02  0.00000000000E+00 0. -1.
</event>
<event>
 4    1  0.2967296E+006  0.2523367E+02  0.7546771E-02  0.1466206E+00
         21   -1    0    0  502  501  0.00000000000E+00  0.00000000000E+00  0.77449961831E+02  0.77449961831E+02  0.00000000000E+00 0.  1.
         21   -1    0    0  504  502 -0.00000000000E+00 -0.00000000000E+00 -0.32977056189E+02  0.32977056189E+02  0.00000000000E+00 0.  1.
         21    1    1    2  503  501  0.24205590342E+02 -0.71293489338E+01  0.70074961845E+02  0.74479785833E+02  0.00000000000E+00 0.  1.
         21    1    1    2  504  503 -0.24205590342E+02  0.71293489338E+01 -0.25602056204E+02  0.35947232187E+02  0.00000000000E+00 0.  1.
</event>
<event>
 4    1  0.2967296E+006  0.2581851E+02  0.7546771E-02  0.1459852E+00
         21   -1    0    0  503  501  0.00000000000E+00  0.00000000000E+00  0.15249797965E+02  0.15249797965E+02  0.00000000000E+00 0. -1.
         21   -1    0    0  504  502 -0.00000000000E+00 -0.00000000000E+00 -0.72596997406E+02  0.72596997406E+02  0.00000000000E+00 0.  1.
         21    1    1    2  503  502 -0.24821380813E+02 -0.71059326754E+01 -0.96754364876E+00  0.25836628367E+02  0.00000000000E+00 0. -1.
         21    1    1    2  504  501  0.24821380813E+02  0.71059326754E+01 -0.56379655792E+02  0.62010167004E+02  0.00000000000E+00 0.  1.
</event>
<event>
 4    1  0.2967296E+006  0.3328350E+02  0.7546771E-02  0.1393050E+00
         21   -1    0    0  504  501  0.00000000000E+00  0.00000000000E+00  0.21203916609E+01  0.21203916609E+01  0.00000000000E+00 0.  1.
         21   -1    0    0  503  502 -0.00000000000E+00 -0.00000000000E+00 -0.67800121329E+03  0.67800121329E+03  0.00000000000E+00 0.  1.
         21    1    1    2  503  501 -0.10559163207E+02 -0.31564146901E+02 -0.50082607550E+03  0.50193082112E+03  0.00000000000E+00 0.  1.
         21    1    1    2  504  502  0.10559163207E+02  0.31564146901E+02 -0.17505474613E+03  0.17819078383E+03  0.00000000000E+00 0.  1.
</event>
<event>
 4    1  0.2967296E+006  0.2059344E+02  0.7546771E-02  0.1525149E+00
         21   -1    0    0  502  501  0.00000000000E+00  0.00000000000E+00  0.57027073076E+02  0.57027073076E+02  0.00000000000E+00 0. -1.
         21   -1    0    0  503  502 -0.00000000000E+00 -0.00000000000E+00 -0.74736928524E+01  0.74736928524E+01  0.00000000000E+00 0. -1.
         21    1    1    2  503  504  0.66187824906E+01 -0.19500810131E+02  0.22505929108E+02  0.30505847348E+02  0.00000000000E+00 0. -1.
         21    1    1    2  504  501 -0.66187824906E+01  0.19500810131E+02  0.27047451116E+02  0.33994918580E+02  0.00000000000E+00 0. -1.
</event>
<event>
 4    1  0.2967296E+006  0.2685478E+02  0.7546771E-02  0.1449072E+00
         21   -1    0    0  503  501  0.00000000000E+00  0.00000000000E+00  0.59480294276E+02  0.59480294276E+02  0.00000000000E+00 0. -1.
         21   -1    0    0  504  502 -0.00000000000E+00 -0.00000000000E+00 -0.15128316195E+02  0.15128316195E+02  0.00000000000E+00 0. -1.
         21    1    1    2  503  502  0.26239663308E+02  0.57148174896E+01  0.38798165528E+02  0.47185556241E+02  0.00000000000E+00 0. -1.
         21    1    1    2  504  501 -0.26239663308E+02 -0.57148174896E+01  0.55538125529E+01  0.27423054230E+02  0.00000000000E+00 0. -1.
</event>
<event>
 4    1  0.2967296E+006  0.2186099E+02  0.7546771E-02  0.1507318E+00
         21   -1    0    0  503  501  0.00000000000E+00  0.00000000000E+00  0.15437412425E+01  0.15437412425E+01  0.00000000000E+00 0.  1.
         21   -1    0    0  501  502 -0.00000000000E+00 -0.00000000000E+00 -0.57882589268E+03  0.57882589268E+03  0.00000000000E+00 0. -1.
         21    1    1    2  503  504 -0.11298212210E+02 -0.18715052777E+02 -0.90725600158E+02  0.93322223096E+02  0.00000000000E+00 0.  1.
         21    1    1    2  504  502  0.11298212210E+02  0.18715052777E+02 -0.48655655128E+03  0.48704741083E+03  0.00000000000E+00 0. -1.
</event>
<event>
 4    1  0.2967296E+006  0.2170689E+02  0.7546771E-02  0.1509407E+00
         21   -1    0    0  503  501  0.00000000000E+00  0.00000000000E+00  0.37714631010E+02  0.37714631010E+02  0.00000000000E+00 0.  1.
         21   -1    0    0  504  502 -0.00000000000E+00 -0.00000000000E+00 -0.72303306307E+02  0.72303306307E+02  0.00000000000E+00 0. -1.
         21    1    1    2  503  502 -0.95871359656E+01  0.19475006016E+02  0.32736813726E+02  0.39279613138E+02  0.00000000000E+00 0.  1.
         21    1    1    2  504  501  0.95871359656E+01 -0.19475006016E+02 -0.67325489023E+02  0.70738324179E+02  0.00000000000E+00 0. -1.
</event>
<event>
 4    1  0.2967296E+006  0.2903387E+02  0.7546771E-02  0.1428182E+00
         21   -1    0    0  504  501  0.00000000000E+00  0.00000000000E+00  0.99536518799E+02  0.99536518799E+02  0.00000000000E+00 0.  1.
         21   -1    0    0  501  502 -0.00000000000E+00 -0.00000000000E+00 -0.84714596831E+01  0.84714596831E+01  0.00000000000E+00 0.  1.
         21    1    1    2  503  502 -0.25557092897E+02  0.13776803814E+02  0.44594716742E+02  0.53213288585E+02  0.00000000000E+00 0.  1.
         21    1    1    2  504  503  0.25557092897E+02 -0.13776803814E+02  0.46470342373E+02  0.54794689897E+02  0.00000000000E+00 0.  1.
</event>
<event>
 4    1  0.2967296E+006  0.2389307E+02  0.7546771E-02  0.1481578E+00
         21   -1    0    0  503  501  0.00000000000E+00  0.00000000000E+00  0.21268694653E+02  0.21268694653E+02  0.00000000000E+00 0. -1.
         21   -1    0    0  504  502 -0.00000000000E+00 -0.00000000000E+00 -0.67084464306E+03  0.67084464306E+03  0.00000000000E+00 0.  1.
         21    1    1    2  503  502  0.15504539654E+02  0.18179329742E+02  0.14274959858E+02  0.27832593460E+02  0.00000000000E+00 0. -1.
         21    1    1    2  504  501 -0.15504539654E+02 -0.18179329742E+02 -0.66385090827E+03  0.66428074425E+03  0.00000000000E+00 0.  1.
</event>
<event>
 4    1  0.2967296E+006  0.2044755E+02  0.7546771E-02  0.1527301E+00
         21   -1    0    0  502  501  0.00000000000E+00  0.00000000000E+00  0.10135384611E+02  0.10135384611E+02  0.00000000000E+00 0.  1.
         21   -1    0    0  503  502 -0.00000000000E+00 -0.00000000000E+00 -0.11328115760E+03  0.11328115760E+03  0.00000000000E+00 0.  1.
         21    1    1    2  503  504  0.13605193920E+02  0.15264364808E+02 -0.10077905232E+03  0.10283248281E+03  0.00000000000E+00 0.  1.
         21    1    1    2  504  501 -0.13605193920E+02 -0.15264364808E+02 -0.23667206674E+01  0.20584059398E+02  0.00000000000E+00 0.  1.
</event>
<event>
 4    1  0.2967296E+006  0.2434144E+02  0.7546771E-02  0.1476307E+00
         21   -1    0    0  504  501  0.00000000000E+00  0.00000000000E+00  0.14481176575E+02  0.14481176575E+02  0.00000000000E+00 0.  1.
         21   -1    0    0  503  502 -0.00000000000E+00 -0.00000000000E+00 -0.20312268837E+03  0.20312268837E+03  0.00000000000E+00 0. -1.
         21    1    1    2  503  501 -0.17180842830E+02 -0.17243089908E+02 -0.19154898002E+03  0.19308940224E+03  0.00000000000E+00 0. -1.
         21    1    1    2  504  502  0.17180842830E+02  0.17243089908E+02  0.29074682319E+01  0.24514462700E+02  0.00000000000E+00 0.  1.
</event>
<event>
 4    1  0.2967296E+006  0.2377720E+02  0.7546771E-02  0.1482963E+00
         21   -1    0    0  504  501  0.00000000000E+00  0.00000000000E+00  0.70700653907E+02  0.70700653907E+02  0.00000000000E+00 0. -1.
         21   -1    0    0  501  502 -0.00000000000E+00 -0.00000000000E+00 -0.10608729043E+02  0.10608729043E+02  0.00000000000E+00 0. -1.
         21    1    1    2  503  502 -0.19869773225E+02 -0.13059371239E+02  0.98721578990E+01  0.25745185312E+02  0.00000000000E+00 0. -1.
         21    1    1    2  504  503  0.19869773225E+02  0.13059371239E+02  0.50219766965E+02  0.55564197639E+02  0.00000000000E+00 0. -1.
</event>
<event>
 4    1  0.2967296E+006  0.2094481E+02  0.7546771E-02  0.1520054E+00
         21   -1    0    0  502  501  0.00000000000E+00  0.00000000000E+00  0.96218028589E+02  0.96218028589E+02  0.00000000000E+00 0. -1.
         21   -1    0    0  503  502 -0.00000000000E+00 -0.00000000000E+00 -0.35548997091E+02  0.35548997091E+02  0.00000000000E+00 0. -1.
         21    1    1    2  503  504 -0.20236118005E+02  0.54022800591E+01 -0.31179186236E+02  0.37560973843E+02  0.00000000000E+00 0. -1.
         21    1    1    2  504  501  0.20236118005E+02 -0.54022800591E+01  0.91848217734E+02  0.94206051836E+02  0.00000000000E+00 0. -1.
</event>
<event>
 4    1  0.2967296E+006  0.2249831E+02  0.7546771E-02  0.1498896E+00
         21   -1    0    0  504  501  0.00000000000E+00  0.00000000000E+00  0.10241358548E+04  0.10241358548E+04  0.00000000000E+00 0.  1.
         21   -1    0    0  503  502 -0.00000000000E+00 -0.00000000000E+00 -0.17216506338E+01  0.17216506338E+01  0.00000000000E+00 0.  1.
         21    1    1    2  503  501  0.13527896822E+02 -0.17976932971E+02  0.94429751735E+03  0.94456549555E+03  0.00000000000E+00 0.  1.
         21    1    1    2  504  502 -0.13527896822E+02  0.17976932971E+02  0.78116686779E+02  0.81292009846E+02  0.00000000000E+00 0.  1.
</event>
<event>
 4    1  0.2967296E+006  0.2632708E+02  0.7546771E-02  0.1454487E+00
         21   -1    0    0  503  501  0.00000000000E+00  0.00000000000E+00  0.37938360925E+02  0.37938360925E+02  0.00000000000E+00 0.  1.
         21   -1    0    0  504  502 -0.00000000000E+00 -0.00000000000E+00 -0.65812636955E+02  0.65812636955E+02  0.00000000000E+00 0.  1.
         21    1    1    2  503  502 -0.18517194647E+02  0.18714392989E+02 -0.58028299885E+02  0.63721256972E+02  0.00000000000E+00 0.  1.
         21    1    1    2  504  501  0.18517194647E+02 -0.18714392989E+02  0.30154023854E+02  0.40029740908E+02  0.00000000000E+00 0.  1.
</event>
<event>
 4    1  0.2967296E+006  0.2539994E+02  0.7546771E-02  0.1464379E+00
         21   -1    0    0  503  501  0.00000000000E+00  0.00000000000E+00  0.21128111003E+03  0.21128111003E+03  0.00000000000E+00 0. -1.
         21   -1    0    0  504  502 -0.00000000000E+00 -0.00000000000E+00 -0.31540117732E+01  0.31540117732E+01  0.00000000000E+00 0. -1.
         21    1    1    2  503  502  0.40290228536E+01  0.25078355331E+02  0.12319904965E+03  0.12579015369E+03  0.00000000000E+00 0. -1.
         21    1    1    2  504  501 -0.40290228536E+01 -0.25078355331E+02  0.84928048610E+02  0.88644968114E+02  0.00000000000E+00 0. -1.
</event>
<event>
 4    1  0.2967296E+006  0.2438987E+02  0.7546771E-02  0.1475746E+00
         21   -1    0    0  503  501  0.00000000000E+00  0.00000000000E+00  0.19926673370E+01  0.19926673370E+01  0.00000000000E+00 0.  1.
         21   -1    0    0  504  502 -0.00000000000E+00 -0.00000000000E+00 -0.38102550364E+03  0.38102550364E+03  0.00000000000E+00 0.  1.
         21    1    1    2  503  502  0.16967386415E+02  0.17520663758E+02 -0.27862802228E+03  0.27969347626E+03  0.00000000000E+00 0.  1.
         21    1    1    2  504  501 -0.16967386415E+02 -0.17520663758E+02 -0.10040481402E+03  0.10332469472E+03  0.00000000000E+00 0.  1.
</event>
<event>
 4    1  0.2967296E+006  0.3296450E+02  0.7546771E-02  0.1395467E+00
         21   -1    0    0  503  501  0.00000000000E+00  0.00000000000E+00  0.52440279487E+03  0.52440279487E+03  0.00000000000E+00 0. -1.
         21   -1    0    0  504  502 -0.00000000000E+00 -0.00000000000E+00 -0.20776332053E+01  0.20776332053E+01  0.00000000000E+00 0. -1.
         21    1    1    2  503  502  0.23754630384E+02  0.22855537783E+02  0.27464634190E+03  0.27661755401E+03  0.00000000000E+00 0. -1.
         21    1    1    2  504  501 -0.23754630384E+02 -0.22855537783E+02  0.24767881977E+03  0.24986287406E+03  0.00000000000E+00 0. -1.
</event>
<event>
 4    1  0.2967296E+006  0.3059164E+02  0.7546771E-02  0.1414523E+00
         21   -1    0    0  504  501  0.00000000000E+00  0.00000000000E+00  0.58210629914E+02  0.58210629914E+02  0.00000000000E+00 0.  1.
         21   -1    0    0  503  502 -0.00000000000E+00 -0.00000000000E+00 -0.16756550078E+02  0.16756550078E+02  0.00000000000E+00 0.  1.
         21    1    1    2  503  501 -0.11257014252E+02  0.28445179111E+02  0.13178203976E+02  0.33309362716E+02  0.00000000000E+00 0.  1.
         21    1    1    2  504  502  0.11257014252E+02 -0.28445179111E+02  0.28275875860E+02  0.41657817275E+02  0.00000000000E+00 0.  1.
</event>
<event>
 4    1  0.2967296E+006  0.2248685E+02  0.7546771E-02  0.1499044E+00
         21   -1    0    0  503  501  0.00000000000E+00  0.00000000000E+00  0.33639836390E+02  0.33639836390E+02  0.00000000000E+00 0. -1.
         21   -1    0    0  504  502 -0.00000000000E+00 -0.00000000000E+00 -0.15042002260E+02  0.15042002260E+02  0.00000000000E+00 0. -1.
         21    1    1    2  503  502  0.92905741734E+01  0.20477880274E+02  0.86567934859E+01  0.24095610024E+02  0.00000000000E+00 0. -1.
         21    1    1    2  504  501 -0.92905741734E+01 -0.20477880274E+02  0.99410406439E+01  0.24586228626E+02  0.00000000000E+00 0. -1.
</event>
<event>
 4    1  0.2967296E+006  0.2886985E+02  0.7546771E-02  0.1429678E+00
         21   -1    0    0  503  501  0.00000000000E+00  0.00000000000E+00  0.16596497477E+04  0.16596497477E+04  0.00000000000E+00 0. -1.
         21   -1    0    0  504  502 -0.00000000000E+00 -0.00000000000E+00 -0.24709573596E+01  0.24709573596E+01  0.00000000000E+00 0.  1.
         21    1    1    2  503  502 -0.12653860003E+02  0.25948953402E+02  0.15704060004E+04  0.15706713452E+04  0.00000000000E+00 0. -1.
         21    1    1    2  504  501  0.12653860003E+02 -0.25948953402E+02  0.86772789959E+02  0.91449359937E+02  0.00000000000E+00 0.  1.
</event>
<event>
 4    1  0.2967296E+006  0.2231971E+02  0.7546771E-02  0.1501222E+00
         21   -1    0    0  504  501  0.00000000000E+00  0.00000000000E+00  0.29618008946E+01  0.29618008946E+01  0.00000000000E+00 0. -1.
         21   -1    0    0  503  502 -0.00000000000E+00 -0.00000000000E+00 -0.17207159352E+03  0.17207159352E+03  0.00000000000E+00 0. -1.
         21    1    1    2  503  501  0.19153040740E+02 -0.11459954531E+02 -0.71424340185E+02  0.74830514486E+02  0.00000000000E+00 0. -1.
         21    1    1    2  504  502 -0.19153040740E+02  0.11459954531E+02 -0.97685452439E+02  0.10020287993E+03  0.00000000000E+00 0. -1.
</event>
<event>
 4    1  0.2967296E+006  0.2449715E+02  0.7546771E-02  0.1474508E+00
         21   -1    0    0  504  501  0.00000000000E+00  0.00000000000E+00  0.19331753007E+02  0.19331753007E+02  0.00000000000E+00 0.  1.
         21   -1    0    0  501  502 -0.00000000000E+00 -0.00000000000E+00 -0.59965915016E+02  0.59965915016E+02  0.00000000000E+00 0.  1.
         21    1    1    2  503  502  0.30805796950E+01  0.24302686006E+02 -0.47853102709E+02  0.53758998849E+02  0.00000000000E+00 0.  1.
         21    1    1    2  504  503 -0.30805796950E+01 -0.24302686006E+02  0.72189406993E+01  0.25538669174E+02  0.00000000000E+00 0.  1.
</event>
<event>
 4    1  0.2967296E+006  0.2499782E+02  0.7546771E-02  0.1468828E+00
         21   -1    0    0  502  501  0.00000000000E+00  0.00000000000E+00  0.37627704471E+02  0.37627704471E+02  0.00000000000E+00 0. -1.
         21   -1    0    0  503  502 -0.00000000000E+00 -0.00000000000E+00 -0.39125311420E+02  0.39125311420E+02  0.00000000000E+00 0. -1.
         21    1    1    2  503  504  0.16262944434E+02  0.18984411546E+02 -0.29862839951E+02  0.38944581823E+02  0.00000000000E+00 0. -1.
         21    1    1    2  504  501 -0.16262944434E+02 -0.18984411546E+02  0.28365233002E+02  0.37808434068E+02  0.00000000000E+00 0. -1.
</event>
<event>
 4    1  0.2967296E+006  0.2445049E+02  0.7546771E-02  0.1475046E+00
         21   -1    0    0  503  501  0.00000000000E+00  0.00000000000E+00  0.19944178402E+04  0.19944178402E+04  0.00000000000E+00 0.  1.
         21   -1    0    0  504  502 -0.00000000000E+00 -0.00000000000E+00 -0.71465173790E+00  0.71465173790E+00  0.00000000000E+00 0. -1.
         21    1    1    2  503  502 -0.19977119884E+02  0.14097560870E+02  0.17569454113E+04  0.17571155354E+04  0.00000000000E+00 0.  1.
         21    1    1    2  504  501  0.19977119884E+02 -0.14097560870E+02  0.23675777721E+03  0.23801695656E+03  0.00000000000E+00 0. -1.
</event>
<event>
 4    1  0.2967296E+006  0.2425563E+02  0.7546771E-02  0.1477306E+00
         21   -1    0    0  503  501  0.00000000000E+00  0.00000000000E+00  0.45388173462E+03  0.45388173462E+03  0.00000000000E+00 0.  1.
         21   -1    0    0  504  502 -0.00000000000E+00 -0.00000000000E+00 -0.12965134100E+01  0.12965134100E+01  0.00000000000E+00 0.  1.
         21    1    1    2  503  502 -0.24054596002E+02 -0.31163976913E+01  0.22965222973E+03  0.23092960431E+03  0.00000000000E+00 0.  1.
         21    1    1    2  504  501  0.24054596002E+02  0.31163976913E+01  0.22293299148E+03  0.22424864373E+03  0.00000000000E+00 0.  1.
</event>
<event>
 4    1  0.2967296E+006  0.2497247E+02  0.7546771E-02  0.1469112E+00
         21   -1    0    0  504  501  0.00000000000E+00  0.00000000000E+00  0.68938298930E+02  0.68938298930E+02  0.00000000000E+00 0. -1.
         21   -1    0    0  503  502 -0.00000000000E+00 -0.00000000000E+00 -0.26099912712E+02  0.26099912712E+02  0.00000000000E+00 0.  1.
         21    1    1    2  503  501  0.58067686049E+01  0.24287973748E+02  0.59830510534E+02  0.64832971713E+02  0.00000000000E+00 0. -1.
         21    1    1    2  504  502 -0.58067686049E+01 -0.24287973748E+02 -0.16992124315E+02  0.30205239929E+02  0.00000000000E+00 0.  1.
</event>
<event>
 4    1  0.2967296E+006  0.2963037E+02  0.7546771E-02  0.1422836E+00
         21   -1    0    0  502  501  0.00000000000E+00  0.00000000000E+00  0.43562929231E+02  0.43562929231E+02  0.00000000000E+00 0. -1.
         21   -1    0    0  504  502 -0.00000000000E+00 -0.00000000000E+00 -0.92773036896E+02  0.92773036896E+02  0.00000000000E+00 0. -1.
         21    1    1    2  503  501  0.29076844710E+02 -0.57004970861E+01  0.35705789048E+02  0.46398943273E+02  0.00000000000E+00 0. -1.
         21    1    1    2  504  503 -0.29076844710E+02  0.57004970861E+01 -0.84915896713E+02  0.89937022854E+02  0.00000000000E+00 0. -1.
</event>
<event>
 4    1  0.2967296E+006  0.2023695E+02  0.7546771E-02  0.1530444E+00
         21   -1    0    0  503  501  0.00000000000E+00  0.00000000000E+00  0.68717764149E+01  0.68717764149E+01  0.00000000000E+00 0.  1.
         21   -1    0    0  504  502 -0.00000000000E+00 -0.00000000000E+00 -0.13851623482E+03  0.13851623482E+03  0.00000000000E+00 0. -1.
         21    1    1    2  503  502 -0.12276636692E+02 -0.16087835798E+02 -0.10951479846E+02  0.23010197303E+02  0.00000000000E+00 0.  1.
         21    1    1    2  504  501  0.12276636692E+02  0.16087835798E+02 -0.12069297856E+03  0.12237781393E+03  0.00000000000E+00 0. -1.
</event>
<event>
 4    1  0.2967296E+006  0.3415048E+02  0.7546771E-02  0.1386636E+00
         21   -1    0    0  504  501  0.00000000000E+00  0.00000000000E+00  0.47227189924E+03  0.47227189924E+03  0.00000000000E+00 0.  1.
         21   -1    0    0  503  502 -0.00000000000E+00 -0.00000000000E+00 -0.52435943498E+01  0.52435943498E+01  0.00000000000E+00 0.  1.
         21    1    1    2  503  501 -0.33805618426E+02  0.48410097202E+01  0.40717699179E+03  0.40860660525E+03  0.00000000000E+00 0.  1.
         21    1    1    2  504  502  0.33805618426E+02 -0.48410097202E+01  0.59851313105E+02  0.68908888343E+02  0.00000000000E+00 0.  1.
</event>
<event>
 4    1  0.2967296E+006  0.2530677E+02  0.7546771E-02  0.1465401E+00
         21   -1    0    0  504  501  0.00000000000E+00  0.00000000000E+00  0.35244282385E+01  0.35244282385E+01  0.00000000000E+00 0. -1.
         21   -1    0    0  501  502 -0.00000000000E+00 -0.00000000000E+00 -0.19652261950E+03  0.19652261950E+03  0.00000000000E+00 0. -1.
         21    1    1    2  503  502  0.23332130230E+02  0.98002316625E+01 -0.12395744525E+03  0.12651435126E+03  0.00000000000E+00 0. -1.
         21    1    1    2  504  503 -0.23332130230E+02 -0.98002316625E+01 -0.69040746017E+02  0.73532696485E+02  0.00000000000E+00 0. -1.
</event>
<event>
 4    1  0.2967296E+006  0.2923526E+02  0.7546771E-02  0.1426360E+00
         21   -1    0    0  504  501  0.00000000000E+00  0.00000000000E+00  0.57751230679E+02  0.57751230679E+02  0.00000000000E+00 0. -1.
         21   -1    0    0  503  502 -0.00000000000E+00 -0.00000000000E+00 -0.23103401702E+02  0.23103401702E+02  0.00000000000E+00 0.  1.
         21    1    1    2  503  501  0.28904187127E+02 -0.43872978390E+01  0.41560588993E+02  0.50813216521E+02  0.00000000000E+00 0. -1.
         21    1    1    2  504  502 -0.28904187127E+02  0.43872978390E+01 -0.69127600166E+01  0.30041415859E+02  0.00000000000E+00 0.  1.
</event>
<event>
 4    1  0.2967296E+006  0.2409924E+02  0.7546771E-02  0.1479138E+00
         21   -1    0    0  502  501  0.00000000000E+00  0.00000000000E+00  0.80504654880E+00  0.80504654880E+00  0.00000000000E+00 0. -1.
         21   -1    0    0  504  502 -0.00000000000E+00 -0.00000000000E+00 -0.10145744261E+04  0.10145744261E+04  0.00000000000E+00 0. -1.
         21    1    1    2  503  501 -0.20827716052E+02  0.12123511837E+02 -0.23398202815E+03  0.23521981803E+03  0.00000000000E+00 0. -1.
         21    1    1    2  504  503  0.20827716052E+02 -0.12123511837E+02 -0.77978735144E+03  0.78015965466E+03  0.00000000000E+00 0. -1.
</event>
<event>
 4    1  0.2967296E+006  0.3820627E+02  0.7546771E-02  0.1359330E+00
         21   -1    0    0  503  501  0.00000000000E+00  0.00000000000E+00  0.47532797535E+03  0.47532797535E+03  0.00000000000E+00 0. -1.
         21   -1    0    0  504  502 -0.00000000000E+00 -0.00000000000E+00 -0.24953739981E+02  0.24953739981E+02  0.00000000000E+00 0.  1.
         21    1    1    2  503  502 -0.29272635300E+01 -0.38093963834E+02 -0.90565927475E+01  0.39265007634E+02  0.00000000000E+00 0.  1.
         21    1    1    2  504  501  0.29272635300E+01  0.38093963834E+02  0.45943082812E+03  0.46101670770E+03  0.00000000000E+00 0. -1.
</event>
<event>
 4    1  0.2967296E+006  0.2281711E+02  0.7546771E-02  0.1494808E+00
         21   -1    0    0  503  501  0.00000000000E+00  0.00000000000E+00  0.20486211323E+03  0.20486211323E+03  0.00000000000E+00 0. -1.
         21   -1    0    0  504  502 -0.00000000000E+00 -0.00000000000E+00 -0.25712715917E+01  0.25712715917E+01  0.00000000000E+00 0. -1.
         21    1    1    2  503  502 -0.21599102975E+02  0.73552266890E+01  0.89951824196E+02  0.92800599594E+02  0.00000000000E+00 0. -1.
         21    1    1    2  504  501  0.21599102975E+02 -0.73552266890E+01  0.11233901745E+03  0.11463278523E+03  0.00000000000E+00 0. -1.
</event>
<event>
 4    1  0.2967296E+006  0.2465998E+02  0.7546771E-02  0.1472643E+00
         21   -1    0    0  503  501  0.00000000000E+00  0.00000000000E+00  0.28295794830E+01  0.28295794830E+01  0.00000000000E+00 0.  1.
         21   -1    0    0  504  502 -0.00000000000E+00 -0.00000000000E+00 -0.57165095720E+03  0.57165095720E+03  0.00000000000E+00 0.  1.
         21    1    1    2  503  502 -0.22139914594E+02 -0.10859956197E+02 -0.51132103098E+03  0.51191533596E+03  0.00000000000E+00 0.  1.
         21    1    1    2  504  501  0.22139914594E+02  0.10859956197E+02 -0.57500346733E+02  0.62565200720E+02  0.00000000000E+00 0.  1.
</event>
<event>
 4    1  0.2967296E+006  0.2131006E+02  0.7546771E-02  0.1514884E+00
         21   -1    0    0  504  501  0.00000000000E+00  0.00000000000E+00  0.52812920403E+02  0.52812920403E+02  0.00000000000E+00 0. -1.
         21   -1    0    0  501  502 -0.00000000000E+00 -0.00000000000E+00 -0.25556549264E+02  0.25556549264E+02  0.00000000000E+00 0. -1.
         21    1    1    2  503  502  0.11130851401E+02 -0.18172028781E+02 -0.18291025951E+02  0.28083449099E+02  0.00000000000E+00 0. -1.
         21    1    1    2  504  503 -0.11130851401E+02  0.18172028781E+02  0.45547397090E+02  0.50286020569E+02  0.00000000000E+00 0. -1.
</event>
<event>
 4    1  0.2967296E+006  0.2787394E+02  0.7546771E-02  0.1439021E+00
         21   -1    0    0  502  501  0.00000000000E+00  0.00000000000E+00  0.34561763991E+02  0.34561763991E+02  0.00000000000E+00 0.  1.
         21   -1    0    0  504  502 -0.00000000000E+00 -0.00000000000E+00 -0.34037501223E+02  0.34037501223E+02  0.00000000000E+00 0.  1.
         21    1    1    2  503  501  0.25220654830E+01 -0.27759607016E+02  0.20248697353E+02  0.34452377864E+02  0.00000000000E+00 0.  1.
         21    1    1    2  504  503 -0.25220654830E+01  0.27759607016E+02 -0.19724434585E+02  0.34146887350E+02  0.00000000000E+00 0.  1.
</event>
<event>
 4    1  0.2967296E+006  0.2416299E+02  0.7546771E-02  0.1478389E+00
         21   -1    0    0  504  501  0.00000000000E+00  0.00000000000E+00  0.72963425239E+02  0.72963425239E+02  0.00000000000E+00 0.  1.
         21   -1    0    0  503  502 -0.00000000000E+00 -0.00000000000E+00 -0.69134384213E+02  0.69134384213E+02  0.00000000000E+00 0. -1.
         21    1    1    2  503  501  0.23737161672E+02 -0.45163563300E+01  0.68725240413E+02  0.72849220920E+02  0.00000000000E+00 0.  1.
         21    1    1    2  504  502 -0.23737161672E+02  0.45163563300E+01 -0.64896199387E+02  0.69248588532E+02  0.00000000000E+00 0. -1.
</event>
<event>
 4    1  0.2967296E+006  0.3139485E+02  0.7546771E-02  0.1407850E+00
         21   -1    0    0  504  501  0.00000000000E+00  0.00000000000E+00  0.60287288919E+01  0.60287288919E+01  0.00000000000E+00 0. -1.
         21   -1    0    0  503  502 -0.00000000000E+00 -0.00000000000E+00 -0.16370815776E+03  0.16370815776E+03  0.00000000000E+00 0. -1.
         21    1    1    2  503  501  0.22501252416E+02 -0.21893610223E+02 -0.75741186303E+02  0.81990022756E+02  0.00000000000E+00 0. -1.
         21    1    1    2  504  502 -0.22501252416E+02  0.21893610223E+02 -0.81938242562E+02  0.87746863893E+02  0.00000000000E+00 0. -1.
</event>
<event>
 4    1  0.2967296E+006  0.3291399E+02  0.7546771E-02  0.1395853E+00
         21   -1    0    0  504  501  0.00000000000E+00  0.00000000000E+00  0.14789457963E+03  0.14789457963E+03  0.00000000000E+00 0.  1.
         21   -1    0    0  503  502 -0.00000000000E+00 -0.00000000000E+00 -0.31335451176E+02  0.31335451176E+02  0.00000000000E+00 0.  1.
         21    1    1    2  503  501 -0.25145087569E+02 -0.21238056825E+02  0.13672411921E+03  0.14063006528E+03  0.00000000000E+00 0.  1.
         21    1    1    2  504  502  0.25145087569E+02  0.21238056825E+02 -0.20164990756E+02  0.38599965528E+02  0.00000000000E+00 0.  1.
</event>
<event>
 4    1  0.2967296E+006  0.5593814E+02  0.7546771E-02  0.1274295E+00
         21   -1    0    0  504  501  0.00000000000E+00  0.00000000000E+00  0.81799414293E+02  0.81799414293E+02  0.00000000000E+00 0.  1.
         21   -1    0    0  503  502 -0.00000000000E+00 -0.00000000000E+00 -0.39712939224E+02  0.39712939224E+02  0.00000000000E+00 0.  1.
         21    1    1    2  503  501  0.35292543232E+02  0.43399444302E+02  0.32692206405E+02  0.64790861494E+02  0.00000000000E+00 0.  1.
         21    1    1    2  504  502 -0.35292543232E+02 -0.43399444302E+02  0.93942686640E+01  0.56721492023E+02  0.00000000000E+00 0.  1.
</event>
<event>
 4    1  0.2967296E+006  0.2460739E+02  0.7546771E-02  0.1473244E+00
         21   -1    0    0  504  501  0.00000000000E+00  0.00000000000E+00  0.13854415582E+02  0.13854415582E+02  0.00000000000E+00 0. -1.
         21   -1    0    0  501  502 -0.00000000000E+00 -0.00000000000E+00 -0.69506717126E+02  0.69506717126E+02  0.00000000000E+00 0. -1.
         21    1    1    2  503  502 -0.24578348903E+02  0.11950602752E+01 -0.53220360645E+02  0.58633865564E+02  0.00000000000E+00 0. -1.
         21    1    1    2  504  503  0.24578348903E+02 -0.11950602752E+01 -0.24319408989E+01  0.24727267144E+02  0.00000000000E+00 0. -1.
</event>
<event>
 4    1  0.2967296E+006  0.2234611E+02  0.7546771E-02  0.1500876E+00
         21   -1    0    0  504  501  0.00000000000E+00  0.00000000000E+00  0.91219511972E+01  0.91219511972E+01  0.00000000000E+00 0. -1.
         21   -1    0    0  503  502 -0.00000000000E+00 -0.00000000000E+00 -0.62601514152E+03  0.62601514152E+03  0.00000000000E+00 0.  1.
         21    1    1    2  503  501 -0.26822700458E+01 -0.22184544386E+02 -0.50803998006E+01  0.22916348844E+02  0.00000000000E+00 0. -1.
         21    1    1    2  504  502  0.26822700458E+01  0.22184544386E+02 -0.61181279052E+03  0.61222074387E+03  0.00000000000E+00 0.  1.
</event>
<event>
 4    1  0.2967296E+006  0.2180118E+02  0.7546771E-02  0.1508127E+00
         21   -1    0    0  504  501  0.00000000000E+00  0.00000000000E+00  0.24995438518E+02  0.24995438518E+02  0.00000000000E+00 0. -1.
         21   -1    0    0  503  502 -0.00000000000E+00 -0.00000000000E+00 -0.19417318671E+02  0.19417318671E+02  0.00000000000E+00 0.  1.
         21    1    1    2  503  501  0.72915103464E+01  0.20545684289E+02 -0.40691496406E+00  0.21804972961E+02  0.00000000000E+00 0.  1.
         21    1    1    2  504  502 -0.72915103464E+01 -0.20545684289E+02  0.59850348116E+01  0.22607784229E+02  0.00000000000E+00 0. -1.
</event>
<event>
 4    1  0.2967296E+006  0.2403002E+02  0.7546771E-02  0.1479954E+00
         21   -1    0    0  503  501  0.00000000000E+00  0.00000000000E+00  0.94173187166E+02  0.94173187166E+02  0.00000000000E+00 0. -1.
         21   -1    0    0  504  502 -0.00000000000E+00 -0.00000000000E+00 -0.62552260203E+01  0.62552260203E+01  0.00000000000E+00 0. -1.
         21    1    1    2  503  502  0.21191450836E+02  0.11329791448E+02  0.36902571543E+02  0.44036820381E+02  0.00000000000E+00 0. -1.
         21    1    1    2  504  501 -0.21191450836E+02 -0.11329791448E+02  0.51015389602E+02  0.56391592805E+02  0.00000000000E+00 0. -1.
</event>
<event>
 4    1  0.2967296E+006  0.2163945E+02  0.7546771E-02  0.1510328E+00
         21   -1    0    0  503  501  0.00000000000E+00  0.00000000000E+00  0.12648511752E+02  0.12648511752E+02  0.00000000000E+00 0.  1.
         21   -1    0    0  501  502 -0.00000000000E+00 -0.00000000000E+00 -0.10229997140E+03  0.10229997140E+03  0.00000000000E+00 0. -1.
         21    1    1    2  503  504 -0.17473842617E+02  0.12764433050E+02  0.10856907874E+01  0.21666671442E+02  0.00000000000E+00 0.  1.
         21    1    1    2  504  502  0.17473842617E+02 -0.12764433050E+02 -0.90737150430E+02  0.93281811706E+02  0.00000000000E+00 0. -1.
</event>
<event>
 4    1  0.2967296E+006  0.2767302E+02  0.7546771E-02  0.1440962E+00
         21   -1    0    0  504  501  0.00000000000E+00  0.00000000000E+00  0.42556943411E+02  0.42556943411E+02  0.00000000000E+00 0. -1.
         21   -1    0    0  503  502 -0.00000000000E+00 -0.00000000000E+00 -0.70349552294E+02  0.70349552294E+02  0.00000000000E+00 0.  1.
         21    1    1    2  503  501 -0.23812688151E+02  0.14097934769E+02 -0.62597214727E+02  0.68441268057E+02  0.00000000000E+00 0.  1.
         21    1    1    2  504  502  0.23812688151E+02 -0.14097934769E+02  0.34804605844E+02  0.44465227647E+02  0.00000000000E+00 0. -1.
</event>
<event>
 4    1  0.2967296E+006  0.2936569E+02  0.7546771E-02  0.1425190E+00
         21   -1    0    0  503  501  0.00000000000E+00  0.00000000000E+00  0.44401876422E+02  0.44401876422E+02  0.00000000000E+00 0. -1.
         21   -1    0    0  504  502 -0.00000000000E+00 -0.00000000000E+00 -0.40533783884E+02  0.40533783884E+02  0.00000000000E+00 0. -1.
         21    1    1    2  503  502  0.26524459252E+02  0.12601451156E+02 -0.28715274288E+02  0.41072015866E+02  0.00000000000E+00 0. -1.
         21    1    1    2  504  501 -0.26524459252E+02 -0.12601451156E+02  0.32583366826E+02  0.43863644440E+02  0.00000000000E+00 0. -1.
</event>
<event>
 4    1  0.2967296E+006  0.6295302E+02  0.7546771E-02  0.1250116E+00
         21   -1    0    0  502  501  0.00000000000E+00  0.00000000000E+00  0.28338141991E+02  0.28338141991E+02  0.00000000000E+00 0.  1.
         21   -1    0    0  503  502 -0.00000000000E+00 -0.00000000000E+00 -0.14172322017E+03  0.14172322017E+03  0.00000000000E+00 0. -1.
         21    1    1    2  503  504  0.38521639622E+02 -0.49791225991E+02 -0.66468853064E+02  0.91548846702E+02  0.00000000000E+00 0. -1.
         21    1    1    2  504  501 -0.38521639622E+02  0.49791225991E+02 -0.46916225119E+02  0.78512515463E+02  0.00000000000E+00 0.  1.
</event>
<event>
 4    1  0.2967296E+006  0.3663133E+02  0.7546771E-02  0.1369443E+00
         21   -1    0    0  503  501  0.00000000000E+00  0.00000000000E+00  0.89828789491E+00  0.89828789491E+00  0.00000000000E+00 0. -1.
         21   -1    0    0  504  502 -0.00000000000E+00 -0.00000000000E+00 -0.15072563533E+04  0.15072563533E+04  0.00000000000E+00 0. -1.
         21    1    1    2  503  502  0.14159573109E+02 -0.33784029903E+02 -0.68190447529E+03  0.68288766837E+03  0.00000000000E+00 0. -1.
         21    1    1    2  504  501 -0.14159573109E+02  0.33784029903E+02 -0.82445359016E+03  0.82526697287E+03  0.00000000000E+00 0. -1.
</event>
<event>
 4    1  0.2967296E+006  0.2216276E+02  0.7546771E-02  0.1503288E+00
         21   -1    0    0  504  501  0.00000000000E+00  0.00000000000E+00  0.15029417893E+04  0.15029417893E+04  0.00000000000E+00 0. -1.
         21   -1    0    0  503  502 -0.00000000000E+00 -0.00000000000E+00 -0.41795162457E+00  0.41795162457E+00  0.00000000000E+00 0.  1.
         21    1    1    2  503  501  0.21870400996E+02 -0.35879448780E+01  0.11022644515E+04  0.11024872375E+04  0.00000000000E+00 0. -1.
         21    1    1    2  504  502 -0.21870400996E+02  0.35879448780E+01  0.40025938615E+03  0.40087250341E+03  0.00000000000E+00 0.  1.
</event>
<event>
 4    1  0.2967296E+006  0.2376353E+02  0.7546771E-02  0.1483127E+00
         21   -1    0    0  504  501  0.00000000000E+00  0.00000000000E+00  0.56265477226E+02  0.56265477226E+02  0.00000000000E+00 0. -1.
         21   -1    0    0  503  502 -0.00000000000E+00 -0.00000000000E+00 -0.14284695658E+02  0.14284695658E+02  0.00000000000E+00 0. -1.
         21    1    1    2  503  501  0.12728898159E+02 -0.20066898115E+02  0.17533721484E+01  0.23828125444E+02  0.00000000000E+00 0. -1.
         21    1    1    2  504  502 -0.12728898159E+02  0.20066898115E+02  0.40227409420E+02  0.46722047439E+02  0.00000000000E+00 0. -1.
</event>
<event>
 4    1  0.2967296E+006  0.2167124E+02  0.7546771E-02  0.1509893E+00
         21   -1    0    0  504  501  0.00000000000E+00  0.00000000000E+00  0.12199827831E+03  0.12199827831E+03  0.00000000000E+00 0.  1.
         21   -1    0    0  503  502 -0.00000000000E+00 -0.00000000000E+00 -0.60828790008E+02  0.60828790008E+02  0.00000000000E+00 0. -1.
         21    1    1    2  503  501  0.17737233975E+02  0.12451229381E+02  0.11905842756E+03  0.12101467578E+03  0.00000000000E+00 0.  1.
         21    1    1    2  504  502 -0.17737233975E+02 -0.12451229381E+02 -0.57888939258E+02  0.61812392533E+02  0.00000000000E+00 0. -1.
</event>
<event>
 4    1  0.2967296E+006  0.2719872E+02  0.7546771E-02  0.1445622E+00
         21   -1    0    0  503  501  0.00000000000E+00  0.00000000000E+00  0.28925988564E+02  0.28925988564E+02  0.00000000000E+00 0. -1.
         21   -1    0    0  504  502 -0.00000000000E+00 -0.00000000000E+00 -0.57577970265E+02  0.57577970265E+02  0.00000000000E+00 0. -1.
         21    1    1    2  503  502 -0.15466114805E+02 -0.22373413264E+02 -0.46571982032E+02  0.53932548972E+02  0.00000000000E+00 0. -1.
         21    1    1    2  504  501  0.15466114805E+02  0.22373413264E+02  0.17920000331E+02  0.32571409857E+02  0.00000000000E+00 0. -1.
</event>
<event>
 4    1  0.2967296E+006  0.2031375E+02  0.7546771E-02  0.1529292E+00
         21   -1    0    0  503  501  0.00000000000E+00  0.00000000000E+00  0.18835031768E+02  0.18835031768E+02  0.00000000000E+00 0. -1.
         21   -1    0    0  504  502 -0.00000000000E+00 -0.00000000000E+00 -0.58903121878E+02  0.58903121878E+02  0.00000000000E+00 0. -1.
         21    1    1    2  503  502 -0.10891754449E+02  0.17146951666E+02 -0.50837828564E+02  0.54746078212E+02  0.00000000000E+00 0. -1.
         21    1    1    2  504  501  0.10891754449E+02 -0.17146951666E+02  0.10769738453E+02  0.22992075434E+02  0.00000000000E+00 0. -1.
</event>
<event>
 4    1  0.2967296E+006  0.2102983E+02  0.7546771E-02  0.1518839E+00
         21   -1    0    0  504  501  0.00000000000E+00  0.00000000000E+00  0.33766001887E+02  0.33766001887E+02  0.00000000000E+00 0.  1.
         21   -1    0    0  503  502 -0.00000000000E+00 -0.00000000000E+00 -0.16584529300E+02  0.16584529300E+02  0.00000000000E+00 0. -1.
         21    1    1    2  503  501 -0.19667117967E+02 -0.74470374629E+01  0.20134395198E+02  0.29114391048E+02  0.00000000000E+00 0.  1.
         21    1    1    2  504  502  0.19667117967E+02  0.74470374629E+01 -0.29529226115E+01  0.21236140140E+02  0.00000000000E+00 0. -1.
</event>
<event>
 4    1  0.2967296E+006  0.3185180E+02  0.7546771E-02  0.1404159E+00
         21   -1    0    0  503  501  0.00000000000E+00  0.00000000000E+00  0.47472979299E+01  0.47472979299E+01  0.00000000000E+00 0. -1.
         21   -1    0    0  501  502 -0.00000000000E+00 -0.00000000000E+00 -0.12380337420E+04  0.12380337420E+04  0.00000000000E+00 0.  1.
         21    1    1    2  503  504 -0.31659575971E+02 -0.34940570381E+01 -0.51423440419E+02  0.60488903196E+02  0.00000000000E+00 0. -1.
         21    1    1    2  504  502  0.31659575971E+02  0.34940570381E+01 -0.11818630037E+04  0.11822921368E+04  0.00000000000E+00 0.  1.
</event>
<event>
 4    1  0.2967296E+006  0.2190095E+02  0.7546771E-02  0.1506780E+00
         21   -1    0    0  504  501  0.00000000000E+00  0.00000000000E+00  0.52318422840E+01  0.52318422840E+01  0.00000000000E+00 0. -1.
         21   -1    0    0  501  502 -0.00000000000E+00 -0.00000000000E+00 -0.15749763388E+03  0.15749763388E+03  0.00000000000E+00 0. -1.
         21    1    1    2  503  502 -0.17220595157E+02  0.13531552837E+02 -0.12873129679E+03  0.13058100395E+03  0.00000000000E+00 0. -1.
         21    1    1    2  504  503  0.17220595157E+02 -0.13531552837E+02 -0.23534494801E+02  0.32148472208E+02  0.00000000000E+00 0. -1.
</event>
<event>
 4    1  0.2967296E+006  0.3535707E+02  0.7546771E-02  0.1378070E+00
         21   -1    0    0  502  501  0.00000000000E+00  0.00000000000E+00  0.21657528316E+03  0.21657528316E+03  0.00000000000E+00 0.  1.
         21   -1    0    0  504  502 -0.00000000000E+00 -0.00000000000E+00 -0.61865426758E+02  0.61865426758E+02  0.00000000000E+00 0. -1.
         21    1    1    2  503  501 -0.33860128511E+02  0.10179116375E+02  0.20992143704E+03  0.21287821035E+03  0.00000000000E+00 0.  1.
         21    1    1    2  504  503  0.33860128511E+02 -0.10179116375E+02 -0.55211580639E+02  0.65562499568E+02  0.00000000000E+00 0. -1.
</event>
<event>
 4    1  0.2967296E+006  0.3249343E+02  0.7546771E-02  0.1399097E+00
         21   -1    0    0  504  501  0.00000000000E+00  0.00000000000E+00  0.40737496309E+01  0.40737496309E+01  0.00000000000E+00 0.  1.
         21   -1    0    0  503  502 -0.00000000000E+00 -0.00000000000E+00 -0.26129526382E+03  0.26129526382E+03  0.00000000000E+00 0.  1.
         21    1    1    2  503  501 -0.22897022390E+02 -0.23055360716E+02 -0.11666490343E+03  0.12110542095E+03  0.00000000000E+00 0.  1.
         21    1    1    2  504  502  0.22897022390E+02  0.23055360716E+02 -0.14055661076E+03  0.14426359250E+03  0.00000000000E+00 0.  1.
</event>
<event>
 4    1  0.2967296E+006  0.3125398E+02  0.7546771E-02  0.1409004E+00
         21   -1    0    0  504  501  0.00000000000E+00  0.00000000000E+00  0.32897882658E+01  0.32897882658E+01  0.00000000000E+00 0.  1.
         21   -1    0    0  503  502 -0.00000000000E+00 -0.00000000000E+00 -0.49300895633E+03  0.49300895633E+03  0.00000000000E+00 0.  1.
         21    1    1    2  503  501  0.28968843361E+02  0.11731038843E+02 -0.88361180517E+02  0.93725713549E+02  0.00000000000E+00 0.  1.
         21    1    1    2  504  502 -0.28968843361E+02 -0.11731038843E+02 -0.40135798755E+03  0.40257303105E+03  0.00000000000E+00 0.  1.
</event>
<event>
 4    1  0.2967296E+006  0.2199588E+02  0.7546771E-02  0.1505507E+00
         21   -1    0    0  504  501  0.00000000000E+00  0.00000000000E+00  0.66266337413E+02  0.66266337413E+02  0.00000000000E+00 0. -1.
         21   -1    0    0  503  502 -0.00000000000E+00 -0.00000000000E+00 -0.98295148672E+01  0.98295148672E+01  0.00000000000E+00 0. -1.
         21    1    1    2  503  501 -0.58165440307E+01 -0.21212883886E+02  0.47515296285E+02  0.52359545532E+02  0.00000000000E+00 0. -1.
         21    1    1    2  504  502  0.58165440307E+01  0.21212883886E+02  0.89215262604E+01  0.23736306748E+02  0.00000000000E+00 0. -1.
</event>
<event>
 4    1  0.2967296E+006  0.2162358E+02  0.7546771E-02  0.1510545E+00
         21   -1    0    0  502  501  0.00000000000E+00  0.00000000000E+00  0.88341572837E+02  0.88341572837E+02  0.00000000000E+00 0. -1.
         21   -1    0    0  503  502 -0.00000000000E+00 -0.00000000000E+00 -0.57959681066E+02  0.57959681066E+02  0.00000000000E+00 0. -1.
         21    1    1    2  503  504 -0.12117014902E+02  0.17909690326E+02 -0.54539691686E+02  0.58669898814E+02  0.00000000000E+00 0. -1.
         21    1    1    2  504  501  0.12117014902E+02 -0.17909690326E+02  0.84921583457E+02  0.87631355088E+02  0.00000000000E+00 0. -1.
</event>
<event>
 4    1  0.2967296E+006  0.2215649E+02  0.7546771E-02  0.1503371E+00
         21   -1    0    0  502  501  0.00000000000E+00  0.00000000000E+00  0.84404646515E+02  0.84404646515E+02  0.00000000000E+00 0. -1.
         21   -1    0    0  503  502 -0.00000000000E+00 -0.00000000000E+00 -0.63766989925E+01  0.63766989925E+01  0.00000000000E+00 0. -1.
         21    1    1    2  503  504 -0.18246999746E+02  0.12568094618E+02  0.25556119242E+02  0.33823442060E+02  0.00000000000E+00 0. -1.
         21    1    1    2  504  501  0.18246999746E+02 -0.12568094618E+02  0.52471828280E+02  0.56957903447E+02  0.00000000000E+00 0. -1.
</event>
<event>
 4    1  0.2967296E+006  0.2042060E+02  0.7546771E-02  0.1527700E+00
         21   -1    0    0  503  501  0.00000000000E+00  0.00000000000E+00  0.47236439812E+02  0.47236439812E+02  0.00000000000E+00 0.  1.
         21   -1    0    0  504  502 -0.00000000000E+00 -0.00000000000E+00 -0.22518743241E+02  0.22518743241E+02  0.00000000000E+00 0.  1.
         21    1    1    2  503  502 -0.20236895059E+02 -0.27329190671E+01  0.39553830074E+02  0.44514112838E+02  0.00000000000E+00 0.  1.
         21    1    1    2  504  501  0.20236895059E+02  0.27329190671E+01 -0.14836133503E+02  0.25241070214E+02  0.00000000000E+00 0.  1.
</event>
<event>
 4    1  0.2967296E+006  0.4045036E+02  0.7546771E-02  0.1345867E+00
         21   -1    0    0  502  501  0.00000000000E+00  0.00000000000E+00  0.27446006147E+02  0.27446006147E+02  0.00000000000E+00 0. -1.
         21   -1    0    0  504  502 -0.00000000000E+00 -0.00000000000E+00 -0.59755827304E+02  0.59755827304E+02  0.00000000000E+00 0. -1.
         21    1    1    2  503  501  0.39683421034E+02 -0.78394900489E+01 -0.14048651259E+02  0.42820510405E+02  0.00000000000E+00 0. -1.
         21    1    1    2  504  503 -0.39683421034E+02  0.78394900489E+01 -0.18261169898E+02  0.44381323045E+02  0.00000000000E+00 0. -1.
</event>
<event>
 4    1  0.2967296E+006  0.2624956E+02  0.7546771E-02  0.1455296E+00
         21   -1    0    0  503  501  0.00000000000E+00  0.00000000000E+00  0.39673935617E+02  0.39673935617E+02  0.00000000000E+00 0. -1.
         21   -1    0    0  504  502 -0.00000000000E+00 -0.00000000000E+00 -0.44271282896E+03  0.44271282896E+03  0.00000000000E+00 0.  1.
         21    1    1    2  503  502  0.25118309350E+02  0.76229756036E+01 -0.43793450785E+03  0.43872049460E+03  0.00000000000E+00 0.  1.
         21    1    1    2  504  501 -0.25118309350E+02 -0.76229756036E+01  0.34895614505E+02  0.43666269973E+02  0.00000000000E+00 0. -1.
</event>
<event>
 4    1  0.2967296E+006  0.2219915E+02  0.7546771E-02  0.1502807E+00
         21   -1    0    0  503  501  0.00000000000E+00  0.00000000000E+00  0.11375853086E+02  0.11375853086E+02  0.00000000000E+00 0.  1.
         21   -1    0    0  501  502 -0.00000000000E+00 -0.00000000000E+00 -0.15141068780E+03  0.15141068780E+03  0.00000000000E+00 0.  1.
         21    1    1    2  503  504  0.21733233844E+02 -0.45242328621E+01 -0.12465754278E+01  0.22234119874E+02  0.00000000000E+00 0.  1.
         21    1    1    2  504  502 -0.21733233844E+02  0.45242328621E+01 -0.13878825929E+03  0.14055242101E+03  0.00000000000E+00 0.  1.
</event>
<event>
 4    1  0.2967296E+006  0.2820270E+02  0.7546771E-02  0.1435887E+00
         21   -1    0    0  504  501  0.00000000000E+00  0.00000000000E+00  0.93683988002E+02  0.93683988002E+02  0.00000000000E+00 0. -1.
         21   -1    0    0  503  502 -0.00000000000E+00 -0.00000000000E+00 -0.11267104834E+02  0.11267104834E+02  0.00000000000E+00 0. -1.
         21    1    1    2  503  501 -0.71252622189E+01  0.27287777595E+02  0.67260037167E+02  0.72933564067E+02  0.00000000000E+00 0. -1.
         21    1    1    2  504  502  0.71252622189E+01 -0.27287777595E+02  0.15156846001E+02  0.32017528768E+02  0.00000000000E+00 0. -1.
</event>
<event>
 4    1  0.2967296E+006  0.2766948E+02  0.7546771E-02  0.1440997E+00
         21   -1    0    0  503  501  0.00000000000E+00  0.00000000000E+00  0.11244969269E+03  0.11244969269E+03  0.00000000000E+00 0.  1.
         21   -1    0    0  504  502 -0.00000000000E+00 -0.00000000000E+00 -0.80971299943E+01  0.80971299943E+01  0.00000000000E+00 0.  1.
         21    1    1    2  503  502  0.17422010318E+01 -0.27614577584E+02  0.76222382701E+02  0.81089159474E+02  0.00000000000E+00 0.  1.
         21    1    1    2  504  501 -0.17422010318E+01  0.27614577584E+02  0.28130179999E+02  0.39457663215E+02  0.00000000000E+00 0.  1.
</event>
<event>
 4    1  0.2967296E+006  0.2372395E+02  0.7546771E-02  0.1483602E+00
         21   -1    0    0  503  501  0.00000000000E+00  0.00000000000E+00  0.22244725680E+03  0.22244725680E+03  0.00000000000E+00 0. -1.
         21   -1    0    0  501  502 -0.00000000000E+00 -0.00000000000E+00 -0.14263083223E+02  0.14263083223E+02  0.00000000000E+00 0.  1.
         21    1    1    2  503  504  0.21028635268E+02  0.10982811771E+02  0.21143756728E+03  0.21276435442E+03  0.00000000000E+00 0. -1.
         21    1    1    2  504  502 -0.21028635268E+02 -0.10982811771E+02 -0.32533937065E+01  0.23945985597E+02  0.00000000000E+00 0.  1.
</event>
<event>
 4    1  0.2967296E+006  0.2268416E+02  0.7546771E-02  0.1496503E+00
         21   -1    0    0  502  501  0.00000000000E+00  0.00000000000E+00  0.71086456533E+01  0.71086456533E+01  0.00000000000E+00 0.  1.
         21   -1    0    0  504  502 -0.00000000000E+00 -0.00000000000E+00 -0.18297334754E+03  0.18297334754E+03  0.00000000000E+00 0. -1.
         21    1    1    2  503  501  0.96134779055E+01 -0.20546338008E+02 -0.14045266145E+02  0.26680338530E+02  0.00000000000E+00 0.  1.
         21    1    1    2  504  503 -0.96134779055E+01  0.20546338008E+02 -0.16181943575E+03  0.16340165467E+03  0.00000000000E+00 0. -1.
</event>
<event>
 4    1  0.2967296E+006  0.2349977E+02  0.7546771E-02  0.1486316E+00
         21   -1    0    0  502  501  0.00000000000E+00  0.00000000000E+00  0.68581277810E+03  0.68581277810E+03  0.00000000000E+00 0. -1.
         21   -1    0    0  504  502 -0.00000000000E+00 -0.00000000000E+00 -0.65392943534E+01  0.65392943534E+01  0.00000000000E+00 0.  1.
         21    1    1    2  503  501  0.21891678985E+02 -0.85436203148E+01  0.66379920719E+03  0.66421504539E+03  0.00000000000E+00 0. -1.
         21    1    1    2  504  503 -0.21891678985E+02  0.85436203148E+01  0.15474276551E+02  0.28137027057E+02  0.00000000000E+00 0.  1.
</event>
<event>
 4    1  0.2967296E+006  0.2019470E+02  0.7546771E-02  0.1531080E+00
         21   -1    0    0  502  501  0.00000000000E+00  0.00000000000E+00  0.82947597240E+02  0.82947597240E+02  0.00000000000E+00 0. -1.
         21   -1    0    0  504  502 -0.00000000000E+00 -0.00000000000E+00 -0.87643257385E+01  0.87643257385E+01  0.00000000000E+00 0.  1.
         21    1    1    2  503  501  0.14833364967E+02 -0.13703914115E+02  0.67474914780E+02  0.70432166677E+02  0.00000000000E+00 0. -1.
         21    1    1    2  504  503 -0.14833364967E+02  0.13703914115E+02  0.67083567219E+01  0.21279756301E+02  0.00000000000E+00 0.  1.
</event>
<event>
 4    1  0.2967296E+006  0.2794996E+02  0.7546771E-02  0.1438292E+00
         21   -1    0    0  504  501  0.00000000000E+00  0.00000000000E+00  0.40634006797E+03  0.40634006797E+03  0.00000000000E+00 0. -1.
         21   -1    0    0  503  502 -0.00000000000E+00 -0.00000000000E+00 -0.38358740802E+02  0.38358740802E+02  0.00000000000E+00 0.  1.
         21    1    1    2  503  501 -0.10503334205E+02  0.25901358865E+02 -0.32715074197E+02  0.43028786878E+02  0.00000000000E+00 0.  1.
         21    1    1    2  504  502  0.10503334205E+02 -0.25901358865E+02  0.40069640136E+03  0.40167002189E+03  0.00000000000E+00 0. -1.
</event>
<event>
 4    1  0.2967296E+006  0.2149213E+02  0.7546771E-02  0.1512353E+00
         21   -1    0    0  503  501  0.00000000000E+00  0.00000000000E+00  0.62622576669E+02  0.62622576669E+02  0.00000000000E+00 0.  1.
         21   -1    0    0  504  502 -0.00000000000E+00 -0.00000000000E+00 -0.96771030687E+01  0.96771030687E+01  0.00000000000E+00 0.  1.
         21    1    1    2  503  502 -0.21131396856E+02  0.39211643656E+01  0.88452388430E+01  0.23241121170E+02  0.00000000000E+00 0.  1.
         21    1    1    2  504  501  0.21131396856E+02 -0.39211643656E+01  0.44100234758E+02  0.49058558568E+02  0.00000000000E+00 0.  1.
</event>
<event>
 4    1  0.2967296E+006  0.2295456E+02  0.7546771E-02  0.1493069E+00
         21   -1    0    0  503  501  0.00000000000E+00  0.00000000000E+00  0.14330678001E+03  0.14330678001E+03  0.00000000000E+00 0.  1.
         21   -1    0    0  504  502 -0.00000000000E+00 -0.00000000000E+00 -0.36845486085E+01  0.36845486085E+01  0.00000000000E+00 0.  1.
         21    1    1    2  503  502 -0.22648708953E+02  0.37346925673E+01  0.73179121408E+02  0.76694822224E+02  0.00000000000E+00 0.  1.
         21    1    1    2  504  501  0.22648708953E+02 -0.37346925673E+01  0.66443109998E+02  0.70296506400E+02  0.00000000000E+00 0.  1.
</event>
<event>
 4    1  0.2967296E+006  0.2268436E+02  0.7546771E-02  0.1496500E+00
         21   -1    0    0  502  501  0.00000000000E+00  0.00000000000E+00  0.49578960735E+02  0.49578960735E+02  0.00000000000E+00 0.  1.
         21   -1    0    0  503  502 -0.00000000000E+00 -0.00000000000E+00 -0.14344703824E+03  0.14344703824E+03  0.00000000000E+00 0.  1.
         21    1    1    2  503  504 -0.24792311475E+01 -0.22548471852E+02 -0.13988992437E+03  0.14171722235E+03  0.00000000000E+00 0.  1.
         21    1    1    2  504  501  0.24792311475E+01  0.22548471852E+02  0.46021846865E+02  0.51308776626E+02  0.00000000000E+00 0.  1.
</event>
<event>
 4    1  0.2967296E+006  0.2438419E+02  0.7546771E-02  0.1475812E+00
         21   -1    0    0  504  501  0.00000000000E+00  0.00000000000E+00  0.32857693247E+01  0.32857693247E+01  0.00000000000E+00 0. -1.
         21   -1    0    0  501  502 -0.00000000000E+00 -0.00000000000E+00 -0.18271236701E+03  0.18271236701E+03  0.00000000000E+00 0.  1.
         21    1    1    2  503  502  0.16183318162E+02  0.18239757930E+02 -0.98824335463E+02  0.10178820087E+03  0.00000000000E+00 0. -1.
         21    1    1    2  504  503 -0.16183318162E+02 -0.18239757930E+02 -0.80602262220E+02  0.84209935465E+02  0.00000000000E+00 0.  1.
</event>
<event>
 4    1  0.2967296E+006  0.4286109E+02  0.7546771E-02  0.1332489E+00
         21   -1    0    0  502  501  0.00000000000E+00  0.00000000000E+00  0.15365260697E+03  0.15365260697E+03  0.00000000000E+00 0.  1.
         21   -1    0    0  503  502 -0.00000000000E+00 -0.00000000000E+00 -0.13414492485E+02  0.13414492485E+02  0.00000000000E+00 0.  1.
         21    1    1    2  503  504  0.22033835532E+02 -0.36763880307E+02  0.97662850266E+02  0.10665413787E+03  0.00000000000E+00 0.  1.
         21    1    1    2  504  501 -0.22033835532E+02  0.36763880307E+02  0.42575264215E+02  0.60412961577E+02  0.00000000000E+00 0.  1.
</event>
<event>
 4    1  0.2967296E+006  0.3638022E+02  0.7546771E-02  0.1371111E+00
         21   -1    0    0  504  501  0.00000000000E+00  0.00000000000E+00  0.31455852744E+03  0.31455852744E+03  0.00000000000E+00 0.  1.
         21   -1    0    0  503  502 -0.00000000000E+00 -0.00000000000E+00 -0.31672355082E+02  0.31672355082E+02  0.00000000000E+00 0.  1.
         21    1    1    2  503  501  0.96633312603E+01  0.35073362217E+02  0.30265008374E+03  0.30482879440E+03  0.00000000000E+00 0.  1.
         21    1    1    2  504  502 -0.96633312603E+01 -0.35073362217E+02 -0.19763911377E+02  0.41402088125E+02  0.00000000000E+00 0.  1.
</event>
<event>
 4    1  0.2967296E+006  0.2226317E+02  0.7546771E-02  0.1501964E+00
         21   -1    0    0  503  501  0.00000000000E+00  0.00000000000E+00  0.14215590118E+03  0.14215590118E+03  0.00000000000E+00 0.  1.
         21   -1    0    0  504  502 -0.00000000000E+00 -0.00000000000E+00 -0.27921316263E+02  0.27921316263E+02  0.00000000000E+00 0.  1.
         21    1    1    2  503  502 -0.25371792525E+01 -0.22118125386E+02  0.13666933839E+03  0.13847077961E+03  0.00000000000E+00 0.  1.
         21    1    1    2  504  501  0.25371792525E+01  0.22118125386E+02 -0.22434753474E+02  0.31606437834E+02  0.00000000000E+00 0.  1.
</event>
<event>
 4    1  0.2967296E+006  0.2230530E+02  0.7546771E-02  0.1501411E+00
         21   -1    0    0  503  501  0.00000000000E+00  0.00000000000E+00  0.38700580902E+03  0.38700580902E+03  0.00000000000E+00 0.  1.
         21   -1    0    0  501  502 -0.00000000000E+00 -0.00000000000E+00 -0.12378930031E+02  0.12378930031E+02  0.00000000000E+00 0.  1.
         21    1    1    2  503  504  0.19343914728E+02 -0.11105829120E+02  0.37635238989E+03  0.37701279535E+03  0.00000000000E+00 0.  1.
         21    1    1    2  504  502 -0.19343914728E+02  0.11105829120E+02 -0.17255108994E+01  0.22371943709E+02  0.00000000000E+00 0.  1.
</event>
<event>
 4    1  0.2967296E+006  0.2834942E+02  0.7546771E-02  0.1434504E+00
         21   -1    0    0  502  501  0.00000000000E+00  0.00000000000E+00  0.28304901357E+02  0.28304901357E+02  0.00000000000E+00 0. -1.
         21   -1    0    0  504  502 -0.00000000000E+00 -0.00000000000E+00 -0.11545096795E+03  0.11545096795E+03  0.00000000000E+00 0. -1.
         21    1    1    2  503  501  0.28222821713E+02 -0.26762012007E+01  0.18843341130E+02  0.34040582005E+02  0.00000000000E+00 0. -1.
         21    1    1    2  504  503 -0.28222821713E+02  0.26762012007E+01 -0.10598940772E+03  0.10971528730E+03  0.00000000000E+00 0. -1.
</event>
<event>
 4    1  0.2967296E+006  0.2171612E+02  0.7546771E-02  0.1509281E+00
         21   -1    0    0  502  501  0.00000000000E+00  0.00000000000E+00  0.60706348130E+02  0.60706348130E+02  0.00000000000E+00 0. -1.
         21   -1    0    0  504  502 -0.00000000000E+00 -0.00000000000E+00 -0.50272645074E+02  0.50272645074E+02  0.00000000000E+00 0. -1.
         21    1    1    2  503  501 -0.21936707851E+01  0.21605042010E+02  0.56239285024E+02  0.60286376669E+02  0.00000000000E+00 0. -1.
         21    1    1    2  504  503  0.21936707851E+01 -0.21605042010E+02 -0.45805581968E+02  0.50692616536E+02  0.00000000000E+00 0. -1.
</event>
<event>
 4    1  0.2967296E+006  0.2199820E+02  0.7546771E-02  0.1505476E+00
         21   -1    0    0  504  501  0.00000000000E+00  0.00000000000E+00  0.84405794573E+01  0.84405794573E+01  0.00000000000E+00 0.  1.
         21   -1    0    0  503  502 -0.00000000000E+00 -0.00000000000E+00 -0.17665200966E+03  0.17665200966E+03  0.00000000000E+00 0.  1.
         21    1    1    2  503  501 -0.16023112531E+02 -0.15072509995E+02 -0.80459077492E+01  0.23423435363E+02  0.00000000000E+00 0.  1.
         21    1    1    2  504  502  0.16023112531E+02  0.15072509995E+02 -0.16016552245E+03  0.16166915375E+03  0.00000000000E+00 0.  1.
</event>
<event>
 4    1  0.2967296E+006  0.3913242E+02  0.7546771E-02  0.1353646E+00
         21   -1    0    0  503  501  0.00000000000E+00  0.00000000000E+00  0.11691068801E+03  0.11691068801E+03  0.00000000000E+00 0. -1.
         21   -1    0    0  501  502 -0.00000000000E+00 -0.00000000000E+00 -0.19217266438E+02  0.19217266438E+02  0.00000000000E+00 0.  1.
         21    1    1    2  503  504 -0.37374253365E+02 -0.11597920575E+02  0.87253314563E+02  0.95626813596E+02  0.00000000000E+00 0. -1.
         21    1    1    2  504  502  0.37374253365E+02  0.11597920575E+02  0.10440107013E+02  0.40501140857E+02  0.00000000000E+00 0.  1.
</event>
<event>
 4    1  0.2967296E+006  0.3133183E+02  0.7546771E-02  0.1408365E+00
         21   -1    0    0  503  501  0.00000000000E+00  0.00000000000E+00  0.23388001228E+02  0.23388001228E+02  0.00000000000E+00 0. -1.
         21   -1    0    0  501  502 -0.00000000000E+00 -0.00000000000E+00 -0.10722172619E+03  0.10722172619E+03  0.00000000000E+00 0.  1.
         21    1    1    2  503  504 -0.15405322594E+02 -0.27282957908E+02  0.90264780199E+01  0.32606150676E+02  0.00000000000E+00 0. -1.
         21    1    1    2  504  502  0.15405322594E+02  0.27282957908E+02 -0.92860202986E+02  0.98003576746E+02  0.00000000000E+00 0.  1.
</event>
<event>
 4    1  0.2967296E+006  0.2066890E+02  0.7546771E-02  0.1524045E+00
         21   -1    0    0  503  501  0.00000000000E+00  0.00000000000E+00  0.38493862375E+00  0.38493862375E+00  0.00000000000E+00 0. -1.
         21   -1    0    0  504  502 -0.00000000000E+00 -0.00000000000E+00 -0.12745675569E+04  0.12745675569E+04  0.00000000000E+00 0. -1.
         21    1    1    2  503  502 -0.76214989445E+01 -0.19212401613E+02 -0.40788701385E+03  0.40841035698E+03  0.00000000000E+00 0. -1.
         21    1    1    2  504  501  0.76214989445E+01  0.19212401613E+02 -0.86629560440E+03  0.86654213851E+03  0.00000000000E+00 0. -1.
</event>
<event>
 4    1  0.2967296E+006  0.2875153E+02  0.7546771E-02  0.1430765E+00
         21   -1    0    0  503  501  0.00000000000E+00  0.00000000000E+00  0.73070211048E+02  0.73070211048E+02  0.00000000000E+00 0.  1.
         21   -1    0    0  504  502 -0.00000000000E+00 -0.00000000000E+00 -0.55632010549E+02  0.55632010549E+02  0.00000000000E+00 0.  1.
         21    1    1    2  503  502  0.25591235422E+02 -0.13104936732E+02 -0.48717430742E+02  0.56568885046E+02  0.00000000000E+00 0.  1.
         21    1    1    2  504  501 -0.25591235422E+02  0.13104936732E+02  0.66155631241E+02  0.72133336551E+02  0.00000000000E+00 0.  1.
</event>
<event>
 4    1  0.2967296E+006  0.2457275E+02  0.7546771E-02  0.1473640E+00
         21   -1    0    0  502  501  0.00000000000E+00  0.00000000000E+00  0.20977299762E+01  0.20977299762E+01  0.00000000000E+00 0.  1.
         21   -1    0    0  504  502 -0.00000000000E+00 -0.00000000000E+00 -0.32782697111E+03  0.32782697111E+03  0.00000000000E+00 0.  1.
         21    1    1    2  503  501 -0.10929389539E+02  0.22008378450E+02 -0.10525477827E+03  0.10808509900E+03  0.00000000000E+00 0.  1.
         21    1    1    2  504  503  0.10929389539E+02 -0.22008378450E+02 -0.22047446286E+03  0.22183960208E+03  0.00000000000E+00 0.  1.
</event>
