<event>
 4    1  0.6089441E+003  0.2007704E+02  0.7546771E-02  0.1532861E+00
          2   -1    0    0  502    0  0.00000000000E+00  0.00000000000E+00  0.15798711109E+04  0.15798711109E+04  0.00000000000E+00 0. -1.
          2   -1    0    0  501    0 -0.00000000000E+00 -0.00000000000E+00 -0.38290411533E+00  0.38290411533E+00  0.00000000000E+00 0. -1.
          2    1    1    2  501    0 -0.19895836457E+02 -0.26913156384E+01  0.12461562832E+04  0.12463180050E+04  0.00000000000E+00 0. -1.
          2    1    1    2  502    0  0.19895836457E+02  0.26913156384E+01  0.33333192353E+03  0.33393600994E+03  0.00000000000E+00 0. -1.
</event>
<event>
 4    1  0.6089441E+003  0.2658361E+02  0.7546771E-02  0.1451836E+00
          2   -1    0    0  502    0  0.00000000000E+00  0.00000000000E+00  0.98012311845E+03  0.98012311845E+03  0.00000000000E+00 0. -1.
          2   -1    0    0  501    0 -0.00000000000E+00 -0.00000000000E+00 -0.32347750989E+01  0.32347750989E+01  0.00000000000E+00 0. -1.
          2    1    1    2  501    0  0.16759356868E+02  0.20635219853E+02  0.92187625154E+03  0.92225945997E+03  0.00000000000E+00 0. -1.
          2    1    1    2  502    0 -0.16759356868E+02 -0.20635219853E+02  0.55012091809E+02  0.61098433582E+02  0.00000000000E+00 0. -1.
</event>
<event>
 4    1  0.6089441E+003  0.2088884E+02  0.7546771E-02  0.1520858E+00
          2   -1    0    0  502    0  0.00000000000E+00  0.00000000000E+00  0.28490362898E+01  0.28490362898E+01  0.00000000000E+00 0.  1.
          2   -1    0    0  501    0 -0.00000000000E+00 -0.00000000000E+00 -0.31965081736E+03  0.31965081736E+03  0.00000000000E+00 0. -1.
          2    1    1    2  501    0 -0.20873039160E+02 -0.81227056752E+00 -0.27477692589E+03  0.27556977800E+03  0.00000000000E+00 0. -1.
          2    1    1    2  502    0  0.20873039160E+02  0.81227056752E+00 -0.42024855179E+02  0.46930075645E+02  0.00000000000E+00 0.  1.
</event>
<event>
 4    1  0.6089441E+003  0.3047719E+02  0.7546771E-02  0.1415494E+00
          2   -1    0    0  501    0  0.00000000000E+00  0.00000000000E+00  0.18523741659E+04  0.18523741659E+04  0.00000000000E+00 0.  1.
          2   -1    0    0  502    0 -0.00000000000E+00 -0.00000000000E+00 -0.49667167471E+01  0.49667167471E+01  0.00000000000E+00 0.  1.
          2    1    1    2  501    0 -0.30454827483E+02  0.11673528735E+01  0.43159866071E+02  0.52835908897E+02  0.00000000000E+00 0.  1.
          2    1    1    2  502    0  0.30454827483E+02 -0.11673528735E+01  0.18042475831E+04  0.18045049738E+04  0.00000000000E+00 0.  1.
</event>
<event>
 4    1  0.6089441E+003  0.2135539E+02  0.7546771E-02  0.1514251E+00
          2   -1    0    0  502    0  0.00000000000E+00  0.00000000000E+00  0.13650848576E+04  0.13650848576E+04  0.00000000000E+00 0.  1.
          2   -1    0    0  501    0 -0.00000000000E+00 -0.00000000000E+00 -0.21653884238E+02  0.21653884238E+02  0.00000000000E+00 0. -1.
          2    1    1    2  501    0 -0.18306072766E+02 -0.10997285520E+02  0.13597152937E+04  0.13598829849E+04  0.00000000000E+00 0.  1.
          2    1    1    2  502    0  0.18306072766E+02  0.10997285520E+02 -0.16284320397E+02  0.26855756920E+02  0.00000000000E+00 0. -1.
</event>
<event>
 4    1  0.6089441E+003  0.2447401E+02  0.7546771E-02  0.1474774E+00
          2   -1    0    0  502    0  0.00000000000E+00  0.00000000000E+00  0.41389608668E+03  0.41389608668E+03  0.00000000000E+00 0. -1.
          2   -1    0    0  501    0 -0.00000000000E+00 -0.00000000000E+00 -0.40992450135E+03  0.40992450135E+03  0.00000000000E+00 0.  1.
          2    1    1    2  501    0  0.24269451871E+02  0.31576712674E+01  0.41316835457E+03  0.41389257833E+03  0.00000000000E+00 0. -1.
          2    1    1    2  502    0 -0.24269451871E+02 -0.31576712674E+01 -0.40919676924E+03  0.40992800970E+03  0.00000000000E+00 0.  1.
</event>
<event>
 4    1  0.6089441E+003  0.3368077E+02  0.7546771E-02  0.1390083E+00
          2   -1    0    0  501    0  0.00000000000E+00  0.00000000000E+00  0.15474745786E+03  0.15474745786E+03  0.00000000000E+00 0. -1.
          2   -1    0    0  502    0 -0.00000000000E+00 -0.00000000000E+00 -0.12658312829E+03  0.12658312829E+03  0.00000000000E+00 0. -1.
          2    1    1    2  501    0 -0.11363789628E+02 -0.31705814892E+02 -0.12244931872E+03  0.12699696873E+03  0.00000000000E+00 0. -1.
          2    1    1    2  502    0  0.11363789628E+02  0.31705814892E+02  0.15061364829E+03  0.15433361741E+03  0.00000000000E+00 0. -1.
</event>
<event>
 4    1  0.6089441E+003  0.2434602E+02  0.7546771E-02  0.1476254E+00
          2   -1    0    0  502    0  0.00000000000E+00  0.00000000000E+00  0.12564197272E+04  0.12564197272E+04  0.00000000000E+00 0. -1.
          2   -1    0    0  501    0 -0.00000000000E+00 -0.00000000000E+00 -0.18952877525E+03  0.18952877525E+03  0.00000000000E+00 0. -1.
          2    1    1    2  501    0  0.23332514324E+02  0.69514491789E+01  0.12555193810E+04  0.12557554081E+04  0.00000000000E+00 0. -1.
          2    1    1    2  502    0 -0.23332514324E+02 -0.69514491789E+01 -0.18862842908E+03  0.19019309432E+03  0.00000000000E+00 0. -1.
</event>
<event>
 4    1  0.6089441E+003  0.2252675E+02  0.7546771E-02  0.1498528E+00
          2   -1    0    0  501    0  0.00000000000E+00  0.00000000000E+00  0.93711569606E+03  0.93711569606E+03  0.00000000000E+00 0. -1.
          2   -1    0    0  502    0 -0.00000000000E+00 -0.00000000000E+00 -0.60187683003E+01  0.60187683003E+01  0.00000000000E+00 0.  1.
          2    1    1    2  501    0  0.21096718476E+02 -0.78982996016E+01  0.15694513114E+02  0.27454915934E+02  0.00000000000E+00 0.  1.
          2    1    1    2  502    0 -0.21096718476E+02  0.78982996016E+01  0.91540241464E+03  0.91567954842E+03  0.00000000000E+00 0. -1.
</event>
<event>
 4    1  0.6089441E+003  0.2288937E+02  0.7546771E-02  0.1493892E+00
          2   -1    0    0  502    0  0.00000000000E+00  0.00000000000E+00  0.89486549115E+03  0.89486549115E+03  0.00000000000E+00 0. -1.
          2   -1    0    0  501    0 -0.00000000000E+00 -0.00000000000E+00 -0.13562590284E+01  0.13562590284E+01  0.00000000000E+00 0. -1.
          2    1    1    2  501    0 -0.19336501990E+02 -0.12248380914E+02  0.78457041652E+03  0.78490423723E+03  0.00000000000E+00 0. -1.
          2    1    1    2  502    0  0.19336501990E+02  0.12248380914E+02  0.10893881560E+03  0.11131751295E+03  0.00000000000E+00 0. -1.
</event>
<event>
 4    1  0.6089441E+003  0.3711720E+02  0.7546771E-02  0.1366261E+00
          2   -1    0    0  502    0  0.00000000000E+00  0.00000000000E+00  0.13897959041E+03  0.13897959041E+03  0.00000000000E+00 0. -1.
          2   -1    0    0  501    0 -0.00000000000E+00 -0.00000000000E+00 -0.10141372428E+02  0.10141372428E+02  0.00000000000E+00 0. -1.
          2    1    1    2  501    0  0.64906165429E+00 -0.37111523430E+02  0.75611086829E+02  0.84230178106E+02  0.00000000000E+00 0. -1.
          2    1    1    2  502    0 -0.64906165429E+00  0.37111523430E+02  0.53227131152E+02  0.64890784731E+02  0.00000000000E+00 0. -1.
</event>
<event>
 4    1  0.6089441E+003  0.8337998E+02  0.7546771E-02  0.1196211E+00
          2   -1    0    0  501    0  0.00000000000E+00  0.00000000000E+00  0.96700650570E+02  0.96700650570E+02  0.00000000000E+00 0.  1.
          2   -1    0    0  502    0 -0.00000000000E+00 -0.00000000000E+00 -0.66505745048E+03  0.66505745048E+03  0.00000000000E+00 0.  1.
          2    1    1    2  501    0 -0.72669321654E+02  0.40882644539E+02 -0.64388185013E+03  0.64925808263E+03  0.00000000000E+00 0.  1.
          2    1    1    2  502    0  0.72669321654E+02 -0.40882644539E+02  0.75525050219E+02  0.11250001842E+03  0.00000000000E+00 0.  1.
</event>
<event>
 4    1  0.6089441E+003  0.5867363E+02  0.7546771E-02  0.1264407E+00
          2   -1    0    0  502    0  0.00000000000E+00  0.00000000000E+00  0.10386799157E+04  0.10386799157E+04  0.00000000000E+00 0. -1.
          2   -1    0    0  501    0 -0.00000000000E+00 -0.00000000000E+00 -0.14092158658E+03  0.14092158658E+03  0.00000000000E+00 0.  1.
          2    1    1    2  501    0 -0.17690908730E+02  0.55943064139E+02  0.10317027607E+04  0.10333698182E+04  0.00000000000E+00 0. -1.
          2    1    1    2  502    0  0.17690908730E+02 -0.55943064139E+02 -0.13394443159E+03  0.14623168409E+03  0.00000000000E+00 0.  1.
</event>
<event>
 4    1  0.6089441E+003  0.3044396E+02  0.7546771E-02  0.1415777E+00
          2   -1    0    0  501    0  0.00000000000E+00  0.00000000000E+00  0.24818760335E+01  0.24818760335E+01  0.00000000000E+00 0. -1.
          2   -1    0    0  502    0 -0.00000000000E+00 -0.00000000000E+00 -0.37544385099E+03  0.37544385099E+03  0.00000000000E+00 0.  1.
          2    1    1    2  501    0 -0.13105022159E+02 -0.27478953029E+02 -0.17267969839E+03  0.17534284331E+03  0.00000000000E+00 0. -1.
          2    1    1    2  502    0  0.13105022159E+02  0.27478953029E+02 -0.20028227657E+03  0.20258288371E+03  0.00000000000E+00 0.  1.
</event>
<event>
 4    1  0.6089441E+003  0.3404504E+02  0.7546771E-02  0.1387404E+00
          2   -1    0    0  501    0  0.00000000000E+00  0.00000000000E+00  0.19843725174E+03  0.19843725174E+03  0.00000000000E+00 0. -1.
          2   -1    0    0  502    0 -0.00000000000E+00 -0.00000000000E+00 -0.80314237713E+01  0.80314237713E+01  0.00000000000E+00 0.  1.
          2    1    1    2  501    0  0.14625329060E+02  0.30743523495E+02  0.41289637727E+02  0.53515405919E+02  0.00000000000E+00 0.  1.
          2    1    1    2  502    0 -0.14625329060E+02 -0.30743523495E+02  0.14911619024E+03  0.15295326959E+03  0.00000000000E+00 0. -1.
</event>
<event>
 4    1  0.6089441E+003  0.2536396E+02  0.7546771E-02  0.1464773E+00
          2   -1    0    0  502    0  0.00000000000E+00  0.00000000000E+00  0.11719373892E+01  0.11719373892E+01  0.00000000000E+00 0. -1.
          2   -1    0    0  501    0 -0.00000000000E+00 -0.00000000000E+00 -0.12046228304E+04  0.12046228304E+04  0.00000000000E+00 0. -1.
          2    1    1    2  501    0 -0.19957817556E+02  0.15652987493E+02 -0.15692754590E+03  0.15896410023E+03  0.00000000000E+00 0. -1.
          2    1    1    2  502    0  0.19957817556E+02 -0.15652987493E+02 -0.10465233471E+04  0.10468306676E+04  0.00000000000E+00 0. -1.
</event>
<event>
 4    1  0.6089441E+003  0.6403064E+02  0.7546771E-02  0.1246720E+00
          2   -1    0    0  501    0  0.00000000000E+00  0.00000000000E+00  0.27673366196E+02  0.27673366196E+02  0.00000000000E+00 0.  1.
          2   -1    0    0  502    0 -0.00000000000E+00 -0.00000000000E+00 -0.28704033788E+04  0.28704033788E+04  0.00000000000E+00 0. -1.
          2    1    1    2  501    0  0.48810658650E+02 -0.41442032621E+02 -0.28325123621E+04  0.28332359951E+04  0.00000000000E+00 0. -1.
          2    1    1    2  502    0 -0.48810658650E+02  0.41442032621E+02 -0.10217650503E+02  0.64840749898E+02  0.00000000000E+00 0.  1.
</event>
<event>
 4    1  0.6089441E+003  0.3087357E+02  0.7546771E-02  0.1412154E+00
          2   -1    0    0  502    0  0.00000000000E+00  0.00000000000E+00  0.86809056491E+01  0.86809056491E+01  0.00000000000E+00 0.  1.
          2   -1    0    0  501    0 -0.00000000000E+00 -0.00000000000E+00 -0.49020868405E+03  0.49020868405E+03  0.00000000000E+00 0. -1.
          2    1    1    2  501    0  0.28226428811E+02  0.12507851248E+02 -0.21024342557E+02  0.37352384211E+02  0.00000000000E+00 0.  1.
          2    1    1    2  502    0 -0.28226428811E+02 -0.12507851248E+02 -0.46050343585E+03  0.46153720549E+03  0.00000000000E+00 0. -1.
</event>
<event>
 4    1  0.6089441E+003  0.2451893E+02  0.7546771E-02  0.1474258E+00
          2   -1    0    0  501    0  0.00000000000E+00  0.00000000000E+00  0.10099429354E+03  0.10099429354E+03  0.00000000000E+00 0. -1.
          2   -1    0    0  502    0 -0.00000000000E+00 -0.00000000000E+00 -0.16367235259E+04  0.16367235259E+04  0.00000000000E+00 0. -1.
          2    1    1    2  501    0  0.16804593955E+02  0.17854512072E+02 -0.16351421119E+04  0.16353259321E+04  0.00000000000E+00 0. -1.
          2    1    1    2  502    0 -0.16804593955E+02 -0.17854512072E+02  0.99412879543E+02  0.10239188737E+03  0.00000000000E+00 0. -1.
</event>
<event>
 4    1  0.6089441E+003  0.9199561E+02  0.7546771E-02  0.1178451E+00
          2   -1    0    0  501    0  0.00000000000E+00  0.00000000000E+00  0.22643525120E+04  0.22643525120E+04  0.00000000000E+00 0. -1.
          2   -1    0    0  502    0 -0.00000000000E+00 -0.00000000000E+00 -0.11970607196E+02  0.11970607196E+02  0.00000000000E+00 0. -1.
          2    1    1    2  501    0  0.22787235382E+02 -0.89128746124E+02  0.18229161287E+03  0.20418967556E+03  0.00000000000E+00 0. -1.
          2    1    1    2  502    0 -0.22787235382E+02  0.89128746124E+02  0.20700902920E+04  0.20721334437E+04  0.00000000000E+00 0. -1.
</event>
<event>
 4    1  0.6089441E+003  0.2112690E+02  0.7546771E-02  0.1517461E+00
          2   -1    0    0  501    0  0.00000000000E+00  0.00000000000E+00  0.62299785933E+03  0.62299785933E+03  0.00000000000E+00 0. -1.
          2   -1    0    0  502    0 -0.00000000000E+00 -0.00000000000E+00 -0.29461441937E+01  0.29461441937E+01  0.00000000000E+00 0. -1.
          2    1    1    2  501    0 -0.50235794245E+01 -0.20520958372E+02  0.37754940364E+02  0.43264091399E+02  0.00000000000E+00 0. -1.
          2    1    1    2  502    0  0.50235794245E+01  0.20520958372E+02  0.58229677477E+03  0.58267991212E+03  0.00000000000E+00 0. -1.
</event>
<event>
 4    1  0.6089441E+003  0.2155100E+02  0.7546771E-02  0.1511541E+00
          2   -1    0    0  502    0  0.00000000000E+00  0.00000000000E+00  0.10184053470E+02  0.10184053470E+02  0.00000000000E+00 0. -1.
          2   -1    0    0  501    0 -0.00000000000E+00 -0.00000000000E+00 -0.15610116301E+04  0.15610116301E+04  0.00000000000E+00 0. -1.
          2    1    1    2  501    0  0.16076970580E+01 -0.21490952651E+02 -0.13766903517E+01  0.21594930238E+02  0.00000000000E+00 0. -1.
          2    1    1    2  502    0 -0.16076970580E+01  0.21490952651E+02 -0.15494508862E+04  0.15496007533E+04  0.00000000000E+00 0. -1.
</event>
<event>
 4    1  0.6089441E+003  0.4658843E+02  0.7546771E-02  0.1313682E+00
          2   -1    0    0  502    0  0.00000000000E+00  0.00000000000E+00  0.25370598047E+03  0.25370598047E+03  0.00000000000E+00 0. -1.
          2   -1    0    0  501    0 -0.00000000000E+00 -0.00000000000E+00 -0.11628252353E+03  0.11628252353E+03  0.00000000000E+00 0. -1.
          2    1    1    2  501    0 -0.45621508739E+02 -0.94424446246E+01  0.24677081164E+03  0.25113007645E+03  0.00000000000E+00 0. -1.
          2    1    1    2  502    0  0.45621508739E+02  0.94424446246E+01 -0.10934735470E+03  0.11885842755E+03  0.00000000000E+00 0. -1.
</event>
<event>
 4    1  0.6089441E+003  0.2158047E+02  0.7546771E-02  0.1511136E+00
          2   -1    0    0  502    0  0.00000000000E+00  0.00000000000E+00  0.35888805527E+03  0.35888805527E+03  0.00000000000E+00 0.  1.
          2   -1    0    0  501    0 -0.00000000000E+00 -0.00000000000E+00 -0.63219906880E+02  0.63219906880E+02  0.00000000000E+00 0. -1.
          2    1    1    2  501    0 -0.15342153329E+02 -0.15176786803E+02  0.35671075511E+03  0.35736295183E+03  0.00000000000E+00 0.  1.
          2    1    1    2  502    0  0.15342153329E+02  0.15176786803E+02 -0.61042606721E+02  0.64745010323E+02  0.00000000000E+00 0. -1.
</event>
<event>
 4    1  0.6089441E+003  0.3292565E+02  0.7546771E-02  0.1395764E+00
          2   -1    0    0  502    0  0.00000000000E+00  0.00000000000E+00  0.61900823808E+02  0.61900823808E+02  0.00000000000E+00 0.  1.
          2   -1    0    0  501    0 -0.00000000000E+00 -0.00000000000E+00 -0.33166654688E+03  0.33166654688E+03  0.00000000000E+00 0. -1.
          2    1    1    2  501    0  0.32336397875E+02 -0.62012585361E+01  0.56634836832E+02  0.65510327262E+02  0.00000000000E+00 0.  1.
          2    1    1    2  502    0 -0.32336397875E+02  0.62012585361E+01 -0.32640055991E+03  0.32805704343E+03  0.00000000000E+00 0. -1.
</event>
<event>
 4    1  0.6089441E+003  0.4292719E+02  0.7546771E-02  0.1332137E+00
          2   -1    0    0  501    0  0.00000000000E+00  0.00000000000E+00  0.16798040763E+03  0.16798040763E+03  0.00000000000E+00 0. -1.
          2   -1    0    0  502    0 -0.00000000000E+00 -0.00000000000E+00 -0.37303484415E+02  0.37303484415E+02  0.00000000000E+00 0. -1.
          2    1    1    2  501    0 -0.34354311499E+02 -0.25739562153E+02 -0.20900676019E+02  0.47744968703E+02  0.00000000000E+00 0. -1.
          2    1    1    2  502    0  0.34354311499E+02  0.25739562153E+02  0.15157759924E+03  0.15753892335E+03  0.00000000000E+00 0. -1.
</event>
<event>
 4    1  0.6089441E+003  0.2024549E+02  0.7546771E-02  0.1530315E+00
          2   -1    0    0  501    0  0.00000000000E+00  0.00000000000E+00  0.84833632453E+03  0.84833632453E+03  0.00000000000E+00 0. -1.
          2   -1    0    0  502    0 -0.00000000000E+00 -0.00000000000E+00 -0.40523708818E+01  0.40523708818E+01  0.00000000000E+00 0. -1.
          2    1    1    2  501    0 -0.15942911525E+02 -0.12478116860E+02  0.22160973552E+02  0.30016471762E+02  0.00000000000E+00 0. -1.
          2    1    1    2  502    0  0.15942911525E+02  0.12478116860E+02  0.82212298010E+03  0.82237222365E+03  0.00000000000E+00 0. -1.
</event>
<event>
 4    1  0.6089441E+003  0.4007867E+02  0.7546771E-02  0.1348025E+00
          2   -1    0    0  502    0  0.00000000000E+00  0.00000000000E+00  0.16039731232E+04  0.16039731232E+04  0.00000000000E+00 0.  1.
          2   -1    0    0  501    0 -0.00000000000E+00 -0.00000000000E+00 -0.21131652860E+01  0.21131652860E+01  0.00000000000E+00 0. -1.
          2    1    1    2  501    0  0.35611865803E+02  0.18387351950E+02  0.13833936385E+04  0.13839740817E+04  0.00000000000E+00 0.  1.
          2    1    1    2  502    0 -0.35611865803E+02 -0.18387351950E+02  0.21846631944E+03  0.22211220684E+03  0.00000000000E+00 0. -1.
</event>
<event>
 4    1  0.6089441E+003  0.2209350E+02  0.7546771E-02  0.1504206E+00
          2   -1    0    0  502    0  0.00000000000E+00  0.00000000000E+00  0.29824519138E+02  0.29824519138E+02  0.00000000000E+00 0.  1.
          2   -1    0    0  501    0 -0.00000000000E+00 -0.00000000000E+00 -0.48732393001E+03  0.48732393001E+03  0.00000000000E+00 0.  1.
          2    1    1    2  501    0 -0.11168093520E+02 -0.19062956067E+02  0.25445406163E+02  0.33698535602E+02  0.00000000000E+00 0.  1.
          2    1    1    2  502    0  0.11168093520E+02  0.19062956067E+02 -0.48294481703E+03  0.48344991354E+03  0.00000000000E+00 0.  1.
</event>
<event>
 4    1  0.6089441E+003  0.3938285E+02  0.7546771E-02  0.1352141E+00
          2   -1    0    0  502    0  0.00000000000E+00  0.00000000000E+00  0.19621806949E+03  0.19621806949E+03  0.00000000000E+00 0.  1.
          2   -1    0    0  501    0 -0.00000000000E+00 -0.00000000000E+00 -0.25055279414E+02  0.25055279414E+02  0.00000000000E+00 0. -1.
          2    1    1    2  501    0 -0.92022826544E+01 -0.38292648966E+02  0.17711724310E+03  0.18144290224E+03  0.00000000000E+00 0.  1.
          2    1    1    2  502    0  0.92022826544E+01  0.38292648966E+02 -0.59544530193E+01  0.39830446666E+02  0.00000000000E+00 0. -1.
</event>
<event>
 4    1  0.6089441E+003  0.3673058E+02  0.7546771E-02  0.1368788E+00
          2   -1    0    0  502    0  0.00000000000E+00  0.00000000000E+00  0.57819538572E+02  0.57819538572E+02  0.00000000000E+00 0.  1.
          2   -1    0    0  501    0 -0.00000000000E+00 -0.00000000000E+00 -0.38090681289E+02  0.38090681289E+02  0.00000000000E+00 0.  1.
          2    1    1    2  501    0  0.88228784718E+01  0.35655186431E+02  0.39713195023E+02  0.54095040095E+02  0.00000000000E+00 0.  1.
          2    1    1    2  502    0 -0.88228784718E+01 -0.35655186431E+02 -0.19984337740E+02  0.41815179766E+02  0.00000000000E+00 0.  1.
</event>
<event>
 4    1  0.6089441E+003  0.3269335E+02  0.7546771E-02  0.1397548E+00
          2   -1    0    0  501    0  0.00000000000E+00  0.00000000000E+00  0.37596043545E+02  0.37596043545E+02  0.00000000000E+00 0. -1.
          2   -1    0    0  502    0 -0.00000000000E+00 -0.00000000000E+00 -0.21600790588E+03  0.21600790588E+03  0.00000000000E+00 0. -1.
          2    1    1    2  501    0  0.31321154752E+02 -0.93723257743E+01 -0.20736907689E+03  0.20993043914E+03  0.00000000000E+00 0. -1.
          2    1    1    2  502    0 -0.31321154752E+02  0.93723257743E+01  0.28957214561E+02  0.43673510284E+02  0.00000000000E+00 0. -1.
</event>
<event>
 4    1  0.6089441E+003  0.2088339E+02  0.7546771E-02  0.1520936E+00
          2   -1    0    0  501    0  0.00000000000E+00  0.00000000000E+00  0.20162474988E+03  0.20162474988E+03  0.00000000000E+00 0.  1.
          2   -1    0    0  502    0 -0.00000000000E+00 -0.00000000000E+00 -0.23157354455E+01  0.23157354455E+01  0.00000000000E+00 0. -1.
          2    1    1    2  501    0  0.15390842291E+02  0.14115169436E+02  0.12584157708E+03  0.12756260642E+03  0.00000000000E+00 0.  1.
          2    1    1    2  502    0 -0.15390842291E+02 -0.14115169436E+02  0.73467437350E+02  0.76377878901E+02  0.00000000000E+00 0. -1.
</event>
<event>
 4    1  0.6089441E+003  0.2224439E+02  0.7546771E-02  0.1502211E+00
          2   -1    0    0  501    0  0.00000000000E+00  0.00000000000E+00  0.32098050136E+02  0.32098050136E+02  0.00000000000E+00 0. -1.
          2   -1    0    0  502    0 -0.00000000000E+00 -0.00000000000E+00 -0.89650170046E+02  0.89650170046E+02  0.00000000000E+00 0. -1.
          2    1    1    2  501    0  0.20553064708E+02  0.85079077550E+01 -0.84169706968E+02  0.87059476993E+02  0.00000000000E+00 0. -1.
          2    1    1    2  502    0 -0.20553064708E+02 -0.85079077550E+01  0.26617587058E+02  0.34688743189E+02  0.00000000000E+00 0. -1.
</event>
<event>
 4    1  0.6089441E+003  0.3805621E+02  0.7546771E-02  0.1360269E+00
          2   -1    0    0  502    0  0.00000000000E+00  0.00000000000E+00  0.24226573769E+03  0.24226573769E+03  0.00000000000E+00 0. -1.
          2   -1    0    0  501    0 -0.00000000000E+00 -0.00000000000E+00 -0.40439031080E+02  0.40439031080E+02  0.00000000000E+00 0.  1.
          2    1    1    2  501    0  0.41645889427E+01  0.37827654266E+02  0.23140016653E+03  0.23450866146E+03  0.00000000000E+00 0. -1.
          2    1    1    2  502    0 -0.41645889427E+01 -0.37827654266E+02 -0.29573459920E+02  0.48196107312E+02  0.00000000000E+00 0.  1.
</event>
<event>
 4    1  0.6089441E+003  0.2657979E+02  0.7546771E-02  0.1451876E+00
          2   -1    0    0  501    0  0.00000000000E+00  0.00000000000E+00  0.32769366206E+02  0.32769366206E+02  0.00000000000E+00 0.  1.
          2   -1    0    0  502    0 -0.00000000000E+00 -0.00000000000E+00 -0.37437049975E+02  0.37437049975E+02  0.00000000000E+00 0. -1.
          2    1    1    2  501    0 -0.26538638986E+02 -0.14783867608E+01 -0.25194583535E+02  0.36623107817E+02  0.00000000000E+00 0. -1.
          2    1    1    2  502    0  0.26538638986E+02  0.14783867608E+01  0.20526899766E+02  0.33583308364E+02  0.00000000000E+00 0.  1.
</event>
<event>
 4    1  0.6089441E+003  0.2708407E+02  0.7546771E-02  0.1446765E+00
          2   -1    0    0  502    0  0.00000000000E+00  0.00000000000E+00  0.58545726012E+02  0.58545726012E+02  0.00000000000E+00 0.  1.
          2   -1    0    0  501    0 -0.00000000000E+00 -0.00000000000E+00 -0.10159425281E+03  0.10159425281E+03  0.00000000000E+00 0.  1.
          2    1    1    2  501    0  0.79054223384E+01  0.25904656975E+02  0.53445856568E+02  0.59916663288E+02  0.00000000000E+00 0.  1.
          2    1    1    2  502    0 -0.79054223384E+01 -0.25904656975E+02 -0.96494383362E+02  0.10022331553E+03  0.00000000000E+00 0.  1.
</event>
<event>
 4    1  0.6089441E+003  0.2389362E+02  0.7546771E-02  0.1481572E+00
          2   -1    0    0  501    0  0.00000000000E+00  0.00000000000E+00  0.22287401252E+03  0.22287401252E+03  0.00000000000E+00 0.  1.
          2   -1    0    0  502    0 -0.00000000000E+00 -0.00000000000E+00 -0.87889589819E+01  0.87889589819E+01  0.00000000000E+00 0.  1.
          2    1    1    2  501    0  0.36906092661E+01  0.23606870795E+02  0.95410291003E+01  0.25728120448E+02  0.00000000000E+00 0.  1.
          2    1    1    2  502    0 -0.36906092661E+01 -0.23606870795E+02  0.20454402444E+03  0.20593485106E+03  0.00000000000E+00 0.  1.
</event>
<event>
 4    1  0.6089441E+003  0.2022819E+02  0.7546771E-02  0.1530576E+00
          2   -1    0    0  501    0  0.00000000000E+00  0.00000000000E+00  0.88722206045E+02  0.88722206045E+02  0.00000000000E+00 0. -1.
          2   -1    0    0  502    0 -0.00000000000E+00 -0.00000000000E+00 -0.15576707035E+03  0.15576707035E+03  0.00000000000E+00 0. -1.
          2    1    1    2  501    0 -0.18339199875E+01 -0.20144886821E+02 -0.15394377566E+03  0.15526707891E+03  0.00000000000E+00 0. -1.
          2    1    1    2  502    0  0.18339199875E+01  0.20144886821E+02  0.86898911362E+02  0.89222197481E+02  0.00000000000E+00 0. -1.
</event>
<event>
 4    1  0.6089441E+003  0.3226658E+02  0.7546771E-02  0.1400871E+00
          2   -1    0    0  501    0  0.00000000000E+00  0.00000000000E+00  0.20816021295E+04  0.20816021295E+04  0.00000000000E+00 0. -1.
          2   -1    0    0  502    0 -0.00000000000E+00 -0.00000000000E+00 -0.40748210579E+02  0.40748210579E+02  0.00000000000E+00 0.  1.
          2    1    1    2  501    0  0.18433274263E+02 -0.26482953119E+02 -0.34215466672E+02  0.47030102759E+02  0.00000000000E+00 0.  1.
          2    1    1    2  502    0 -0.18433274263E+02  0.26482953119E+02  0.20750693856E+04  0.20753202374E+04  0.00000000000E+00 0. -1.
</event>
<event>
 4    1  0.6089441E+003  0.3328825E+02  0.7546771E-02  0.1393014E+00
          2   -1    0    0  501    0  0.00000000000E+00  0.00000000000E+00  0.32952562599E+03  0.32952562599E+03  0.00000000000E+00 0. -1.
          2   -1    0    0  502    0 -0.00000000000E+00 -0.00000000000E+00 -0.26511103579E+02  0.26511103579E+02  0.00000000000E+00 0. -1.
          2    1    1    2  501    0 -0.24536984829E+02 -0.22495427819E+02 -0.14838248903E+02  0.36445596823E+02  0.00000000000E+00 0. -1.
          2    1    1    2  502    0  0.24536984829E+02  0.22495427819E+02  0.31785277132E+03  0.31959113275E+03  0.00000000000E+00 0. -1.
</event>
<event>
 4    1  0.6089441E+003  0.3269879E+02  0.7546771E-02  0.1397506E+00
          2   -1    0    0  501    0  0.00000000000E+00  0.00000000000E+00  0.45501301079E+03  0.45501301079E+03  0.00000000000E+00 0.  1.
          2   -1    0    0  502    0 -0.00000000000E+00 -0.00000000000E+00 -0.10651613941E+02  0.10651613941E+02  0.00000000000E+00 0.  1.
          2    1    1    2  501    0 -0.31511704323E+02 -0.87306036613E+01  0.16629122066E+02  0.36684310684E+02  0.00000000000E+00 0.  1.
          2    1    1    2  502    0  0.31511704323E+02  0.87306036613E+01  0.42773227478E+03  0.42898031405E+03  0.00000000000E+00 0.  1.
</event>
<event>
 4    1  0.6089441E+003  0.2990690E+02  0.7546771E-02  0.1420407E+00
          2   -1    0    0  502    0  0.00000000000E+00  0.00000000000E+00  0.20864997722E+01  0.20864997722E+01  0.00000000000E+00 0. -1.
          2   -1    0    0  501    0 -0.00000000000E+00 -0.00000000000E+00 -0.78537299273E+03  0.78537299273E+03  0.00000000000E+00 0.  1.
          2    1    1    2  501    0 -0.27780982969E+02  0.11074274070E+02 -0.12629707044E+03  0.12978972441E+03  0.00000000000E+00 0. -1.
          2    1    1    2  502    0  0.27780982969E+02 -0.11074274070E+02 -0.65698942252E+03  0.65766976809E+03  0.00000000000E+00 0.  1.
</event>
<event>
 4    1  0.6089441E+003  0.3140929E+02  0.7546771E-02  0.1407733E+00
          2   -1    0    0  502    0  0.00000000000E+00  0.00000000000E+00  0.62287262960E+03  0.62287262960E+03  0.00000000000E+00 0.  1.
          2   -1    0    0  501    0 -0.00000000000E+00 -0.00000000000E+00 -0.44706556631E+01  0.44706556631E+01  0.00000000000E+00 0.  1.
          2    1    1    2  501    0  0.25620350444E+02  0.18169778272E+02  0.56125734155E+03  0.56213552338E+03  0.00000000000E+00 0.  1.
          2    1    1    2  502    0 -0.25620350444E+02 -0.18169778272E+02  0.57144632380E+02  0.65207761878E+02  0.00000000000E+00 0.  1.
</event>
<event>
 4    1  0.6089441E+003  0.2362731E+02  0.7546771E-02  0.1484768E+00
          2   -1    0    0  501    0  0.00000000000E+00  0.00000000000E+00  0.39421136651E+01  0.39421136651E+01  0.00000000000E+00 0.  1.
          2   -1    0    0  502    0 -0.00000000000E+00 -0.00000000000E+00 -0.15112294358E+04  0.15112294358E+04  0.00000000000E+00 0. -1.
          2    1    1    2  501    0  0.21136523959E+02  0.10559219928E+02 -0.14748612018E+04  0.14750504446E+04  0.00000000000E+00 0. -1.
          2    1    1    2  502    0 -0.21136523959E+02 -0.10559219928E+02 -0.32426120415E+02  0.40121104867E+02  0.00000000000E+00 0.  1.
</event>
<event>
 4    1  0.6089441E+003  0.2600588E+02  0.7546771E-02  0.1457858E+00
          2   -1    0    0  501    0  0.00000000000E+00  0.00000000000E+00  0.42914488765E+01  0.42914488765E+01  0.00000000000E+00 0.  1.
          2   -1    0    0  502    0 -0.00000000000E+00 -0.00000000000E+00 -0.50220461721E+03  0.50220461721E+03  0.00000000000E+00 0.  1.
          2    1    1    2  501    0  0.20621728992E+02  0.15844552440E+02 -0.45873954499E+03  0.45947608826E+03  0.00000000000E+00 0.  1.
          2    1    1    2  502    0 -0.20621728992E+02 -0.15844552440E+02 -0.39173623347E+02  0.47019977827E+02  0.00000000000E+00 0.  1.
</event>
<event>
 4    1  0.6089441E+003  0.2200456E+02  0.7546771E-02  0.1505391E+00
          2   -1    0    0  501    0  0.00000000000E+00  0.00000000000E+00  0.54626815826E+01  0.54626815826E+01  0.00000000000E+00 0.  1.
          2   -1    0    0  502    0 -0.00000000000E+00 -0.00000000000E+00 -0.13817621990E+03  0.13817621990E+03  0.00000000000E+00 0.  1.
          2    1    1    2  501    0 -0.21710725000E+02  0.35839859834E+01 -0.10935950964E+03  0.11155134641E+03  0.00000000000E+00 0.  1.
          2    1    1    2  502    0  0.21710725000E+02 -0.35839859834E+01 -0.23354028678E+02  0.32087555080E+02  0.00000000000E+00 0.  1.
</event>
<event>
 4    1  0.6089441E+003  0.5158551E+02  0.7546771E-02  0.1291441E+00
          2   -1    0    0  501    0  0.00000000000E+00  0.00000000000E+00  0.11991448478E+03  0.11991448478E+03  0.00000000000E+00 0. -1.
          2   -1    0    0  502    0 -0.00000000000E+00 -0.00000000000E+00 -0.24636987746E+02  0.24636987746E+02  0.00000000000E+00 0. -1.
          2    1    1    2  501    0 -0.79998532338E+00 -0.51579306296E+02  0.70410393552E+02  0.87285098010E+02  0.00000000000E+00 0. -1.
          2    1    1    2  502    0  0.79998532338E+00  0.51579306296E+02  0.24867103480E+02  0.57266374514E+02  0.00000000000E+00 0. -1.
</event>
<event>
 4    1  0.6089441E+003  0.2722668E+02  0.7546771E-02  0.1445344E+00
          2   -1    0    0  502    0  0.00000000000E+00  0.00000000000E+00  0.16406742769E+03  0.16406742769E+03  0.00000000000E+00 0.  1.
          2   -1    0    0  501    0 -0.00000000000E+00 -0.00000000000E+00 -0.44133643327E+02  0.44133643327E+02  0.00000000000E+00 0. -1.
          2    1    1    2  501    0 -0.27145980397E+02 -0.20947552163E+01  0.15859489520E+03  0.16091498698E+03  0.00000000000E+00 0.  1.
          2    1    1    2  502    0  0.27145980397E+02  0.20947552163E+01 -0.38661110844E+02  0.47286084030E+02  0.00000000000E+00 0. -1.
</event>
<event>
 4    1  0.6089441E+003  0.2336975E+02  0.7546771E-02  0.1487907E+00
          2   -1    0    0  502    0  0.00000000000E+00  0.00000000000E+00  0.25253585735E+02  0.25253585735E+02  0.00000000000E+00 0. -1.
          2   -1    0    0  501    0 -0.00000000000E+00 -0.00000000000E+00 -0.21653491304E+02  0.21653491304E+02  0.00000000000E+00 0. -1.
          2    1    1    2  501    0  0.17563501252E+02 -0.15416510022E+02  0.26288947939E+01  0.23517152152E+02  0.00000000000E+00 0. -1.
          2    1    1    2  502    0 -0.17563501252E+02  0.15416510022E+02  0.97119963772E+00  0.23389924887E+02  0.00000000000E+00 0. -1.
</event>
<event>
 4    1  0.6089441E+003  0.2224993E+02  0.7546771E-02  0.1502138E+00
          2   -1    0    0  501    0  0.00000000000E+00  0.00000000000E+00  0.17510519633E+03  0.17510519633E+03  0.00000000000E+00 0. -1.
          2   -1    0    0  502    0 -0.00000000000E+00 -0.00000000000E+00 -0.27790277655E+02  0.27790277655E+02  0.00000000000E+00 0. -1.
          2    1    1    2  501    0 -0.52022666159E+01 -0.21633209572E+02 -0.22491566631E+02  0.31637476255E+02  0.00000000000E+00 0. -1.
          2    1    1    2  502    0  0.52022666159E+01  0.21633209572E+02  0.16980648531E+03  0.17125799773E+03  0.00000000000E+00 0. -1.
</event>
<event>
 4    1  0.6089441E+003  0.7781158E+02  0.7546771E-02  0.1209021E+00
          2   -1    0    0  502    0  0.00000000000E+00  0.00000000000E+00  0.12694210587E+04  0.12694210587E+04  0.00000000000E+00 0.  1.
          2   -1    0    0  501    0 -0.00000000000E+00 -0.00000000000E+00 -0.31047843910E+04  0.31047843910E+04  0.00000000000E+00 0. -1.
          2    1    1    2  501    0  0.56654503413E+02 -0.53337694850E+02  0.12677404855E+04  0.12701262067E+04  0.00000000000E+00 0.  1.
          2    1    1    2  502    0 -0.56654503413E+02  0.53337694850E+02 -0.31031038179E+04  0.31040792430E+04  0.00000000000E+00 0. -1.
</event>
<event>
 4    1  0.6089441E+003  0.3676720E+02  0.7546771E-02  0.1368547E+00
          2   -1    0    0  501    0  0.00000000000E+00  0.00000000000E+00  0.60697128090E+02  0.60697128090E+02  0.00000000000E+00 0. -1.
          2   -1    0    0  502    0 -0.00000000000E+00 -0.00000000000E+00 -0.65565010936E+02  0.65565010936E+02  0.00000000000E+00 0.  1.
          2    1    1    2  501    0 -0.27754700312E+02 -0.24114379434E+02 -0.53733969831E+02  0.65108879569E+02  0.00000000000E+00 0.  1.
          2    1    1    2  502    0  0.27754700312E+02  0.24114379434E+02  0.48866086986E+02  0.61153259457E+02  0.00000000000E+00 0. -1.
</event>
<event>
 4    1  0.6089441E+003  0.2175509E+02  0.7546771E-02  0.1508751E+00
          2   -1    0    0  502    0  0.00000000000E+00  0.00000000000E+00  0.28930374601E+03  0.28930374601E+03  0.00000000000E+00 0. -1.
          2   -1    0    0  501    0 -0.00000000000E+00 -0.00000000000E+00 -0.63963160702E+02  0.63963160702E+02  0.00000000000E+00 0.  1.
          2    1    1    2  501    0 -0.21720206833E+02 -0.12315422577E+01  0.28703029908E+03  0.28785356811E+03  0.00000000000E+00 0. -1.
          2    1    1    2  502    0  0.21720206833E+02  0.12315422577E+01 -0.61689713777E+02  0.65413338602E+02  0.00000000000E+00 0.  1.
</event>
<event>
 4    1  0.6089441E+003  0.2261256E+02  0.7546771E-02  0.1497421E+00
          2   -1    0    0  502    0  0.00000000000E+00  0.00000000000E+00  0.18322298489E+03  0.18322298489E+03  0.00000000000E+00 0. -1.
          2   -1    0    0  501    0 -0.00000000000E+00 -0.00000000000E+00 -0.93661370467E+03  0.93661370467E+03  0.00000000000E+00 0. -1.
          2    1    1    2  501    0 -0.27474937459E+01 -0.22445029173E+02  0.18238819395E+03  0.18378460585E+03  0.00000000000E+00 0. -1.
          2    1    1    2  502    0  0.27474937459E+01  0.22445029173E+02 -0.93577891372E+03  0.93605208371E+03  0.00000000000E+00 0. -1.
</event>
<event>
 4    1  0.6089441E+003  0.3544735E+02  0.7546771E-02  0.1377445E+00
          2   -1    0    0  501    0  0.00000000000E+00  0.00000000000E+00  0.13822782536E+01  0.13822782536E+01  0.00000000000E+00 0. -1.
          2   -1    0    0  502    0 -0.00000000000E+00 -0.00000000000E+00 -0.13588688260E+04  0.13588688260E+04  0.00000000000E+00 0. -1.
          2    1    1    2  501    0  0.35208935180E+02 -0.41043556856E+01 -0.10700658651E+04  0.10706528244E+04  0.00000000000E+00 0. -1.
          2    1    1    2  502    0 -0.35208935180E+02  0.41043556856E+01 -0.28742068270E+03  0.28959827986E+03  0.00000000000E+00 0. -1.
</event>
<event>
 4    1  0.6089441E+003  0.2741225E+02  0.7546771E-02  0.1443510E+00
          2   -1    0    0  502    0  0.00000000000E+00  0.00000000000E+00  0.28474410952E+00  0.28474410952E+00  0.00000000000E+00 0. -1.
          2   -1    0    0  501    0 -0.00000000000E+00 -0.00000000000E+00 -0.26464328653E+04  0.26464328653E+04  0.00000000000E+00 0. -1.
          2    1    1    2  501    0 -0.27039123418E+02  0.45074634790E+01 -0.12528034945E+04  0.12531033586E+04  0.00000000000E+00 0. -1.
          2    1    1    2  502    0  0.27039123418E+02 -0.45074634790E+01 -0.13933446267E+04  0.13936142509E+04  0.00000000000E+00 0. -1.
</event>
<event>
 4    1  0.6089441E+003  0.2424619E+02  0.7546771E-02  0.1477416E+00
          2   -1    0    0  502    0  0.00000000000E+00  0.00000000000E+00  0.82831217928E+03  0.82831217928E+03  0.00000000000E+00 0.  1.
          2   -1    0    0  501    0 -0.00000000000E+00 -0.00000000000E+00 -0.61758236862E+01  0.61758236862E+01  0.00000000000E+00 0. -1.
          2    1    1    2  501    0  0.97000786831E+01  0.22221303054E+02  0.80360572179E+03  0.80397141362E+03  0.00000000000E+00 0.  1.
          2    1    1    2  502    0 -0.97000786831E+01 -0.22221303054E+02  0.18530633810E+02  0.30516589345E+02  0.00000000000E+00 0. -1.
</event>
<event>
 4    1  0.6089441E+003  0.2165843E+02  0.7546771E-02  0.1510068E+00
          2   -1    0    0  501    0  0.00000000000E+00  0.00000000000E+00  0.33161517753E+01  0.33161517753E+01  0.00000000000E+00 0.  1.
          2   -1    0    0  502    0 -0.00000000000E+00 -0.00000000000E+00 -0.12359318050E+04  0.12359318050E+04  0.00000000000E+00 0. -1.
          2    1    1    2  501    0 -0.18983020002E+02 -0.10427499518E+02 -0.11993958892E+04  0.11995914250E+04  0.00000000000E+00 0. -1.
          2    1    1    2  502    0  0.18983020002E+02  0.10427499518E+02 -0.33219764056E+02  0.39656531852E+02  0.00000000000E+00 0.  1.
</event>
<event>
 4    1  0.6089441E+003  0.2885847E+02  0.7546771E-02  0.1429782E+00
          2   -1    0    0  502    0  0.00000000000E+00  0.00000000000E+00  0.10412254965E+03  0.10412254965E+03  0.00000000000E+00 0.  1.
          2   -1    0    0  501    0 -0.00000000000E+00 -0.00000000000E+00 -0.17505002752E+04  0.17505002752E+04  0.00000000000E+00 0. -1.
          2    1    1    2  501    0  0.63352218877E+01  0.28154507291E+02  0.10200159103E+03  0.10600535784E+03  0.00000000000E+00 0.  1.
          2    1    1    2  502    0 -0.63352218877E+01 -0.28154507291E+02 -0.17483793166E+04  0.17486174670E+04  0.00000000000E+00 0. -1.
</event>
<event>
 4    1  0.6089441E+003  0.7248829E+02  0.7546771E-02  0.1222450E+00
          2   -1    0    0  501    0  0.00000000000E+00  0.00000000000E+00  0.10567356065E+04  0.10567356065E+04  0.00000000000E+00 0. -1.
          2   -1    0    0  502    0 -0.00000000000E+00 -0.00000000000E+00 -0.20825157652E+02  0.20825157652E+02  0.00000000000E+00 0.  1.
          2    1    1    2  501    0  0.57754972207E+02 -0.43805424706E+02  0.47877666654E+02  0.86872452553E+02  0.00000000000E+00 0.  1.
          2    1    1    2  502    0 -0.57754972207E+02  0.43805424706E+02  0.98803278218E+03  0.99068831159E+03  0.00000000000E+00 0. -1.
</event>
<event>
 4    1  0.6089441E+003  0.4764360E+02  0.7546771E-02  0.1308725E+00
          2   -1    0    0  501    0  0.00000000000E+00  0.00000000000E+00  0.12088134474E+03  0.12088134474E+03  0.00000000000E+00 0. -1.
          2   -1    0    0  502    0 -0.00000000000E+00 -0.00000000000E+00 -0.42594712970E+02  0.42594712970E+02  0.00000000000E+00 0. -1.
          2    1    1    2  501    0 -0.38141969280E+02  0.28549998036E+02 -0.21977205305E+02  0.52468178560E+02  0.00000000000E+00 0. -1.
          2    1    1    2  502    0  0.38141969280E+02 -0.28549998036E+02  0.10026383708E+03  0.11100787915E+03  0.00000000000E+00 0. -1.
</event>
<event>
 4    1  0.6089441E+003  0.2034436E+02  0.7546771E-02  0.1528835E+00
          2   -1    0    0  502    0  0.00000000000E+00  0.00000000000E+00  0.33969019206E+02  0.33969019206E+02  0.00000000000E+00 0. -1.
          2   -1    0    0  501    0 -0.00000000000E+00 -0.00000000000E+00 -0.12230007562E+03  0.12230007562E+03  0.00000000000E+00 0. -1.
          2    1    1    2  501    0 -0.17858525953E+02 -0.97450450202E+01  0.29974759904E+02  0.36226773013E+02  0.00000000000E+00 0. -1.
          2    1    1    2  502    0  0.17858525953E+02  0.97450450202E+01 -0.11830581632E+03  0.12004232182E+03  0.00000000000E+00 0. -1.
</event>
<event>
 4    1  0.6089441E+003  0.2167142E+02  0.7546771E-02  0.1509891E+00
          2   -1    0    0  501    0  0.00000000000E+00  0.00000000000E+00  0.81847485222E+03  0.81847485222E+03  0.00000000000E+00 0.  1.
          2   -1    0    0  502    0 -0.00000000000E+00 -0.00000000000E+00 -0.15735522145E+01  0.15735522145E+01  0.00000000000E+00 0. -1.
          2    1    1    2  501    0 -0.17093828950E+02  0.13321094477E+02  0.81627709855E+02  0.84455512327E+02  0.00000000000E+00 0. -1.
          2    1    1    2  502    0  0.17093828950E+02 -0.13321094477E+02  0.73527359015E+03  0.73559289211E+03  0.00000000000E+00 0.  1.
</event>
<event>
 4    1  0.6089441E+003  0.2109770E+02  0.7546771E-02  0.1517874E+00
          2   -1    0    0  501    0  0.00000000000E+00  0.00000000000E+00  0.10946684715E+04  0.10946684715E+04  0.00000000000E+00 0. -1.
          2   -1    0    0  502    0 -0.00000000000E+00 -0.00000000000E+00 -0.12157369984E+01  0.12157369984E+01  0.00000000000E+00 0.  1.
          2    1    1    2  501    0 -0.92412219119E+01  0.18966097950E+02  0.99712728614E+02  0.10192026934E+03  0.00000000000E+00 0.  1.
          2    1    1    2  502    0  0.92412219119E+01 -0.18966097950E+02  0.99374000584E+03  0.99396393912E+03  0.00000000000E+00 0. -1.
</event>
<event>
 4    1  0.6089441E+003  0.2077051E+02  0.7546771E-02  0.1522567E+00
          2   -1    0    0  501    0  0.00000000000E+00  0.00000000000E+00  0.19472604735E+02  0.19472604735E+02  0.00000000000E+00 0. -1.
          2   -1    0    0  502    0 -0.00000000000E+00 -0.00000000000E+00 -0.89138115841E+02  0.89138115841E+02  0.00000000000E+00 0.  1.
          2    1    1    2  501    0 -0.16258804744E+02  0.12925374105E+02 -0.81908142883E+02  0.84500638447E+02  0.00000000000E+00 0.  1.
          2    1    1    2  502    0  0.16258804744E+02 -0.12925374105E+02  0.12242631777E+02  0.24110082129E+02  0.00000000000E+00 0. -1.
</event>
<event>
 4    1  0.6089441E+003  0.3040381E+02  0.7546771E-02  0.1416119E+00
          2   -1    0    0  502    0  0.00000000000E+00  0.00000000000E+00  0.77926140376E+03  0.77926140376E+03  0.00000000000E+00 0. -1.
          2   -1    0    0  501    0 -0.00000000000E+00 -0.00000000000E+00 -0.87670405430E+01  0.87670405430E+01  0.00000000000E+00 0. -1.
          2    1    1    2  501    0  0.29730570345E+02  0.63627686930E+01  0.75163658453E+03  0.75225125247E+03  0.00000000000E+00 0. -1.
          2    1    1    2  502    0 -0.29730570345E+02 -0.63627686930E+01  0.18857778687E+02  0.35777191833E+02  0.00000000000E+00 0. -1.
</event>
<event>
 4    1  0.6089441E+003  0.3409878E+02  0.7546771E-02  0.1387012E+00
          2   -1    0    0  502    0  0.00000000000E+00  0.00000000000E+00  0.15294743180E+02  0.15294743180E+02  0.00000000000E+00 0. -1.
          2   -1    0    0  501    0 -0.00000000000E+00 -0.00000000000E+00 -0.21807993417E+03  0.21807993417E+03  0.00000000000E+00 0. -1.
          2    1    1    2  501    0 -0.21942963505E+02 -0.26100447827E+02 -0.72145610559E+01  0.34853649958E+02  0.00000000000E+00 0. -1.
          2    1    1    2  502    0  0.21942963505E+02  0.26100447827E+02 -0.19557062994E+03  0.19852102740E+03  0.00000000000E+00 0. -1.
</event>
<event>
 4    1  0.6089441E+003  0.2606964E+02  0.7546771E-02  0.1457184E+00
          2   -1    0    0  501    0  0.00000000000E+00  0.00000000000E+00  0.63651061875E+02  0.63651061875E+02  0.00000000000E+00 0.  1.
          2   -1    0    0  502    0 -0.00000000000E+00 -0.00000000000E+00 -0.21874429879E+02  0.21874429879E+02  0.00000000000E+00 0. -1.
          2    1    1    2  501    0  0.18622308107E+02 -0.18243782833E+02 -0.97065956482E+01  0.27818051160E+02  0.00000000000E+00 0. -1.
          2    1    1    2  502    0 -0.18622308107E+02  0.18243782833E+02  0.51483227644E+02  0.57707440594E+02  0.00000000000E+00 0.  1.
</event>
<event>
 4    1  0.6089441E+003  0.2480857E+02  0.7546771E-02  0.1470956E+00
          2   -1    0    0  501    0  0.00000000000E+00  0.00000000000E+00  0.11936043595E+04  0.11936043595E+04  0.00000000000E+00 0.  1.
          2   -1    0    0  502    0 -0.00000000000E+00 -0.00000000000E+00 -0.97362800216E+00  0.97362800216E+00  0.00000000000E+00 0.  1.
          2    1    1    2  501    0 -0.14924107574E+02  0.19817568965E+02  0.18666148772E+03  0.18830288374E+03  0.00000000000E+00 0.  1.
          2    1    1    2  502    0  0.14924107574E+02 -0.19817568965E+02  0.10059692438E+04  0.10062751038E+04  0.00000000000E+00 0.  1.
</event>
<event>
 4    1  0.6089441E+003  0.2100404E+02  0.7546771E-02  0.1519207E+00
          2   -1    0    0  501    0  0.00000000000E+00  0.00000000000E+00  0.35218997280E+02  0.35218997280E+02  0.00000000000E+00 0. -1.
          2   -1    0    0  502    0 -0.00000000000E+00 -0.00000000000E+00 -0.14563415503E+02  0.14563415503E+02  0.00000000000E+00 0. -1.
          2    1    1    2  501    0 -0.20119947777E+02 -0.60296975362E+01  0.19636822836E+02  0.28753684321E+02  0.00000000000E+00 0. -1.
          2    1    1    2  502    0  0.20119947777E+02  0.60296975362E+01  0.10187589414E+01  0.21028728462E+02  0.00000000000E+00 0. -1.
</event>
<event>
 4    1  0.6089441E+003  0.3419781E+02  0.7546771E-02  0.1386292E+00
          2   -1    0    0  502    0  0.00000000000E+00  0.00000000000E+00  0.79608419865E+03  0.79608419865E+03  0.00000000000E+00 0. -1.
          2   -1    0    0  501    0 -0.00000000000E+00 -0.00000000000E+00 -0.89489421598E+01  0.89489421598E+01  0.00000000000E+00 0. -1.
          2    1    1    2  501    0 -0.32504533611E+02 -0.10627573627E+02  0.76156565418E+03  0.76233308708E+03  0.00000000000E+00 0. -1.
          2    1    1    2  502    0  0.32504533611E+02  0.10627573627E+02  0.25569602312E+02  0.42700053734E+02  0.00000000000E+00 0. -1.
</event>
<event>
 4    1  0.6089441E+003  0.2205058E+02  0.7546771E-02  0.1504777E+00
          2   -1    0    0  501    0  0.00000000000E+00  0.00000000000E+00  0.53659969066E+03  0.53659969066E+03  0.00000000000E+00 0.  1.
          2   -1    0    0  502    0 -0.00000000000E+00 -0.00000000000E+00 -0.56957301906E+02  0.56957301906E+02  0.00000000000E+00 0.  1.
          2    1    1    2  501    0  0.21913141258E+02  0.24581466421E+01 -0.54587126564E+02  0.58872596607E+02  0.00000000000E+00 0.  1.
          2    1    1    2  502    0 -0.21913141258E+02 -0.24581466421E+01  0.53422951532E+03  0.53468439596E+03  0.00000000000E+00 0.  1.
</event>
<event>
 4    1  0.6089441E+003  0.2407407E+02  0.7546771E-02  0.1479434E+00
          2   -1    0    0  502    0  0.00000000000E+00  0.00000000000E+00  0.13139934380E+04  0.13139934380E+04  0.00000000000E+00 0. -1.
          2   -1    0    0  501    0 -0.00000000000E+00 -0.00000000000E+00 -0.83287185610E+02  0.83287185610E+02  0.00000000000E+00 0.  1.
          2    1    1    2  501    0 -0.22340095392E+02 -0.89711255475E+01  0.13121410690E+04  0.13123618959E+04  0.00000000000E+00 0. -1.
          2    1    1    2  502    0  0.22340095392E+02  0.89711255475E+01 -0.81434816602E+02  0.84918727679E+02  0.00000000000E+00 0.  1.
</event>
<event>
 4    1  0.6089441E+003  0.3171764E+02  0.7546771E-02  0.1405235E+00
          2   -1    0    0  501    0  0.00000000000E+00  0.00000000000E+00  0.21692485540E+04  0.21692485540E+04  0.00000000000E+00 0.  1.
          2   -1    0    0  502    0 -0.00000000000E+00 -0.00000000000E+00 -0.49230955866E+02  0.49230955866E+02  0.00000000000E+00 0. -1.
          2    1    1    2  501    0  0.55359389746E+01 -0.31230788257E+02 -0.43994035023E+02  0.54235448491E+02  0.00000000000E+00 0. -1.
          2    1    1    2  502    0 -0.55359389746E+01  0.31230788257E+02  0.21640116331E+04  0.21642440614E+04  0.00000000000E+00 0.  1.
</event>
<event>
 4    1  0.6089441E+003  0.2149028E+02  0.7546771E-02  0.1512379E+00
          2   -1    0    0  502    0  0.00000000000E+00  0.00000000000E+00  0.24042096675E+01  0.24042096675E+01  0.00000000000E+00 0. -1.
          2   -1    0    0  501    0 -0.00000000000E+00 -0.00000000000E+00 -0.11151603619E+04  0.11151603619E+04  0.00000000000E+00 0. -1.
          2    1    1    2  501    0  0.19148385482E+02 -0.97555934826E+01 -0.47995539107E+02  0.52587109114E+02  0.00000000000E+00 0. -1.
          2    1    1    2  502    0 -0.19148385482E+02  0.97555934826E+01 -0.10647606132E+04  0.10649774625E+04  0.00000000000E+00 0. -1.
</event>
<event>
 4    1  0.6089441E+003  0.2258586E+02  0.7546771E-02  0.1497765E+00
          2   -1    0    0  502    0  0.00000000000E+00  0.00000000000E+00  0.22137340869E+04  0.22137340869E+04  0.00000000000E+00 0.  1.
          2   -1    0    0  501    0 -0.00000000000E+00 -0.00000000000E+00 -0.30320298765E+00  0.30320298765E+00  0.00000000000E+00 0.  1.
          2    1    1    2  501    0 -0.17203027203E+02 -0.14634780324E+02  0.16490403588E+04  0.16491950236E+04  0.00000000000E+00 0.  1.
          2    1    1    2  502    0  0.17203027203E+02  0.14634780324E+02  0.56439052517E+03  0.56484226634E+03  0.00000000000E+00 0.  1.
</event>
<event>
 4    1  0.6089441E+003  0.2539488E+02  0.7546771E-02  0.1464434E+00
          2   -1    0    0  502    0  0.00000000000E+00  0.00000000000E+00  0.12151761403E+04  0.12151761403E+04  0.00000000000E+00 0.  1.
          2   -1    0    0  501    0 -0.00000000000E+00 -0.00000000000E+00 -0.61998162826E+02  0.61998162826E+02  0.00000000000E+00 0.  1.
          2    1    1    2  501    0  0.84338699028E+01  0.23953489486E+02  0.12124371104E+04  0.12127030331E+04  0.00000000000E+00 0.  1.
          2    1    1    2  502    0 -0.84338699028E+01 -0.23953489486E+02 -0.59259132940E+02  0.64471270011E+02  0.00000000000E+00 0.  1.
</event>
<event>
 4    1  0.6089441E+003  0.3785425E+02  0.7546771E-02  0.1361540E+00
          2   -1    0    0  501    0  0.00000000000E+00  0.00000000000E+00  0.22511790581E+03  0.22511790581E+03  0.00000000000E+00 0.  1.
          2   -1    0    0  502    0 -0.00000000000E+00 -0.00000000000E+00 -0.78214297817E+02  0.78214297817E+02  0.00000000000E+00 0. -1.
          2    1    1    2  501    0 -0.18328511537E+02 -0.33121144553E+02 -0.71911834772E+02  0.81266576967E+02  0.00000000000E+00 0. -1.
          2    1    1    2  502    0  0.18328511537E+02  0.33121144553E+02  0.21881544277E+03  0.22206562666E+03  0.00000000000E+00 0.  1.
</event>
<event>
 4    1  0.6089441E+003  0.6116473E+02  0.7546771E-02  0.1255926E+00
          2   -1    0    0  502    0  0.00000000000E+00  0.00000000000E+00  0.43126690852E+03  0.43126690852E+03  0.00000000000E+00 0.  1.
          2   -1    0    0  501    0 -0.00000000000E+00 -0.00000000000E+00 -0.32064109602E+03  0.32064109602E+03  0.00000000000E+00 0. -1.
          2    1    1    2  501    0 -0.27217216680E+02  0.54775428344E+02  0.42614644597E+03  0.43051355129E+03  0.00000000000E+00 0.  1.
          2    1    1    2  502    0  0.27217216680E+02 -0.54775428344E+02 -0.31552063347E+03  0.32139445325E+03  0.00000000000E+00 0. -1.
</event>
<event>
 4    1  0.6089441E+003  0.2822634E+02  0.7546771E-02  0.1435664E+00
          2   -1    0    0  501    0  0.00000000000E+00  0.00000000000E+00  0.93240273824E+02  0.93240273824E+02  0.00000000000E+00 0.  1.
          2   -1    0    0  502    0 -0.00000000000E+00 -0.00000000000E+00 -0.24234495548E+03  0.24234495548E+03  0.00000000000E+00 0. -1.
          2    1    1    2  501    0  0.15709329537E+02  0.23450868186E+02 -0.23936029941E+03  0.24101883575E+03  0.00000000000E+00 0. -1.
          2    1    1    2  502    0 -0.15709329537E+02 -0.23450868186E+02  0.90255617754E+02  0.94566393552E+02  0.00000000000E+00 0.  1.
</event>
<event>
 4    1  0.6089441E+003  0.2088210E+02  0.7546771E-02  0.1520955E+00
          2   -1    0    0  501    0  0.00000000000E+00  0.00000000000E+00  0.81537702446E+01  0.81537702446E+01  0.00000000000E+00 0. -1.
          2   -1    0    0  502    0 -0.00000000000E+00 -0.00000000000E+00 -0.54849369503E+03  0.54849369503E+03  0.00000000000E+00 0. -1.
          2    1    1    2  501    0 -0.18690822175E+02 -0.93121062170E+01 -0.53457705876E+03  0.53498476044E+03  0.00000000000E+00 0. -1.
          2    1    1    2  502    0  0.18690822175E+02  0.93121062170E+01 -0.57628660271E+01  0.21662704831E+02  0.00000000000E+00 0. -1.
</event>
<event>
 4    1  0.6089441E+003  0.2431327E+02  0.7546771E-02  0.1476635E+00
          2   -1    0    0  501    0  0.00000000000E+00  0.00000000000E+00  0.56797966151E+02  0.56797966151E+02  0.00000000000E+00 0. -1.
          2   -1    0    0  502    0 -0.00000000000E+00 -0.00000000000E+00 -0.37492099149E+02  0.37492099149E+02  0.00000000000E+00 0.  1.
          2    1    1    2  501    0 -0.13571289869E+02  0.20173125056E+02 -0.30417666915E+02  0.38940587358E+02  0.00000000000E+00 0.  1.
          2    1    1    2  502    0  0.13571289869E+02 -0.20173125056E+02  0.49723533917E+02  0.55349477942E+02  0.00000000000E+00 0. -1.
</event>
<event>
 4    1  0.6089441E+003  0.2565007E+02  0.7546771E-02  0.1461661E+00
          2   -1    0    0  502    0  0.00000000000E+00  0.00000000000E+00  0.87772673337E+03  0.87772673337E+03  0.00000000000E+00 0. -1.
          2   -1    0    0  501    0 -0.00000000000E+00 -0.00000000000E+00 -0.29768171945E+01  0.29768171945E+01  0.00000000000E+00 0. -1.
          2    1    1    2  501    0 -0.13246406302E+02 -0.21964940668E+02  0.81827143907E+03  0.81867336215E+03  0.00000000000E+00 0. -1.
          2    1    1    2  502    0  0.13246406302E+02  0.21964940668E+02  0.56478477108E+02  0.62030188416E+02  0.00000000000E+00 0. -1.
</event>
<event>
 4    1  0.6089441E+003  0.3438288E+02  0.7546771E-02  0.1384954E+00
          2   -1    0    0  501    0  0.00000000000E+00  0.00000000000E+00  0.63848684908E+03  0.63848684908E+03  0.00000000000E+00 0. -1.
          2   -1    0    0  502    0 -0.00000000000E+00 -0.00000000000E+00 -0.93580909909E+01  0.93580909909E+01  0.00000000000E+00 0. -1.
          2    1    1    2  501    0  0.31735309393E+02 -0.13230747867E+02  0.24451020953E+02  0.42190460735E+02  0.00000000000E+00 0. -1.
          2    1    1    2  502    0 -0.31735309393E+02  0.13230747867E+02  0.60467773714E+03  0.60565447934E+03  0.00000000000E+00 0. -1.
</event>
<event>
 4    1  0.6089441E+003  0.2431097E+02  0.7546771E-02  0.1476661E+00
          2   -1    0    0  501    0  0.00000000000E+00  0.00000000000E+00  0.14010639845E+02  0.14010639845E+02  0.00000000000E+00 0. -1.
          2   -1    0    0  502    0 -0.00000000000E+00 -0.00000000000E+00 -0.42674858081E+02  0.42674858081E+02  0.00000000000E+00 0. -1.
          2    1    1    2  501    0  0.16340223750E+02 -0.18000558703E+02 -0.17372230310E+02  0.29880050398E+02  0.00000000000E+00 0. -1.
          2    1    1    2  502    0 -0.16340223750E+02  0.18000558703E+02 -0.11291987925E+02  0.26805447527E+02  0.00000000000E+00 0. -1.
</event>
<event>
 4    1  0.6089441E+003  0.3253433E+02  0.7546771E-02  0.1398779E+00
          2   -1    0    0  502    0  0.00000000000E+00  0.00000000000E+00  0.21567363154E+02  0.21567363154E+02  0.00000000000E+00 0.  1.
          2   -1    0    0  501    0 -0.00000000000E+00 -0.00000000000E+00 -0.88074184722E+03  0.88074184722E+03  0.00000000000E+00 0.  1.
          2    1    1    2  501    0  0.12730252241E+02 -0.29940329431E+02  0.88172498375E+01  0.33707959642E+02  0.00000000000E+00 0.  1.
          2    1    1    2  502    0 -0.12730252241E+02  0.29940329431E+02 -0.86799173391E+03  0.86860125074E+03  0.00000000000E+00 0.  1.
</event>
<event>
 4    1  0.6089441E+003  0.2818046E+02  0.7546771E-02  0.1436097E+00
          2   -1    0    0  501    0  0.00000000000E+00  0.00000000000E+00  0.61852383381E+01  0.61852383381E+01  0.00000000000E+00 0.  1.
          2   -1    0    0  502    0 -0.00000000000E+00 -0.00000000000E+00 -0.11867359340E+04  0.11867359340E+04  0.00000000000E+00 0. -1.
          2    1    1    2  501    0  0.19063684426E+02  0.20753661987E+02 -0.11535471404E+04  0.11538913050E+04  0.00000000000E+00 0. -1.
          2    1    1    2  502    0 -0.19063684426E+02 -0.20753661987E+02 -0.27003555239E+02  0.39029867350E+02  0.00000000000E+00 0.  1.
</event>
<event>
 4    1  0.6089441E+003  0.3194437E+02  0.7546771E-02  0.1403420E+00
          2   -1    0    0  501    0  0.00000000000E+00  0.00000000000E+00  0.12053174159E+04  0.12053174159E+04  0.00000000000E+00 0.  1.
          2   -1    0    0  502    0 -0.00000000000E+00 -0.00000000000E+00 -0.12591853657E+01  0.12591853657E+01  0.00000000000E+00 0.  1.
          2    1    1    2  501    0 -0.28968646924E+02  0.13463287884E+02  0.25670424882E+03  0.25868419741E+03  0.00000000000E+00 0.  1.
          2    1    1    2  502    0  0.28968646924E+02 -0.13463287884E+02  0.94735398170E+03  0.94789240385E+03  0.00000000000E+00 0.  1.
</event>
<event>
 4    1  0.6089441E+003  0.2020622E+02  0.7546771E-02  0.1530906E+00
          2   -1    0    0  501    0  0.00000000000E+00  0.00000000000E+00  0.48756927519E+02  0.48756927519E+02  0.00000000000E+00 0.  1.
          2   -1    0    0  502    0 -0.00000000000E+00 -0.00000000000E+00 -0.99168304559E+01  0.99168304559E+01  0.00000000000E+00 0. -1.
          2    1    1    2  501    0 -0.36356567723E+01 -0.19876454670E+02  0.78487031858E+01  0.21677029135E+02  0.00000000000E+00 0. -1.
          2    1    1    2  502    0  0.36356567723E+01  0.19876454670E+02  0.30991393877E+02  0.36996728840E+02  0.00000000000E+00 0.  1.
</event>
<event>
 4    1  0.6089441E+003  0.2272676E+02  0.7546771E-02  0.1495958E+00
          2   -1    0    0  501    0  0.00000000000E+00  0.00000000000E+00  0.12061967456E+02  0.12061967456E+02  0.00000000000E+00 0. -1.
          2   -1    0    0  502    0 -0.00000000000E+00 -0.00000000000E+00 -0.54330710207E+03  0.54330710207E+03  0.00000000000E+00 0. -1.
          2    1    1    2  501    0 -0.21514411320E+02 -0.73236315427E+01 -0.53213962757E+03  0.53262471658E+03  0.00000000000E+00 0. -1.
          2    1    1    2  502    0  0.21514411320E+02  0.73236315427E+01  0.89449296042E+00  0.22744352949E+02  0.00000000000E+00 0. -1.
</event>
<event>
 4    1  0.6089441E+003  0.7885264E+02  0.7546771E-02  0.1206537E+00
          2   -1    0    0  502    0  0.00000000000E+00  0.00000000000E+00  0.20789914974E+02  0.20789914974E+02  0.00000000000E+00 0. -1.
          2   -1    0    0  501    0 -0.00000000000E+00 -0.00000000000E+00 -0.29924111187E+03  0.29924111187E+03  0.00000000000E+00 0. -1.
          2    1    1    2  501    0  0.62037035435E+02  0.48673857678E+02 -0.14299876316E+03  0.16329845208E+03  0.00000000000E+00 0. -1.
          2    1    1    2  502    0 -0.62037035435E+02 -0.48673857678E+02 -0.13545243374E+03  0.15673257476E+03  0.00000000000E+00 0. -1.
</event>
<event>
 4    1  0.6089442E+003  0.2536502E+02  0.7546771E-02  0.1464761E+00
          2   -1    0    0  502    0  0.00000000000E+00  0.00000000000E+00  0.21073103614E+03  0.21073103614E+03  0.00000000000E+00 0. -1.
          2   -1    0    0  501    0 -0.00000000000E+00 -0.00000000000E+00 -0.88430495509E+03  0.88430495509E+03  0.00000000000E+00 0. -1.
          2    1    1    2  501    0 -0.24997276899E+02 -0.43035498768E+01  0.20978505232E+03  0.21131292571E+03  0.00000000000E+00 0. -1.
          2    1    1    2  502    0  0.24997276899E+02  0.43035498768E+01 -0.88335897128E+03  0.88372306552E+03  0.00000000000E+00 0. -1.
</event>
<event>
 4    1  0.6089441E+003  0.2722324E+02  0.7546771E-02  0.1445378E+00
          2   -1    0    0  502    0  0.00000000000E+00  0.00000000000E+00  0.40496375706E+03  0.40496375706E+03  0.00000000000E+00 0.  1.
          2   -1    0    0  501    0 -0.00000000000E+00 -0.00000000000E+00 -0.96134181090E+01  0.96134181090E+01  0.00000000000E+00 0.  1.
          2    1    1    2  501    0 -0.10481062050E+02  0.25124734465E+02  0.38419292977E+03  0.38515621796E+03  0.00000000000E+00 0.  1.
          2    1    1    2  502    0  0.10481062050E+02 -0.25124734465E+02  0.11157409176E+02  0.29420957210E+02  0.00000000000E+00 0.  1.
</event>
<event>
 4    1  0.6089441E+003  0.5600616E+02  0.7546771E-02  0.1274041E+00
          2   -1    0    0  501    0  0.00000000000E+00  0.00000000000E+00  0.10553946846E+04  0.10553946846E+04  0.00000000000E+00 0.  1.
          2   -1    0    0  502    0 -0.00000000000E+00 -0.00000000000E+00 -0.73725676963E+01  0.73725676963E+01  0.00000000000E+00 0.  1.
          2    1    1    2  501    0  0.29822948387E+02 -0.47405498952E+02  0.11347577226E+03  0.12654422338E+03  0.00000000000E+00 0.  1.
          2    1    1    2  502    0 -0.29822948387E+02  0.47405498952E+02  0.93454634463E+03  0.93622302890E+03  0.00000000000E+00 0.  1.
</event>
<event>
 4    1  0.6089441E+003  0.3495116E+02  0.7546771E-02  0.1380907E+00
          2   -1    0    0  502    0  0.00000000000E+00  0.00000000000E+00  0.86753458776E+03  0.86753458776E+03  0.00000000000E+00 0. -1.
          2   -1    0    0  501    0 -0.00000000000E+00 -0.00000000000E+00 -0.74495547048E+02  0.74495547048E+02  0.00000000000E+00 0. -1.
          2    1    1    2  501    0  0.32300157312E+02 -0.13352276060E+02  0.86306180526E+03  0.86376921868E+03  0.00000000000E+00 0. -1.
          2    1    1    2  502    0 -0.32300157312E+02  0.13352276060E+02 -0.70022764548E+02  0.78260916129E+02  0.00000000000E+00 0. -1.
</event>
<event>
 4    1  0.6089441E+003  0.2096081E+02  0.7546771E-02  0.1519825E+00
          2   -1    0    0  502    0  0.00000000000E+00  0.00000000000E+00  0.74835263274E+03  0.74835263274E+03  0.00000000000E+00 0.  1.
          2   -1    0    0  501    0 -0.00000000000E+00 -0.00000000000E+00 -0.68745854180E+00  0.68745854180E+00  0.00000000000E+00 0.  1.
          2    1    1    2  501    0  0.16040448716E+02  0.13492951675E+02  0.51693106937E+03  0.51735586033E+03  0.00000000000E+00 0.  1.
          2    1    1    2  502    0 -0.16040448716E+02 -0.13492951675E+02  0.23073410482E+03  0.23168423094E+03  0.00000000000E+00 0.  1.
</event>
<event>
 4    1  0.6089441E+003  0.2156720E+02  0.7546771E-02  0.1511319E+00
          2   -1    0    0  501    0  0.00000000000E+00  0.00000000000E+00  0.16632472034E+03  0.16632472034E+03  0.00000000000E+00 0.  1.
          2   -1    0    0  502    0 -0.00000000000E+00 -0.00000000000E+00 -0.20958237105E+02  0.20958237105E+02  0.00000000000E+00 0. -1.
          2    1    1    2  501    0  0.19588693042E+02 -0.90237150030E+01 -0.14487018339E+02  0.25981109058E+02  0.00000000000E+00 0. -1.
          2    1    1    2  502    0 -0.19588693042E+02  0.90237150030E+01  0.15985350157E+03  0.16130184839E+03  0.00000000000E+00 0.  1.
</event>
<event>
 4    1  0.6089441E+003  0.3521637E+02  0.7546771E-02  0.1379048E+00
          2   -1    0    0  502    0  0.00000000000E+00  0.00000000000E+00  0.13236940268E+01  0.13236940268E+01  0.00000000000E+00 0. -1.
          2   -1    0    0  501    0 -0.00000000000E+00 -0.00000000000E+00 -0.26264225534E+04  0.26264225534E+04  0.00000000000E+00 0. -1.
          2    1    1    2  501    0  0.22021645593E+02 -0.27481630883E+02 -0.25876737612E+03  0.26115272898E+03  0.00000000000E+00 0. -1.
          2    1    1    2  502    0 -0.22021645593E+02  0.27481630883E+02 -0.23663314832E+04  0.23665935184E+04  0.00000000000E+00 0. -1.
</event>
<event>
 4    1  0.6089441E+003  0.2151813E+02  0.7546771E-02  0.1511994E+00
          2   -1    0    0  501    0  0.00000000000E+00  0.00000000000E+00  0.11329103367E+04  0.11329103367E+04  0.00000000000E+00 0. -1.
          2   -1    0    0  502    0 -0.00000000000E+00 -0.00000000000E+00 -0.15913394190E+02  0.15913394190E+02  0.00000000000E+00 0. -1.
          2    1    1    2  501    0 -0.20271990905E+02 -0.72163998533E+01 -0.84890176152E+01  0.23132087285E+02  0.00000000000E+00 0. -1.
          2    1    1    2  502    0  0.20271990905E+02  0.72163998533E+01  0.11254859601E+04  0.11256916436E+04  0.00000000000E+00 0. -1.
</event>
<event>
 4    1  0.6089441E+003  0.2925155E+02  0.7546771E-02  0.1426214E+00
          2   -1    0    0  502    0  0.00000000000E+00  0.00000000000E+00  0.62066005677E+00  0.62066005677E+00  0.00000000000E+00 0.  1.
          2   -1    0    0  501    0 -0.00000000000E+00 -0.00000000000E+00 -0.16364443548E+04  0.16364443548E+04  0.00000000000E+00 0. -1.
          2    1    1    2  501    0  0.21565927512E+00  0.29250751904E+02 -0.49301227357E+03  0.49387929182E+03  0.00000000000E+00 0. -1.
          2    1    1    2  502    0 -0.21565927512E+00 -0.29250751904E+02 -0.11428114211E+04  0.11431857230E+04  0.00000000000E+00 0.  1.
</event>
<event>
 4    1  0.6089441E+003  0.2735942E+02  0.7546771E-02  0.1444031E+00
          2   -1    0    0  502    0  0.00000000000E+00  0.00000000000E+00  0.30315492468E+03  0.30315492468E+03  0.00000000000E+00 0. -1.
          2   -1    0    0  501    0 -0.00000000000E+00 -0.00000000000E+00 -0.64027819008E+01  0.64027819008E+01  0.00000000000E+00 0. -1.
          2    1    1    2  501    0  0.17889928122E+02 -0.20699955761E+02  0.26969362242E+03  0.27107782585E+03  0.00000000000E+00 0. -1.
          2    1    1    2  502    0 -0.17889928122E+02  0.20699955761E+02  0.27058520366E+02  0.38479880732E+02  0.00000000000E+00 0. -1.
</event>
<event>
 4    1  0.6089441E+003  0.2592882E+02  0.7546771E-02  0.1458676E+00
          2   -1    0    0  501    0  0.00000000000E+00  0.00000000000E+00  0.92904216658E+01  0.92904216658E+01  0.00000000000E+00 0.  1.
          2   -1    0    0  502    0 -0.00000000000E+00 -0.00000000000E+00 -0.30449256230E+03  0.30449256230E+03  0.00000000000E+00 0.  1.
          2    1    1    2  501    0 -0.22365913660E+02 -0.13117522033E+02 -0.28458644157E+03  0.28576519417E+03  0.00000000000E+00 0.  1.
          2    1    1    2  502    0  0.22365913660E+02  0.13117522033E+02 -0.10615699068E+02  0.28017789792E+02  0.00000000000E+00 0.  1.
</event>
<event>
 4    1  0.6089441E+003  0.2041459E+02  0.7546771E-02  0.1527789E+00
          2   -1    0    0  501    0  0.00000000000E+00  0.00000000000E+00  0.49853681018E+03  0.49853681018E+03  0.00000000000E+00 0. -1.
          2   -1    0    0  502    0 -0.00000000000E+00 -0.00000000000E+00 -0.80271808397E+02  0.80271808397E+02  0.00000000000E+00 0. -1.
          2    1    1    2  501    0 -0.46220635671E+01  0.19884469564E+02 -0.78760923770E+02  0.81363620338E+02  0.00000000000E+00 0. -1.
          2    1    1    2  502    0  0.46220635671E+01 -0.19884469564E+02  0.49702592555E+03  0.49744499824E+03  0.00000000000E+00 0. -1.
</event>
<event>
 4    1  0.6089441E+003  0.2362249E+02  0.7546771E-02  0.1484826E+00
          2   -1    0    0  501    0  0.00000000000E+00  0.00000000000E+00  0.82158651321E+02  0.82158651321E+02  0.00000000000E+00 0.  1.
          2   -1    0    0  502    0 -0.00000000000E+00 -0.00000000000E+00 -0.12569171516E+02  0.12569171516E+02  0.00000000000E+00 0. -1.
          2    1    1    2  501    0 -0.22357676875E+02 -0.76260298982E+01  0.26839017532E+01  0.23774468993E+02  0.00000000000E+00 0. -1.
          2    1    1    2  502    0  0.22357676875E+02  0.76260298982E+01  0.66905578052E+02  0.70953353844E+02  0.00000000000E+00 0.  1.
</event>
<event>
 4    1  0.6089441E+003  0.2264500E+02  0.7546771E-02  0.1497005E+00
          2   -1    0    0  501    0  0.00000000000E+00  0.00000000000E+00  0.40588772249E+01  0.40588772249E+01  0.00000000000E+00 0.  1.
          2   -1    0    0  502    0 -0.00000000000E+00 -0.00000000000E+00 -0.12576954023E+04  0.12576954023E+04  0.00000000000E+00 0. -1.
          2    1    1    2  501    0 -0.20727054774E+02  0.91205976142E+01 -0.12251701941E+04  0.12253794517E+04  0.00000000000E+00 0. -1.
          2    1    1    2  502    0  0.20727054774E+02 -0.91205976142E+01 -0.28466330927E+02  0.36374827792E+02  0.00000000000E+00 0.  1.
</event>
<event>
 4    1  0.6089441E+003  0.2856429E+02  0.7546771E-02  0.1432497E+00
          2   -1    0    0  501    0  0.00000000000E+00  0.00000000000E+00  0.24696026283E+01  0.24696026283E+01  0.00000000000E+00 0.  1.
          2   -1    0    0  502    0 -0.00000000000E+00 -0.00000000000E+00 -0.55079175430E+03  0.55079175430E+03  0.00000000000E+00 0. -1.
          2    1    1    2  501    0 -0.25816455523E+02 -0.12224138622E+02 -0.44915354742E+03  0.45006091598E+03  0.00000000000E+00 0. -1.
          2    1    1    2  502    0  0.25816455523E+02  0.12224138622E+02 -0.99168604252E+02  0.10320044094E+03  0.00000000000E+00 0.  1.
</event>
<event>
 4    1  0.6089441E+003  0.2320087E+02  0.7546771E-02  0.1489991E+00
          2   -1    0    0  501    0  0.00000000000E+00  0.00000000000E+00  0.14975722261E+03  0.14975722261E+03  0.00000000000E+00 0. -1.
          2   -1    0    0  502    0 -0.00000000000E+00 -0.00000000000E+00 -0.13960228627E+03  0.13960228627E+03  0.00000000000E+00 0.  1.
          2    1    1    2  501    0 -0.59042485858E+00 -0.23193354794E+02 -0.13772759917E+03  0.13966807753E+03  0.00000000000E+00 0.  1.
          2    1    1    2  502    0  0.59042485858E+00  0.23193354794E+02  0.14788253551E+03  0.14969143134E+03  0.00000000000E+00 0. -1.
</event>
<event>
 4    1  0.6089441E+003  0.3518080E+02  0.7546771E-02  0.1379297E+00
          2   -1    0    0  501    0  0.00000000000E+00  0.00000000000E+00  0.13128092263E+04  0.13128092263E+04  0.00000000000E+00 0.  1.
          2   -1    0    0  502    0 -0.00000000000E+00 -0.00000000000E+00 -0.11332459903E+03  0.11332459903E+03  0.00000000000E+00 0. -1.
          2    1    1    2  501    0 -0.55227618484E+01 -0.34744605255E+02 -0.11035230400E+03  0.11582452025E+03  0.00000000000E+00 0. -1.
          2    1    1    2  502    0  0.55227618484E+01  0.34744605255E+02  0.13098369313E+04  0.13103093051E+04  0.00000000000E+00 0.  1.
</event>
<event>
 4    1  0.6089441E+003  0.2561257E+02  0.7546771E-02  0.1462066E+00
          2   -1    0    0  501    0  0.00000000000E+00  0.00000000000E+00  0.10316348512E+01  0.10316348512E+01  0.00000000000E+00 0. -1.
          2   -1    0    0  502    0 -0.00000000000E+00 -0.00000000000E+00 -0.13669519361E+04  0.13669519361E+04  0.00000000000E+00 0.  1.
          2    1    1    2  501    0  0.21032654328E+02  0.14616127354E+02 -0.11831698245E+04  0.11834470150E+04  0.00000000000E+00 0.  1.
          2    1    1    2  502    0 -0.21032654328E+02 -0.14616127354E+02 -0.18275047671E+03  0.18453655591E+03  0.00000000000E+00 0. -1.
</event>
<event>
 4    1  0.6089441E+003  0.2779237E+02  0.7546771E-02  0.1439807E+00
          2   -1    0    0  501    0  0.00000000000E+00  0.00000000000E+00  0.91279798559E+03  0.91279798559E+03  0.00000000000E+00 0. -1.
          2   -1    0    0  502    0 -0.00000000000E+00 -0.00000000000E+00 -0.40037148579E+01  0.40037148579E+01  0.00000000000E+00 0.  1.
          2    1    1    2  501    0  0.45694523186E+01  0.27414152386E+02  0.47311203036E+02  0.54870443576E+02  0.00000000000E+00 0.  1.
          2    1    1    2  502    0 -0.45694523186E+01 -0.27414152386E+02  0.86148306769E+03  0.86193125687E+03  0.00000000000E+00 0. -1.
</event>
<event>
 4    1  0.6089441E+003  0.2019328E+02  0.7546771E-02  0.1531101E+00
          2   -1    0    0  502    0  0.00000000000E+00  0.00000000000E+00  0.23181574800E+02  0.23181574800E+02  0.00000000000E+00 0. -1.
          2   -1    0    0  501    0 -0.00000000000E+00 -0.00000000000E+00 -0.23051701233E+03  0.23051701233E+03  0.00000000000E+00 0.  1.
          2    1    1    2  501    0  0.92345735335E+01 -0.17958044558E+02  0.18245761807E+02  0.27215373167E+02  0.00000000000E+00 0. -1.
          2    1    1    2  502    0 -0.92345735335E+01  0.17958044558E+02 -0.22558119933E+03  0.22648321396E+03  0.00000000000E+00 0.  1.
</event>
<event>
 4    1  0.6089441E+003  0.3490842E+02  0.7546771E-02  0.1381208E+00
          2   -1    0    0  502    0  0.00000000000E+00  0.00000000000E+00  0.20257361404E+01  0.20257361404E+01  0.00000000000E+00 0.  1.
          2   -1    0    0  501    0 -0.00000000000E+00 -0.00000000000E+00 -0.77547729917E+03  0.77547729917E+03  0.00000000000E+00 0.  1.
          2    1    1    2  501    0  0.34123795386E+02  0.73596461760E+01 -0.57082901980E+03  0.57189541670E+03  0.00000000000E+00 0.  1.
          2    1    1    2  502    0 -0.34123795386E+02 -0.73596461760E+01 -0.20262254323E+03  0.20560761860E+03  0.00000000000E+00 0.  1.
</event>
<event>
 4    1  0.6089441E+003  0.3245517E+02  0.7546771E-02  0.1399395E+00
          2   -1    0    0  501    0  0.00000000000E+00  0.00000000000E+00  0.10254044578E+02  0.10254044578E+02  0.00000000000E+00 0.  1.
          2   -1    0    0  502    0 -0.00000000000E+00 -0.00000000000E+00 -0.55959281490E+03  0.55959281490E+03  0.00000000000E+00 0.  1.
          2    1    1    2  501    0 -0.23746730564E+02 -0.22123080698E+02 -0.53211635796E+03  0.53310520192E+03  0.00000000000E+00 0.  1.
          2    1    1    2  502    0  0.23746730564E+02  0.22123080698E+02 -0.17222412363E+02  0.36741657552E+02  0.00000000000E+00 0.  1.
</event>
<event>
 4    1  0.6089441E+003  0.2682392E+02  0.7546771E-02  0.1449385E+00
          2   -1    0    0  501    0  0.00000000000E+00  0.00000000000E+00  0.40901813524E+01  0.40901813524E+01  0.00000000000E+00 0.  1.
          2   -1    0    0  502    0 -0.00000000000E+00 -0.00000000000E+00 -0.49484184543E+03  0.49484184543E+03  0.00000000000E+00 0.  1.
          2    1    1    2  501    0 -0.25628773865E+02 -0.79176239887E+01 -0.44564954758E+03  0.44645609200E+03  0.00000000000E+00 0.  1.
          2    1    1    2  502    0  0.25628773865E+02  0.79176239887E+01 -0.45102116500E+02  0.52475934791E+02  0.00000000000E+00 0.  1.
</event>
<event>
 4    1  0.6089441E+003  0.6307076E+02  0.7546771E-02  0.1249742E+00
          2   -1    0    0  502    0  0.00000000000E+00  0.00000000000E+00  0.56626977179E+02  0.56626977179E+02  0.00000000000E+00 0.  1.
          2   -1    0    0  501    0 -0.00000000000E+00 -0.00000000000E+00 -0.17676530836E+03  0.17676530836E+03  0.00000000000E+00 0.  1.
          2    1    1    2  501    0  0.53243019223E+00 -0.63068515524E+02  0.30518373726E+02  0.70066341899E+02  0.00000000000E+00 0.  1.
          2    1    1    2  502    0 -0.53243019223E+00  0.63068515524E+02 -0.15065670491E+03  0.16332594364E+03  0.00000000000E+00 0.  1.
</event>
<event>
 4    1  0.6218815E+003  0.3562138E+02  0.7546771E-02  0.1376247E+00
          2   -1    0    0  502    0  0.00000000000E+00  0.00000000000E+00  0.96473358584E+03  0.96473358584E+03  0.00000000000E+00 0.  1.
          2   -1    0    0  501    0 -0.00000000000E+00 -0.00000000000E+00 -0.52858939356E+03  0.52858939356E+03  0.00000000000E+00 0.  1.
          2    1    1    2  501    0 -0.10566547531E+02 -0.34018090564E+02  0.96380406377E+03  0.96446210696E+03  0.00000000000E+00 0.  1.
          2    1    1    2  502    0  0.10566547531E+02  0.34018090564E+02 -0.52765987150E+03  0.52886087244E+03  0.00000000000E+00 0.  1.
</event>
<event>
 4    1  0.6089441E+003  0.4458800E+02  0.7546771E-02  0.1323513E+00
          2   -1    0    0  502    0  0.00000000000E+00  0.00000000000E+00  0.33614050059E+03  0.33614050059E+03  0.00000000000E+00 0. -1.
          2   -1    0    0  501    0 -0.00000000000E+00 -0.00000000000E+00 -0.18260699864E+02  0.18260699864E+02  0.00000000000E+00 0.  1.
          2    1    1    2  501    0 -0.43876994865E+02 -0.79308802813E+01  0.30464469220E+03  0.30789036690E+03  0.00000000000E+00 0. -1.
          2    1    1    2  502    0  0.43876994865E+02  0.79308802813E+01  0.13235108521E+02  0.46510833555E+02  0.00000000000E+00 0.  1.
</event>
<event>
 4    1  0.6089441E+003  0.2067033E+02  0.7546771E-02  0.1524024E+00
          2   -1    0    0  501    0  0.00000000000E+00  0.00000000000E+00  0.17303989871E+03  0.17303989871E+03  0.00000000000E+00 0.  1.
          2   -1    0    0  502    0 -0.00000000000E+00 -0.00000000000E+00 -0.33440700721E+02  0.33440700721E+02  0.00000000000E+00 0. -1.
          2    1    1    2  501    0  0.17313312293E+01 -0.20597697971E+02 -0.29556149323E+02  0.36067001987E+02  0.00000000000E+00 0. -1.
          2    1    1    2  502    0 -0.17313312293E+01  0.20597697971E+02  0.16915534731E+03  0.17041359744E+03  0.00000000000E+00 0.  1.
</event>
<event>
 4    1  0.6089441E+003  0.2012877E+02  0.7546771E-02  0.1532076E+00
          2   -1    0    0  501    0  0.00000000000E+00  0.00000000000E+00  0.16207642719E+03  0.16207642719E+03  0.00000000000E+00 0. -1.
          2   -1    0    0  502    0 -0.00000000000E+00 -0.00000000000E+00 -0.28451114176E+02  0.28451114176E+02  0.00000000000E+00 0. -1.
          2    1    1    2  501    0  0.19965917056E+02  0.25552640747E+01 -0.24169738258E+02  0.31453830702E+02  0.00000000000E+00 0. -1.
          2    1    1    2  502    0 -0.19965917056E+02 -0.25552640747E+01  0.15779505127E+03  0.15907371066E+03  0.00000000000E+00 0. -1.
</event>
<event>
 4    1  0.6089441E+003  0.2417522E+02  0.7546771E-02  0.1478246E+00
          2   -1    0    0  502    0  0.00000000000E+00  0.00000000000E+00  0.15828256680E+03  0.15828256680E+03  0.00000000000E+00 0.  1.
          2   -1    0    0  501    0 -0.00000000000E+00 -0.00000000000E+00 -0.28576286561E+03  0.28576286561E+03  0.00000000000E+00 0. -1.
          2    1    1    2  501    0 -0.79919715672E+01 -0.22816000066E+02  0.15684350545E+03  0.15869570464E+03  0.00000000000E+00 0.  1.
          2    1    1    2  502    0  0.79919715672E+01  0.22816000066E+02 -0.28432380426E+03  0.28534972777E+03  0.00000000000E+00 0. -1.
</event>
<event>
 4    1  0.6089441E+003  0.3331355E+02  0.7546771E-02  0.1392823E+00
          2   -1    0    0  502    0  0.00000000000E+00  0.00000000000E+00  0.14341338687E+01  0.14341338687E+01  0.00000000000E+00 0.  1.
          2   -1    0    0  501    0 -0.00000000000E+00 -0.00000000000E+00 -0.12672645884E+04  0.12672645884E+04  0.00000000000E+00 0.  1.
          2    1    1    2  501    0  0.30847444100E+02 -0.12578872307E+02 -0.23708912708E+03  0.23941814262E+03  0.00000000000E+00 0.  1.
          2    1    1    2  502    0 -0.30847444100E+02  0.12578872307E+02 -0.10287413275E+04  0.10292805797E+04  0.00000000000E+00 0.  1.
</event>
<event>
 4    1  0.6089441E+003  0.2172418E+02  0.7546771E-02  0.1509172E+00
          2   -1    0    0  502    0  0.00000000000E+00  0.00000000000E+00  0.31752255740E+03  0.31752255740E+03  0.00000000000E+00 0.  1.
          2   -1    0    0  501    0 -0.00000000000E+00 -0.00000000000E+00 -0.41049363039E+02  0.41049363039E+02  0.00000000000E+00 0. -1.
          2    1    1    2  501    0  0.21482492143E+02 -0.32314797422E+01  0.31424683021E+03  0.31499684161E+03  0.00000000000E+00 0.  1.
          2    1    1    2  502    0 -0.21482492143E+02  0.32314797422E+01 -0.37773635844E+02  0.43575078828E+02  0.00000000000E+00 0. -1.
</event>
<event>
 4    1  0.6089441E+003  0.2503872E+02  0.7546771E-02  0.1468371E+00
          2   -1    0    0  501    0  0.00000000000E+00  0.00000000000E+00  0.90520763587E+03  0.90520763587E+03  0.00000000000E+00 0.  1.
          2   -1    0    0  502    0 -0.00000000000E+00 -0.00000000000E+00 -0.81688283239E+00  0.81688283239E+00  0.00000000000E+00 0.  1.
          2    1    1    2  501    0 -0.15195880895E+02 -0.19900321814E+02  0.27548851790E+03  0.27662404288E+03  0.00000000000E+00 0.  1.
          2    1    1    2  502    0  0.15195880895E+02  0.19900321814E+02  0.62890223514E+03  0.62940047582E+03  0.00000000000E+00 0.  1.
</event>
<event>
 4    1  0.6089441E+003  0.2452180E+02  0.7546771E-02  0.1474225E+00
          2   -1    0    0  502    0  0.00000000000E+00  0.00000000000E+00  0.99397387989E+03  0.99397387989E+03  0.00000000000E+00 0.  1.
          2   -1    0    0  501    0 -0.00000000000E+00 -0.00000000000E+00 -0.12338338826E+02  0.12338338826E+02  0.00000000000E+00 0. -1.
          2    1    1    2  501    0  0.14832372621E+02 -0.19527397525E+02  0.98148366773E+03  0.98178995134E+03  0.00000000000E+00 0.  1.
          2    1    1    2  502    0 -0.14832372621E+02  0.19527397525E+02  0.15187333282E+00  0.24522267375E+02  0.00000000000E+00 0. -1.
</event>
<event>
 4    1  0.6089441E+003  0.2840773E+02  0.7546771E-02  0.1433958E+00
          2   -1    0    0  501    0  0.00000000000E+00  0.00000000000E+00  0.21192062536E+03  0.21192062536E+03  0.00000000000E+00 0.  1.
          2   -1    0    0  502    0 -0.00000000000E+00 -0.00000000000E+00 -0.93236688914E+01  0.93236688914E+01  0.00000000000E+00 0.  1.
          2    1    1    2  501    0  0.13760459967E+02 -0.24852542956E+02  0.16214703027E+02  0.32709566554E+02  0.00000000000E+00 0.  1.
          2    1    1    2  502    0 -0.13760459967E+02  0.24852542956E+02  0.18638225344E+03  0.18853472770E+03  0.00000000000E+00 0.  1.
</event>
<event>
 4    1  0.6089441E+003  0.2871862E+02  0.7546771E-02  0.1431068E+00
          2   -1    0    0  501    0  0.00000000000E+00  0.00000000000E+00  0.83862789928E+03  0.83862789928E+03  0.00000000000E+00 0. -1.
          2   -1    0    0  502    0 -0.00000000000E+00 -0.00000000000E+00 -0.21927950025E+01  0.21927950025E+01  0.00000000000E+00 0. -1.
          2    1    1    2  501    0  0.35171590972E+01 -0.28502431041E+02  0.10600722414E+03  0.10982845967E+03  0.00000000000E+00 0. -1.
          2    1    1    2  502    0 -0.35171590972E+01  0.28502431041E+02  0.73042788014E+03  0.73099223461E+03  0.00000000000E+00 0. -1.
</event>
<event>
 4    1  0.6089441E+003  0.2572662E+02  0.7546771E-02  0.1460836E+00
          2   -1    0    0  501    0  0.00000000000E+00  0.00000000000E+00  0.58833683260E+01  0.58833683260E+01  0.00000000000E+00 0.  1.
          2   -1    0    0  502    0 -0.00000000000E+00 -0.00000000000E+00 -0.11591550751E+03  0.11591550751E+03  0.00000000000E+00 0.  1.
          2    1    1    2  501    0 -0.10867056250E+01 -0.25703662486E+02 -0.44557233148E+02  0.51451007960E+02  0.00000000000E+00 0.  1.
          2    1    1    2  502    0  0.10867056250E+01  0.25703662486E+02 -0.65474906039E+02  0.70347867879E+02  0.00000000000E+00 0.  1.
</event>
<event>
 4    1  0.6089441E+003  0.2205285E+02  0.7546771E-02  0.1504747E+00
          2   -1    0    0  502    0  0.00000000000E+00  0.00000000000E+00  0.38300486787E+03  0.38300486787E+03  0.00000000000E+00 0. -1.
          2   -1    0    0  501    0 -0.00000000000E+00 -0.00000000000E+00 -0.58161955754E+01  0.58161955754E+01  0.00000000000E+00 0.  1.
          2    1    1    2  501    0  0.44927264997E+01  0.21590361837E+02  0.36047827697E+03  0.36115220681E+03  0.00000000000E+00 0. -1.
          2    1    1    2  502    0 -0.44927264997E+01 -0.21590361837E+02  0.16710395324E+02  0.27668856636E+02  0.00000000000E+00 0.  1.
</event>
<event>
 4    1  0.6089441E+003  0.2195545E+02  0.7546771E-02  0.1506048E+00
          2   -1    0    0  502    0  0.00000000000E+00  0.00000000000E+00  0.11340785463E+03  0.11340785463E+03  0.00000000000E+00 0.  1.
          2   -1    0    0  501    0 -0.00000000000E+00 -0.00000000000E+00 -0.24713728658E+02  0.24713728658E+02  0.00000000000E+00 0.  1.
          2    1    1    2  501    0  0.19003492593E+02  0.10995864066E+02  0.10718896736E+03  0.10941442538E+03  0.00000000000E+00 0.  1.
          2    1    1    2  502    0 -0.19003492593E+02 -0.10995864066E+02 -0.18494841388E+02  0.28707157910E+02  0.00000000000E+00 0.  1.
</event>
<event>
 4    1  0.6089441E+003  0.2129909E+02  0.7546771E-02  0.1515037E+00
          2   -1    0    0  502    0  0.00000000000E+00  0.00000000000E+00  0.46727704656E+03  0.46727704656E+03  0.00000000000E+00 0.  1.
          2   -1    0    0  501    0 -0.00000000000E+00 -0.00000000000E+00 -0.26313785159E+01  0.26313785159E+01  0.00000000000E+00 0. -1.
          2    1    1    2  501    0 -0.20917475256E+02  0.40137848664E+01  0.41896770184E+03  0.41950874416E+03  0.00000000000E+00 0.  1.
          2    1    1    2  502    0  0.20917475256E+02 -0.40137848664E+01  0.45677966200E+02  0.50399680914E+02  0.00000000000E+00 0. -1.
</event>
<event>
 4    1  0.6089441E+003  0.2036137E+02  0.7546771E-02  0.1528581E+00
          2   -1    0    0  502    0  0.00000000000E+00  0.00000000000E+00  0.15535105122E+03  0.15535105122E+03  0.00000000000E+00 0.  1.
          2   -1    0    0  501    0 -0.00000000000E+00 -0.00000000000E+00 -0.12157569738E+04  0.12157569738E+04  0.00000000000E+00 0. -1.
          2    1    1    2  501    0  0.19987336098E+02  0.38848011959E+01  0.15459821046E+03  0.15593329331E+03  0.00000000000E+00 0.  1.
          2    1    1    2  502    0 -0.19987336098E+02 -0.38848011959E+01 -0.12150041330E+04  0.12151747317E+04  0.00000000000E+00 0. -1.
</event>
<event>
 4    1  0.8712340E+003  0.2118604E+02  0.7546771E-02  0.1516625E+00
          2   -1    0    0  502    0  0.00000000000E+00  0.00000000000E+00  0.57272365863E+03  0.57272365863E+03  0.00000000000E+00 0.  1.
          2   -1    0    0  501    0 -0.00000000000E+00 -0.00000000000E+00 -0.12514821035E+04  0.12514821035E+04  0.00000000000E+00 0. -1.
          2    1    1    2  501    0 -0.42877579093E+00  0.21181703393E+02  0.57243802341E+03  0.57282993903E+03  0.00000000000E+00 0.  1.
          2    1    1    2  502    0  0.42877579093E+00 -0.21181703393E+02 -0.12511964683E+04  0.12513758231E+04  0.00000000000E+00 0. -1.
</event>
<event>
 4    1  0.6089441E+003  0.2046156E+02  0.7546771E-02  0.1527093E+00
          2   -1    0    0  501    0  0.00000000000E+00  0.00000000000E+00  0.68061219685E+01  0.68061219685E+01  0.00000000000E+00 0.  1.
          2   -1    0    0  502    0 -0.00000000000E+00 -0.00000000000E+00 -0.11359988845E+03  0.11359988845E+03  0.00000000000E+00 0. -1.
          2    1    1    2  501    0  0.17745542696E+02  0.10186821524E+02 -0.94161832832E+02  0.96359360628E+02  0.00000000000E+00 0. -1.
          2    1    1    2  502    0 -0.17745542696E+02 -0.10186821524E+02 -0.12631933646E+02  0.24046649787E+02  0.00000000000E+00 0.  1.
</event>
<event>
 4    1  0.6089441E+003  0.2313408E+02  0.7546771E-02  0.1490821E+00
          2   -1    0    0  502    0  0.00000000000E+00  0.00000000000E+00  0.95362151218E+02  0.95362151218E+02  0.00000000000E+00 0. -1.
          2   -1    0    0  501    0 -0.00000000000E+00 -0.00000000000E+00 -0.77055849260E+03  0.77055849260E+03  0.00000000000E+00 0. -1.
          2    1    1    2  501    0  0.13787412212E+02  0.18576680972E+02  0.93782599044E+02  0.96593797393E+02  0.00000000000E+00 0. -1.
          2    1    1    2  502    0 -0.13787412212E+02 -0.18576680972E+02 -0.76897894042E+03  0.76932684642E+03  0.00000000000E+00 0. -1.
</event>
<event>
 4    1  0.6089441E+003  0.2783082E+02  0.7546771E-02  0.1439436E+00
          2   -1    0    0  502    0  0.00000000000E+00  0.00000000000E+00  0.13996761122E+04  0.13996761122E+04  0.00000000000E+00 0. -1.
          2   -1    0    0  501    0 -0.00000000000E+00 -0.00000000000E+00 -0.31608883382E+01  0.31608883382E+01  0.00000000000E+00 0.  1.
          2    1    1    2  501    0 -0.25900735117E+02 -0.10183624928E+02  0.13353250403E+04  0.13356150334E+04  0.00000000000E+00 0. -1.
          2    1    1    2  502    0  0.25900735117E+02  0.10183624928E+02  0.61190183557E+02  0.67221967094E+02  0.00000000000E+00 0.  1.
</event>
<event>
 4    1  0.6089441E+003  0.2023696E+02  0.7546771E-02  0.1530444E+00
          2   -1    0    0  502    0  0.00000000000E+00  0.00000000000E+00  0.70849698510E+01  0.70849698510E+01  0.00000000000E+00 0. -1.
          2   -1    0    0  501    0 -0.00000000000E+00 -0.00000000000E+00 -0.59856222398E+03  0.59856222398E+03  0.00000000000E+00 0. -1.
          2    1    1    2  501    0 -0.13898933682E+01 -0.20189177655E+02 -0.79080651026E+01  0.21727222363E+02  0.00000000000E+00 0. -1.
          2    1    1    2  502    0  0.13898933682E+01  0.20189177655E+02 -0.58356918902E+03  0.58391997146E+03  0.00000000000E+00 0. -1.
</event>
<event>
 4    1  0.6089441E+003  0.2291452E+02  0.7546771E-02  0.1493574E+00
          2   -1    0    0  501    0  0.00000000000E+00  0.00000000000E+00  0.10308398099E+03  0.10308398099E+03  0.00000000000E+00 0. -1.
          2   -1    0    0  502    0 -0.00000000000E+00 -0.00000000000E+00 -0.64750596399E+01  0.64750596399E+01  0.00000000000E+00 0.  1.
          2    1    1    2  501    0  0.76407421685E+01 -0.21603113253E+02  0.23002454829E+02  0.32468267143E+02  0.00000000000E+00 0.  1.
          2    1    1    2  502    0 -0.76407421685E+01  0.21603113253E+02  0.73606466516E+02  0.77090773482E+02  0.00000000000E+00 0. -1.
</event>
<event>
 4    1  0.6089441E+003  0.2355034E+02  0.7546771E-02  0.1485701E+00
          2   -1    0    0  502    0  0.00000000000E+00  0.00000000000E+00  0.17242938029E+03  0.17242938029E+03  0.00000000000E+00 0. -1.
          2   -1    0    0  501    0 -0.00000000000E+00 -0.00000000000E+00 -0.15342350003E+02  0.15342350003E+02  0.00000000000E+00 0. -1.
          2    1    1    2  501    0 -0.15425790419E+02  0.17795039830E+02  0.16200967502E+03  0.16371241020E+03  0.00000000000E+00 0. -1.
          2    1    1    2  502    0  0.15425790419E+02 -0.17795039830E+02 -0.49226447289E+01  0.24059320101E+02  0.00000000000E+00 0. -1.
</event>
<event>
 4    1  0.6089441E+003  0.2173909E+02  0.7546771E-02  0.1508969E+00
          2   -1    0    0  501    0  0.00000000000E+00  0.00000000000E+00  0.13911727582E+03  0.13911727582E+03  0.00000000000E+00 0.  1.
          2   -1    0    0  502    0 -0.00000000000E+00 -0.00000000000E+00 -0.10359682770E+03  0.10359682770E+03  0.00000000000E+00 0. -1.
          2    1    1    2  501    0 -0.20778434087E+02  0.63909714361E+01 -0.10159053231E+03  0.10389044274E+03  0.00000000000E+00 0. -1.
          2    1    1    2  502    0  0.20778434087E+02 -0.63909714361E+01  0.13711098042E+03  0.13882366077E+03  0.00000000000E+00 0.  1.
</event>
<event>
 4    1  0.6089441E+003  0.3342401E+02  0.7546771E-02  0.1391995E+00
          2   -1    0    0  501    0  0.00000000000E+00  0.00000000000E+00  0.22564937248E+01  0.22564937248E+01  0.00000000000E+00 0. -1.
          2   -1    0    0  502    0 -0.00000000000E+00 -0.00000000000E+00 -0.21303450466E+04  0.21303450466E+04  0.00000000000E+00 0. -1.
          2    1    1    2  501    0  0.31571585629E+02 -0.10972659995E+02 -0.19982611011E+04  0.19985406157E+04  0.00000000000E+00 0. -1.
          2    1    1    2  502    0 -0.31571585629E+02  0.10972659995E+02 -0.12982745176E+03  0.13406092464E+03  0.00000000000E+00 0. -1.
</event>
<event>
 4    1  0.6089441E+003  0.4045865E+02  0.7546771E-02  0.1345819E+00
          2   -1    0    0  501    0  0.00000000000E+00  0.00000000000E+00  0.16719140240E+03  0.16719140240E+03  0.00000000000E+00 0.  1.
          2   -1    0    0  502    0 -0.00000000000E+00 -0.00000000000E+00 -0.12836298279E+02  0.12836298279E+02  0.00000000000E+00 0.  1.
          2    1    1    2  501    0  0.40445220749E+02 -0.10424175264E+01  0.33331189330E+02  0.52420136378E+02  0.00000000000E+00 0.  1.
          2    1    1    2  502    0 -0.40445220749E+02  0.10424175264E+01  0.12102391479E+03  0.12760756430E+03  0.00000000000E+00 0.  1.
</event>
<event>
 4    1  0.6089441E+003  0.2047082E+02  0.7546771E-02  0.1526956E+00
          2   -1    0    0  502    0  0.00000000000E+00  0.00000000000E+00  0.72865977773E+01  0.72865977773E+01  0.00000000000E+00 0. -1.
          2   -1    0    0  501    0 -0.00000000000E+00 -0.00000000000E+00 -0.12950944555E+04  0.12950944555E+04  0.00000000000E+00 0. -1.
          2    1    1    2  501    0  0.45109800280E+01  0.19967608511E+02 -0.73360441209E+01  0.21745617347E+02  0.00000000000E+00 0. -1.
          2    1    1    2  502    0 -0.45109800280E+01 -0.19967608511E+02 -0.12804718136E+04  0.12806354359E+04  0.00000000000E+00 0. -1.
</event>
<event>
 4    1  0.6089441E+003  0.2346441E+02  0.7546771E-02  0.1486747E+00
          2   -1    0    0  502    0  0.00000000000E+00  0.00000000000E+00  0.65579340265E+02  0.65579340265E+02  0.00000000000E+00 0.  1.
          2   -1    0    0  501    0 -0.00000000000E+00 -0.00000000000E+00 -0.17019709371E+03  0.17019709371E+03  0.00000000000E+00 0. -1.
          2    1    1    2  501    0  0.20865775798E+02 -0.10733035248E+02  0.62634930397E+02  0.66885821750E+02  0.00000000000E+00 0.  1.
          2    1    1    2  502    0 -0.20865775798E+02  0.10733035248E+02 -0.16725268384E+03  0.16889061222E+03  0.00000000000E+00 0. -1.
</event>
<event>
 4    1  0.6089441E+003  0.4000690E+02  0.7546771E-02  0.1348445E+00
          2   -1    0    0  501    0  0.00000000000E+00  0.00000000000E+00  0.17582699484E+04  0.17582699484E+04  0.00000000000E+00 0.  1.
          2   -1    0    0  502    0 -0.00000000000E+00 -0.00000000000E+00 -0.92585895944E+01  0.92585895944E+01  0.00000000000E+00 0. -1.
          2    1    1    2  501    0 -0.34950358707E+02  0.19468552564E+02  0.35310867758E+02  0.53361123437E+02  0.00000000000E+00 0. -1.
          2    1    1    2  502    0  0.34950358707E+02 -0.19468552564E+02  0.17137004910E+04  0.17141674145E+04  0.00000000000E+00 0.  1.
</event>
<event>
 4    1  0.6089441E+003  0.2465712E+02  0.7546771E-02  0.1472676E+00
          2   -1    0    0  502    0  0.00000000000E+00  0.00000000000E+00  0.39631891933E+02  0.39631891933E+02  0.00000000000E+00 0.  1.
          2   -1    0    0  501    0 -0.00000000000E+00 -0.00000000000E+00 -0.27479667394E+02  0.27479667394E+02  0.00000000000E+00 0.  1.
          2    1    1    2  501    0 -0.21197175968E+02 -0.12595762401E+02 -0.16226505432E+02  0.29517333518E+02  0.00000000000E+00 0.  1.
          2    1    1    2  502    0  0.21197175968E+02  0.12595762401E+02  0.28378729970E+02  0.37594225809E+02  0.00000000000E+00 0.  1.
</event>
<event>
 4    1  0.6089441E+003  0.2255235E+02  0.7546771E-02  0.1498197E+00
          2   -1    0    0  502    0  0.00000000000E+00  0.00000000000E+00  0.25541430516E+00  0.25541430516E+00  0.00000000000E+00 0. -1.
          2   -1    0    0  501    0 -0.00000000000E+00 -0.00000000000E+00 -0.21376153022E+04  0.21376153022E+04  0.00000000000E+00 0.  1.
          2    1    1    2  501    0  0.11558131196E+01 -0.22522717176E+02 -0.78902736185E+03  0.78934959710E+03  0.00000000000E+00 0. -1.
          2    1    1    2  502    0 -0.11558131196E+01  0.22522717176E+02 -0.13483325260E+04  0.13485211194E+04  0.00000000000E+00 0.  1.
</event>
<event>
 4    1  0.6089441E+003  0.2240405E+02  0.7546771E-02  0.1500120E+00
          2   -1    0    0  501    0  0.00000000000E+00  0.00000000000E+00  0.23575311054E+02  0.23575311054E+02  0.00000000000E+00 0. -1.
          2   -1    0    0  502    0 -0.00000000000E+00 -0.00000000000E+00 -0.33678640325E+03  0.33678640325E+03  0.00000000000E+00 0. -1.
          2    1    1    2  501    0  0.22392931845E+02 -0.70569586395E+00 -0.33099808788E+03  0.33175544544E+03  0.00000000000E+00 0. -1.
          2    1    1    2  502    0 -0.22392931845E+02  0.70569586395E+00  0.17786995675E+02  0.28606268866E+02  0.00000000000E+00 0. -1.
</event>
<event>
 4    1  0.6089441E+003  0.2636792E+02  0.7546771E-02  0.1454063E+00
          2   -1    0    0  502    0  0.00000000000E+00  0.00000000000E+00  0.11666520843E+01  0.11666520843E+01  0.00000000000E+00 0. -1.
          2   -1    0    0  501    0 -0.00000000000E+00 -0.00000000000E+00 -0.88015749625E+03  0.88015749625E+03  0.00000000000E+00 0. -1.
          2    1    1    2  501    0 -0.93980272952E+01  0.24636242786E+02 -0.18909068271E+03  0.19092028091E+03  0.00000000000E+00 0. -1.
          2    1    1    2  502    0  0.93980272952E+01 -0.24636242786E+02 -0.68990016145E+03  0.69040386742E+03  0.00000000000E+00 0. -1.
</event>
<event>
 4    1  0.6089441E+003  0.2018396E+02  0.7546771E-02  0.1531242E+00
          2   -1    0    0  501    0  0.00000000000E+00  0.00000000000E+00  0.16595059024E+02  0.16595059024E+02  0.00000000000E+00 0.  1.
          2   -1    0    0  502    0 -0.00000000000E+00 -0.00000000000E+00 -0.57467079745E+02  0.57467079745E+02  0.00000000000E+00 0.  1.
          2    1    1    2  501    0 -0.18123321345E+02  0.88846646048E+01 -0.48462839168E+02  0.52497988742E+02  0.00000000000E+00 0.  1.
          2    1    1    2  502    0  0.18123321345E+02 -0.88846646048E+01  0.75908184476E+01  0.21564150027E+02  0.00000000000E+00 0.  1.
</event>
<event>
 4    1  0.6089441E+003  0.4184612E+02  0.7546771E-02  0.1337994E+00
          2   -1    0    0  502    0  0.00000000000E+00  0.00000000000E+00  0.86004310898E+03  0.86004310898E+03  0.00000000000E+00 0. -1.
          2   -1    0    0  501    0 -0.00000000000E+00 -0.00000000000E+00 -0.35063511415E+01  0.35063511415E+01  0.00000000000E+00 0. -1.
          2    1    1    2  501    0 -0.30128405964E+02 -0.29040957059E+02  0.70786467808E+03  0.70910048689E+03  0.00000000000E+00 0. -1.
          2    1    1    2  502    0  0.30128405964E+02  0.29040957059E+02  0.14867207976E+03  0.15444897323E+03  0.00000000000E+00 0. -1.
</event>
<event>
 4    1  0.6089441E+003  0.3085507E+02  0.7546771E-02  0.1412308E+00
          2   -1    0    0  501    0  0.00000000000E+00  0.00000000000E+00  0.31568448795E+03  0.31568448795E+03  0.00000000000E+00 0.  1.
          2   -1    0    0  502    0 -0.00000000000E+00 -0.00000000000E+00 -0.25608437126E+02  0.25608437126E+02  0.00000000000E+00 0. -1.
          2    1    1    2  501    0  0.27782044376E+02  0.13423607040E+02 -0.15245689926E+02  0.34416075851E+02  0.00000000000E+00 0. -1.
          2    1    1    2  502    0 -0.27782044376E+02 -0.13423607040E+02  0.30532174075E+03  0.30687684923E+03  0.00000000000E+00 0.  1.
</event>
<event>
 4    1  0.6089441E+003  0.2064172E+02  0.7546771E-02  0.1524442E+00
          2   -1    0    0  501    0  0.00000000000E+00  0.00000000000E+00  0.12061486024E+02  0.12061486024E+02  0.00000000000E+00 0. -1.
          2   -1    0    0  502    0 -0.00000000000E+00 -0.00000000000E+00 -0.59730798688E+02  0.59730798688E+02  0.00000000000E+00 0. -1.
          2    1    1    2  501    0  0.20405624700E+02  0.31130598747E+01 -0.46779691965E+02  0.51131401717E+02  0.00000000000E+00 0. -1.
          2    1    1    2  502    0 -0.20405624700E+02 -0.31130598747E+01 -0.88962069912E+00  0.20660882995E+02  0.00000000000E+00 0. -1.
</event>
<event>
 4    1  0.6089441E+003  0.2063555E+02  0.7546771E-02  0.1524532E+00
          2   -1    0    0  502    0  0.00000000000E+00  0.00000000000E+00  0.11351494444E+04  0.11351494444E+04  0.00000000000E+00 0.  1.
          2   -1    0    0  501    0 -0.00000000000E+00 -0.00000000000E+00 -0.11962115926E+02  0.11962115926E+02  0.00000000000E+00 0.  1.
          2    1    1    2  501    0  0.18536301712E+02 -0.90681656803E+01  0.11260845554E+04  0.11262736133E+04  0.00000000000E+00 0.  1.
          2    1    1    2  502    0 -0.18536301712E+02  0.90681656803E+01 -0.28972269767E+01  0.20837946974E+02  0.00000000000E+00 0.  1.
</event>
<event>
 4    1  0.6089441E+003  0.4083166E+02  0.7546771E-02  0.1343680E+00
          2   -1    0    0  501    0  0.00000000000E+00  0.00000000000E+00  0.43176143533E+03  0.43176143533E+03  0.00000000000E+00 0. -1.
          2   -1    0    0  502    0 -0.00000000000E+00 -0.00000000000E+00 -0.47223367706E+01  0.47223367706E+01  0.00000000000E+00 0. -1.
          2    1    1    2  501    0 -0.47603853088E+01 -0.40553213734E+02  0.30670177987E+03  0.30940783149E+03  0.00000000000E+00 0. -1.
          2    1    1    2  502    0  0.47603853088E+01  0.40553213734E+02  0.12033731869E+03  0.12707594061E+03  0.00000000000E+00 0. -1.
</event>
<event>
 4    1  0.6089441E+003  0.2215626E+02  0.7546771E-02  0.1503374E+00
          2   -1    0    0  501    0  0.00000000000E+00  0.00000000000E+00  0.91476137531E+01  0.91476137531E+01  0.00000000000E+00 0. -1.
          2   -1    0    0  502    0 -0.00000000000E+00 -0.00000000000E+00 -0.40939858235E+03  0.40939858235E+03  0.00000000000E+00 0.  1.
          2    1    1    2  501    0  0.18020808702E+02 -0.12889932361E+02 -0.39520116110E+03  0.39582174983E+03  0.00000000000E+00 0.  1.
          2    1    1    2  502    0 -0.18020808702E+02  0.12889932361E+02 -0.50498074912E+01  0.22724446269E+02  0.00000000000E+00 0. -1.
</event>
<event>
 4    1  0.6089441E+003  0.2174532E+02  0.7546771E-02  0.1508884E+00
          2   -1    0    0  502    0  0.00000000000E+00  0.00000000000E+00  0.60361514802E+03  0.60361514802E+03  0.00000000000E+00 0.  1.
          2   -1    0    0  501    0 -0.00000000000E+00 -0.00000000000E+00 -0.21209083435E+01  0.21209083435E+01  0.00000000000E+00 0.  1.
          2    1    1    2  501    0 -0.18598868890E+02  0.11266803890E+02  0.54126330700E+03  0.54169994120E+03  0.00000000000E+00 0.  1.
          2    1    1    2  502    0  0.18598868890E+02 -0.11266803890E+02  0.60230932681E+02  0.64036115165E+02  0.00000000000E+00 0.  1.
</event>
<event>
 4    1  0.6089441E+003  0.2407076E+02  0.7546771E-02  0.1479473E+00
          2   -1    0    0  502    0  0.00000000000E+00  0.00000000000E+00  0.18179540501E+01  0.18179540501E+01  0.00000000000E+00 0. -1.
          2   -1    0    0  501    0 -0.00000000000E+00 -0.00000000000E+00 -0.72396568973E+03  0.72396568973E+03  0.00000000000E+00 0.  1.
          2    1    1    2  501    0 -0.18260161024E+02  0.15683369711E+02 -0.89566057299E+02  0.92744165241E+02  0.00000000000E+00 0. -1.
          2    1    1    2  502    0  0.18260161024E+02 -0.15683369711E+02 -0.63258167838E+03  0.63303947854E+03  0.00000000000E+00 0.  1.
</event>
<event>
 4    1  0.6089441E+003  0.2179265E+02  0.7546771E-02  0.1508242E+00
          2   -1    0    0  501    0  0.00000000000E+00  0.00000000000E+00  0.24843158444E+02  0.24843158444E+02  0.00000000000E+00 0. -1.
          2   -1    0    0  502    0 -0.00000000000E+00 -0.00000000000E+00 -0.76469309645E+02  0.76469309645E+02  0.00000000000E+00 0.  1.
          2    1    1    2  501    0  0.75256474215E+01  0.20451993582E+02 -0.69682897968E+02  0.73011133944E+02  0.00000000000E+00 0.  1.
          2    1    1    2  502    0 -0.75256474215E+01 -0.20451993582E+02  0.18056746767E+02  0.28301334145E+02  0.00000000000E+00 0. -1.
</event>
<event>
 4    1  0.6089441E+003  0.5467472E+02  0.7546771E-02  0.1279084E+00
          2   -1    0    0  502    0  0.00000000000E+00  0.00000000000E+00  0.31795447215E+03  0.31795447215E+03  0.00000000000E+00 0. -1.
          2   -1    0    0  501    0 -0.00000000000E+00 -0.00000000000E+00 -0.31540337059E+02  0.31540337059E+02  0.00000000000E+00 0. -1.
          2    1    1    2  501    0 -0.40091669120E+02  0.37175039695E+02  0.28961095543E+03  0.29472670564E+03  0.00000000000E+00 0. -1.
          2    1    1    2  502    0  0.40091669120E+02 -0.37175039695E+02 -0.31968203367E+01  0.54768103577E+02  0.00000000000E+00 0. -1.
</event>
<event>
 4    1  0.6089441E+003  0.2159435E+02  0.7546771E-02  0.1510946E+00
          2   -1    0    0  501    0  0.00000000000E+00  0.00000000000E+00  0.11120174719E+02  0.11120174719E+02  0.00000000000E+00 0. -1.
          2   -1    0    0  502    0 -0.00000000000E+00 -0.00000000000E+00 -0.10495538348E+03  0.10495538348E+03  0.00000000000E+00 0.  1.
          2    1    1    2  501    0  0.12743506361E+02 -0.17433269460E+02 -0.91890581528E+02  0.94393828252E+02  0.00000000000E+00 0.  1.
          2    1    1    2  502    0 -0.12743506361E+02  0.17433269460E+02 -0.19446272338E+01  0.21681729948E+02  0.00000000000E+00 0. -1.
</event>
<event>
 4    1  0.6089441E+003  0.2414379E+02  0.7546771E-02  0.1478614E+00
          2   -1    0    0  501    0  0.00000000000E+00  0.00000000000E+00  0.75566904019E+02  0.75566904019E+02  0.00000000000E+00 0. -1.
          2   -1    0    0  502    0 -0.00000000000E+00 -0.00000000000E+00 -0.78838026242E+01  0.78838026242E+01  0.00000000000E+00 0. -1.
          2    1    1    2  501    0  0.12450409812E+02  0.20685977956E+02  0.27717816232E+02  0.36758668707E+02  0.00000000000E+00 0. -1.
          2    1    1    2  502    0 -0.12450409812E+02 -0.20685977956E+02  0.39965285163E+02  0.46692037936E+02  0.00000000000E+00 0. -1.
</event>
<event>
 4    1  0.6089441E+003  0.2425796E+02  0.7546771E-02  0.1477278E+00
          2   -1    0    0  501    0  0.00000000000E+00  0.00000000000E+00  0.28867663261E+02  0.28867663261E+02  0.00000000000E+00 0.  1.
          2   -1    0    0  502    0 -0.00000000000E+00 -0.00000000000E+00 -0.98428745706E+02  0.98428745706E+02  0.00000000000E+00 0.  1.
          2    1    1    2  501    0  0.24252512747E+02  0.51394309068E+00 -0.91456130744E+02  0.94618562464E+02  0.00000000000E+00 0.  1.
          2    1    1    2  502    0 -0.24252512747E+02 -0.51394309068E+00  0.21895048299E+02  0.32677846503E+02  0.00000000000E+00 0.  1.
</event>
<event>
 4    1  0.6089441E+003  0.2408213E+02  0.7546771E-02  0.1479339E+00
          2   -1    0    0  502    0  0.00000000000E+00  0.00000000000E+00  0.17497155182E+04  0.17497155182E+04  0.00000000000E+00 0.  1.
          2   -1    0    0  501    0 -0.00000000000E+00 -0.00000000000E+00 -0.97889467930E+00  0.97889467930E+00  0.00000000000E+00 0. -1.
          2    1    1    2  501    0  0.24068621673E+02 -0.80662425114E+00  0.15862577543E+04  0.15864405479E+04  0.00000000000E+00 0.  1.
          2    1    1    2  502    0 -0.24068621673E+02  0.80662425114E+00  0.16247886926E+03  0.16425386494E+03  0.00000000000E+00 0. -1.
</event>
<event>
 4    1  0.6089441E+003  0.2111582E+02  0.7546771E-02  0.1517618E+00
          2   -1    0    0  502    0  0.00000000000E+00  0.00000000000E+00  0.66774818776E+03  0.66774818776E+03  0.00000000000E+00 0. -1.
          2   -1    0    0  501    0 -0.00000000000E+00 -0.00000000000E+00 -0.11881860883E+01  0.11881860883E+01  0.00000000000E+00 0. -1.
          2    1    1    2  501    0 -0.18344946322E+02  0.10456623093E+02  0.55464199244E+03  0.55504379810E+03  0.00000000000E+00 0. -1.
          2    1    1    2  502    0  0.18344946322E+02 -0.10456623093E+02  0.11191800923E+03  0.11389257575E+03  0.00000000000E+00 0. -1.
</event>
<event>
 4    1  0.6089441E+003  0.2028346E+02  0.7546771E-02  0.1529746E+00
          2   -1    0    0  501    0  0.00000000000E+00  0.00000000000E+00  0.11296038899E+04  0.11296038899E+04  0.00000000000E+00 0.  1.
          2   -1    0    0  502    0 -0.00000000000E+00 -0.00000000000E+00 -0.65361979147E+00  0.65361979147E+00  0.00000000000E+00 0.  1.
          2    1    1    2  501    0  0.19220735408E+02 -0.64793424259E+01  0.18843192149E+03  0.18952046745E+03  0.00000000000E+00 0.  1.
          2    1    1    2  502    0 -0.19220735408E+02  0.64793424259E+01  0.94051834860E+03  0.94073704222E+03  0.00000000000E+00 0.  1.
</event>
<event>
 4    1  0.6089441E+003  0.2211045E+02  0.7546771E-02  0.1503981E+00
          2   -1    0    0  501    0  0.00000000000E+00  0.00000000000E+00  0.13636377749E+01  0.13636377749E+01  0.00000000000E+00 0.  1.
          2   -1    0    0  502    0 -0.00000000000E+00 -0.00000000000E+00 -0.36958025620E+03  0.36958025620E+03  0.00000000000E+00 0. -1.
          2    1    1    2  501    0  0.21182741893E+02  0.63374672949E+01 -0.21621423037E+03  0.21734181710E+03  0.00000000000E+00 0.  1.
          2    1    1    2  502    0 -0.21182741893E+02 -0.63374672949E+01 -0.15200238806E+03  0.15360207688E+03  0.00000000000E+00 0. -1.
</event>
<event>
 4    1  0.6089441E+003  0.2282513E+02  0.7546771E-02  0.1494706E+00
          2   -1    0    0  502    0  0.00000000000E+00  0.00000000000E+00  0.53701554074E+02  0.53701554074E+02  0.00000000000E+00 0.  1.
          2   -1    0    0  501    0 -0.00000000000E+00 -0.00000000000E+00 -0.14231555189E+03  0.14231555189E+03  0.00000000000E+00 0. -1.
          2    1    1    2  501    0 -0.13487255647E+02  0.18414139279E+02  0.50302020145E+02  0.55238390825E+02  0.00000000000E+00 0.  1.
          2    1    1    2  502    0  0.13487255647E+02 -0.18414139279E+02 -0.13891601796E+03  0.14077871514E+03  0.00000000000E+00 0. -1.
</event>
<event>
 4    1  0.6089441E+003  0.3519609E+02  0.7546771E-02  0.1379190E+00
          2   -1    0    0  501    0  0.00000000000E+00  0.00000000000E+00  0.42166120547E+02  0.42166120547E+02  0.00000000000E+00 0.  1.
          2   -1    0    0  502    0 -0.00000000000E+00 -0.00000000000E+00 -0.78630947538E+02  0.78630947538E+02  0.00000000000E+00 0.  1.
          2    1    1    2  501    0 -0.18583988396E+02  0.29889794383E+02 -0.66034285506E+02  0.74828412353E+02  0.00000000000E+00 0.  1.
          2    1    1    2  502    0  0.18583988396E+02 -0.29889794383E+02  0.29569458515E+02  0.45968655732E+02  0.00000000000E+00 0.  1.
</event>
<event>
 4    1  0.6089441E+003  0.2617555E+02  0.7546771E-02  0.1456070E+00
          2   -1    0    0  502    0  0.00000000000E+00  0.00000000000E+00  0.22199726073E+03  0.22199726073E+03  0.00000000000E+00 0.  1.
          2   -1    0    0  501    0 -0.00000000000E+00 -0.00000000000E+00 -0.60858738388E+02  0.60858738388E+02  0.00000000000E+00 0.  1.
          2    1    1    2  501    0 -0.12061811967E+02  0.23230840181E+02  0.21836447116E+03  0.21992771883E+03  0.00000000000E+00 0.  1.
          2    1    1    2  502    0  0.12061811967E+02 -0.23230840181E+02 -0.57225948813E+02  0.62928280296E+02  0.00000000000E+00 0.  1.
</event>
<event>
 4    1  0.6089441E+003  0.2057494E+02  0.7546771E-02  0.1525421E+00
          2   -1    0    0  501    0  0.00000000000E+00  0.00000000000E+00  0.17526832471E+02  0.17526832471E+02  0.00000000000E+00 0. -1.
          2   -1    0    0  502    0 -0.00000000000E+00 -0.00000000000E+00 -0.99847256607E+03  0.99847256607E+03  0.00000000000E+00 0.  1.
          2    1    1    2  501    0  0.63144102146E+01 -0.19582044848E+02 -0.99229066995E+03  0.99250395562E+03  0.00000000000E+00 0.  1.
          2    1    1    2  502    0 -0.63144102146E+01  0.19582044848E+02  0.11344936355E+02  0.23495442914E+02  0.00000000000E+00 0. -1.
</event>
<event>
 4    1  0.6089441E+003  0.3231842E+02  0.7546771E-02  0.1400464E+00
          2   -1    0    0  501    0  0.00000000000E+00  0.00000000000E+00  0.28362191913E+02  0.28362191913E+02  0.00000000000E+00 0.  1.
          2   -1    0    0  502    0 -0.00000000000E+00 -0.00000000000E+00 -0.82365747325E+02  0.82365747325E+02  0.00000000000E+00 0. -1.
          2    1    1    2  501    0  0.30107498274E+02 -0.11748151571E+02 -0.68168546563E+02  0.75441575131E+02  0.00000000000E+00 0. -1.
          2    1    1    2  502    0 -0.30107498274E+02  0.11748151571E+02  0.14164991151E+02  0.35286364108E+02  0.00000000000E+00 0.  1.
</event>
<event>
 4    1  0.6089441E+003  0.2001004E+02  0.7546771E-02  0.1533882E+00
          2   -1    0    0  502    0  0.00000000000E+00  0.00000000000E+00  0.94484365632E+03  0.94484365632E+03  0.00000000000E+00 0.  1.
          2   -1    0    0  501    0 -0.00000000000E+00 -0.00000000000E+00 -0.14079773590E+02  0.14079773590E+02  0.00000000000E+00 0.  1.
          2    1    1    2  501    0  0.19411346084E+02  0.48581419741E+01  0.93757306340E+03  0.93778657012E+03  0.00000000000E+00 0.  1.
          2    1    1    2  502    0 -0.19411346084E+02 -0.48581419741E+01 -0.68091806668E+01  0.21136859786E+02  0.00000000000E+00 0.  1.
</event>
<event>
 4    1  0.6089441E+003  0.2618448E+02  0.7546771E-02  0.1455977E+00
          2   -1    0    0  502    0  0.00000000000E+00  0.00000000000E+00  0.71098595800E+03  0.71098595800E+03  0.00000000000E+00 0.  1.
          2   -1    0    0  501    0 -0.00000000000E+00 -0.00000000000E+00 -0.21175892703E+01  0.21175892703E+01  0.00000000000E+00 0.  1.
          2    1    1    2  501    0  0.11835703088E+02  0.23356862199E+02  0.61756077603E+03  0.61811563559E+03  0.00000000000E+00 0.  1.
          2    1    1    2  502    0 -0.11835703088E+02 -0.23356862199E+02  0.91307592703E+02  0.94987911676E+02  0.00000000000E+00 0.  1.
</event>
<event>
 4    1  0.6089441E+003  0.2748077E+02  0.7546771E-02  0.1442838E+00
          2   -1    0    0  502    0  0.00000000000E+00  0.00000000000E+00  0.31330498569E+03  0.31330498569E+03  0.00000000000E+00 0. -1.
          2   -1    0    0  501    0 -0.00000000000E+00 -0.00000000000E+00 -0.62800089294E+01  0.62800089294E+01  0.00000000000E+00 0.  1.
          2    1    1    2  501    0 -0.10358729192E+02  0.25453667415E+02  0.27894479608E+03  0.28029518675E+03  0.00000000000E+00 0. -1.
          2    1    1    2  502    0  0.10358729192E+02 -0.25453667415E+02  0.28080180682E+02  0.39289807870E+02  0.00000000000E+00 0.  1.
</event>
<event>
 4    1  0.6089441E+003  0.2106240E+02  0.7546771E-02  0.1518376E+00
          2   -1    0    0  502    0  0.00000000000E+00  0.00000000000E+00  0.42547347305E+01  0.42547347305E+01  0.00000000000E+00 0. -1.
          2   -1    0    0  501    0 -0.00000000000E+00 -0.00000000000E+00 -0.19503826653E+03  0.19503826653E+03  0.00000000000E+00 0. -1.
          2    1    1    2  501    0 -0.17355124230E+02 -0.11934166139E+02 -0.27412189567E+02  0.34569535654E+02  0.00000000000E+00 0. -1.
          2    1    1    2  502    0  0.17355124230E+02  0.11934166139E+02 -0.16337134223E+03  0.16472346561E+03  0.00000000000E+00 0. -1.
</event>
<event>
 4    1  0.6186607E+003  0.3299610E+02  0.7546771E-02  0.1395226E+00
          2   -1    0    0  502    0  0.00000000000E+00  0.00000000000E+00  0.24987937455E+03  0.24987937455E+03  0.00000000000E+00 0. -1.
          2   -1    0    0  501    0 -0.00000000000E+00 -0.00000000000E+00 -0.13142262807E+04  0.13142262807E+04  0.00000000000E+00 0.  1.
          2    1    1    2  501    0 -0.28810091303E+02 -0.16084824138E+02  0.24858192258E+03  0.25076226822E+03  0.00000000000E+00 0. -1.
          2    1    1    2  502    0  0.28810091303E+02  0.16084824138E+02 -0.13129288287E+04  0.13133433870E+04  0.00000000000E+00 0.  1.
</event>
<event>
 4    1  0.6089441E+003  0.2714356E+02  0.7546771E-02  0.1446171E+00
          2   -1    0    0  501    0  0.00000000000E+00  0.00000000000E+00  0.78538420451E+02  0.78538420451E+02  0.00000000000E+00 0.  1.
          2   -1    0    0  502    0 -0.00000000000E+00 -0.00000000000E+00 -0.99248430354E+03  0.99248430354E+03  0.00000000000E+00 0. -1.
          2    1    1    2  501    0  0.77352399426E+01 -0.26018051074E+02 -0.98994744388E+03  0.99031950125E+03  0.00000000000E+00 0. -1.
          2    1    1    2  502    0 -0.77352399426E+01  0.26018051074E+02  0.76001560787E+02  0.80703222741E+02  0.00000000000E+00 0.  1.
</event>
<event>
 4    1  0.6089441E+003  0.2021481E+02  0.7546771E-02  0.1530777E+00
          2   -1    0    0  501    0  0.00000000000E+00  0.00000000000E+00  0.27513331457E+03  0.27513331457E+03  0.00000000000E+00 0. -1.
          2   -1    0    0  502    0 -0.00000000000E+00 -0.00000000000E+00 -0.39088059553E+02  0.39088059553E+02  0.00000000000E+00 0. -1.
          2    1    1    2  501    0 -0.17051647807E+02  0.10857242281E+02 -0.36074268274E+02  0.41352040268E+02  0.00000000000E+00 0. -1.
          2    1    1    2  502    0  0.17051647807E+02 -0.10857242281E+02  0.27211952329E+03  0.27286933385E+03  0.00000000000E+00 0. -1.
</event>
<event>
 4    1  0.6089441E+003  0.2891649E+02  0.7546771E-02  0.1429252E+00
          2   -1    0    0  502    0  0.00000000000E+00  0.00000000000E+00  0.14013368167E+04  0.14013368167E+04  0.00000000000E+00 0. -1.
          2   -1    0    0  501    0 -0.00000000000E+00 -0.00000000000E+00 -0.11347931760E+02  0.11347931760E+02  0.00000000000E+00 0.  1.
          2    1    1    2  501    0  0.14670885712E+02 -0.24918433502E+02  0.13825158468E+04  0.13828182201E+04  0.00000000000E+00 0. -1.
          2    1    1    2  502    0 -0.14670885712E+02  0.24918433502E+02  0.74730381217E+01  0.29866528331E+02  0.00000000000E+00 0.  1.
</event>
<event>
 4    1  0.6089441E+003  0.2018979E+02  0.7546771E-02  0.1531154E+00
          2   -1    0    0  502    0  0.00000000000E+00  0.00000000000E+00  0.15136580936E+02  0.15136580936E+02  0.00000000000E+00 0. -1.
          2   -1    0    0  501    0 -0.00000000000E+00 -0.00000000000E+00 -0.12604540441E+03  0.12604540441E+03  0.00000000000E+00 0. -1.
          2    1    1    2  501    0 -0.16273716383E+02  0.11949640323E+02  0.71430054344E+01  0.21416121857E+02  0.00000000000E+00 0. -1.
          2    1    1    2  502    0  0.16273716383E+02 -0.11949640323E+02 -0.11805182891E+03  0.11976586349E+03  0.00000000000E+00 0. -1.
</event>
<event>
 4    1  0.6089441E+003  0.2834807E+02  0.7546771E-02  0.1434517E+00
          2   -1    0    0  501    0  0.00000000000E+00  0.00000000000E+00  0.88849867434E+02  0.88849867434E+02  0.00000000000E+00 0.  1.
          2   -1    0    0  502    0 -0.00000000000E+00 -0.00000000000E+00 -0.14114106859E+04  0.14114106859E+04  0.00000000000E+00 0.  1.
          2    1    1    2  501    0  0.27698187961E+02 -0.60351913683E+01 -0.14090033262E+04  0.14092884681E+04  0.00000000000E+00 0.  1.
          2    1    1    2  502    0 -0.27698187961E+02  0.60351913683E+01  0.86442507713E+02  0.90972085229E+02  0.00000000000E+00 0.  1.
</event>
<event>
 4    1  0.6089441E+003  0.2496891E+02  0.7546771E-02  0.1469151E+00
          2   -1    0    0  501    0  0.00000000000E+00  0.00000000000E+00  0.75917319268E+02  0.75917319268E+02  0.00000000000E+00 0.  1.
          2   -1    0    0  502    0 -0.00000000000E+00 -0.00000000000E+00 -0.22162381187E+03  0.22162381187E+03  0.00000000000E+00 0. -1.
          2    1    1    2  501    0  0.21116164889E+02 -0.13324950097E+02 -0.21884147757E+03  0.22026129714E+03  0.00000000000E+00 0. -1.
          2    1    1    2  502    0 -0.21116164889E+02  0.13324950097E+02  0.73134984972E+02  0.77279833990E+02  0.00000000000E+00 0.  1.
</event>
<event>
 4    1  0.6089441E+003  0.2282964E+02  0.7546771E-02  0.1494649E+00
          2   -1    0    0  501    0  0.00000000000E+00  0.00000000000E+00  0.73755790429E+01  0.73755790429E+01  0.00000000000E+00 0.  1.
          2   -1    0    0  502    0 -0.00000000000E+00 -0.00000000000E+00 -0.95614354252E+02  0.95614354252E+02  0.00000000000E+00 0.  1.
          2    1    1    2  501    0  0.17620177789E+02 -0.14516256655E+02 -0.17814507049E+02  0.28957711131E+02  0.00000000000E+00 0.  1.
          2    1    1    2  502    0 -0.17620177789E+02  0.14516256655E+02 -0.70424268160E+02  0.74032222164E+02  0.00000000000E+00 0.  1.
</event>
<event>
 4    1  0.6089441E+003  0.2469610E+02  0.7546771E-02  0.1472232E+00
          2   -1    0    0  501    0  0.00000000000E+00  0.00000000000E+00  0.17624601882E+04  0.17624601882E+04  0.00000000000E+00 0.  1.
          2   -1    0    0  502    0 -0.00000000000E+00 -0.00000000000E+00 -0.11351236307E+02  0.11351236307E+02  0.00000000000E+00 0.  1.
          2    1    1    2  501    0  0.23619427760E+02  0.72124829937E+01  0.22723075081E+01  0.24800416530E+02  0.00000000000E+00 0.  1.
          2    1    1    2  502    0 -0.23619427760E+02 -0.72124829937E+01  0.17488366444E+04  0.17490110080E+04  0.00000000000E+00 0.  1.
</event>
<event>
 4    1  0.6089441E+003  0.2148688E+02  0.7546771E-02  0.1512426E+00
          2   -1    0    0  502    0  0.00000000000E+00  0.00000000000E+00  0.59366323981E+03  0.59366323981E+03  0.00000000000E+00 0.  1.
          2   -1    0    0  501    0 -0.00000000000E+00 -0.00000000000E+00 -0.30194309272E+03  0.30194309272E+03  0.00000000000E+00 0. -1.
          2    1    1    2  501    0 -0.26807702583E+01  0.21318991348E+02  0.59308618315E+03  0.59347527882E+03  0.00000000000E+00 0.  1.
          2    1    1    2  502    0  0.26807702583E+01 -0.21318991348E+02 -0.30136603607E+03  0.30213105371E+03  0.00000000000E+00 0. -1.
</event>
<event>
 4    1  0.6089441E+003  0.2304091E+02  0.7546771E-02  0.1491985E+00
          2   -1    0    0  502    0  0.00000000000E+00  0.00000000000E+00  0.39600245163E+02  0.39600245163E+02  0.00000000000E+00 0. -1.
          2   -1    0    0  501    0 -0.00000000000E+00 -0.00000000000E+00 -0.67149421281E+03  0.67149421281E+03  0.00000000000E+00 0.  1.
          2    1    1    2  501    0  0.20650102065E+02  0.10220406770E+02  0.36033185646E+02  0.42770011662E+02  0.00000000000E+00 0. -1.
          2    1    1    2  502    0 -0.20650102065E+02 -0.10220406770E+02 -0.66792715330E+03  0.66832444632E+03  0.00000000000E+00 0.  1.
</event>
<event>
 4    1  0.6089441E+003  0.4429722E+02  0.7546771E-02  0.1324991E+00
          2   -1    0    0  501    0  0.00000000000E+00  0.00000000000E+00  0.13798887166E+04  0.13798887166E+04  0.00000000000E+00 0. -1.
          2   -1    0    0  502    0 -0.00000000000E+00 -0.00000000000E+00 -0.54628150989E+01  0.54628150989E+01  0.00000000000E+00 0.  1.
          2    1    1    2  501    0 -0.36468806205E+02  0.25144972951E+02  0.91475905885E+02  0.10163702499E+03  0.00000000000E+00 0.  1.
          2    1    1    2  502    0  0.36468806205E+02 -0.25144972951E+02  0.12829499956E+04  0.12837145067E+04  0.00000000000E+00 0. -1.
</event>
<event>
 4    1  0.6089441E+003  0.2865203E+02  0.7546771E-02  0.1431684E+00
          2   -1    0    0  501    0  0.00000000000E+00  0.00000000000E+00  0.20445866794E+03  0.20445866794E+03  0.00000000000E+00 0. -1.
          2   -1    0    0  502    0 -0.00000000000E+00 -0.00000000000E+00 -0.64809422138E+02  0.64809422138E+02  0.00000000000E+00 0. -1.
          2    1    1    2  501    0 -0.18157160653E+02 -0.22164300820E+02 -0.60572208354E+02  0.67006948436E+02  0.00000000000E+00 0. -1.
          2    1    1    2  502    0  0.18157160653E+02  0.22164300820E+02  0.20022145416E+03  0.20226114165E+03  0.00000000000E+00 0. -1.
</event>
<event>
 4    1  0.6089441E+003  0.2201300E+02  0.7546771E-02  0.1505278E+00
          2   -1    0    0  502    0  0.00000000000E+00  0.00000000000E+00  0.13395317055E+03  0.13395317055E+03  0.00000000000E+00 0. -1.
          2   -1    0    0  501    0 -0.00000000000E+00 -0.00000000000E+00 -0.29749975508E+02  0.29749975508E+02  0.00000000000E+00 0. -1.
          2    1    1    2  501    0  0.21034006607E+02 -0.64917353802E+01  0.12881552524E+03  0.13068286653E+03  0.00000000000E+00 0. -1.
          2    1    1    2  502    0 -0.21034006607E+02  0.64917353802E+01 -0.24612330198E+02  0.33020279526E+02  0.00000000000E+00 0. -1.
</event>
<event>
 4    1  0.6089441E+003  0.1198142E+03  0.7546771E-02  0.1133313E+00
          2   -1    0    0  501    0  0.00000000000E+00  0.00000000000E+00  0.23156485687E+03  0.23156485687E+03  0.00000000000E+00 0. -1.
          2   -1    0    0  502    0 -0.00000000000E+00 -0.00000000000E+00 -0.79299588838E+02  0.79299588838E+02  0.00000000000E+00 0. -1.
          2    1    1    2  501    0 -0.79135280207E+01  0.11955254327E+03  0.14874481253E+03  0.19099857010E+03  0.00000000000E+00 0. -1.
          2    1    1    2  502    0  0.79135280207E+01 -0.11955254327E+03  0.35204554994E+01  0.11986587560E+03  0.00000000000E+00 0. -1.
</event>
<event>
 4    1  0.6089441E+003  0.2432281E+02  0.7546771E-02  0.1476524E+00
          2   -1    0    0  502    0  0.00000000000E+00  0.00000000000E+00  0.10776840723E+02  0.10776840723E+02  0.00000000000E+00 0. -1.
          2   -1    0    0  501    0 -0.00000000000E+00 -0.00000000000E+00 -0.38666539592E+03  0.38666539592E+03  0.00000000000E+00 0. -1.
          2    1    1    2  501    0 -0.13795029683E+02 -0.20032383453E+02 -0.38692358933E+01  0.24628646271E+02  0.00000000000E+00 0. -1.
          2    1    1    2  502    0  0.13795029683E+02  0.20032383453E+02 -0.37201931930E+03  0.37281359037E+03  0.00000000000E+00 0. -1.
</event>
<event>
 4    1  0.6089441E+003  0.3145441E+02  0.7546771E-02  0.1407365E+00
          2   -1    0    0  502    0  0.00000000000E+00  0.00000000000E+00  0.17482567806E+02  0.17482567806E+02  0.00000000000E+00 0. -1.
          2   -1    0    0  501    0 -0.00000000000E+00 -0.00000000000E+00 -0.17944017178E+04  0.17944017178E+04  0.00000000000E+00 0.  1.
          2    1    1    2  501    0 -0.17146361636E+02  0.26370097642E+02  0.30821848113E+01  0.31605057036E+02  0.00000000000E+00 0. -1.
          2    1    1    2  502    0  0.17146361636E+02 -0.26370097642E+02 -0.17800013348E+04  0.17802792285E+04  0.00000000000E+00 0.  1.
</event>
<event>
 4    1  0.6089441E+003  0.2948384E+02  0.7546771E-02  0.1424136E+00
          2   -1    0    0  502    0  0.00000000000E+00  0.00000000000E+00  0.23202050222E+01  0.23202050222E+01  0.00000000000E+00 0.  1.
          2   -1    0    0  501    0 -0.00000000000E+00 -0.00000000000E+00 -0.17940205516E+04  0.17940205516E+04  0.00000000000E+00 0. -1.
          2    1    1    2  501    0  0.26780623687E+02 -0.12332683486E+02 -0.96953153181E+02  0.10133711462E+03  0.00000000000E+00 0.  1.
          2    1    1    2  502    0 -0.26780623687E+02  0.12332683486E+02 -0.16947471934E+04  0.16950036420E+04  0.00000000000E+00 0. -1.
</event>
<event>
 4    1  0.6089441E+003  0.2385847E+02  0.7546771E-02  0.1481991E+00
          2   -1    0    0  501    0  0.00000000000E+00  0.00000000000E+00  0.61290045903E+03  0.61290045903E+03  0.00000000000E+00 0.  1.
          2   -1    0    0  502    0 -0.00000000000E+00 -0.00000000000E+00 -0.89512113492E+02  0.89512113492E+02  0.00000000000E+00 0.  1.
          2    1    1    2  501    0  0.19055729577E+02 -0.14356382529E+02 -0.87685374075E+02  0.90873270964E+02  0.00000000000E+00 0.  1.
          2    1    1    2  502    0 -0.19055729577E+02  0.14356382529E+02  0.61107371961E+03  0.61153930155E+03  0.00000000000E+00 0.  1.
</event>
<event>
 4    1  0.6089441E+003  0.2550554E+02  0.7546771E-02  0.1463227E+00
          2   -1    0    0  502    0  0.00000000000E+00  0.00000000000E+00  0.53979179376E+02  0.53979179376E+02  0.00000000000E+00 0. -1.
          2   -1    0    0  501    0 -0.00000000000E+00 -0.00000000000E+00 -0.13602731174E+04  0.13602731174E+04  0.00000000000E+00 0. -1.
          2    1    1    2  501    0 -0.10982000024E+02  0.23020175800E+02  0.50839763460E+02  0.56878944849E+02  0.00000000000E+00 0. -1.
          2    1    1    2  502    0  0.10982000024E+02 -0.23020175800E+02 -0.13571337015E+04  0.13573733520E+04  0.00000000000E+00 0. -1.
</event>
<event>
 4    1  0.6089441E+003  0.6741890E+02  0.7546771E-02  0.1236515E+00
          2   -1    0    0  502    0  0.00000000000E+00  0.00000000000E+00  0.69516497238E+03  0.69516497238E+03  0.00000000000E+00 0.  1.
          2   -1    0    0  501    0 -0.00000000000E+00 -0.00000000000E+00 -0.15861800834E+02  0.15861800834E+02  0.00000000000E+00 0.  1.
          2    1    1    2  501    0  0.32685465224E+02  0.58965829903E+02  0.61221369440E+03  0.61591469892E+03  0.00000000000E+00 0.  1.
          2    1    1    2  502    0 -0.32685465224E+02 -0.58965829903E+02  0.67089477143E+02  0.95112074293E+02  0.00000000000E+00 0.  1.
</event>
<event>
 4    1  0.6089441E+003  0.2485967E+02  0.7546771E-02  0.1470379E+00
          2   -1    0    0  502    0  0.00000000000E+00  0.00000000000E+00  0.11803778206E+04  0.11803778206E+04  0.00000000000E+00 0.  1.
          2   -1    0    0  501    0 -0.00000000000E+00 -0.00000000000E+00 -0.80848632144E+02  0.80848632144E+02  0.00000000000E+00 0.  1.
          2    1    1    2  501    0  0.27704308596E+01  0.24704817934E+02  0.11783326244E+04  0.11785948315E+04  0.00000000000E+00 0.  1.
          2    1    1    2  502    0 -0.27704308596E+01 -0.24704817934E+02 -0.78803435889E+02  0.82631621213E+02  0.00000000000E+00 0.  1.
</event>
<event>
 4    1  0.6089441E+003  0.2183844E+02  0.7546771E-02  0.1507623E+00
          2   -1    0    0  502    0  0.00000000000E+00  0.00000000000E+00  0.52076114877E+01  0.52076114877E+01  0.00000000000E+00 0. -1.
          2   -1    0    0  501    0 -0.00000000000E+00 -0.00000000000E+00 -0.97058822538E+02  0.97058822538E+02  0.00000000000E+00 0. -1.
          2    1    1    2  501    0 -0.56827654503E+01  0.21086097262E+02 -0.33777829006E+02  0.40222618678E+02  0.00000000000E+00 0. -1.
          2    1    1    2  502    0  0.56827654503E+01 -0.21086097262E+02 -0.58073382044E+02  0.62043815348E+02  0.00000000000E+00 0. -1.
</event>
<event>
 4    1  0.6089441E+003  0.2498969E+02  0.7546771E-02  0.1468919E+00
          2   -1    0    0  501    0  0.00000000000E+00  0.00000000000E+00  0.68875223310E+03  0.68875223310E+03  0.00000000000E+00 0.  1.
          2   -1    0    0  502    0 -0.00000000000E+00 -0.00000000000E+00 -0.48859750548E+03  0.48859750548E+03  0.00000000000E+00 0. -1.
          2    1    1    2  501    0  0.21182394854E+02  0.13258605304E+02 -0.48805105036E+03  0.48869040530E+03  0.00000000000E+00 0. -1.
          2    1    1    2  502    0 -0.21182394854E+02 -0.13258605304E+02  0.68820577798E+03  0.68865933328E+03  0.00000000000E+00 0.  1.
</event>
<event>
 4    1  0.6089441E+003  0.2220985E+02  0.7546771E-02  0.1502666E+00
          2   -1    0    0  501    0  0.00000000000E+00  0.00000000000E+00  0.79539463503E+03  0.79539463503E+03  0.00000000000E+00 0.  1.
          2   -1    0    0  502    0 -0.00000000000E+00 -0.00000000000E+00 -0.78678975574E+01  0.78678975574E+01  0.00000000000E+00 0.  1.
          2    1    1    2  501    0  0.22165440908E+02  0.14037708530E+01  0.82857281813E+01  0.23705076139E+02  0.00000000000E+00 0.  1.
          2    1    1    2  502    0 -0.22165440908E+02 -0.14037708530E+01  0.77924100929E+03  0.77955745645E+03  0.00000000000E+00 0.  1.
</event>
<event>
 4    1  0.9927959E+003  0.3849461E+02  0.7546771E-02  0.1357540E+00
          2   -1    0    0  501    0  0.00000000000E+00  0.00000000000E+00  0.52578287553E+03  0.52578287553E+03  0.00000000000E+00 0.  1.
          2   -1    0    0  502    0 -0.00000000000E+00 -0.00000000000E+00 -0.13814042255E+04  0.13814042255E+04  0.00000000000E+00 0.  1.
          2    1    1    2  501    0 -0.38494171008E+02 -0.18420892532E+00 -0.13804309683E+04  0.13809675931E+04  0.00000000000E+00 0.  1.
          2    1    1    2  502    0  0.38494171008E+02  0.18420892532E+00  0.52480961825E+03  0.52621950794E+03  0.00000000000E+00 0.  1.
</event>
<event>
 4    1  0.6089441E+003  0.2119745E+02  0.7546771E-02  0.1516464E+00
          2   -1    0    0  501    0  0.00000000000E+00  0.00000000000E+00  0.21531187802E+04  0.21531187802E+04  0.00000000000E+00 0.  1.
          2   -1    0    0  502    0 -0.00000000000E+00 -0.00000000000E+00 -0.21445329316E+00  0.21445329316E+00  0.00000000000E+00 0.  1.
          2    1    1    2  501    0  0.11134836502E+02  0.18037390877E+02  0.12529708019E+04  0.12531500957E+04  0.00000000000E+00 0.  1.
          2    1    1    2  502    0 -0.11134836502E+02 -0.18037390877E+02  0.89993352506E+03  0.90018313780E+03  0.00000000000E+00 0.  1.
</event>
<event>
 4    1  0.6089441E+003  0.2888961E+02  0.7546771E-02  0.1429497E+00
          2   -1    0    0  502    0  0.00000000000E+00  0.00000000000E+00  0.28848712456E+03  0.28848712456E+03  0.00000000000E+00 0. -1.
          2   -1    0    0  501    0 -0.00000000000E+00 -0.00000000000E+00 -0.42629970028E+01  0.42629970028E+01  0.00000000000E+00 0. -1.
          2    1    1    2  501    0  0.28445211836E+02  0.50477161418E+01  0.22508958320E+03  0.22693596009E+03  0.00000000000E+00 0. -1.
          2    1    1    2  502    0 -0.28445211836E+02 -0.50477161418E+01  0.59134544356E+02  0.65814161476E+02  0.00000000000E+00 0. -1.
</event>
<event>
 4    1  0.6089441E+003  0.2924842E+02  0.7546771E-02  0.1426242E+00
          2   -1    0    0  501    0  0.00000000000E+00  0.00000000000E+00  0.16222375308E+03  0.16222375308E+03  0.00000000000E+00 0. -1.
          2   -1    0    0  502    0 -0.00000000000E+00 -0.00000000000E+00 -0.26672506169E+02  0.26672506169E+02  0.00000000000E+00 0. -1.
          2    1    1    2  501    0  0.34131766404E+00 -0.29246430247E+02 -0.16822221803E+02  0.33741033273E+02  0.00000000000E+00 0. -1.
          2    1    1    2  502    0 -0.34131766404E+00  0.29246430247E+02  0.15237346871E+03  0.15515522598E+03  0.00000000000E+00 0. -1.
</event>
<event>
 4    1  0.6089441E+003  0.3439356E+02  0.7546771E-02  0.1384877E+00
          2   -1    0    0  501    0  0.00000000000E+00  0.00000000000E+00  0.17272111119E+02  0.17272111119E+02  0.00000000000E+00 0.  1.
          2   -1    0    0  502    0 -0.00000000000E+00 -0.00000000000E+00 -0.12253578354E+04  0.12253578354E+04  0.00000000000E+00 0. -1.
          2    1    1    2  501    0 -0.23247875133E+02  0.25346656216E+02 -0.12077450819E+04  0.12082347038E+04  0.00000000000E+00 0. -1.
          2    1    1    2  502    0  0.23247875133E+02 -0.25346656216E+02 -0.34064233651E+00  0.34395242646E+02  0.00000000000E+00 0.  1.
</event>
<event>
 4    1  0.6089441E+003  0.2130012E+02  0.7546771E-02  0.1515023E+00
          2   -1    0    0  502    0  0.00000000000E+00  0.00000000000E+00  0.11656968303E+04  0.11656968303E+04  0.00000000000E+00 0.  1.
          2   -1    0    0  501    0 -0.00000000000E+00 -0.00000000000E+00 -0.19941403934E+01  0.19941403934E+01  0.00000000000E+00 0.  1.
          2    1    1    2  501    0  0.20852118619E+02  0.43456169550E+01  0.11056312285E+04  0.11058363842E+04  0.00000000000E+00 0.  1.
          2    1    1    2  502    0 -0.20852118619E+02 -0.43456169550E+01  0.58071461423E+02  0.61854586486E+02  0.00000000000E+00 0.  1.
</event>
<event>
 4    1  0.6089441E+003  0.2243519E+02  0.7546771E-02  0.1499715E+00
          2   -1    0    0  502    0  0.00000000000E+00  0.00000000000E+00  0.51641183967E+01  0.51641183967E+01  0.00000000000E+00 0. -1.
          2   -1    0    0  501    0 -0.00000000000E+00 -0.00000000000E+00 -0.26820498468E+03  0.26820498468E+03  0.00000000000E+00 0. -1.
          2    1    1    2  501    0  0.10053553507E+02  0.20056515499E+02 -0.22464460956E+02  0.31748854438E+02  0.00000000000E+00 0. -1.
          2    1    1    2  502    0 -0.10053553507E+02 -0.20056515499E+02 -0.24057640533E+03  0.24162024864E+03  0.00000000000E+00 0. -1.
</event>
<event>
 4    1  0.6089441E+003  0.4352116E+02  0.7546771E-02  0.1329002E+00
          2   -1    0    0  501    0  0.00000000000E+00  0.00000000000E+00  0.48476532117E+01  0.48476532117E+01  0.00000000000E+00 0. -1.
          2   -1    0    0  502    0 -0.00000000000E+00 -0.00000000000E+00 -0.76939346115E+03  0.76939346115E+03  0.00000000000E+00 0.  1.
          2    1    1    2  501    0  0.27652678187E+02 -0.33606856501E+02 -0.65385584617E+03  0.65530264686E+03  0.00000000000E+00 0.  1.
          2    1    1    2  502    0 -0.27652678187E+02  0.33606856501E+02 -0.11068996177E+03  0.11893846750E+03  0.00000000000E+00 0. -1.
</event>
<event>
 4    1  0.6089441E+003  0.2426216E+02  0.7546771E-02  0.1477229E+00
          2   -1    0    0  501    0  0.00000000000E+00  0.00000000000E+00  0.18341155653E+03  0.18341155653E+03  0.00000000000E+00 0.  1.
          2   -1    0    0  502    0 -0.00000000000E+00 -0.00000000000E+00 -0.16213024306E+04  0.16213024306E+04  0.00000000000E+00 0.  1.
          2    1    1    2  501    0  0.19833471411E+02  0.13974466085E+02 -0.16204088544E+04  0.16205904812E+04  0.00000000000E+00 0.  1.
          2    1    1    2  502    0 -0.19833471411E+02 -0.13974466085E+02  0.18251798034E+03  0.18412350594E+03  0.00000000000E+00 0.  1.
</event>
<event>
 4    1  0.6089441E+003  0.3578318E+02  0.7546771E-02  0.1375139E+00
          2   -1    0    0  501    0  0.00000000000E+00  0.00000000000E+00  0.23925256987E+01  0.23925256987E+01  0.00000000000E+00 0.  1.
          2   -1    0    0  502    0 -0.00000000000E+00 -0.00000000000E+00 -0.55245885556E+03  0.55245885556E+03  0.00000000000E+00 0. -1.
          2    1    1    2  501    0 -0.79472212732E+01 -0.34889507639E+02 -0.22597262648E+03  0.22878825142E+03  0.00000000000E+00 0.  1.
          2    1    1    2  502    0  0.79472212732E+01  0.34889507639E+02 -0.32409370338E+03  0.32606312984E+03  0.00000000000E+00 0. -1.
</event>
<event>
 4    1  0.6089441E+003  0.2071899E+02  0.7546771E-02  0.1523315E+00
          2   -1    0    0  502    0  0.00000000000E+00  0.00000000000E+00  0.48908839711E+03  0.48908839711E+03  0.00000000000E+00 0. -1.
          2   -1    0    0  501    0 -0.00000000000E+00 -0.00000000000E+00 -0.10244353738E+02  0.10244353738E+02  0.00000000000E+00 0. -1.
          2    1    1    2  501    0 -0.20715812959E+02  0.36262199048E+00  0.47815358362E+03  0.47860226277E+03  0.00000000000E+00 0. -1.
          2    1    1    2  502    0  0.20715812959E+02 -0.36262199048E+00  0.69045975219E+00  0.20730488077E+02  0.00000000000E+00 0. -1.
</event>
<event>
 4    1  0.6089441E+003  0.2320554E+02  0.7546771E-02  0.1489933E+00
          2   -1    0    0  502    0  0.00000000000E+00  0.00000000000E+00  0.48700538294E+02  0.48700538294E+02  0.00000000000E+00 0.  1.
          2   -1    0    0  501    0 -0.00000000000E+00 -0.00000000000E+00 -0.51361725521E+03  0.51361725521E+03  0.00000000000E+00 0. -1.
          2    1    1    2  501    0 -0.22065549110E+02 -0.71839234714E+01  0.45657633006E+02  0.51216371071E+02  0.00000000000E+00 0.  1.
          2    1    1    2  502    0  0.22065549110E+02  0.71839234714E+01 -0.51057434993E+03  0.51110142244E+03  0.00000000000E+00 0. -1.
</event>
<event>
 4    1  0.6089441E+003  0.3163283E+02  0.7546771E-02  0.1405919E+00
          2   -1    0    0  501    0  0.00000000000E+00  0.00000000000E+00  0.46469692177E+02  0.46469692177E+02  0.00000000000E+00 0.  1.
          2   -1    0    0  502    0 -0.00000000000E+00 -0.00000000000E+00 -0.94588395384E+02  0.94588395384E+02  0.00000000000E+00 0.  1.
          2    1    1    2  501    0 -0.18905464187E+02 -0.25361770337E+02 -0.86042688506E+02  0.91673225187E+02  0.00000000000E+00 0.  1.
          2    1    1    2  502    0  0.18905464187E+02  0.25361770337E+02  0.37923985299E+02  0.49384862374E+02  0.00000000000E+00 0.  1.
</event>
<event>
 4    1  0.6089441E+003  0.3235790E+02  0.7546771E-02  0.1400155E+00
          2   -1    0    0  501    0  0.00000000000E+00  0.00000000000E+00  0.98063223657E+02  0.98063223657E+02  0.00000000000E+00 0.  1.
          2   -1    0    0  502    0 -0.00000000000E+00 -0.00000000000E+00 -0.24457190421E+02  0.24457190421E+02  0.00000000000E+00 0.  1.
          2    1    1    2  501    0 -0.24484075945E+01 -0.32265132214E+02 -0.91803528977E+01  0.33634986782E+02  0.00000000000E+00 0.  1.
          2    1    1    2  502    0  0.24484075945E+01  0.32265132214E+02  0.82786386134E+02  0.88885427296E+02  0.00000000000E+00 0.  1.
</event>
<event>
 4    1  0.6089441E+003  0.2074766E+02  0.7546771E-02  0.1522898E+00
          2   -1    0    0  502    0  0.00000000000E+00  0.00000000000E+00  0.30278913567E+03  0.30278913567E+03  0.00000000000E+00 0.  1.
          2   -1    0    0  501    0 -0.00000000000E+00 -0.00000000000E+00 -0.25491042364E+01  0.25491042364E+01  0.00000000000E+00 0.  1.
          2    1    1    2  501    0 -0.13906641460E+02 -0.15397105874E+02  0.25165213460E+03  0.25250596506E+03  0.00000000000E+00 0.  1.
          2    1    1    2  502    0  0.13906641460E+02  0.15397105874E+02  0.48587896842E+02  0.52832274847E+02  0.00000000000E+00 0.  1.
</event>
<event>
 4    1  0.6089441E+003  0.2273684E+02  0.7546771E-02  0.1495829E+00
          2   -1    0    0  501    0  0.00000000000E+00  0.00000000000E+00  0.39880768100E+01  0.39880768100E+01  0.00000000000E+00 0. -1.
          2   -1    0    0  502    0 -0.00000000000E+00 -0.00000000000E+00 -0.64309307114E+03  0.64309307114E+03  0.00000000000E+00 0. -1.
          2    1    1    2  501    0  0.35169701768E+01 -0.22463187102E+02 -0.60865214421E+03  0.60907667539E+03  0.00000000000E+00 0. -1.
          2    1    1    2  502    0 -0.35169701768E+01  0.22463187102E+02 -0.30452850116E+02  0.38004472555E+02  0.00000000000E+00 0. -1.
</event>
<event>
 4    1  0.6089441E+003  0.3123163E+02  0.7546771E-02  0.1409187E+00
          2   -1    0    0  501    0  0.00000000000E+00  0.00000000000E+00  0.46170775102E+03  0.46170775102E+03  0.00000000000E+00 0. -1.
          2   -1    0    0  502    0 -0.00000000000E+00 -0.00000000000E+00 -0.10327153129E+02  0.10327153129E+02  0.00000000000E+00 0.  1.
          2    1    1    2  501    0  0.27238583395E+02  0.15279862333E+02  0.15193662292E+02  0.34731282616E+02  0.00000000000E+00 0.  1.
          2    1    1    2  502    0 -0.27238583395E+02 -0.15279862333E+02  0.43618693560E+03  0.43730362153E+03  0.00000000000E+00 0. -1.
</event>
<event>
 4    1  0.6089441E+003  0.4203971E+02  0.7546771E-02  0.1336931E+00
          2   -1    0    0  502    0  0.00000000000E+00  0.00000000000E+00  0.41592288005E+03  0.41592288005E+03  0.00000000000E+00 0.  1.
          2   -1    0    0  501    0 -0.00000000000E+00 -0.00000000000E+00 -0.19615867252E+03  0.19615867252E+03  0.00000000000E+00 0.  1.
          2    1    1    2  501    0 -0.23138958709E+02  0.35098804396E+02  0.41258999969E+03  0.41472622936E+03  0.00000000000E+00 0.  1.
          2    1    1    2  502    0  0.23138958709E+02 -0.35098804396E+02 -0.19282579215E+03  0.19735532321E+03  0.00000000000E+00 0.  1.
</event>
<event>
 4    1  0.6089441E+003  0.1108597E+03  0.7546771E-02  0.1146213E+00
          2   -1    0    0  501    0  0.00000000000E+00  0.00000000000E+00  0.35756690043E+04  0.35756690043E+04  0.00000000000E+00 0. -1.
          2   -1    0    0  502    0 -0.00000000000E+00 -0.00000000000E+00 -0.11742097671E+03  0.11742097671E+03  0.00000000000E+00 0.  1.
          2    1    1    2  501    0  0.11081498776E+03 -0.31472577010E+01 -0.90194738240E+02  0.14291591076E+03  0.00000000000E+00 0.  1.
          2    1    1    2  502    0 -0.11081498776E+03  0.31472577010E+01  0.35484427659E+04  0.35501740703E+04  0.00000000000E+00 0. -1.
</event>
<event>
 4    1  0.6089441E+003  0.2788007E+02  0.7546771E-02  0.1438962E+00
          2   -1    0    0  502    0  0.00000000000E+00  0.00000000000E+00  0.87576678788E+03  0.87576678788E+03  0.00000000000E+00 0. -1.
          2   -1    0    0  501    0 -0.00000000000E+00 -0.00000000000E+00 -0.25767857323E+01  0.25767857323E+01  0.00000000000E+00 0.  1.
          2    1    1    2  501    0  0.23479473890E+02 -0.15033720210E+02  0.79217612824E+03  0.79266658602E+03  0.00000000000E+00 0. -1.
          2    1    1    2  502    0 -0.23479473890E+02  0.15033720210E+02  0.81013873904E+02  0.85676987589E+02  0.00000000000E+00 0.  1.
</event>
<event>
 4    1  0.6089441E+003  0.2997696E+02  0.7546771E-02  0.1419797E+00
          2   -1    0    0  501    0  0.00000000000E+00  0.00000000000E+00  0.13046604295E+03  0.13046604295E+03  0.00000000000E+00 0.  1.
          2   -1    0    0  502    0 -0.00000000000E+00 -0.00000000000E+00 -0.30110889470E+03  0.30110889470E+03  0.00000000000E+00 0.  1.
          2    1    1    2  501    0  0.12366329893E+02  0.27307363644E+02 -0.29862658746E+03  0.30012740122E+03  0.00000000000E+00 0.  1.
          2    1    1    2  502    0 -0.12366329893E+02 -0.27307363644E+02  0.12798373572E+03  0.13144753642E+03  0.00000000000E+00 0.  1.
</event>
<event>
 4    1  0.6089441E+003  0.4740114E+02  0.7546771E-02  0.1309851E+00
          2   -1    0    0  501    0  0.00000000000E+00  0.00000000000E+00  0.26779012429E+02  0.26779012429E+02  0.00000000000E+00 0.  1.
          2   -1    0    0  502    0 -0.00000000000E+00 -0.00000000000E+00 -0.50891573556E+03  0.50891573556E+03  0.00000000000E+00 0.  1.
          2    1    1    2  501    0 -0.46450633391E+02 -0.94449241904E+01 -0.48584213458E+03  0.48814900150E+03  0.00000000000E+00 0.  1.
          2    1    1    2  502    0  0.46450633391E+02  0.94449241904E+01  0.37054114447E+01  0.47545746491E+02  0.00000000000E+00 0.  1.
</event>
<event>
 4    1  0.6089441E+003  0.2485278E+02  0.7546771E-02  0.1470457E+00
          2   -1    0    0  502    0  0.00000000000E+00  0.00000000000E+00  0.18102270696E+03  0.18102270696E+03  0.00000000000E+00 0.  1.
          2   -1    0    0  501    0 -0.00000000000E+00 -0.00000000000E+00 -0.49404916683E+01  0.49404916683E+01  0.00000000000E+00 0.  1.
          2    1    1    2  501    0 -0.53902554307E+01  0.24261197031E+02  0.13975828159E+03  0.14195082884E+03  0.00000000000E+00 0.  1.
          2    1    1    2  502    0  0.53902554307E+01 -0.24261197031E+02  0.36323933703E+02  0.44012369791E+02  0.00000000000E+00 0.  1.
</event>
<event>
 4    1  0.6089441E+003  0.2272800E+02  0.7546771E-02  0.1495942E+00
          2   -1    0    0  501    0  0.00000000000E+00  0.00000000000E+00  0.53884439761E+01  0.53884439761E+01  0.00000000000E+00 0. -1.
          2   -1    0    0  502    0 -0.00000000000E+00 -0.00000000000E+00 -0.78404027144E+03  0.78404027144E+03  0.00000000000E+00 0. -1.
          2    1    1    2  501    0  0.53575576213E+01  0.22087525123E+02 -0.75912286677E+03  0.75946302677E+03  0.00000000000E+00 0. -1.
          2    1    1    2  502    0 -0.53575576213E+01 -0.22087525123E+02 -0.19528960692E+02  0.29965688637E+02  0.00000000000E+00 0. -1.
</event>
<event>
 4    1  0.6089441E+003  0.2024362E+02  0.7546771E-02  0.1530344E+00
          2   -1    0    0  502    0  0.00000000000E+00  0.00000000000E+00  0.53270217418E+02  0.53270217418E+02  0.00000000000E+00 0.  1.
          2   -1    0    0  501    0 -0.00000000000E+00 -0.00000000000E+00 -0.25642864075E+02  0.25642864075E+02  0.00000000000E+00 0.  1.
          2    1    1    2  501    0 -0.19420400430E+02  0.57142104033E+01  0.46825320295E+02  0.51013868449E+02  0.00000000000E+00 0.  1.
          2    1    1    2  502    0  0.19420400430E+02 -0.57142104033E+01 -0.19197966952E+02  0.27899213044E+02  0.00000000000E+00 0.  1.
</event>
<event>
 4    1  0.6089441E+003  0.2787536E+02  0.7546771E-02  0.1439008E+00
          2   -1    0    0  502    0  0.00000000000E+00  0.00000000000E+00  0.10755728178E+04  0.10755728178E+04  0.00000000000E+00 0. -1.
          2   -1    0    0  501    0 -0.00000000000E+00 -0.00000000000E+00 -0.65864420147E+01  0.65864420147E+01  0.00000000000E+00 0. -1.
          2    1    1    2  501    0  0.22687898270E+02 -0.16195518268E+02  0.10450368011E+04  0.10454085093E+04  0.00000000000E+00 0. -1.
          2    1    1    2  502    0 -0.22687898270E+02  0.16195518268E+02  0.23949574675E+02  0.36750750564E+02  0.00000000000E+00 0. -1.
</event>
<event>
 4    1  0.6089441E+003  0.3119592E+02  0.7546771E-02  0.1409481E+00
          2   -1    0    0  501    0  0.00000000000E+00  0.00000000000E+00  0.84831143239E+01  0.84831143239E+01  0.00000000000E+00 0. -1.
          2   -1    0    0  502    0 -0.00000000000E+00 -0.00000000000E+00 -0.41992080621E+03  0.41992080621E+03  0.00000000000E+00 0. -1.
          2    1    1    2  501    0  0.12717002291E+02 -0.28486193749E+02 -0.38833213230E+03  0.38958314948E+03  0.00000000000E+00 0. -1.
          2    1    1    2  502    0 -0.12717002291E+02  0.28486193749E+02 -0.23105559588E+02  0.38820771057E+02  0.00000000000E+00 0. -1.
</event>
<event>
 4    1  0.6089441E+003  0.8526648E+02  0.7546771E-02  0.1192122E+00
          2   -1    0    0  502    0  0.00000000000E+00  0.00000000000E+00  0.13593352389E+03  0.13593352389E+03  0.00000000000E+00 0.  1.
          2   -1    0    0  501    0 -0.00000000000E+00 -0.00000000000E+00 -0.26164544100E+03  0.26164544100E+03  0.00000000000E+00 0.  1.
          2    1    1    2  501    0  0.21291958690E+02 -0.82565280425E+02  0.11445523711E+03  0.14272482033E+03  0.00000000000E+00 0.  1.
          2    1    1    2  502    0 -0.21291958690E+02  0.82565280425E+02 -0.24016715422E+03  0.25485414457E+03  0.00000000000E+00 0.  1.
</event>
<event>
 4    1  0.6089441E+003  0.2614546E+02  0.7546771E-02  0.1456386E+00
          2   -1    0    0  501    0  0.00000000000E+00  0.00000000000E+00  0.79669486823E+02  0.79669486823E+02  0.00000000000E+00 0.  1.
          2   -1    0    0  502    0 -0.00000000000E+00 -0.00000000000E+00 -0.10612242265E+03  0.10612242265E+03  0.00000000000E+00 0.  1.
          2    1    1    2  501    0 -0.11015572029E+02 -0.23711643713E+02 -0.10228784701E+03  0.10557645817E+03  0.00000000000E+00 0.  1.
          2    1    1    2  502    0  0.11015572029E+02  0.23711643713E+02  0.75834911177E+02  0.80215451304E+02  0.00000000000E+00 0.  1.
</event>
<event>
 4    1  0.6089441E+003  0.2329077E+02  0.7546771E-02  0.1488879E+00
          2   -1    0    0  502    0  0.00000000000E+00  0.00000000000E+00  0.47665718863E+03  0.47665718863E+03  0.00000000000E+00 0. -1.
          2   -1    0    0  501    0 -0.00000000000E+00 -0.00000000000E+00 -0.19776671323E+01  0.19776671323E+01  0.00000000000E+00 0.  1.
          2    1    1    2  501    0 -0.21818870743E+02  0.81484175963E+01  0.39327286020E+03  0.39396193014E+03  0.00000000000E+00 0. -1.
          2    1    1    2  502    0  0.21818870743E+02 -0.81484175963E+01  0.81406661301E+02  0.84672925625E+02  0.00000000000E+00 0.  1.
</event>
<event>
 4    1  0.6089441E+003  0.2374420E+02  0.7546771E-02  0.1483359E+00
          2   -1    0    0  502    0  0.00000000000E+00  0.00000000000E+00  0.17534622626E+02  0.17534622626E+02  0.00000000000E+00 0.  1.
          2   -1    0    0  501    0 -0.00000000000E+00 -0.00000000000E+00 -0.74113140665E+02  0.74113140665E+02  0.00000000000E+00 0.  1.
          2    1    1    2  501    0 -0.20762728893E+02 -0.11519381027E+02  0.61904678511E+01  0.24537908276E+02  0.00000000000E+00 0.  1.
          2    1    1    2  502    0  0.20762728893E+02  0.11519381027E+02 -0.62768985891E+02  0.67109855015E+02  0.00000000000E+00 0.  1.
</event>
<event>
 4    1  0.6089441E+003  0.2097567E+02  0.7546771E-02  0.1519612E+00
          2   -1    0    0  502    0  0.00000000000E+00  0.00000000000E+00  0.13462911113E+02  0.13462911113E+02  0.00000000000E+00 0.  1.
          2   -1    0    0  501    0 -0.00000000000E+00 -0.00000000000E+00 -0.13984466193E+04  0.13984466193E+04  0.00000000000E+00 0. -1.
          2    1    1    2  501    0 -0.18470724579E+02 -0.99403756108E+01  0.51652915914E+01  0.21602290873E+02  0.00000000000E+00 0.  1.
          2    1    1    2  502    0  0.18470724579E+02  0.99403756108E+01 -0.13901489997E+04  0.13903072395E+04  0.00000000000E+00 0. -1.
</event>
<event>
 4    1  0.6089441E+003  0.5454027E+02  0.7546771E-02  0.1279603E+00
          2   -1    0    0  502    0  0.00000000000E+00  0.00000000000E+00  0.89562774056E+02  0.89562774056E+02  0.00000000000E+00 0.  1.
          2   -1    0    0  501    0 -0.00000000000E+00 -0.00000000000E+00 -0.18696707915E+03  0.18696707915E+03  0.00000000000E+00 0. -1.
          2    1    1    2  501    0  0.49155796885E+02  0.23629402952E+02  0.76682071070E+02  0.94099846306E+02  0.00000000000E+00 0.  1.
          2    1    1    2  502    0 -0.49155796885E+02 -0.23629402952E+02 -0.17408637617E+03  0.18243000690E+03  0.00000000000E+00 0. -1.
</event>
<event>
 4    1  0.6089441E+003  0.3220553E+02  0.7546771E-02  0.1401351E+00
          2   -1    0    0  501    0  0.00000000000E+00  0.00000000000E+00  0.38533039027E+02  0.38533039027E+02  0.00000000000E+00 0.  1.
          2   -1    0    0  502    0 -0.00000000000E+00 -0.00000000000E+00 -0.16750880477E+03  0.16750880477E+03  0.00000000000E+00 0.  1.
          2    1    1    2  501    0 -0.14614796318E+02  0.28698498340E+02 -0.15886930656E+03  0.16210074844E+03  0.00000000000E+00 0.  1.
          2    1    1    2  502    0  0.14614796318E+02 -0.28698498340E+02  0.29893540818E+02  0.43941095355E+02  0.00000000000E+00 0.  1.
</event>
<event>
 4    1  0.6089441E+003  0.2608440E+02  0.7546771E-02  0.1457029E+00
          2   -1    0    0  502    0  0.00000000000E+00  0.00000000000E+00  0.77786069921E+03  0.77786069921E+03  0.00000000000E+00 0. -1.
          2   -1    0    0  501    0 -0.00000000000E+00 -0.00000000000E+00 -0.27723072530E+03  0.27723072530E+03  0.00000000000E+00 0.  1.
          2    1    1    2  501    0 -0.24383101075E+02 -0.92660938001E+01  0.77702780143E+03  0.77746549783E+03  0.00000000000E+00 0. -1.
          2    1    1    2  502    0  0.24383101075E+02  0.92660938001E+01 -0.27639782752E+03  0.27762592669E+03  0.00000000000E+00 0.  1.
</event>
<event>
 4    1  0.6089441E+003  0.2177517E+02  0.7546771E-02  0.1508479E+00
          2   -1    0    0  501    0  0.00000000000E+00  0.00000000000E+00  0.53359760717E+03  0.53359760717E+03  0.00000000000E+00 0.  1.
          2   -1    0    0  502    0 -0.00000000000E+00 -0.00000000000E+00 -0.24589992401E+01  0.24589992401E+01  0.00000000000E+00 0.  1.
          2    1    1    2  501    0  0.14830170205E+02  0.15944400779E+02  0.51376087485E+02  0.55800181270E+02  0.00000000000E+00 0.  1.
          2    1    1    2  502    0 -0.14830170205E+02 -0.15944400779E+02  0.47976252044E+03  0.48025642514E+03  0.00000000000E+00 0.  1.
</event>
<event>
 4    1  0.6089441E+003  0.2204379E+02  0.7546771E-02  0.1504867E+00
          2   -1    0    0  502    0  0.00000000000E+00  0.00000000000E+00  0.27624154409E+01  0.27624154409E+01  0.00000000000E+00 0. -1.
          2   -1    0    0  501    0 -0.00000000000E+00 -0.00000000000E+00 -0.45381208782E+03  0.45381208782E+03  0.00000000000E+00 0. -1.
          2    1    1    2  501    0 -0.20783253150E+02 -0.73474501673E+01 -0.46879468557E+02  0.51803602265E+02  0.00000000000E+00 0. -1.
          2    1    1    2  502    0  0.20783253150E+02  0.73474501673E+01 -0.40417020382E+03  0.40477090099E+03  0.00000000000E+00 0. -1.
</event>
<event>
 4    1  0.6089441E+003  0.2145955E+02  0.7546771E-02  0.1512804E+00
          2   -1    0    0  502    0  0.00000000000E+00  0.00000000000E+00  0.12536556095E+04  0.12536556095E+04  0.00000000000E+00 0.  1.
          2   -1    0    0  501    0 -0.00000000000E+00 -0.00000000000E+00 -0.60867463398E+03  0.60867463398E+03  0.00000000000E+00 0.  1.
          2    1    1    2  501    0  0.17501731334E+02 -0.12417800762E+02  0.12533745876E+04  0.12535582832E+04  0.00000000000E+00 0.  1.
          2    1    1    2  502    0 -0.17501731334E+02  0.12417800762E+02 -0.60839361212E+03  0.60877196030E+03  0.00000000000E+00 0.  1.
</event>
<event>
 4    1  0.6089441E+003  0.2729651E+02  0.7546771E-02  0.1444652E+00
          2   -1    0    0  502    0  0.00000000000E+00  0.00000000000E+00  0.55432302899E+02  0.55432302899E+02  0.00000000000E+00 0.  1.
          2   -1    0    0  501    0 -0.00000000000E+00 -0.00000000000E+00 -0.16607740748E+02  0.16607740748E+02  0.00000000000E+00 0.  1.
          2    1    1    2  501    0  0.23570140776E+02  0.13767640586E+02  0.35139539887E+02  0.44495918093E+02  0.00000000000E+00 0.  1.
          2    1    1    2  502    0 -0.23570140776E+02 -0.13767640586E+02  0.36850222638E+01  0.27544125555E+02  0.00000000000E+00 0.  1.
</event>
<event>
 4    1  0.6089441E+003  0.2299956E+02  0.7546771E-02  0.1492504E+00
          2   -1    0    0  502    0  0.00000000000E+00  0.00000000000E+00  0.76939184920E+02  0.76939184920E+02  0.00000000000E+00 0.  1.
          2   -1    0    0  501    0 -0.00000000000E+00 -0.00000000000E+00 -0.15444755884E+03  0.15444755884E+03  0.00000000000E+00 0.  1.
          2    1    1    2  501    0 -0.22837594536E+02  0.27247147813E+01  0.74334801781E+02  0.77811583653E+02  0.00000000000E+00 0.  1.
          2    1    1    2  502    0  0.22837594536E+02 -0.27247147813E+01 -0.15184317570E+03  0.15357516011E+03  0.00000000000E+00 0.  1.
</event>
<event>
 4    1  0.6089441E+003  0.2202836E+02  0.7546771E-02  0.1505073E+00
          2   -1    0    0  502    0  0.00000000000E+00  0.00000000000E+00  0.12867111901E+04  0.12867111901E+04  0.00000000000E+00 0.  1.
          2   -1    0    0  501    0 -0.00000000000E+00 -0.00000000000E+00 -0.25488464607E+01  0.25488464607E+01  0.00000000000E+00 0.  1.
          2    1    1    2  501    0 -0.16436143745E+02  0.14666349807E+02  0.12371140042E+04  0.12373101099E+04  0.00000000000E+00 0.  1.
          2    1    1    2  502    0  0.16436143745E+02 -0.14666349807E+02  0.47048339473E+02  0.51949926708E+02  0.00000000000E+00 0.  1.
</event>
<event>
 4    1  0.6089441E+003  0.2404271E+02  0.7546771E-02  0.1479804E+00
          2   -1    0    0  501    0  0.00000000000E+00  0.00000000000E+00  0.98764424886E+02  0.98764424886E+02  0.00000000000E+00 0. -1.
          2   -1    0    0  502    0 -0.00000000000E+00 -0.00000000000E+00 -0.29445577053E+02  0.29445577053E+02  0.00000000000E+00 0. -1.
          2    1    1    2  501    0  0.23864604370E+02  0.29210471097E+01 -0.22721969244E+02  0.33080806282E+02  0.00000000000E+00 0. -1.
          2    1    1    2  502    0 -0.23864604370E+02 -0.29210471097E+01  0.92040817078E+02  0.95129195657E+02  0.00000000000E+00 0. -1.
</event>
<event>
 4    1  0.6089441E+003  0.2000568E+02  0.7546771E-02  0.1533949E+00
          2   -1    0    0  501    0  0.00000000000E+00  0.00000000000E+00  0.54330873034E+02  0.54330873034E+02  0.00000000000E+00 0. -1.
          2   -1    0    0  502    0 -0.00000000000E+00 -0.00000000000E+00 -0.38478822335E+03  0.38478822335E+03  0.00000000000E+00 0.  1.
          2    1    1    2  501    0  0.27711310106E+01 -0.19812821558E+02 -0.38267641757E+03  0.38319899221E+03  0.00000000000E+00 0.  1.
          2    1    1    2  502    0 -0.27711310106E+01  0.19812821558E+02  0.52219067258E+02  0.55920104171E+02  0.00000000000E+00 0. -1.
</event>
<event>
 4    1  0.6089441E+003  0.3433925E+02  0.7546771E-02  0.1385269E+00
          2   -1    0    0  502    0  0.00000000000E+00  0.00000000000E+00  0.94239100786E+03  0.94239100786E+03  0.00000000000E+00 0. -1.
          2   -1    0    0  501    0 -0.00000000000E+00 -0.00000000000E+00 -0.10324114156E+03  0.10324114156E+03  0.00000000000E+00 0. -1.
          2    1    1    2  501    0 -0.32596559373E+02  0.10800381035E+02  0.93921312072E+03  0.93984066205E+03  0.00000000000E+00 0. -1.
          2    1    1    2  502    0  0.32596559373E+02 -0.10800381035E+02 -0.10006325442E+03  0.10579148736E+03  0.00000000000E+00 0. -1.
</event>
<event>
 4    1  0.6089441E+003  0.2729100E+02  0.7546771E-02  0.1444707E+00
          2   -1    0    0  502    0  0.00000000000E+00  0.00000000000E+00  0.33891777054E+03  0.33891777054E+03  0.00000000000E+00 0.  1.
          2   -1    0    0  501    0 -0.00000000000E+00 -0.00000000000E+00 -0.12050325281E+02  0.12050325281E+02  0.00000000000E+00 0.  1.
          2    1    1    2  501    0  0.11208112941E+02  0.24883270233E+02  0.32211178370E+03  0.32326583508E+03  0.00000000000E+00 0.  1.
          2    1    1    2  502    0 -0.11208112941E+02 -0.24883270233E+02  0.47556615588E+01  0.27702260739E+02  0.00000000000E+00 0.  1.
</event>
<event>
 4    1  0.6089441E+003  0.2122094E+02  0.7546771E-02  0.1516134E+00
          2   -1    0    0  501    0  0.00000000000E+00  0.00000000000E+00  0.44923679796E+02  0.44923679796E+02  0.00000000000E+00 0. -1.
          2   -1    0    0  502    0 -0.00000000000E+00 -0.00000000000E+00 -0.43822108633E+02  0.43822108633E+02  0.00000000000E+00 0. -1.
          2    1    1    2  501    0  0.20455304728E+02  0.56487755896E+01 -0.38417870916E+02  0.43889189590E+02  0.00000000000E+00 0. -1.
          2    1    1    2  502    0 -0.20455304728E+02 -0.56487755896E+01  0.39519442079E+02  0.44856598839E+02  0.00000000000E+00 0. -1.
</event>
<event>
 4    1  0.6089441E+003  0.2405573E+02  0.7546771E-02  0.1479650E+00
          2   -1    0    0  502    0  0.00000000000E+00  0.00000000000E+00  0.43242639753E+03  0.43242639753E+03  0.00000000000E+00 0. -1.
          2   -1    0    0  501    0 -0.00000000000E+00 -0.00000000000E+00 -0.16747896782E+02  0.16747896782E+02  0.00000000000E+00 0.  1.
          2    1    1    2  501    0  0.23477979367E+02  0.52404717509E+01  0.42326699888E+03  0.42395003291E+03  0.00000000000E+00 0. -1.
          2    1    1    2  502    0 -0.23477979367E+02 -0.52404717509E+01 -0.75884981372E+01  0.25224261403E+02  0.00000000000E+00 0.  1.
</event>
<event>
 4    1  0.6089441E+003  0.2060621E+02  0.7546771E-02  0.1524962E+00
          2   -1    0    0  502    0  0.00000000000E+00  0.00000000000E+00  0.11640659432E+01  0.11640659432E+01  0.00000000000E+00 0. -1.
          2   -1    0    0  501    0 -0.00000000000E+00 -0.00000000000E+00 -0.70919173078E+03  0.70919173078E+03  0.00000000000E+00 0.  1.
          2    1    1    2  501    0 -0.56873710988E+01 -0.19805797209E+02 -0.10649419110E+03  0.10846948202E+03  0.00000000000E+00 0. -1.
          2    1    1    2  502    0  0.56873710988E+01  0.19805797209E+02 -0.60153347374E+03  0.60188631470E+03  0.00000000000E+00 0.  1.
</event>
<event>
 4    1  0.6089441E+003  0.5877161E+02  0.7546771E-02  0.1264064E+00
          2   -1    0    0  501    0  0.00000000000E+00  0.00000000000E+00  0.29116121553E+04  0.29116121553E+04  0.00000000000E+00 0.  1.
          2   -1    0    0  502    0 -0.00000000000E+00 -0.00000000000E+00 -0.11989145082E+01  0.11989145082E+01  0.00000000000E+00 0.  1.
          2    1    1    2  501    0 -0.17795532433E+01  0.58744657649E+02  0.16044830965E+04  0.16055591264E+04  0.00000000000E+00 0.  1.
          2    1    1    2  502    0  0.17795532433E+01 -0.58744657649E+02  0.13059301444E+04  0.13072519434E+04  0.00000000000E+00 0.  1.
</event>
<event>
 4    1  0.6089441E+003  0.3341972E+02  0.7546771E-02  0.1392027E+00
          2   -1    0    0  501    0  0.00000000000E+00  0.00000000000E+00  0.53174474634E+03  0.53174474634E+03  0.00000000000E+00 0. -1.
          2   -1    0    0  502    0 -0.00000000000E+00 -0.00000000000E+00 -0.43942297761E+03  0.43942297761E+03  0.00000000000E+00 0.  1.
          2    1    1    2  501    0  0.55374307085E+01 -0.32957764592E+02 -0.43826106442E+03  0.43953343215E+03  0.00000000000E+00 0.  1.
          2    1    1    2  502    0 -0.55374307085E+01  0.32957764592E+02  0.53058283316E+03  0.53163429181E+03  0.00000000000E+00 0. -1.
</event>
<event>
 4    1  0.1646133E+004  0.2419493E+02  0.7546771E-02  0.1478015E+00
          2   -1    0    0  502    0  0.00000000000E+00  0.00000000000E+00  0.74191396387E+03  0.74191396387E+03  0.00000000000E+00 0.  1.
          2   -1    0    0  501    0 -0.00000000000E+00 -0.00000000000E+00 -0.13984932153E+04  0.13984932153E+04  0.00000000000E+00 0.  1.
          2    1    1    2  501    0 -0.18561446466E+02  0.15519902120E+02  0.74161201561E+03  0.74200658781E+03  0.00000000000E+00 0.  1.
          2    1    1    2  502    0  0.18561446466E+02 -0.15519902120E+02 -0.13981912671E+04  0.13984005914E+04  0.00000000000E+00 0.  1.
</event>
<event>
 4    1  0.6089441E+003  0.2425130E+02  0.7546771E-02  0.1477356E+00
          2   -1    0    0  502    0  0.00000000000E+00  0.00000000000E+00  0.12016366845E+03  0.12016366845E+03  0.00000000000E+00 0.  1.
          2   -1    0    0  501    0 -0.00000000000E+00 -0.00000000000E+00 -0.20103729919E+02  0.20103729919E+02  0.00000000000E+00 0.  1.
          2    1    1    2  501    0  0.87002832779E+01  0.22636935824E+02  0.11103193839E+03  0.11364953645E+03  0.00000000000E+00 0.  1.
          2    1    1    2  502    0 -0.87002832779E+01 -0.22636935824E+02 -0.10971999855E+02  0.26617861924E+02  0.00000000000E+00 0.  1.
</event>
<event>
 4    1  0.6089441E+003  0.2063434E+02  0.7546771E-02  0.1524550E+00
          2   -1    0    0  501    0  0.00000000000E+00  0.00000000000E+00  0.11436593501E+02  0.11436593501E+02  0.00000000000E+00 0.  1.
          2   -1    0    0  502    0 -0.00000000000E+00 -0.00000000000E+00 -0.34223095971E+03  0.34223095971E+03  0.00000000000E+00 0. -1.
          2    1    1    2  501    0 -0.84770932109E+01 -0.18812620343E+02 -0.33233576188E+03  0.33297572647E+03  0.00000000000E+00 0. -1.
          2    1    1    2  502    0  0.84770932109E+01  0.18812620343E+02  0.15413956670E+01  0.20691826746E+02  0.00000000000E+00 0.  1.
</event>
<event>
 4    1  0.6089441E+003  0.2765249E+02  0.7546771E-02  0.1441162E+00
          2   -1    0    0  501    0  0.00000000000E+00  0.00000000000E+00  0.53282359558E+02  0.53282359558E+02  0.00000000000E+00 0.  1.
          2   -1    0    0  502    0 -0.00000000000E+00 -0.00000000000E+00 -0.45796513018E+03  0.45796513018E+03  0.00000000000E+00 0.  1.
          2    1    1    2  501    0  0.27619841370E+02  0.13434267118E+01 -0.45392805365E+03  0.45476954419E+03  0.00000000000E+00 0.  1.
          2    1    1    2  502    0 -0.27619841370E+02 -0.13434267118E+01  0.49245283029E+02  0.56477945547E+02  0.00000000000E+00 0.  1.
</event>
<event>
 4    1  0.6089441E+003  0.2789357E+02  0.7546771E-02  0.1438833E+00
          2   -1    0    0  501    0  0.00000000000E+00  0.00000000000E+00  0.41692785672E+02  0.41692785672E+02  0.00000000000E+00 0.  1.
          2   -1    0    0  502    0 -0.00000000000E+00 -0.00000000000E+00 -0.54074406779E+03  0.54074406779E+03  0.00000000000E+00 0.  1.
          2    1    1    2  501    0 -0.37675415216E+01 -0.27637963702E+02 -0.53567485080E+03  0.53640059395E+03  0.00000000000E+00 0.  1.
          2    1    1    2  502    0  0.37675415216E+01  0.27637963702E+02  0.36623568685E+02  0.46036259513E+02  0.00000000000E+00 0.  1.
</event>
<event>
 4    1  0.6089441E+003  0.2356848E+02  0.7546771E-02  0.1485481E+00
          2   -1    0    0  501    0  0.00000000000E+00  0.00000000000E+00  0.94458049013E+02  0.94458049013E+02  0.00000000000E+00 0. -1.
          2   -1    0    0  502    0 -0.00000000000E+00 -0.00000000000E+00 -0.33229710123E+03  0.33229710123E+03  0.00000000000E+00 0. -1.
          2    1    1    2  501    0  0.20510725773E+02  0.11609615266E+02 -0.33040061132E+03  0.33124015004E+03  0.00000000000E+00 0. -1.
          2    1    1    2  502    0 -0.20510725773E+02 -0.11609615266E+02  0.92561559108E+02  0.95515000198E+02  0.00000000000E+00 0. -1.
</event>
<event>
 4    1  0.6089441E+003  0.2260730E+02  0.7546771E-02  0.1497489E+00
          2   -1    0    0  501    0  0.00000000000E+00  0.00000000000E+00  0.91711870046E+00  0.91711870046E+00  0.00000000000E+00 0.  1.
          2   -1    0    0  502    0 -0.00000000000E+00 -0.00000000000E+00 -0.95047770611E+03  0.95047770611E+03  0.00000000000E+00 0. -1.
          2    1    1    2  501    0  0.15312210104E+02 -0.16632082187E+02 -0.78074159380E+03  0.78106883578E+03  0.00000000000E+00 0. -1.
          2    1    1    2  502    0 -0.15312210104E+02  0.16632082187E+02 -0.16881899361E+03  0.17032598904E+03  0.00000000000E+00 0.  1.
</event>
<event>
 4    1  0.6089441E+003  0.2077579E+02  0.7546771E-02  0.1522490E+00
          2   -1    0    0  502    0  0.00000000000E+00  0.00000000000E+00  0.91726239982E+01  0.91726239982E+01  0.00000000000E+00 0.  1.
          2   -1    0    0  501    0 -0.00000000000E+00 -0.00000000000E+00 -0.55740930146E+03  0.55740930146E+03  0.00000000000E+00 0. -1.
          2    1    1    2  501    0 -0.76325664139E+01  0.19322974388E+02 -0.30487597142E+01  0.20998293861E+02  0.00000000000E+00 0.  1.
          2    1    1    2  502    0  0.76325664139E+01 -0.19322974388E+02 -0.54518791775E+03  0.54558363160E+03  0.00000000000E+00 0. -1.
</event>
<event>
 4    1  0.6089441E+003  0.2386136E+02  0.7546771E-02  0.1481956E+00
          2   -1    0    0  502    0  0.00000000000E+00  0.00000000000E+00  0.26429048214E+02  0.26429048214E+02  0.00000000000E+00 0.  1.
          2   -1    0    0  501    0 -0.00000000000E+00 -0.00000000000E+00 -0.15561378614E+04  0.15561378614E+04  0.00000000000E+00 0.  1.
          2    1    1    2  501    0  0.46195410933E+01 -0.23409919219E+02  0.20932705312E+02  0.31741812006E+02  0.00000000000E+00 0.  1.
          2    1    1    2  502    0 -0.46195410933E+01  0.23409919219E+02 -0.15506415185E+04  0.15508250976E+04  0.00000000000E+00 0.  1.
</event>
<event>
 4    1  0.6089441E+003  0.2066182E+02  0.7546771E-02  0.1524148E+00
          2   -1    0    0  502    0  0.00000000000E+00  0.00000000000E+00  0.83476609613E+03  0.83476609613E+03  0.00000000000E+00 0.  1.
          2   -1    0    0  501    0 -0.00000000000E+00 -0.00000000000E+00 -0.29559363340E+01  0.29559363340E+01  0.00000000000E+00 0.  1.
          2    1    1    2  501    0 -0.20355886088E+02  0.35424244161E+01  0.79681249758E+03  0.79708033922E+03  0.00000000000E+00 0.  1.
          2    1    1    2  502    0  0.20355886088E+02 -0.35424244161E+01  0.34997662207E+02  0.40641693237E+02  0.00000000000E+00 0.  1.
</event>
<event>
 4    1  0.6089441E+003  0.5813751E+02  0.7546771E-02  0.1266295E+00
          2   -1    0    0  501    0  0.00000000000E+00  0.00000000000E+00  0.15229941224E+03  0.15229941224E+03  0.00000000000E+00 0.  1.
          2   -1    0    0  502    0 -0.00000000000E+00 -0.00000000000E+00 -0.58087218271E+02  0.58087218271E+02  0.00000000000E+00 0. -1.
          2    1    1    2  501    0 -0.56183848742E+02 -0.14944737432E+02 -0.35585338739E+02  0.68163673386E+02  0.00000000000E+00 0. -1.
          2    1    1    2  502    0  0.56183848742E+02  0.14944737432E+02  0.12979753271E+03  0.14222295712E+03  0.00000000000E+00 0.  1.
</event>
<event>
 4    1  0.6089441E+003  0.3512540E+02  0.7546771E-02  0.1379684E+00
          2   -1    0    0  502    0  0.00000000000E+00  0.00000000000E+00  0.57977324062E+03  0.57977324062E+03  0.00000000000E+00 0.  1.
          2   -1    0    0  501    0 -0.00000000000E+00 -0.00000000000E+00 -0.21329724866E+01  0.21329724866E+01  0.00000000000E+00 0.  1.
          2    1    1    2  501    0 -0.14407890661E+02 -0.32034457374E+02  0.30277945752E+03  0.30481009444E+03  0.00000000000E+00 0.  1.
          2    1    1    2  502    0  0.14407890661E+02  0.32034457374E+02  0.27486081061E+03  0.27709611867E+03  0.00000000000E+00 0.  1.
</event>
<event>
 4    1  0.6089441E+003  0.2663089E+02  0.7546771E-02  0.1451352E+00
          2   -1    0    0  501    0  0.00000000000E+00  0.00000000000E+00  0.10291390383E+03  0.10291390383E+03  0.00000000000E+00 0. -1.
          2   -1    0    0  502    0 -0.00000000000E+00 -0.00000000000E+00 -0.53376144214E+03  0.53376144214E+03  0.00000000000E+00 0. -1.
          2    1    1    2  501    0 -0.16993998170E+02  0.20503862988E+02 -0.53169978333E+03  0.53236628741E+03  0.00000000000E+00 0. -1.
          2    1    1    2  502    0  0.16993998170E+02 -0.20503862988E+02  0.10085224502E+03  0.10430905856E+03  0.00000000000E+00 0. -1.
</event>
<event>
 4    1  0.6089441E+003  0.2615300E+02  0.7546771E-02  0.1456307E+00
          2   -1    0    0  501    0  0.00000000000E+00  0.00000000000E+00  0.15794858325E+04  0.15794858325E+04  0.00000000000E+00 0. -1.
          2   -1    0    0  502    0 -0.00000000000E+00 -0.00000000000E+00 -0.99940306624E+01  0.99940306624E+01  0.00000000000E+00 0. -1.
          2    1    1    2  501    0  0.59938903896E+01 -0.25456881728E+02  0.74145976308E+01  0.27183741599E+02  0.00000000000E+00 0. -1.
          2    1    1    2  502    0 -0.59938903896E+01  0.25456881728E+02  0.15620772042E+04  0.15622961215E+04  0.00000000000E+00 0. -1.
</event>
<event>
 4    1  0.6089441E+003  0.2244679E+02  0.7546771E-02  0.1499564E+00
          2   -1    0    0  501    0  0.00000000000E+00  0.00000000000E+00  0.52273156757E+02  0.52273156757E+02  0.00000000000E+00 0. -1.
          2   -1    0    0  502    0 -0.00000000000E+00 -0.00000000000E+00 -0.23108445844E+02  0.23108445844E+02  0.00000000000E+00 0.  1.
          2    1    1    2  501    0 -0.22382559353E+02 -0.16968491854E+01 -0.14193331335E+02  0.26557652659E+02  0.00000000000E+00 0.  1.
          2    1    1    2  502    0  0.22382559353E+02  0.16968491854E+01  0.43358042248E+02  0.48823949942E+02  0.00000000000E+00 0. -1.
</event>
<event>
 4    1  0.6089441E+003  0.2400891E+02  0.7546771E-02  0.1480203E+00
          2   -1    0    0  502    0  0.00000000000E+00  0.00000000000E+00  0.13053777856E+03  0.13053777856E+03  0.00000000000E+00 0.  1.
          2   -1    0    0  501    0 -0.00000000000E+00 -0.00000000000E+00 -0.71522209182E+01  0.71522209182E+01  0.00000000000E+00 0. -1.
          2    1    1    2  501    0  0.16769288158E+02  0.17181933523E+02  0.10427652991E+03  0.10700477818E+03  0.00000000000E+00 0.  1.
          2    1    1    2  502    0 -0.16769288158E+02 -0.17181933523E+02  0.19109027736E+02  0.30685221295E+02  0.00000000000E+00 0. -1.
</event>
<event>
 4    1  0.6089441E+003  0.6434502E+02  0.7546771E-02  0.1245744E+00
          2   -1    0    0  502    0  0.00000000000E+00  0.00000000000E+00  0.44910739569E+03  0.44910739569E+03  0.00000000000E+00 0. -1.
          2   -1    0    0  501    0 -0.00000000000E+00 -0.00000000000E+00 -0.73045355993E+03  0.73045355993E+03  0.00000000000E+00 0.  1.
          2    1    1    2  501    0 -0.29988724942E+02 -0.56929414851E+02  0.44537382559E+03  0.44999791824E+03  0.00000000000E+00 0. -1.
          2    1    1    2  502    0  0.29988724942E+02  0.56929414851E+02 -0.72671998982E+03  0.72956303738E+03  0.00000000000E+00 0.  1.
</event>
<event>
 4    1  0.6089441E+003  0.3357237E+02  0.7546771E-02  0.1390887E+00
          2   -1    0    0  502    0  0.00000000000E+00  0.00000000000E+00  0.44015399007E+02  0.44015399007E+02  0.00000000000E+00 0. -1.
          2   -1    0    0  501    0 -0.00000000000E+00 -0.00000000000E+00 -0.22843576458E+03  0.22843576458E+03  0.00000000000E+00 0.  1.
          2    1    1    2  501    0  0.10117211831E+02 -0.32011652104E+02  0.36153260215E+02  0.49337228032E+02  0.00000000000E+00 0. -1.
          2    1    1    2  502    0 -0.10117211831E+02  0.32011652104E+02 -0.22057362578E+03  0.22311393555E+03  0.00000000000E+00 0.  1.
</event>
<event>
 4    1  0.6089441E+003  0.5508706E+02  0.7546771E-02  0.1277505E+00
          2   -1    0    0  501    0  0.00000000000E+00  0.00000000000E+00  0.38177729245E+04  0.38177729245E+04  0.00000000000E+00 0. -1.
          2   -1    0    0  502    0 -0.00000000000E+00 -0.00000000000E+00 -0.22199506726E+03  0.22199506726E+03  0.00000000000E+00 0. -1.
          2    1    1    2  501    0 -0.45383473296E+02 -0.31223786870E+02 -0.21837570941E+03  0.22521664010E+03  0.00000000000E+00 0. -1.
          2    1    1    2  502    0  0.45383473296E+02  0.31223786870E+02  0.38141535667E+04  0.38145513517E+04  0.00000000000E+00 0. -1.
</event>
<event>
 4    1  0.6089441E+003  0.5350858E+02  0.7546771E-02  0.1283637E+00
          2   -1    0    0  502    0  0.00000000000E+00  0.00000000000E+00  0.78895643446E+01  0.78895643446E+01  0.00000000000E+00 0. -1.
          2   -1    0    0  501    0 -0.00000000000E+00 -0.00000000000E+00 -0.14590111734E+04  0.14590111734E+04  0.00000000000E+00 0.  1.
          2    1    1    2  501    0 -0.35033779275E+02  0.40445058749E+02 -0.89838307387E+02  0.10456619885E+03  0.00000000000E+00 0. -1.
          2    1    1    2  502    0  0.35033779275E+02 -0.40445058749E+02 -0.13612833017E+04  0.13623345389E+04  0.00000000000E+00 0.  1.
</event>
<event>
 4    1  0.6089441E+003  0.2105899E+02  0.7546771E-02  0.1518424E+00
          2   -1    0    0  501    0  0.00000000000E+00  0.00000000000E+00  0.64074562534E+03  0.64074562534E+03  0.00000000000E+00 0.  1.
          2   -1    0    0  502    0 -0.00000000000E+00 -0.00000000000E+00 -0.68681838267E+01  0.68681838267E+01  0.00000000000E+00 0.  1.
          2    1    1    2  501    0 -0.21054869943E+02 -0.41641976655E+00  0.98805958117E+01  0.23261709467E+02  0.00000000000E+00 0.  1.
          2    1    1    2  502    0  0.21054869943E+02  0.41641976655E+00  0.62399684570E+03  0.62435209970E+03  0.00000000000E+00 0.  1.
</event>
<event>
 4    1  0.6089441E+003  0.2097721E+02  0.7546771E-02  0.1519590E+00
          2   -1    0    0  501    0  0.00000000000E+00  0.00000000000E+00  0.41078592197E+01  0.41078592197E+01  0.00000000000E+00 0.  1.
          2   -1    0    0  502    0 -0.00000000000E+00 -0.00000000000E+00 -0.21028679398E+03  0.21028679398E+03  0.00000000000E+00 0.  1.
          2    1    1    2  501    0  0.20944263328E+02 -0.11751726332E+01 -0.17817273205E+03  0.17940336018E+03  0.00000000000E+00 0.  1.
          2    1    1    2  502    0 -0.20944263328E+02  0.11751726332E+01 -0.28006202710E+02  0.34991293021E+02  0.00000000000E+00 0.  1.
</event>
<event>
 4    1  0.6089441E+003  0.2846314E+02  0.7546771E-02  0.1433439E+00
          2   -1    0    0  502    0  0.00000000000E+00  0.00000000000E+00  0.26547089182E+01  0.26547089182E+01  0.00000000000E+00 0.  1.
          2   -1    0    0  501    0 -0.00000000000E+00 -0.00000000000E+00 -0.90416892787E+03  0.90416892787E+03  0.00000000000E+00 0. -1.
          2    1    1    2  501    0  0.25766596682E+02  0.12092680310E+02 -0.81712124739E+02  0.86527577980E+02  0.00000000000E+00 0.  1.
          2    1    1    2  502    0 -0.25766596682E+02 -0.12092680310E+02 -0.81980209422E+03  0.82029605881E+03  0.00000000000E+00 0. -1.
</event>
<event>
 4    1  0.6089441E+003  0.2063794E+02  0.7546771E-02  0.1524497E+00
          2   -1    0    0  501    0  0.00000000000E+00  0.00000000000E+00  0.23536688419E+02  0.23536688419E+02  0.00000000000E+00 0. -1.
          2   -1    0    0  502    0 -0.00000000000E+00 -0.00000000000E+00 -0.17450114538E+03  0.17450114538E+03  0.00000000000E+00 0.  1.
          2    1    1    2  501    0 -0.13428693729E+02  0.15671457684E+02 -0.16922640189E+03  0.17048020266E+03  0.00000000000E+00 0.  1.
          2    1    1    2  502    0  0.13428693729E+02 -0.15671457684E+02  0.18261944933E+02  0.27557631139E+02  0.00000000000E+00 0. -1.
</event>
<event>
 4    1  0.6089441E+003  0.2502504E+02  0.7546771E-02  0.1468524E+00
          2   -1    0    0  501    0  0.00000000000E+00  0.00000000000E+00  0.23190984635E+03  0.23190984635E+03  0.00000000000E+00 0. -1.
          2   -1    0    0  502    0 -0.00000000000E+00 -0.00000000000E+00 -0.58670736767E+03  0.58670736767E+03  0.00000000000E+00 0. -1.
          2    1    1    2  501    0  0.81862835742E+01  0.23648196045E+02 -0.58576432757E+03  0.58629864393E+03  0.00000000000E+00 0. -1.
          2    1    1    2  502    0 -0.81862835742E+01 -0.23648196045E+02  0.23096680625E+03  0.23231857008E+03  0.00000000000E+00 0. -1.
</event>
<event>
 4    1  0.6089441E+003  0.2923287E+02  0.7546771E-02  0.1426382E+00
          2   -1    0    0  502    0  0.00000000000E+00  0.00000000000E+00  0.57744213240E+03  0.57744213240E+03  0.00000000000E+00 0.  1.
          2   -1    0    0  501    0 -0.00000000000E+00 -0.00000000000E+00 -0.81835486266E+01  0.81835486266E+01  0.00000000000E+00 0.  1.
          2    1    1    2  501    0  0.25659624929E+02 -0.14005146272E+02  0.54964687475E+03  0.55042369806E+03  0.00000000000E+00 0.  1.
          2    1    1    2  502    0 -0.25659624929E+02  0.14005146272E+02  0.19611709032E+02  0.35201982966E+02  0.00000000000E+00 0.  1.
</event>
<event>
 4    1  0.6089441E+003  0.2682200E+02  0.7546771E-02  0.1449404E+00
          2   -1    0    0  501    0  0.00000000000E+00  0.00000000000E+00  0.72084902958E+01  0.72084902958E+01  0.00000000000E+00 0.  1.
          2   -1    0    0  502    0 -0.00000000000E+00 -0.00000000000E+00 -0.64522593519E+03  0.64522593519E+03  0.00000000000E+00 0. -1.
          2    1    1    2  501    0 -0.33227445347E+01 -0.26615395860E+02 -0.61893751670E+03  0.61951841741E+03  0.00000000000E+00 0. -1.
          2    1    1    2  502    0  0.33227445347E+01  0.26615395860E+02 -0.19079928198E+02  0.32916008083E+02  0.00000000000E+00 0.  1.
</event>
<event>
 4    1  0.6089441E+003  0.2776017E+02  0.7546771E-02  0.1440118E+00
          2   -1    0    0  501    0  0.00000000000E+00  0.00000000000E+00  0.28291349321E+03  0.28291349321E+03  0.00000000000E+00 0. -1.
          2   -1    0    0  502    0 -0.00000000000E+00 -0.00000000000E+00 -0.10675985768E+03  0.10675985768E+03  0.00000000000E+00 0.  1.
          2    1    1    2  501    0  0.22894300423E+02  0.15699623632E+02 -0.10425824283E+03  0.10789072422E+03  0.00000000000E+00 0.  1.
          2    1    1    2  502    0 -0.22894300423E+02 -0.15699623632E+02  0.28041187835E+03  0.28178262667E+03  0.00000000000E+00 0. -1.
</event>
<event>
 4    1  0.6089441E+003  0.3264237E+02  0.7546771E-02  0.1397941E+00
          2   -1    0    0  502    0  0.00000000000E+00  0.00000000000E+00  0.24573439682E+04  0.24573439682E+04  0.00000000000E+00 0. -1.
          2   -1    0    0  501    0 -0.00000000000E+00 -0.00000000000E+00 -0.12188444649E+01  0.12188444649E+01  0.00000000000E+00 0.  1.
          2    1    1    2  501    0  0.10727195799E+02 -0.30829394755E+02  0.22147449198E+04  0.22149854591E+04  0.00000000000E+00 0. -1.
          2    1    1    2  502    0 -0.10727195799E+02  0.30829394755E+02  0.24138020394E+03  0.24357735355E+03  0.00000000000E+00 0.  1.
</event>
<event>
 4    1  0.6089441E+003  0.2074431E+02  0.7546771E-02  0.1522947E+00
          2   -1    0    0  502    0  0.00000000000E+00  0.00000000000E+00  0.73194173369E+03  0.73194173369E+03  0.00000000000E+00 0.  1.
          2   -1    0    0  501    0 -0.00000000000E+00 -0.00000000000E+00 -0.10502651175E+02  0.10502651175E+02  0.00000000000E+00 0.  1.
          2    1    1    2  501    0 -0.20192570645E+02 -0.47525078394E+01  0.72140184991E+03  0.72170004524E+03  0.00000000000E+00 0.  1.
          2    1    1    2  502    0  0.20192570645E+02  0.47525078394E+01  0.37232596313E-01  0.20744339620E+02  0.00000000000E+00 0.  1.
</event>
<event>
 4    1  0.6089441E+003  0.2224695E+02  0.7546771E-02  0.1502177E+00
          2   -1    0    0  501    0  0.00000000000E+00  0.00000000000E+00  0.18173808004E+03  0.18173808004E+03  0.00000000000E+00 0.  1.
          2   -1    0    0  502    0 -0.00000000000E+00 -0.00000000000E+00 -0.10875085558E+04  0.10875085558E+04  0.00000000000E+00 0. -1.
          2    1    1    2  501    0  0.22210367074E+02 -0.12752628235E+01 -0.10867134582E+04  0.10869411515E+04  0.00000000000E+00 0. -1.
          2    1    1    2  502    0 -0.22210367074E+02  0.12752628235E+01  0.18094298245E+03  0.18230548428E+03  0.00000000000E+00 0.  1.
</event>
<event>
 4    1  0.6089441E+003  0.3205250E+02  0.7546771E-02  0.1402560E+00
          2   -1    0    0  501    0  0.00000000000E+00  0.00000000000E+00  0.25122624058E+01  0.25122624058E+01  0.00000000000E+00 0. -1.
          2   -1    0    0  502    0 -0.00000000000E+00 -0.00000000000E+00 -0.53981885310E+03  0.53981885310E+03  0.00000000000E+00 0.  1.
          2    1    1    2  501    0 -0.18139065487E+02 -0.26426072119E+02 -0.40217328867E+03  0.40344853092E+03  0.00000000000E+00 0.  1.
          2    1    1    2  502    0  0.18139065487E+02  0.26426072119E+02 -0.13513330202E+03  0.13888258458E+03  0.00000000000E+00 0. -1.
</event>
<event>
 4    1  0.6089441E+003  0.2286149E+02  0.7546771E-02  0.1494245E+00
          2   -1    0    0  501    0  0.00000000000E+00  0.00000000000E+00  0.15783772192E+04  0.15783772192E+04  0.00000000000E+00 0.  1.
          2   -1    0    0  502    0 -0.00000000000E+00 -0.00000000000E+00 -0.23955769504E+01  0.23955769504E+01  0.00000000000E+00 0. -1.
          2    1    1    2  501    0 -0.18027280983E+02 -0.14059334840E+02  0.54260818283E+02  0.58880252687E+02  0.00000000000E+00 0. -1.
          2    1    1    2  502    0  0.18027280983E+02  0.14059334840E+02  0.15217208240E+04  0.15218925435E+04  0.00000000000E+00 0.  1.
</event>
<event>
 4    1  0.6089441E+003  0.2046075E+02  0.7546771E-02  0.1527105E+00
          2   -1    0    0  502    0  0.00000000000E+00  0.00000000000E+00  0.26952033221E+03  0.26952033221E+03  0.00000000000E+00 0.  1.
          2   -1    0    0  501    0 -0.00000000000E+00 -0.00000000000E+00 -0.16600224389E+01  0.16600224389E+01  0.00000000000E+00 0.  1.
          2    1    1    2  501    0  0.14789220433E+02 -0.14139344927E+02  0.16831190082E+03  0.16955098960E+03  0.00000000000E+00 0.  1.
          2    1    1    2  502    0 -0.14789220433E+02  0.14139344927E+02  0.99548408955E+02  0.10162936505E+03  0.00000000000E+00 0.  1.
</event>
<event>
 4    1  0.6089441E+003  0.2650613E+02  0.7546771E-02  0.1452633E+00
          2   -1    0    0  501    0  0.00000000000E+00  0.00000000000E+00  0.91788174243E+03  0.91788174243E+03  0.00000000000E+00 0. -1.
          2   -1    0    0  502    0 -0.00000000000E+00 -0.00000000000E+00 -0.23291499097E+01  0.23291499097E+01  0.00000000000E+00 0.  1.
          2    1    1    2  501    0  0.24692090056E+02  0.96372050884E+01  0.80779192958E+02  0.85016780980E+02  0.00000000000E+00 0.  1.
          2    1    1    2  502    0 -0.24692090056E+02 -0.96372050884E+01  0.83477339956E+03  0.83519411136E+03  0.00000000000E+00 0. -1.
</event>
<event>
 4    1  0.6089441E+003  0.2501586E+02  0.7546771E-02  0.1468626E+00
          2   -1    0    0  501    0  0.00000000000E+00  0.00000000000E+00  0.13511388043E+02  0.13511388043E+02  0.00000000000E+00 0. -1.
          2   -1    0    0  502    0 -0.00000000000E+00 -0.00000000000E+00 -0.79048444551E+02  0.79048444551E+02  0.00000000000E+00 0. -1.
          2    1    1    2  501    0  0.24703555008E+02 -0.39404888193E+01 -0.62549255622E+02  0.67366181880E+02  0.00000000000E+00 0. -1.
          2    1    1    2  502    0 -0.24703555008E+02  0.39404888193E+01 -0.29878008853E+01  0.25193650714E+02  0.00000000000E+00 0. -1.
</event>
<event>
 4    1  0.6089441E+003  0.2422432E+02  0.7546771E-02  0.1477671E+00
          2   -1    0    0  501    0  0.00000000000E+00  0.00000000000E+00  0.28835923704E+02  0.28835923704E+02  0.00000000000E+00 0. -1.
          2   -1    0    0  502    0 -0.00000000000E+00 -0.00000000000E+00 -0.48188652004E+02  0.48188652004E+02  0.00000000000E+00 0.  1.
          2    1    1    2  501    0  0.33552543255E+01 -0.23990826662E+02 -0.38948154562E+02  0.45866940593E+02  0.00000000000E+00 0.  1.
          2    1    1    2  502    0 -0.33552543255E+01  0.23990826662E+02  0.19595426262E+02  0.31157635114E+02  0.00000000000E+00 0. -1.
</event>
<event>
 4    1  0.6089441E+003  0.2321281E+02  0.7546771E-02  0.1489843E+00
          2   -1    0    0  502    0  0.00000000000E+00  0.00000000000E+00  0.16851940576E+03  0.16851940576E+03  0.00000000000E+00 0.  1.
          2   -1    0    0  501    0 -0.00000000000E+00 -0.00000000000E+00 -0.12180242233E+02  0.12180242233E+02  0.00000000000E+00 0.  1.
          2    1    1    2  501    0 -0.16400844369E+02 -0.16427021786E+02  0.15575939135E+03  0.15747959466E+03  0.00000000000E+00 0.  1.
          2    1    1    2  502    0  0.16400844369E+02  0.16427021786E+02  0.57977217295E+00  0.23220053327E+02  0.00000000000E+00 0.  1.
</event>
<event>
 4    1  0.6089441E+003  0.3308202E+02  0.7546771E-02  0.1394573E+00
          2   -1    0    0  502    0  0.00000000000E+00  0.00000000000E+00  0.16961056052E+03  0.16961056052E+03  0.00000000000E+00 0. -1.
          2   -1    0    0  501    0 -0.00000000000E+00 -0.00000000000E+00 -0.54138691958E+02  0.54138691958E+02  0.00000000000E+00 0. -1.
          2    1    1    2  501    0 -0.22484321325E+01 -0.33005520273E+02  0.16273219519E+03  0.16606079359E+03  0.00000000000E+00 0. -1.
          2    1    1    2  502    0  0.22484321325E+01  0.33005520273E+02 -0.47260326631E+02  0.57688458888E+02  0.00000000000E+00 0. -1.
</event>
<event>
 4    1  0.6089441E+003  0.2449646E+02  0.7546771E-02  0.1474516E+00
          2   -1    0    0  501    0  0.00000000000E+00  0.00000000000E+00  0.28002847523E+02  0.28002847523E+02  0.00000000000E+00 0.  1.
          2   -1    0    0  502    0 -0.00000000000E+00 -0.00000000000E+00 -0.10026218833E+04  0.10026218833E+04  0.00000000000E+00 0. -1.
          2    1    1    2  501    0  0.15830200565E+02 -0.18694412519E+02 -0.99708523356E+03  0.99738610342E+03  0.00000000000E+00 0. -1.
          2    1    1    2  502    0 -0.15830200565E+02  0.18694412519E+02  0.22466197779E+02  0.33238627409E+02  0.00000000000E+00 0.  1.
</event>
<event>
 4    1  0.6089441E+003  0.5333116E+02  0.7546771E-02  0.1284342E+00
          2   -1    0    0  501    0  0.00000000000E+00  0.00000000000E+00  0.36358136673E+03  0.36358136673E+03  0.00000000000E+00 0.  1.
          2   -1    0    0  502    0 -0.00000000000E+00 -0.00000000000E+00 -0.10302637663E+02  0.10302637663E+02  0.00000000000E+00 0.  1.
          2    1    1    2  501    0  0.43324499825E+02 -0.31099847029E+02  0.84922946931E+02  0.10028020585E+03  0.00000000000E+00 0.  1.
          2    1    1    2  502    0 -0.43324499825E+02  0.31099847029E+02  0.26835578214E+03  0.27360379854E+03  0.00000000000E+00 0.  1.
</event>
<event>
 4    1  0.6089441E+003  0.5009356E+02  0.7546771E-02  0.1297767E+00
          2   -1    0    0  501    0  0.00000000000E+00  0.00000000000E+00  0.99535359766E+01  0.99535359766E+01  0.00000000000E+00 0. -1.
          2   -1    0    0  502    0 -0.00000000000E+00 -0.00000000000E+00 -0.12004460534E+04  0.12004460534E+04  0.00000000000E+00 0. -1.
          2    1    1    2  501    0  0.20914730738E+02 -0.45518553129E+02 -0.11331555787E+04  0.11342622846E+04  0.00000000000E+00 0. -1.
          2    1    1    2  502    0 -0.20914730738E+02  0.45518553129E+02 -0.57336938684E+02  0.76137304775E+02  0.00000000000E+00 0. -1.
</event>
<event>
 4    1  0.6089441E+003  0.2027988E+02  0.7546771E-02  0.1529799E+00
          2   -1    0    0  502    0  0.00000000000E+00  0.00000000000E+00  0.21536605553E+03  0.21536605553E+03  0.00000000000E+00 0. -1.
          2   -1    0    0  501    0 -0.00000000000E+00 -0.00000000000E+00 -0.52685481460E+03  0.52685481460E+03  0.00000000000E+00 0. -1.
          2    1    1    2  501    0  0.12491611122E+02  0.15976017090E+02  0.21469287781E+03  0.21564856886E+03  0.00000000000E+00 0. -1.
          2    1    1    2  502    0 -0.12491611122E+02 -0.15976017090E+02 -0.52618163688E+03  0.52657230127E+03  0.00000000000E+00 0. -1.
</event>
<event>
 4    1  0.6089441E+003  0.5939332E+02  0.7546771E-02  0.1261908E+00
          2   -1    0    0  501    0  0.00000000000E+00  0.00000000000E+00  0.38878112211E+02  0.38878112211E+02  0.00000000000E+00 0. -1.
          2   -1    0    0  502    0 -0.00000000000E+00 -0.00000000000E+00 -0.19318990713E+03  0.19318990713E+03  0.00000000000E+00 0.  1.
          2    1    1    2  501    0  0.59275288799E+02  0.37425955234E+01 -0.16165684345E+03  0.17222224571E+03  0.00000000000E+00 0.  1.
          2    1    1    2  502    0 -0.59275288799E+02 -0.37425955234E+01  0.73450485322E+01  0.59845773630E+02  0.00000000000E+00 0. -1.
</event>
<event>
 4    1  0.6089441E+003  0.5705209E+02  0.7546771E-02  0.1270191E+00
          2   -1    0    0  502    0  0.00000000000E+00  0.00000000000E+00  0.10872552132E+04  0.10872552132E+04  0.00000000000E+00 0.  1.
          2   -1    0    0  501    0 -0.00000000000E+00 -0.00000000000E+00 -0.44650707875E+03  0.44650707875E+03  0.00000000000E+00 0.  1.
          2    1    1    2  501    0  0.52197896256E+02 -0.23028691173E+02  0.10846800122E+04  0.10861793912E+04  0.00000000000E+00 0.  1.
          2    1    1    2  502    0 -0.52197896256E+02  0.23028691173E+02 -0.44393187773E+03  0.44758290076E+03  0.00000000000E+00 0.  1.
</event>
<event>
 4    1  0.6089441E+003  0.2306328E+02  0.7546771E-02  0.1491705E+00
          2   -1    0    0  501    0  0.00000000000E+00  0.00000000000E+00  0.48985699652E+03  0.48985699652E+03  0.00000000000E+00 0. -1.
          2   -1    0    0  502    0 -0.00000000000E+00 -0.00000000000E+00 -0.37900698302E+02  0.37900698302E+02  0.00000000000E+00 0.  1.
          2    1    1    2  501    0  0.22651067675E+02  0.43409795137E+01 -0.34093154809E+02  0.41161367504E+02  0.00000000000E+00 0.  1.
          2    1    1    2  502    0 -0.22651067675E+02 -0.43409795137E+01  0.48604945303E+03  0.48659632732E+03  0.00000000000E+00 0. -1.
</event>
<event>
 4    1  0.6089441E+003  0.2641896E+02  0.7546771E-02  0.1453534E+00
          2   -1    0    0  501    0  0.00000000000E+00  0.00000000000E+00  0.28740111574E+03  0.28740111574E+03  0.00000000000E+00 0.  1.
          2   -1    0    0  502    0 -0.00000000000E+00 -0.00000000000E+00 -0.66397054783E+03  0.66397054783E+03  0.00000000000E+00 0.  1.
          2    1    1    2  501    0 -0.24734333732E+02  0.92829933932E+01 -0.66309982102E+03  0.66362589903E+03  0.00000000000E+00 0.  1.
          2    1    1    2  502    0  0.24734333732E+02 -0.92829933932E+01  0.28653038893E+03  0.28774576454E+03  0.00000000000E+00 0.  1.
</event>
<event>
 4    1  0.6089441E+003  0.3712522E+02  0.7546771E-02  0.1366208E+00
          2   -1    0    0  502    0  0.00000000000E+00  0.00000000000E+00  0.33614705340E+02  0.33614705340E+02  0.00000000000E+00 0.  1.
          2   -1    0    0  501    0 -0.00000000000E+00 -0.00000000000E+00 -0.80903831613E+02  0.80903831613E+02  0.00000000000E+00 0.  1.
          2    1    1    2  501    0  0.19111249200E+02  0.31828318121E+02  0.16567448446E+02  0.40654176026E+02  0.00000000000E+00 0.  1.
          2    1    1    2  502    0 -0.19111249200E+02 -0.31828318121E+02 -0.63856574719E+02  0.73864360927E+02  0.00000000000E+00 0.  1.
</event>
<event>
 4    1  0.6089441E+003  0.2374400E+02  0.7546771E-02  0.1483361E+00
          2   -1    0    0  502    0  0.00000000000E+00  0.00000000000E+00  0.21166101575E+03  0.21166101575E+03  0.00000000000E+00 0. -1.
          2   -1    0    0  501    0 -0.00000000000E+00 -0.00000000000E+00 -0.27620708956E+02  0.27620708956E+02  0.00000000000E+00 0. -1.
          2    1    1    2  501    0  0.23415345987E+02  0.39368996753E+01  0.20574605049E+03  0.20711160011E+03  0.00000000000E+00 0. -1.
          2    1    1    2  502    0 -0.23415345987E+02 -0.39368996753E+01 -0.21705743701E+02  0.32170124594E+02  0.00000000000E+00 0. -1.
</event>
<event>
 4    1  0.6089441E+003  0.2206346E+02  0.7546771E-02  0.1504605E+00
          2   -1    0    0  501    0  0.00000000000E+00  0.00000000000E+00  0.52827985021E+00  0.52827985021E+00  0.00000000000E+00 0.  1.
          2   -1    0    0  502    0 -0.00000000000E+00 -0.00000000000E+00 -0.10142584665E+04  0.10142584665E+04  0.00000000000E+00 0.  1.
          2    1    1    2  501    0  0.37869851102E+01 -0.21736030479E+02 -0.66032945220E+03  0.66069795044E+03  0.00000000000E+00 0.  1.
          2    1    1    2  502    0 -0.37869851102E+01  0.21736030479E+02 -0.35340073449E+03  0.35408879595E+03  0.00000000000E+00 0.  1.
</event>
<event>
 4    1  0.6089441E+003  0.3996487E+02  0.7546771E-02  0.1348692E+00
          2   -1    0    0  502    0  0.00000000000E+00  0.00000000000E+00  0.75258809640E+03  0.75258809640E+03  0.00000000000E+00 0.  1.
          2   -1    0    0  501    0 -0.00000000000E+00 -0.00000000000E+00 -0.69565700801E+01  0.69565700801E+01  0.00000000000E+00 0. -1.
          2    1    1    2  501    0  0.20425127425E+02 -0.34351203483E+02  0.68940255316E+03  0.69055996938E+03  0.00000000000E+00 0.  1.
          2    1    1    2  502    0 -0.20425127425E+02  0.34351203483E+02  0.56228973165E+02  0.68984697102E+02  0.00000000000E+00 0. -1.
</event>
<event>
 4    1  0.6089441E+003  0.2100511E+02  0.7546771E-02  0.1519192E+00
          2   -1    0    0  502    0  0.00000000000E+00  0.00000000000E+00  0.20172181296E+03  0.20172181296E+03  0.00000000000E+00 0. -1.
          2   -1    0    0  501    0 -0.00000000000E+00 -0.00000000000E+00 -0.36302861692E+01  0.36302861692E+01  0.00000000000E+00 0. -1.
          2    1    1    2  501    0  0.10555371254E+02 -0.18160368276E+02  0.16378062470E+03  0.16512209987E+03  0.00000000000E+00 0. -1.
          2    1    1    2  502    0 -0.10555371254E+02  0.18160368276E+02  0.34310902097E+02  0.40229999266E+02  0.00000000000E+00 0. -1.
</event>
<event>
 4    1  0.6089441E+003  0.2603212E+02  0.7546771E-02  0.1457581E+00
          2   -1    0    0  501    0  0.00000000000E+00  0.00000000000E+00  0.10258518207E+03  0.10258518207E+03  0.00000000000E+00 0.  1.
          2   -1    0    0  502    0 -0.00000000000E+00 -0.00000000000E+00 -0.71486093668E+01  0.71486093668E+01  0.00000000000E+00 0.  1.
          2    1    1    2  501    0 -0.12900635776E+02  0.22610728729E+02  0.32601215387E+02  0.41719428349E+02  0.00000000000E+00 0.  1.
          2    1    1    2  502    0  0.12900635776E+02 -0.22610728729E+02  0.62835357312E+02  0.68014363083E+02  0.00000000000E+00 0.  1.
</event>
<event>
 4    1  0.6089441E+003  0.2274062E+02  0.7546771E-02  0.1495781E+00
          2   -1    0    0  501    0  0.00000000000E+00  0.00000000000E+00  0.14595290101E+04  0.14595290101E+04  0.00000000000E+00 0.  1.
          2   -1    0    0  502    0 -0.00000000000E+00 -0.00000000000E+00 -0.44407719215E+02  0.44407719215E+02  0.00000000000E+00 0.  1.
          2    1    1    2  501    0 -0.19142861993E+02  0.12275446136E+02 -0.41401838009E+02  0.47236087197E+02  0.00000000000E+00 0.  1.
          2    1    1    2  502    0  0.19142861993E+02 -0.12275446136E+02  0.14565231289E+04  0.14567006421E+04  0.00000000000E+00 0.  1.
</event>
<event>
 4    1  0.6089441E+003  0.2079435E+02  0.7546771E-02  0.1522221E+00
          2   -1    0    0  502    0  0.00000000000E+00  0.00000000000E+00  0.11123569524E+01  0.11123569524E+01  0.00000000000E+00 0. -1.
          2   -1    0    0  501    0 -0.00000000000E+00 -0.00000000000E+00 -0.45635459665E+03  0.45635459665E+03  0.00000000000E+00 0. -1.
          2    1    1    2  501    0 -0.10819386466E+02  0.17757981955E+02 -0.31567228524E+03  0.31635643934E+03  0.00000000000E+00 0. -1.
          2    1    1    2  502    0  0.10819386466E+02 -0.17757981955E+02 -0.13956995446E+03  0.14111051426E+03  0.00000000000E+00 0. -1.
</event>
<event>
 4    1  0.6089441E+003  0.2789458E+02  0.7546771E-02  0.1438823E+00
          2   -1    0    0  501    0  0.00000000000E+00  0.00000000000E+00  0.18780368831E+02  0.18780368831E+02  0.00000000000E+00 0. -1.
          2   -1    0    0  502    0 -0.00000000000E+00 -0.00000000000E+00 -0.42164690551E+02  0.42164690551E+02  0.00000000000E+00 0. -1.
          2    1    1    2  501    0 -0.23322376938E+01  0.27796911358E+02 -0.15709183234E+02  0.32013841563E+02  0.00000000000E+00 0. -1.
          2    1    1    2  502    0  0.23322376938E+01 -0.27796911358E+02 -0.76751384859E+01  0.28931217819E+02  0.00000000000E+00 0. -1.
</event>
<event>
 4    1  0.6089441E+003  0.8538300E+02  0.7546771E-02  0.1191873E+00
          2   -1    0    0  502    0  0.00000000000E+00  0.00000000000E+00  0.12931860883E+04  0.12931860883E+04  0.00000000000E+00 0. -1.
          2   -1    0    0  501    0 -0.00000000000E+00 -0.00000000000E+00 -0.16271264667E+03  0.16271264667E+03  0.00000000000E+00 0. -1.
          2    1    1    2  501    0 -0.43981001936E+02 -0.73184205969E+02  0.12804644455E+04  0.12833080116E+04  0.00000000000E+00 0. -1.
          2    1    1    2  502    0  0.43981001936E+02  0.73184205969E+02 -0.14999100388E+03  0.17259072333E+03  0.00000000000E+00 0. -1.
</event>
<event>
 4    1  0.6089441E+003  0.3750074E+02  0.7546771E-02  0.1363788E+00
          2   -1    0    0  501    0  0.00000000000E+00  0.00000000000E+00  0.45408930754E+01  0.45408930754E+01  0.00000000000E+00 0. -1.
          2   -1    0    0  502    0 -0.00000000000E+00 -0.00000000000E+00 -0.44771376789E+03  0.44771376789E+03  0.00000000000E+00 0.  1.
          2    1    1    2  501    0 -0.18841687474E+02 -0.32423697745E+02 -0.96036288292E+02  0.10309837065E+03  0.00000000000E+00 0. -1.
          2    1    1    2  502    0  0.18841687474E+02  0.32423697745E+02 -0.34713658652E+03  0.34915629031E+03  0.00000000000E+00 0.  1.
</event>
<event>
 4    1  0.6089441E+003  0.3457099E+02  0.7546771E-02  0.1383605E+00
          2   -1    0    0  502    0  0.00000000000E+00  0.00000000000E+00  0.37818026430E+01  0.37818026430E+01  0.00000000000E+00 0.  1.
          2   -1    0    0  501    0 -0.00000000000E+00 -0.00000000000E+00 -0.57376723685E+03  0.57376723685E+03  0.00000000000E+00 0.  1.
          2    1    1    2  501    0  0.27677973677E+01  0.34460011069E+02 -0.91447780205E+02  0.97764255071E+02  0.00000000000E+00 0.  1.
          2    1    1    2  502    0 -0.27677973677E+01 -0.34460011069E+02 -0.47853765400E+03  0.47978478442E+03  0.00000000000E+00 0.  1.
</event>
<event>
 4    1  0.6089441E+003  0.3746842E+02  0.7546771E-02  0.1363995E+00
          2   -1    0    0  501    0  0.00000000000E+00  0.00000000000E+00  0.25173250376E+03  0.25173250376E+03  0.00000000000E+00 0.  1.
          2   -1    0    0  502    0 -0.00000000000E+00 -0.00000000000E+00 -0.75609662823E+01  0.75609662823E+01  0.00000000000E+00 0. -1.
          2    1    1    2  501    0  0.31405222525E+02  0.20435128757E+02  0.18849875107E+03  0.19218652826E+03  0.00000000000E+00 0.  1.
          2    1    1    2  502    0 -0.31405222525E+02 -0.20435128757E+02  0.55672786406E+02  0.67106941782E+02  0.00000000000E+00 0. -1.
</event>
<event>
 4    1  0.6089441E+003  0.2294068E+02  0.7546771E-02  0.1493244E+00
          2   -1    0    0  502    0  0.00000000000E+00  0.00000000000E+00  0.22650070788E+03  0.22650070788E+03  0.00000000000E+00 0. -1.
          2   -1    0    0  501    0 -0.00000000000E+00 -0.00000000000E+00 -0.49806354470E+01  0.49806354470E+01  0.00000000000E+00 0. -1.
          2    1    1    2  501    0  0.13298267179E+02  0.18693068544E+02  0.19529772094E+03  0.19664047021E+03  0.00000000000E+00 0. -1.
          2    1    1    2  502    0 -0.13298267179E+02 -0.18693068544E+02  0.26222351496E+02  0.34840873117E+02  0.00000000000E+00 0. -1.
</event>
<event>
 4    1  0.6089441E+003  0.4129865E+02  0.7546771E-02  0.1341039E+00
          2   -1    0    0  502    0  0.00000000000E+00  0.00000000000E+00  0.13093347105E+03  0.13093347105E+03  0.00000000000E+00 0.  1.
          2   -1    0    0  501    0 -0.00000000000E+00 -0.00000000000E+00 -0.39609126865E+02  0.39609126865E+02  0.00000000000E+00 0. -1.
          2    1    1    2  501    0 -0.32718745454E+02  0.25200435069E+02  0.11551851618E+03  0.12267887272E+03  0.00000000000E+00 0.  1.
          2    1    1    2  502    0  0.32718745454E+02 -0.25200435069E+02 -0.24194171989E+02  0.47863725200E+02  0.00000000000E+00 0. -1.
</event>
<event>
 4    1  0.6089441E+003  0.2683508E+02  0.7546771E-02  0.1449272E+00
          2   -1    0    0  501    0  0.00000000000E+00  0.00000000000E+00  0.18731569735E+02  0.18731569735E+02  0.00000000000E+00 0. -1.
          2   -1    0    0  502    0 -0.00000000000E+00 -0.00000000000E+00 -0.19018202033E+03  0.19018202033E+03  0.00000000000E+00 0.  1.
          2    1    1    2  501    0 -0.18499968330E+02  0.19438953430E+02 -0.17902890513E+03  0.18102892203E+03  0.00000000000E+00 0.  1.
          2    1    1    2  502    0  0.18499968330E+02 -0.19438953430E+02  0.75784545306E+01  0.27884668040E+02  0.00000000000E+00 0. -1.
</event>
<event>
 4    1  0.6089441E+003  0.6863944E+02  0.7546771E-02  0.1233003E+00
          2   -1    0    0  502    0  0.00000000000E+00  0.00000000000E+00  0.52145059401E+03  0.52145059401E+03  0.00000000000E+00 0. -1.
          2   -1    0    0  501    0 -0.00000000000E+00 -0.00000000000E+00 -0.47146413877E+03  0.47146413877E+03  0.00000000000E+00 0. -1.
          2    1    1    2  501    0  0.65742272434E+02 -0.19731370013E+02  0.51667053267E+03  0.52120995067E+03  0.00000000000E+00 0. -1.
          2    1    1    2  502    0 -0.65742272434E+02  0.19731370013E+02 -0.46668407743E+03  0.47170478212E+03  0.00000000000E+00 0. -1.
</event>
<event>
 4    1  0.6089441E+003  0.2034569E+02  0.7546771E-02  0.1528815E+00
          2   -1    0    0  501    0  0.00000000000E+00  0.00000000000E+00  0.12928812647E+02  0.12928812647E+02  0.00000000000E+00 0. -1.
          2   -1    0    0  502    0 -0.00000000000E+00 -0.00000000000E+00 -0.32739275659E+03  0.32739275659E+03  0.00000000000E+00 0. -1.
          2    1    1    2  501    0  0.17767247413E+02 -0.99132253335E+01 -0.31885828536E+03  0.31950673429E+03  0.00000000000E+00 0. -1.
          2    1    1    2  502    0 -0.17767247413E+02  0.99132253335E+01  0.43943414175E+01  0.20814834942E+02  0.00000000000E+00 0. -1.
</event>
<event>
 4    1  0.6089441E+003  0.2004535E+02  0.7546771E-02  0.1533344E+00
          2   -1    0    0  502    0  0.00000000000E+00  0.00000000000E+00  0.10539129856E+01  0.10539129856E+01  0.00000000000E+00 0. -1.
          2   -1    0    0  501    0 -0.00000000000E+00 -0.00000000000E+00 -0.14808959486E+04  0.14808959486E+04  0.00000000000E+00 0.  1.
          2    1    1    2  501    0 -0.15497053490E+02  0.12714450362E+02 -0.10141424226E+03  0.10337632440E+03  0.00000000000E+00 0. -1.
          2    1    1    2  502    0  0.15497053490E+02 -0.12714450362E+02 -0.13784277933E+04  0.13785735372E+04  0.00000000000E+00 0.  1.
</event>
<event>
 4    1  0.6089441E+003  0.3770316E+02  0.7546771E-02  0.1362497E+00
          2   -1    0    0  501    0  0.00000000000E+00  0.00000000000E+00  0.54086135768E+02  0.54086135768E+02  0.00000000000E+00 0. -1.
          2   -1    0    0  502    0 -0.00000000000E+00 -0.00000000000E+00 -0.12464494995E+04  0.12464494995E+04  0.00000000000E+00 0.  1.
          2    1    1    2  501    0 -0.14142466089E+01  0.37676627606E+02 -0.12395571886E+04  0.12401304578E+04  0.00000000000E+00 0.  1.
          2    1    1    2  502    0  0.14142466089E+01 -0.37676627606E+02  0.47193824903E+02  0.60405177511E+02  0.00000000000E+00 0. -1.
</event>
<event>
 4    1  0.6089441E+003  0.2375133E+02  0.7546771E-02  0.1483273E+00
          2   -1    0    0  501    0  0.00000000000E+00  0.00000000000E+00  0.28655508336E+01  0.28655508336E+01  0.00000000000E+00 0.  1.
          2   -1    0    0  502    0 -0.00000000000E+00 -0.00000000000E+00 -0.12157036636E+04  0.12157036636E+04  0.00000000000E+00 0. -1.
          2    1    1    2  501    0 -0.13995282992E+02 -0.19190043856E+02 -0.11641941554E+04  0.11644364118E+04  0.00000000000E+00 0. -1.
          2    1    1    2  502    0  0.13995282992E+02  0.19190043856E+02 -0.48643957350E+02  0.54132802586E+02  0.00000000000E+00 0.  1.
</event>
<event>
 4    1  0.6089441E+003  0.3251981E+02  0.7546771E-02  0.1398892E+00
          2   -1    0    0  502    0  0.00000000000E+00  0.00000000000E+00  0.26618343142E+02  0.26618343142E+02  0.00000000000E+00 0. -1.
          2   -1    0    0  501    0 -0.00000000000E+00 -0.00000000000E+00 -0.15918495339E+04  0.15918495339E+04  0.00000000000E+00 0.  1.
          2    1    1    2  501    0  0.12145278864E+01  0.32497122489E+02  0.16456029843E+02  0.36446384818E+02  0.00000000000E+00 0. -1.
          2    1    1    2  502    0 -0.12145278864E+01 -0.32497122489E+02 -0.15816872206E+04  0.15820214922E+04  0.00000000000E+00 0.  1.
</event>
<event>
 4    1  0.6089441E+003  0.2337084E+02  0.7546771E-02  0.1487893E+00
          2   -1    0    0  501    0  0.00000000000E+00  0.00000000000E+00  0.14944074483E+04  0.14944074483E+04  0.00000000000E+00 0. -1.
          2   -1    0    0  502    0 -0.00000000000E+00 -0.00000000000E+00 -0.82972207113E+02  0.82972207113E+02  0.00000000000E+00 0. -1.
          2    1    1    2  501    0  0.15213452954E+02  0.17741113732E+02 -0.81233195967E+02  0.84528269793E+02  0.00000000000E+00 0. -1.
          2    1    1    2  502    0 -0.15213452954E+02 -0.17741113732E+02  0.14926684372E+04  0.14928513856E+04  0.00000000000E+00 0. -1.
</event>
<event>
 4    1  0.6089441E+003  0.4022731E+02  0.7546771E-02  0.1347159E+00
          2   -1    0    0  502    0  0.00000000000E+00  0.00000000000E+00  0.65376188866E+02  0.65376188866E+02  0.00000000000E+00 0.  1.
          2   -1    0    0  501    0 -0.00000000000E+00 -0.00000000000E+00 -0.69521159162E+02  0.69521159162E+02  0.00000000000E+00 0. -1.
          2    1    1    2  501    0  0.19815860046E+01  0.40178469182E+02  0.52052908831E+02  0.65785571265E+02  0.00000000000E+00 0.  1.
          2    1    1    2  502    0 -0.19815860046E+01 -0.40178469182E+02 -0.56197879127E+02  0.69111776762E+02  0.00000000000E+00 0. -1.
</event>
<event>
 4    1  0.7185168E+003  0.3077952E+02  0.7546771E-02  0.1412941E+00
          2   -1    0    0  501    0  0.00000000000E+00  0.00000000000E+00  0.88377602304E+03  0.88377602304E+03  0.00000000000E+00 0. -1.
          2   -1    0    0  502    0 -0.00000000000E+00 -0.00000000000E+00 -0.74393933406E+03  0.74393933406E+03  0.00000000000E+00 0. -1.
          2    1    1    2  501    0 -0.11846782520E+02 -0.28408322262E+02 -0.74335276516E+03  0.74398972607E+03  0.00000000000E+00 0. -1.
          2    1    1    2  502    0  0.11846782520E+02  0.28408322262E+02  0.88318945414E+03  0.88372563103E+03  0.00000000000E+00 0. -1.
</event>
<event>
 4    1  0.6089441E+003  0.2885026E+02  0.7546771E-02  0.1429858E+00
          2   -1    0    0  501    0  0.00000000000E+00  0.00000000000E+00  0.56409712062E+03  0.56409712062E+03  0.00000000000E+00 0. -1.
          2   -1    0    0  502    0 -0.00000000000E+00 -0.00000000000E+00 -0.28246432079E+01  0.28246432079E+01  0.00000000000E+00 0.  1.
          2    1    1    2  501    0 -0.21204420501E+02 -0.19562971373E+02  0.84735110245E+02  0.89511877457E+02  0.00000000000E+00 0.  1.
          2    1    1    2  502    0  0.21204420501E+02  0.19562971373E+02  0.47653736716E+03  0.47740988637E+03  0.00000000000E+00 0. -1.
</event>
<event>
 4    1  0.6089441E+003  0.2115375E+02  0.7546771E-02  0.1517081E+00
          2   -1    0    0  502    0  0.00000000000E+00  0.00000000000E+00  0.68050588096E+03  0.68050588096E+03  0.00000000000E+00 0. -1.
          2   -1    0    0  501    0 -0.00000000000E+00 -0.00000000000E+00 -0.12893802608E+01  0.12893802608E+01  0.00000000000E+00 0. -1.
          2    1    1    2  501    0 -0.16642381569E+02  0.13058038953E+02  0.57823894731E+03  0.57862575248E+03  0.00000000000E+00 0. -1.
          2    1    1    2  502    0  0.16642381569E+02 -0.13058038953E+02  0.10097755339E+03  0.10316950874E+03  0.00000000000E+00 0. -1.
</event>
<event>
 4    1  0.6089441E+003  0.2275036E+02  0.7546771E-02  0.1495657E+00
          2   -1    0    0  501    0  0.00000000000E+00  0.00000000000E+00  0.23861943043E+02  0.23861943043E+02  0.00000000000E+00 0.  1.
          2   -1    0    0  502    0 -0.00000000000E+00 -0.00000000000E+00 -0.21763203589E+02  0.21763203589E+02  0.00000000000E+00 0.  1.
          2    1    1    2  501    0 -0.17260506342E+02 -0.14820717869E+02 -0.26867545650E+00  0.22751943737E+02  0.00000000000E+00 0.  1.
          2    1    1    2  502    0  0.17260506342E+02  0.14820717869E+02  0.23674149111E+01  0.22873202895E+02  0.00000000000E+00 0.  1.
</event>
<event>
 4    1  0.6089441E+003  0.2198773E+02  0.7546771E-02  0.1505616E+00
          2   -1    0    0  502    0  0.00000000000E+00  0.00000000000E+00  0.15500741798E+04  0.15500741798E+04  0.00000000000E+00 0.  1.
          2   -1    0    0  501    0 -0.00000000000E+00 -0.00000000000E+00 -0.11088444671E+02  0.11088444671E+02  0.00000000000E+00 0.  1.
          2    1    1    2  501    0 -0.17976866990E+01  0.21914121008E+02  0.15390178088E+04  0.15391748687E+04  0.00000000000E+00 0.  1.
          2    1    1    2  502    0  0.17976866990E+01 -0.21914121008E+02 -0.32073711189E-01  0.21987755814E+02  0.00000000000E+00 0.  1.
</event>
<event>
 4    1  0.6089441E+003  0.2026448E+02  0.7546771E-02  0.1530030E+00
          2   -1    0    0  502    0  0.00000000000E+00  0.00000000000E+00  0.72315945446E+02  0.72315945446E+02  0.00000000000E+00 0.  1.
          2   -1    0    0  501    0 -0.00000000000E+00 -0.00000000000E+00 -0.73190526741E+03  0.73190526741E+03  0.00000000000E+00 0. -1.
          2    1    1    2  501    0  0.55706630333E+00  0.20256826156E+02  0.70753004577E+02  0.73597805575E+02  0.00000000000E+00 0.  1.
          2    1    1    2  502    0 -0.55706630333E+00 -0.20256826156E+02 -0.73034232654E+03  0.73062340728E+03  0.00000000000E+00 0. -1.
</event>
<event>
 4    1  0.6089441E+003  0.3108799E+02  0.7546771E-02  0.1410371E+00
          2   -1    0    0  502    0  0.00000000000E+00  0.00000000000E+00  0.30587160193E+03  0.30587160193E+03  0.00000000000E+00 0. -1.
          2   -1    0    0  501    0 -0.00000000000E+00 -0.00000000000E+00 -0.45862579833E+02  0.45862579833E+02  0.00000000000E+00 0. -1.
          2    1    1    2  501    0  0.30966744593E+02  0.27430139361E+01  0.29970531768E+03  0.30131335988E+03  0.00000000000E+00 0. -1.
          2    1    1    2  502    0 -0.30966744593E+02 -0.27430139361E+01 -0.39696295585E+02  0.50420821882E+02  0.00000000000E+00 0. -1.
</event>
<event>
 4    1  0.6089441E+003  0.2275038E+02  0.7546771E-02  0.1495657E+00
          2   -1    0    0  501    0  0.00000000000E+00  0.00000000000E+00  0.14807453297E+03  0.14807453297E+03  0.00000000000E+00 0.  1.
          2   -1    0    0  502    0 -0.00000000000E+00 -0.00000000000E+00 -0.15891260239E+02  0.15891260239E+02  0.00000000000E+00 0. -1.
          2    1    1    2  501    0 -0.21265646301E+02 -0.80840654746E+01 -0.63156733923E+01  0.23610750890E+02  0.00000000000E+00 0. -1.
          2    1    1    2  502    0  0.21265646301E+02  0.80840654746E+01  0.13849894612E+03  0.14035504232E+03  0.00000000000E+00 0.  1.
</event>
<event>
 4    1  0.6089441E+003  0.2427906E+02  0.7546771E-02  0.1477033E+00
          2   -1    0    0  501    0  0.00000000000E+00  0.00000000000E+00  0.23152114542E+02  0.23152114542E+02  0.00000000000E+00 0. -1.
          2   -1    0    0  502    0 -0.00000000000E+00 -0.00000000000E+00 -0.59718556994E+02  0.59718556994E+02  0.00000000000E+00 0.  1.
          2    1    1    2  501    0  0.11596766887E+02 -0.21330442883E+02 -0.49666280598E+02  0.55283019312E+02  0.00000000000E+00 0.  1.
          2    1    1    2  502    0 -0.11596766887E+02  0.21330442883E+02  0.13099838146E+02  0.27587652224E+02  0.00000000000E+00 0. -1.
</event>
<event>
 4    1  0.6089441E+003  0.2305923E+02  0.7546771E-02  0.1491756E+00
          2   -1    0    0  501    0  0.00000000000E+00  0.00000000000E+00  0.63314880442E+03  0.63314880442E+03  0.00000000000E+00 0. -1.
          2   -1    0    0  502    0 -0.00000000000E+00 -0.00000000000E+00 -0.17333891335E+01  0.17333891335E+01  0.00000000000E+00 0.  1.
          2    1    1    2  501    0  0.87109973527E+01 -0.21350565465E+02  0.87788822603E+02  0.90766764262E+02  0.00000000000E+00 0.  1.
          2    1    1    2  502    0 -0.87109973527E+01  0.21350565465E+02  0.54362659268E+03  0.54411542929E+03  0.00000000000E+00 0. -1.
</event>
<event>
 4    1  0.6089441E+003  0.2357644E+02  0.7546771E-02  0.1485384E+00
          2   -1    0    0  502    0  0.00000000000E+00  0.00000000000E+00  0.73213217975E+03  0.73213217975E+03  0.00000000000E+00 0.  1.
          2   -1    0    0  501    0 -0.00000000000E+00 -0.00000000000E+00 -0.41872816649E+02  0.41872816649E+02  0.00000000000E+00 0. -1.
          2    1    1    2  501    0 -0.91104236058E+01 -0.21745084409E+02  0.72860765407E+03  0.72898899997E+03  0.00000000000E+00 0.  1.
          2    1    1    2  502    0  0.91104236058E+01  0.21745084409E+02 -0.38348290967E+02  0.45015996427E+02  0.00000000000E+00 0. -1.
</event>
<event>
 4    1  0.6089441E+003  0.5727505E+02  0.7546771E-02  0.1269383E+00
          2   -1    0    0  501    0  0.00000000000E+00  0.00000000000E+00  0.43321714070E+02  0.43321714070E+02  0.00000000000E+00 0. -1.
          2   -1    0    0  502    0 -0.00000000000E+00 -0.00000000000E+00 -0.14857805050E+04  0.14857805050E+04  0.00000000000E+00 0. -1.
          2    1    1    2  501    0  0.91892894762E+01  0.56533073549E+02 -0.14660431253E+04  0.14671615033E+04  0.00000000000E+00 0. -1.
          2    1    1    2  502    0 -0.91892894762E+01 -0.56533073549E+02  0.23584334369E+02  0.61940715798E+02  0.00000000000E+00 0. -1.
</event>
<event>
 4    1  0.6089441E+003  0.2190722E+02  0.7546771E-02  0.1506696E+00
          2   -1    0    0  502    0  0.00000000000E+00  0.00000000000E+00  0.10027411725E+02  0.10027411725E+02  0.00000000000E+00 0. -1.
          2   -1    0    0  501    0 -0.00000000000E+00 -0.00000000000E+00 -0.45860065194E+03  0.45860065194E+03  0.00000000000E+00 0. -1.
          2    1    1    2  501    0 -0.19830172551E+02 -0.93107835854E+01 -0.25364088871E+01  0.22053566705E+02  0.00000000000E+00 0. -1.
          2    1    1    2  502    0  0.19830172551E+02  0.93107835854E+01 -0.44603683133E+03  0.44657449696E+03  0.00000000000E+00 0. -1.
</event>
<event>
 4    1  0.6089441E+003  0.2109972E+02  0.7546771E-02  0.1517846E+00
          2   -1    0    0  501    0  0.00000000000E+00  0.00000000000E+00  0.10901409490E+03  0.10901409490E+03  0.00000000000E+00 0.  1.
          2   -1    0    0  502    0 -0.00000000000E+00 -0.00000000000E+00 -0.66838186764E+02  0.66838186764E+02  0.00000000000E+00 0. -1.
          2    1    1    2  501    0  0.10859397814E+02  0.18090645826E+02 -0.64109679008E+02  0.67492584258E+02  0.00000000000E+00 0. -1.
          2    1    1    2  502    0 -0.10859397814E+02 -0.18090645826E+02  0.10628558715E+03  0.10835969741E+03  0.00000000000E+00 0.  1.
</event>
<event>
 4    1  0.6089441E+003  0.2366098E+02  0.7546771E-02  0.1484361E+00
          2   -1    0    0  502    0  0.00000000000E+00  0.00000000000E+00  0.11079450094E+04  0.11079450094E+04  0.00000000000E+00 0. -1.
          2   -1    0    0  501    0 -0.00000000000E+00 -0.00000000000E+00 -0.54066953998E+00  0.54066953998E+00  0.00000000000E+00 0. -1.
          2    1    1    2  501    0  0.17446919386E+02 -0.15982708993E+02  0.69546534131E+03  0.69586771943E+03  0.00000000000E+00 0. -1.
          2    1    1    2  502    0 -0.17446919386E+02  0.15982708993E+02  0.41193899851E+03  0.41261795946E+03  0.00000000000E+00 0. -1.
</event>
<event>
 4    1  0.6089441E+003  0.4334044E+02  0.7546771E-02  0.1329949E+00
          2   -1    0    0  502    0  0.00000000000E+00  0.00000000000E+00  0.83426762383E+01  0.83426762383E+01  0.00000000000E+00 0.  1.
          2   -1    0    0  501    0 -0.00000000000E+00 -0.00000000000E+00 -0.80142557780E+03  0.80142557780E+03  0.00000000000E+00 0.  1.
          2    1    1    2  501    0  0.42981672940E+02 -0.55650407594E+01 -0.53210910165E+02  0.68627945095E+02  0.00000000000E+00 0.  1.
          2    1    1    2  502    0 -0.42981672940E+02  0.55650407594E+01 -0.73987199140E+03  0.74114030895E+03  0.00000000000E+00 0.  1.
</event>
<event>
 4    1  0.6089441E+003  0.3146927E+02  0.7546771E-02  0.1407244E+00
          2   -1    0    0  501    0  0.00000000000E+00  0.00000000000E+00  0.29328266359E+02  0.29328266359E+02  0.00000000000E+00 0.  1.
          2   -1    0    0  502    0 -0.00000000000E+00 -0.00000000000E+00 -0.29541392926E+03  0.29541392926E+03  0.00000000000E+00 0. -1.
          2    1    1    2  501    0 -0.77932778603E+01  0.30489008251E+02 -0.28585270796E+03  0.28757970278E+03  0.00000000000E+00 0. -1.
          2    1    1    2  502    0  0.77932778603E+01 -0.30489008251E+02  0.19767045056E+02  0.37162492841E+02  0.00000000000E+00 0.  1.
</event>
<event>
 4    1  0.6089441E+003  0.2063213E+02  0.7546771E-02  0.1524582E+00
          2   -1    0    0  502    0  0.00000000000E+00  0.00000000000E+00  0.10679361838E+01  0.10679361838E+01  0.00000000000E+00 0.  1.
          2   -1    0    0  501    0 -0.00000000000E+00 -0.00000000000E+00 -0.63599022196E+03  0.63599022196E+03  0.00000000000E+00 0. -1.
          2    1    1    2  501    0 -0.11809209114E+02  0.16918252169E+02 -0.12285760626E+03  0.12457799201E+03  0.00000000000E+00 0.  1.
          2    1    1    2  502    0  0.11809209114E+02 -0.16918252169E+02 -0.51206467951E+03  0.51248016613E+03  0.00000000000E+00 0. -1.
</event>
<event>
 4    1  0.6089441E+003  0.2823569E+02  0.7546771E-02  0.1435575E+00
          2   -1    0    0  501    0  0.00000000000E+00  0.00000000000E+00  0.40438692962E+02  0.40438692962E+02  0.00000000000E+00 0.  1.
          2   -1    0    0  502    0 -0.00000000000E+00 -0.00000000000E+00 -0.11815428474E+04  0.11815428474E+04  0.00000000000E+00 0. -1.
          2    1    1    2  501    0 -0.15797379262E+02 -0.23402923332E+02 -0.11764239330E+04  0.11767627306E+04  0.00000000000E+00 0. -1.
          2    1    1    2  502    0  0.15797379262E+02  0.23402923332E+02  0.35319778475E+02  0.45218809842E+02  0.00000000000E+00 0.  1.
</event>
<event>
 4    1  0.6089441E+003  0.9112682E+02  0.7546771E-02  0.1180141E+00
          2   -1    0    0  501    0  0.00000000000E+00  0.00000000000E+00  0.31626439261E+03  0.31626439261E+03  0.00000000000E+00 0. -1.
          2   -1    0    0  502    0 -0.00000000000E+00 -0.00000000000E+00 -0.27055982329E+02  0.27055982329E+02  0.00000000000E+00 0.  1.
          2    1    1    2  501    0  0.86945776116E+02  0.27286053411E+02  0.11510190413E+03  0.14680785071E+03  0.00000000000E+00 0.  1.
          2    1    1    2  502    0 -0.86945776116E+02 -0.27286053411E+02  0.17410650615E+03  0.19651252423E+03  0.00000000000E+00 0. -1.
</event>
<event>
 4    1  0.6089441E+003  0.2520752E+02  0.7546771E-02  0.1466495E+00
          2   -1    0    0  502    0  0.00000000000E+00  0.00000000000E+00  0.11799453276E+03  0.11799453276E+03  0.00000000000E+00 0.  1.
          2   -1    0    0  501    0 -0.00000000000E+00 -0.00000000000E+00 -0.63180073968E+02  0.63180073968E+02  0.00000000000E+00 0. -1.
          2    1    1    2  501    0 -0.23937409987E+02 -0.79005873363E+01  0.11404795789E+03  0.11680049476E+03  0.00000000000E+00 0.  1.
          2    1    1    2  502    0  0.23937409987E+02  0.79005873363E+01 -0.59233499095E+02  0.64374111972E+02  0.00000000000E+00 0. -1.
</event>
<event>
 4    1  0.6089441E+003  0.2710158E+02  0.7546771E-02  0.1446590E+00
          2   -1    0    0  501    0  0.00000000000E+00  0.00000000000E+00  0.43831576293E+03  0.43831576293E+03  0.00000000000E+00 0. -1.
          2   -1    0    0  502    0 -0.00000000000E+00 -0.00000000000E+00 -0.21748635855E+01  0.21748635855E+01  0.00000000000E+00 0.  1.
          2    1    1    2  501    0  0.26858480918E+02  0.36218148933E+01  0.11255832471E+03  0.11577509232E+03  0.00000000000E+00 0.  1.
          2    1    1    2  502    0 -0.26858480918E+02 -0.36218148933E+01  0.32358257463E+03  0.32471553419E+03  0.00000000000E+00 0. -1.
</event>
<event>
 4    1  0.6089441E+003  0.2139938E+02  0.7546771E-02  0.1513639E+00
          2   -1    0    0  501    0  0.00000000000E+00  0.00000000000E+00  0.22892750403E+03  0.22892750403E+03  0.00000000000E+00 0.  1.
          2   -1    0    0  502    0 -0.00000000000E+00 -0.00000000000E+00 -0.48760605693E+01  0.48760605693E+01  0.00000000000E+00 0.  1.
          2    1    1    2  501    0  0.12810030039E+02 -0.17141657902E+02  0.22249819941E+02  0.30870500363E+02  0.00000000000E+00 0.  1.
          2    1    1    2  502    0 -0.12810030039E+02  0.17141657902E+02  0.20180162352E+03  0.20293306424E+03  0.00000000000E+00 0.  1.
</event>
<event>
 4    1  0.6089441E+003  0.2008424E+02  0.7546771E-02  0.1532752E+00
          2   -1    0    0  501    0  0.00000000000E+00  0.00000000000E+00  0.11283216699E+03  0.11283216699E+03  0.00000000000E+00 0.  1.
          2   -1    0    0  502    0 -0.00000000000E+00 -0.00000000000E+00 -0.54093552830E+01  0.54093552830E+01  0.00000000000E+00 0. -1.
          2    1    1    2  501    0  0.12933807685E+02  0.15365324967E+02  0.19283760800E+02  0.27843132424E+02  0.00000000000E+00 0. -1.
          2    1    1    2  502    0 -0.12933807685E+02 -0.15365324967E+02  0.88139050912E+02  0.90398389854E+02  0.00000000000E+00 0.  1.
</event>
<event>
 4    1  0.6089441E+003  0.2629929E+02  0.7546771E-02  0.1454777E+00
          2   -1    0    0  502    0  0.00000000000E+00  0.00000000000E+00  0.12135173646E+03  0.12135173646E+03  0.00000000000E+00 0.  1.
          2   -1    0    0  501    0 -0.00000000000E+00 -0.00000000000E+00 -0.15243385230E+04  0.15243385230E+04  0.00000000000E+00 0.  1.
          2    1    1    2  501    0 -0.16825342278E+02 -0.20212880096E+02  0.11981196852E+03  0.12266442216E+03  0.00000000000E+00 0.  1.
          2    1    1    2  502    0  0.16825342278E+02  0.20212880096E+02 -0.15227987551E+04  0.15230258373E+04  0.00000000000E+00 0.  1.
</event>
<event>
 4    1  0.6089441E+003  0.2383596E+02  0.7546771E-02  0.1482260E+00
          2   -1    0    0  502    0  0.00000000000E+00  0.00000000000E+00  0.16940629128E+02  0.16940629128E+02  0.00000000000E+00 0. -1.
          2   -1    0    0  501    0 -0.00000000000E+00 -0.00000000000E+00 -0.52843266600E+03  0.52843266600E+03  0.00000000000E+00 0.  1.
          2    1    1    2  501    0 -0.22944577489E+02 -0.64575033645E+01  0.81455281910E+01  0.25189335349E+02  0.00000000000E+00 0. -1.
          2    1    1    2  502    0  0.22944577489E+02  0.64575033645E+01 -0.51963756507E+03  0.52018395978E+03  0.00000000000E+00 0.  1.
</event>
<event>
 4    1  0.6089441E+003  0.3744732E+02  0.7546771E-02  0.1364131E+00
          2   -1    0    0  502    0  0.00000000000E+00  0.00000000000E+00  0.22695841380E+04  0.22695841380E+04  0.00000000000E+00 0. -1.
          2   -1    0    0  501    0 -0.00000000000E+00 -0.00000000000E+00 -0.14878450810E+01  0.14878450810E+01  0.00000000000E+00 0.  1.
          2    1    1    2  501    0  0.36971431548E+02  0.59510225474E+01  0.20023608846E+04  0.20027110160E+04  0.00000000000E+00 0. -1.
          2    1    1    2  502    0 -0.36971431548E+02 -0.59510225474E+01  0.26573540837E+03  0.26836096714E+03  0.00000000000E+00 0.  1.
</event>
<event>
 4    1  0.6089441E+003  0.3862020E+02  0.7546771E-02  0.1356767E+00
          2   -1    0    0  502    0  0.00000000000E+00  0.00000000000E+00  0.38669296786E+02  0.38669296786E+02  0.00000000000E+00 0. -1.
          2   -1    0    0  501    0 -0.00000000000E+00 -0.00000000000E+00 -0.15207770759E+04  0.15207770759E+04  0.00000000000E+00 0. -1.
          2    1    1    2  501    0  0.31538201353E+02  0.22290388715E+02  0.28717812186E+02  0.48127251224E+02  0.00000000000E+00 0. -1.
          2    1    1    2  502    0 -0.31538201353E+02 -0.22290388715E+02 -0.15108255913E+04  0.15113191214E+04  0.00000000000E+00 0. -1.
</event>
<event>
 4    1  0.6089441E+003  0.2233600E+02  0.7546771E-02  0.1501009E+00
          2   -1    0    0  501    0  0.00000000000E+00  0.00000000000E+00  0.39026739604E+01  0.39026739604E+01  0.00000000000E+00 0.  1.
          2   -1    0    0  502    0 -0.00000000000E+00 -0.00000000000E+00 -0.33759550799E+03  0.33759550799E+03  0.00000000000E+00 0.  1.
          2    1    1    2  501    0  0.93755853869E+01 -0.20273022681E+02 -0.30143935462E+03  0.30226574659E+03  0.00000000000E+00 0.  1.
          2    1    1    2  502    0 -0.93755853869E+01  0.20273022681E+02 -0.32253479408E+02  0.39232435355E+02  0.00000000000E+00 0.  1.
</event>
<event>
 4    1  0.6089441E+003  0.2170670E+02  0.7546771E-02  0.1509410E+00
          2   -1    0    0  502    0  0.00000000000E+00  0.00000000000E+00  0.14374653377E+03  0.14374653377E+03  0.00000000000E+00 0. -1.
          2   -1    0    0  501    0 -0.00000000000E+00 -0.00000000000E+00 -0.31261445393E+02  0.31261445393E+02  0.00000000000E+00 0.  1.
          2    1    1    2  501    0 -0.21274569895E+02  0.43096868981E+01  0.13903199881E+03  0.14071630118E+03  0.00000000000E+00 0. -1.
          2    1    1    2  502    0  0.21274569895E+02 -0.43096868981E+01 -0.26546910431E+02  0.34291677982E+02  0.00000000000E+00 0.  1.
</event>
<event>
 4    1  0.6089441E+003  0.2289303E+02  0.7546771E-02  0.1493846E+00
          2   -1    0    0  501    0  0.00000000000E+00  0.00000000000E+00  0.17627714605E+02  0.17627714605E+02  0.00000000000E+00 0. -1.
          2   -1    0    0  502    0 -0.00000000000E+00 -0.00000000000E+00 -0.54764438314E+03  0.54764438314E+03  0.00000000000E+00 0. -1.
          2    1    1    2  501    0 -0.22812419378E+02  0.19195097625E+01 -0.53986531248E+03  0.54035048497E+03  0.00000000000E+00 0. -1.
          2    1    1    2  502    0  0.22812419378E+02 -0.19195097625E+01  0.98486439414E+01  0.24921612771E+02  0.00000000000E+00 0. -1.
</event>
<event>
 4    1  0.1511508E+004  0.2929300E+02  0.7546771E-02  0.1425841E+00
          2   -1    0    0  502    0  0.00000000000E+00  0.00000000000E+00  0.10940984231E+04  0.10940984231E+04  0.00000000000E+00 0.  1.
          2   -1    0    0  501    0 -0.00000000000E+00 -0.00000000000E+00 -0.11018014801E+04  0.11018014801E+04  0.00000000000E+00 0.  1.
          2    1    1    2  501    0  0.24708227049E+02  0.15734788202E+02  0.10937075841E+04  0.10940997941E+04  0.00000000000E+00 0.  1.
          2    1    1    2  502    0 -0.24708227049E+02 -0.15734788202E+02 -0.11014106411E+04  0.11018001090E+04  0.00000000000E+00 0.  1.
</event>
<event>
 4    1  0.6089441E+003  0.2964332E+02  0.7546771E-02  0.1422722E+00
          2   -1    0    0  501    0  0.00000000000E+00  0.00000000000E+00  0.55547884271E+02  0.55547884271E+02  0.00000000000E+00 0. -1.
          2   -1    0    0  502    0 -0.00000000000E+00 -0.00000000000E+00 -0.25481179399E+02  0.25481179399E+02  0.00000000000E+00 0.  1.
          2    1    1    2  501    0  0.13154017985E+02  0.26564986433E+02 -0.99144707888E+01  0.31257373920E+02  0.00000000000E+00 0.  1.
          2    1    1    2  502    0 -0.13154017985E+02 -0.26564986433E+02  0.39981175661E+02  0.49771689750E+02  0.00000000000E+00 0. -1.
</event>
<event>
 4    1  0.6089441E+003  0.2493799E+02  0.7546771E-02  0.1469498E+00
          2   -1    0    0  502    0  0.00000000000E+00  0.00000000000E+00  0.74485911641E+02  0.74485911641E+02  0.00000000000E+00 0. -1.
          2   -1    0    0  501    0 -0.00000000000E+00 -0.00000000000E+00 -0.20098281609E+02  0.20098281609E+02  0.00000000000E+00 0.  1.
          2    1    1    2  501    0  0.15709421747E+02  0.19367949785E+02  0.63352253430E+02  0.68083855834E+02  0.00000000000E+00 0. -1.
          2    1    1    2  502    0 -0.15709421747E+02 -0.19367949785E+02 -0.89646233978E+01  0.26500337416E+02  0.00000000000E+00 0.  1.
</event>
<event>
 4    1  0.6089441E+003  0.2731290E+02  0.7546771E-02  0.1444490E+00
          2   -1    0    0  501    0  0.00000000000E+00  0.00000000000E+00  0.14418137454E+01  0.14418137454E+01  0.00000000000E+00 0.  1.
          2   -1    0    0  502    0 -0.00000000000E+00 -0.00000000000E+00 -0.59654523576E+03  0.59654523576E+03  0.00000000000E+00 0.  1.
          2    1    1    2  501    0  0.11404242046E+02  0.24818092133E+02 -0.40645787901E+03  0.40737452282E+03  0.00000000000E+00 0.  1.
          2    1    1    2  502    0 -0.11404242046E+02 -0.24818092133E+02 -0.18864554301E+03  0.19061252669E+03  0.00000000000E+00 0.  1.
</event>
<event>
 4    1  0.6089441E+003  0.2026350E+02  0.7546771E-02  0.1530045E+00
          2   -1    0    0  501    0  0.00000000000E+00  0.00000000000E+00  0.63061319970E+03  0.63061319970E+03  0.00000000000E+00 0.  1.
          2   -1    0    0  502    0 -0.00000000000E+00 -0.00000000000E+00 -0.49304977099E+01  0.49304977099E+01  0.00000000000E+00 0. -1.
          2    1    1    2  501    0  0.12172387884E+02 -0.16200073835E+02  0.16794815103E+02  0.26318724008E+02  0.00000000000E+00 0. -1.
          2    1    1    2  502    0 -0.12172387884E+02  0.16200073835E+02  0.60888788689E+03  0.60922497340E+03  0.00000000000E+00 0.  1.
</event>
<event>
 4    1  0.6089441E+003  0.2586930E+02  0.7546771E-02  0.1459309E+00
          2   -1    0    0  501    0  0.00000000000E+00  0.00000000000E+00  0.19666300816E+03  0.19666300816E+03  0.00000000000E+00 0.  1.
          2   -1    0    0  502    0 -0.00000000000E+00 -0.00000000000E+00 -0.25303861527E+02  0.25303861527E+02  0.00000000000E+00 0.  1.
          2    1    1    2  501    0  0.23064635818E+02 -0.11715086353E+02 -0.17571968893E+02  0.31272907834E+02  0.00000000000E+00 0.  1.
          2    1    1    2  502    0 -0.23064635818E+02  0.11715086353E+02  0.18893111553E+03  0.19069396186E+03  0.00000000000E+00 0.  1.
</event>
<event>
 4    1  0.6089441E+003  0.2182009E+02  0.7546771E-02  0.1507871E+00
          2   -1    0    0  502    0  0.00000000000E+00  0.00000000000E+00  0.77609427342E+01  0.77609427342E+01  0.00000000000E+00 0. -1.
          2   -1    0    0  501    0 -0.00000000000E+00 -0.00000000000E+00 -0.61654434981E+02  0.61654434981E+02  0.00000000000E+00 0.  1.
          2    1    1    2  501    0  0.15110459680E+02 -0.15741354644E+02 -0.24498797644E+02  0.32807123065E+02  0.00000000000E+00 0.  1.
          2    1    1    2  502    0 -0.15110459680E+02  0.15741354644E+02 -0.29394694603E+02  0.36608254651E+02  0.00000000000E+00 0. -1.
</event>
<event>
 4    1  0.6089441E+003  0.2601051E+02  0.7546771E-02  0.1457809E+00
          2   -1    0    0  501    0  0.00000000000E+00  0.00000000000E+00  0.18526340945E+04  0.18526340945E+04  0.00000000000E+00 0. -1.
          2   -1    0    0  502    0 -0.00000000000E+00 -0.00000000000E+00 -0.10203060817E+02  0.10203060817E+02  0.00000000000E+00 0.  1.
          2    1    1    2  501    0  0.55682883241E+01 -0.25407491844E+02  0.66171571579E+01  0.26839024675E+02  0.00000000000E+00 0.  1.
          2    1    1    2  502    0 -0.55682883241E+01  0.25407491844E+02  0.18358138765E+04  0.18359981306E+04  0.00000000000E+00 0. -1.
</event>
<event>
 4    1  0.6089441E+003  0.2190258E+02  0.7546771E-02  0.1506758E+00
          2   -1    0    0  502    0  0.00000000000E+00  0.00000000000E+00  0.75828100994E+03  0.75828100994E+03  0.00000000000E+00 0.  1.
          2   -1    0    0  501    0 -0.00000000000E+00 -0.00000000000E+00 -0.11230830590E+02  0.11230830590E+02  0.00000000000E+00 0. -1.
          2    1    1    2  501    0  0.21009111136E+02 -0.61919419985E+01  0.74728707465E+03  0.74760798206E+03  0.00000000000E+00 0.  1.
          2    1    1    2  502    0 -0.21009111136E+02  0.61919419985E+01 -0.23689530525E+00  0.21903858469E+02  0.00000000000E+00 0. -1.
</event>
<event>
 4    1  0.6089441E+003  0.2432387E+02  0.7546771E-02  0.1476511E+00
          2   -1    0    0  502    0  0.00000000000E+00  0.00000000000E+00  0.61990037552E+03  0.61990037552E+03  0.00000000000E+00 0.  1.
          2   -1    0    0  501    0 -0.00000000000E+00 -0.00000000000E+00 -0.26597251081E+01  0.26597251081E+01  0.00000000000E+00 0. -1.
          2    1    1    2  501    0  0.43639425561E+01 -0.23929196525E+02  0.55786902717E+03  0.55839905257E+03  0.00000000000E+00 0.  1.
          2    1    1    2  502    0 -0.43639425561E+01  0.23929196525E+02  0.59371623247E+02  0.64161048058E+02  0.00000000000E+00 0. -1.
</event>
<event>
 4    1  0.6089441E+003  0.3423447E+02  0.7546771E-02  0.1386026E+00
          2   -1    0    0  502    0  0.00000000000E+00  0.00000000000E+00  0.23763049761E+03  0.23763049761E+03  0.00000000000E+00 0. -1.
          2   -1    0    0  501    0 -0.00000000000E+00 -0.00000000000E+00 -0.41434341321E+02  0.41434341321E+02  0.00000000000E+00 0. -1.
          2    1    1    2  501    0 -0.20219805428E+02  0.27625327114E+02  0.22906304143E+03  0.23160715917E+03  0.00000000000E+00 0. -1.
          2    1    1    2  502    0  0.20219805428E+02 -0.27625327114E+02 -0.32866885139E+02  0.47457679762E+02  0.00000000000E+00 0. -1.
</event>
<event>
 4    1  0.6089441E+003  0.2522717E+02  0.7546771E-02  0.1466278E+00
          2   -1    0    0  501    0  0.00000000000E+00  0.00000000000E+00  0.10641802490E+03  0.10641802490E+03  0.00000000000E+00 0. -1.
          2   -1    0    0  502    0 -0.00000000000E+00 -0.00000000000E+00 -0.45653455175E+02  0.45653455175E+02  0.00000000000E+00 0. -1.
          2    1    1    2  501    0  0.14728080193E+02 -0.20481547480E+02 -0.40498644486E+02  0.47713209267E+02  0.00000000000E+00 0. -1.
          2    1    1    2  502    0 -0.14728080193E+02  0.20481547480E+02  0.10126321421E+03  0.10435827081E+03  0.00000000000E+00 0. -1.
</event>
<event>
 4    1  0.6089441E+003  0.2897380E+02  0.7546771E-02  0.1428729E+00
          2   -1    0    0  501    0  0.00000000000E+00  0.00000000000E+00  0.16041726847E+04  0.16041726847E+04  0.00000000000E+00 0.  1.
          2   -1    0    0  502    0 -0.00000000000E+00 -0.00000000000E+00 -0.10940344934E+02  0.10940344934E+02  0.00000000000E+00 0.  1.
          2    1    1    2  501    0 -0.28973002623E+02 -0.21555306619E+00  0.86102949713E+01  0.30226123198E+02  0.00000000000E+00 0.  1.
          2    1    1    2  502    0  0.28973002623E+02  0.21555306619E+00  0.15846220448E+04  0.15848869065E+04  0.00000000000E+00 0.  1.
</event>
<event>
 4    1  0.6089441E+003  0.2096659E+02  0.7546771E-02  0.1519742E+00
          2   -1    0    0  501    0  0.00000000000E+00  0.00000000000E+00  0.52941581628E+03  0.52941581628E+03  0.00000000000E+00 0. -1.
          2   -1    0    0  502    0 -0.00000000000E+00 -0.00000000000E+00 -0.37245872163E+02  0.37245872163E+02  0.00000000000E+00 0.  1.
          2    1    1    2  501    0  0.16609011615E+02  0.12796042078E+02 -0.34069835866E+02  0.40004395704E+02  0.00000000000E+00 0.  1.
          2    1    1    2  502    0 -0.16609011615E+02 -0.12796042078E+02  0.52623977998E+03  0.52665729274E+03  0.00000000000E+00 0. -1.
</event>
<event>
 4    1  0.6089441E+003  0.2857230E+02  0.7546771E-02  0.1432423E+00
          2   -1    0    0  501    0  0.00000000000E+00  0.00000000000E+00  0.13359750719E+02  0.13359750719E+02  0.00000000000E+00 0. -1.
          2   -1    0    0  502    0 -0.00000000000E+00 -0.00000000000E+00 -0.11553546222E+04  0.11553546222E+04  0.00000000000E+00 0.  1.
          2    1    1    2  501    0 -0.34162797199E+01  0.28367327397E+02 -0.11396912616E+04  0.11400493621E+04  0.00000000000E+00 0.  1.
          2    1    1    2  502    0  0.34162797199E+01 -0.28367327397E+02 -0.23036099445E+01  0.28665010894E+02  0.00000000000E+00 0. -1.
</event>
<event>
 4    1  0.6089441E+003  0.2894525E+02  0.7546771E-02  0.1428989E+00
          2   -1    0    0  501    0  0.00000000000E+00  0.00000000000E+00  0.15150482012E+04  0.15150482012E+04  0.00000000000E+00 0. -1.
          2   -1    0    0  502    0 -0.00000000000E+00 -0.00000000000E+00 -0.68326632096E+01  0.68326632096E+01  0.00000000000E+00 0. -1.
          2    1    1    2  501    0 -0.22789375143E+02  0.17845772463E+02  0.24610445442E+02  0.37993436789E+02  0.00000000000E+00 0. -1.
          2    1    1    2  502    0  0.22789375143E+02 -0.17845772463E+02  0.14836050926E+04  0.14838874276E+04  0.00000000000E+00 0. -1.
</event>
<event>
 4    1  0.6089441E+003  0.2862364E+02  0.7546771E-02  0.1431946E+00
          2   -1    0    0  502    0  0.00000000000E+00  0.00000000000E+00  0.62236834770E+00  0.62236834770E+00  0.00000000000E+00 0.  1.
          2   -1    0    0  501    0 -0.00000000000E+00 -0.00000000000E+00 -0.16469922996E+04  0.16469922996E+04  0.00000000000E+00 0.  1.
          2    1    1    2  501    0  0.26657504875E+02 -0.10425445616E+02 -0.45412412978E+03  0.45502531548E+03  0.00000000000E+00 0.  1.
          2    1    1    2  502    0 -0.26657504875E+02  0.10425445616E+02 -0.11922458014E+04  0.11925893524E+04  0.00000000000E+00 0.  1.
</event>
<event>
 4    1  0.6089441E+003  0.2117940E+02  0.7546771E-02  0.1516719E+00
          2   -1    0    0  502    0  0.00000000000E+00  0.00000000000E+00  0.22586201355E+03  0.22586201355E+03  0.00000000000E+00 0.  1.
          2   -1    0    0  501    0 -0.00000000000E+00 -0.00000000000E+00 -0.57316044892E+01  0.57316044892E+01  0.00000000000E+00 0. -1.
          2    1    1    2  501    0 -0.93399326425E+01  0.19008750835E+02  0.20367432442E+03  0.20477255036E+03  0.00000000000E+00 0.  1.
          2    1    1    2  502    0  0.93399326425E+01 -0.19008750835E+02  0.16456084637E+02  0.26821067683E+02  0.00000000000E+00 0. -1.
</event>
<event>
 4    1  0.6089441E+003  0.4868220E+02  0.7546771E-02  0.1303989E+00
          2   -1    0    0  501    0  0.00000000000E+00  0.00000000000E+00  0.14036414184E+04  0.14036414184E+04  0.00000000000E+00 0.  1.
          2   -1    0    0  502    0 -0.00000000000E+00 -0.00000000000E+00 -0.58779572805E+02  0.58779572805E+02  0.00000000000E+00 0.  1.
          2    1    1    2  501    0 -0.33524823851E+02 -0.35299337710E+02 -0.48201094485E+02  0.68507682537E+02  0.00000000000E+00 0.  1.
          2    1    1    2  502    0  0.33524823851E+02  0.35299337710E+02  0.13930629400E+04  0.13939133086E+04  0.00000000000E+00 0.  1.
</event>
<event>
 4    1  0.6089441E+003  0.2432177E+02  0.7546771E-02  0.1476536E+00
          2   -1    0    0  501    0  0.00000000000E+00  0.00000000000E+00  0.21902813744E+04  0.21902813744E+04  0.00000000000E+00 0. -1.
          2   -1    0    0  502    0 -0.00000000000E+00 -0.00000000000E+00 -0.33653635248E+00  0.33653635248E+00  0.00000000000E+00 0. -1.
          2    1    1    2  501    0 -0.20243873242E+02 -0.13480884694E+02  0.60823729966E+03  0.60872338657E+03  0.00000000000E+00 0. -1.
          2    1    1    2  502    0  0.20243873242E+02  0.13480884694E+02  0.15817075384E+04  0.15818945242E+04  0.00000000000E+00 0. -1.
</event>
<event>
 4    1  0.6089441E+003  0.2541024E+02  0.7546771E-02  0.1464266E+00
          2   -1    0    0  501    0  0.00000000000E+00  0.00000000000E+00  0.14823004579E+04  0.14823004579E+04  0.00000000000E+00 0.  1.
          2   -1    0    0  502    0 -0.00000000000E+00 -0.00000000000E+00 -0.49244894570E+00  0.49244894570E+00  0.00000000000E+00 0. -1.
          2    1    1    2  501    0 -0.10529283914E+01 -0.25388411869E+02  0.48898740792E+03  0.48964718443E+03  0.00000000000E+00 0. -1.
          2    1    1    2  502    0  0.10529283914E+01  0.25388411869E+02  0.99282060104E+03  0.99314572242E+03  0.00000000000E+00 0.  1.
</event>
<event>
 4    1  0.6089441E+003  0.4217642E+02  0.7546771E-02  0.1336183E+00
          2   -1    0    0  501    0  0.00000000000E+00  0.00000000000E+00  0.14579663541E+02  0.14579663541E+02  0.00000000000E+00 0. -1.
          2   -1    0    0  502    0 -0.00000000000E+00 -0.00000000000E+00 -0.14184564645E+04  0.14184564645E+04  0.00000000000E+00 0.  1.
          2    1    1    2  501    0 -0.39728002356E+02  0.14161067400E+02 -0.13869479117E+04  0.13875890457E+04  0.00000000000E+00 0.  1.
          2    1    1    2  502    0  0.39728002356E+02 -0.14161067400E+02 -0.16928889259E+02  0.45447082333E+02  0.00000000000E+00 0. -1.
</event>
<event>
 4    1  0.6089441E+003  0.2191499E+02  0.7546771E-02  0.1506591E+00
          2   -1    0    0  501    0  0.00000000000E+00  0.00000000000E+00  0.13028519221E+02  0.13028519221E+02  0.00000000000E+00 0. -1.
          2   -1    0    0  502    0 -0.00000000000E+00 -0.00000000000E+00 -0.45234632093E+02  0.45234632093E+02  0.00000000000E+00 0. -1.
          2    1    1    2  501    0 -0.25326839497E+01 -0.21768152193E+02 -0.28635628562E+02  0.36059203555E+02  0.00000000000E+00 0. -1.
          2    1    1    2  502    0  0.25326839497E+01  0.21768152193E+02 -0.35704843106E+01  0.22203947760E+02  0.00000000000E+00 0. -1.
</event>
<event>
 4    1  0.6089441E+003  0.4761497E+02  0.7546771E-02  0.1308858E+00
          2   -1    0    0  502    0  0.00000000000E+00  0.00000000000E+00  0.14515809170E+04  0.14515809170E+04  0.00000000000E+00 0. -1.
          2   -1    0    0  501    0 -0.00000000000E+00 -0.00000000000E+00 -0.17332187752E+03  0.17332187752E+03  0.00000000000E+00 0.  1.
          2    1    1    2  501    0  0.19451973401E+02 -0.43460399552E+02  0.14479119690E+04  0.14486946730E+04  0.00000000000E+00 0. -1.
          2    1    1    2  502    0 -0.19451973401E+02  0.43460399552E+02 -0.16965292952E+03  0.17620812153E+03  0.00000000000E+00 0.  1.
</event>
<event>
 4    1  0.6089441E+003  0.2457449E+02  0.7546771E-02  0.1473620E+00
          2   -1    0    0  502    0  0.00000000000E+00  0.00000000000E+00  0.42315830764E+00  0.42315830764E+00  0.00000000000E+00 0. -1.
          2   -1    0    0  501    0 -0.00000000000E+00 -0.00000000000E+00 -0.17853795898E+04  0.17853795898E+04  0.00000000000E+00 0. -1.
          2    1    1    2  501    0 -0.18748427306E+01 -0.24502872560E+02 -0.49250998523E+03  0.49312269401E+03  0.00000000000E+00 0. -1.
          2    1    1    2  502    0  0.18748427306E+01  0.24502872560E+02 -0.12924464463E+04  0.12926800541E+04  0.00000000000E+00 0. -1.
</event>
<event>
 4    1  0.6089441E+003  0.2856957E+02  0.7546771E-02  0.1432448E+00
          2   -1    0    0  502    0  0.00000000000E+00  0.00000000000E+00  0.12227040797E+04  0.12227040797E+04  0.00000000000E+00 0. -1.
          2   -1    0    0  501    0 -0.00000000000E+00 -0.00000000000E+00 -0.10339345455E+01  0.10339345455E+01  0.00000000000E+00 0. -1.
          2    1    1    2  501    0 -0.28435368934E+02 -0.27659359126E+01  0.97506726226E+03  0.97548571826E+03  0.00000000000E+00 0. -1.
          2    1    1    2  502    0  0.28435368934E+02  0.27659359126E+01  0.24660288294E+03  0.24825229602E+03  0.00000000000E+00 0. -1.
</event>
<event>
 4    1  0.6089441E+003  0.2173143E+02  0.7546771E-02  0.1509073E+00
          2   -1    0    0  501    0  0.00000000000E+00  0.00000000000E+00  0.72977635111E+03  0.72977635111E+03  0.00000000000E+00 0.  1.
          2   -1    0    0  502    0 -0.00000000000E+00 -0.00000000000E+00 -0.44229207761E+02  0.44229207761E+02  0.00000000000E+00 0. -1.
          2    1    1    2  501    0 -0.10089959788E+02  0.19247024306E+02 -0.41387631842E+02  0.46746029807E+02  0.00000000000E+00 0. -1.
          2    1    1    2  502    0  0.10089959788E+02 -0.19247024306E+02  0.72693477519E+03  0.72725952906E+03  0.00000000000E+00 0.  1.
</event>
<event>
 4    1  0.6089441E+003  0.3826588E+02  0.7546771E-02  0.1358959E+00
          2   -1    0    0  501    0  0.00000000000E+00  0.00000000000E+00  0.29673437036E+01  0.29673437036E+01  0.00000000000E+00 0.  1.
          2   -1    0    0  502    0 -0.00000000000E+00 -0.00000000000E+00 -0.62539127437E+03  0.62539127437E+03  0.00000000000E+00 0.  1.
          2    1    1    2  501    0  0.22988335523E+02 -0.30591080685E+02 -0.45551274987E+03  0.45711720935E+03  0.00000000000E+00 0.  1.
          2    1    1    2  502    0 -0.22988335523E+02  0.30591080685E+02 -0.16691118080E+03  0.17124140873E+03  0.00000000000E+00 0.  1.
</event>
<event>
 4    1  0.6089441E+003  0.2585176E+02  0.7546771E-02  0.1459496E+00
          2   -1    0    0  502    0  0.00000000000E+00  0.00000000000E+00  0.16155895041E+03  0.16155895041E+03  0.00000000000E+00 0. -1.
          2   -1    0    0  501    0 -0.00000000000E+00 -0.00000000000E+00 -0.51562617384E+03  0.51562617384E+03  0.00000000000E+00 0. -1.
          2    1    1    2  501    0  0.24802889490E+02 -0.72890578177E+01  0.16019802140E+03  0.16227051412E+03  0.00000000000E+00 0. -1.
          2    1    1    2  502    0 -0.24802889490E+02  0.72890578177E+01 -0.51426524483E+03  0.51491461014E+03  0.00000000000E+00 0. -1.
</event>
<event>
 4    1  0.6089441E+003  0.2101165E+02  0.7546771E-02  0.1519099E+00
          2   -1    0    0  501    0  0.00000000000E+00  0.00000000000E+00  0.99940444437E+00  0.99940444437E+00  0.00000000000E+00 0. -1.
          2   -1    0    0  502    0 -0.00000000000E+00 -0.00000000000E+00 -0.60879098609E+03  0.60879098609E+03  0.00000000000E+00 0.  1.
          2    1    1    2  501    0  0.19453459068E+02 -0.79405423545E+01 -0.46360314483E+03  0.46407905057E+03  0.00000000000E+00 0.  1.
          2    1    1    2  502    0 -0.19453459068E+02  0.79405423545E+01 -0.14418843681E+03  0.14571133996E+03  0.00000000000E+00 0. -1.
</event>
<event>
 4    1  0.6089441E+003  0.2056031E+02  0.7546771E-02  0.1525636E+00
          2   -1    0    0  501    0  0.00000000000E+00  0.00000000000E+00  0.28061569268E+03  0.28061569268E+03  0.00000000000E+00 0.  1.
          2   -1    0    0  502    0 -0.00000000000E+00 -0.00000000000E+00 -0.48292520113E+01  0.48292520113E+01  0.00000000000E+00 0. -1.
          2    1    1    2  501    0 -0.20482826200E+02 -0.17833102338E+01  0.19505591554E+02  0.28340685708E+02  0.00000000000E+00 0. -1.
          2    1    1    2  502    0  0.20482826200E+02  0.17833102338E+01  0.25628084912E+03  0.25710425898E+03  0.00000000000E+00 0.  1.
</event>
<event>
 4    1  0.6089441E+003  0.2310497E+02  0.7546771E-02  0.1491184E+00
          2   -1    0    0  501    0  0.00000000000E+00  0.00000000000E+00  0.38364088806E+01  0.38364088806E+01  0.00000000000E+00 0.  1.
          2   -1    0    0  502    0 -0.00000000000E+00 -0.00000000000E+00 -0.91786283870E+03  0.91786283870E+03  0.00000000000E+00 0.  1.
          2    1    1    2  501    0 -0.10441028553E+02 -0.20611272242E+02 -0.88149471715E+03  0.88179746880E+03  0.00000000000E+00 0.  1.
          2    1    1    2  502    0  0.10441028553E+02  0.20611272242E+02 -0.32531712677E+02  0.39901778787E+02  0.00000000000E+00 0.  1.
</event>
<event>
 4    1  0.6089441E+003  0.2054033E+02  0.7546771E-02  0.1525930E+00
          2   -1    0    0  501    0  0.00000000000E+00  0.00000000000E+00  0.11692518100E+01  0.11692518100E+01  0.00000000000E+00 0. -1.
          2   -1    0    0  502    0 -0.00000000000E+00 -0.00000000000E+00 -0.47220472275E+03  0.47220472275E+03  0.00000000000E+00 0. -1.
          2    1    1    2  501    0  0.20526075159E+02  0.76505484249E+00 -0.35046429235E+03  0.35106569938E+03  0.00000000000E+00 0. -1.
          2    1    1    2  502    0 -0.20526075159E+02 -0.76505484249E+00 -0.12057117859E+03  0.12230827517E+03  0.00000000000E+00 0. -1.
</event>
<event>
 4    1  0.6089441E+003  0.3520090E+02  0.7546771E-02  0.1379156E+00
          2   -1    0    0  501    0  0.00000000000E+00  0.00000000000E+00  0.56953459272E+03  0.56953459272E+03  0.00000000000E+00 0.  1.
          2   -1    0    0  502    0 -0.00000000000E+00 -0.00000000000E+00 -0.65961735314E+01  0.65961735314E+01  0.00000000000E+00 0. -1.
          2    1    1    2  501    0 -0.34800911671E+02  0.52914778207E+01  0.45648306263E+02  0.57644349726E+02  0.00000000000E+00 0. -1.
          2    1    1    2  502    0  0.34800911671E+02 -0.52914778207E+01  0.51729011292E+03  0.51848641652E+03  0.00000000000E+00 0.  1.
</event>
<event>
 4    1  0.6089441E+003  0.2404119E+02  0.7546771E-02  0.1479822E+00
          2   -1    0    0  502    0  0.00000000000E+00  0.00000000000E+00  0.16392636526E+04  0.16392636526E+04  0.00000000000E+00 0.  1.
          2   -1    0    0  501    0 -0.00000000000E+00 -0.00000000000E+00 -0.93025193019E+01  0.93025193019E+01  0.00000000000E+00 0.  1.
          2    1    1    2  501    0  0.20115941412E+02  0.13165395606E+02  0.16234917611E+04  0.16236697562E+04  0.00000000000E+00 0.  1.
          2    1    1    2  502    0 -0.20115941412E+02 -0.13165395606E+02  0.64693722165E+01  0.24896415751E+02  0.00000000000E+00 0.  1.
</event>
<event>
 4    1  0.6089441E+003  0.2796102E+02  0.7546771E-02  0.1438186E+00
          2   -1    0    0  501    0  0.00000000000E+00  0.00000000000E+00  0.33307594762E+01  0.33307594762E+01  0.00000000000E+00 0.  1.
          2   -1    0    0  502    0 -0.00000000000E+00 -0.00000000000E+00 -0.52068713043E+03  0.52068713043E+03  0.00000000000E+00 0.  1.
          2    1    1    2  501    0 -0.26277389161E+02 -0.95560196218E+01 -0.45284747920E+03  0.45370988320E+03  0.00000000000E+00 0.  1.
          2    1    1    2  502    0  0.26277389161E+02  0.95560196218E+01 -0.64508891747E+02  0.70308006703E+02  0.00000000000E+00 0.  1.
</event>
<event>
 4    1  0.6089441E+003  0.4189695E+02  0.7546771E-02  0.1337714E+00
          2   -1    0    0  502    0  0.00000000000E+00  0.00000000000E+00  0.47244734691E+02  0.47244734691E+02  0.00000000000E+00 0. -1.
          2   -1    0    0  501    0 -0.00000000000E+00 -0.00000000000E+00 -0.31083774415E+03  0.31083774415E+03  0.00000000000E+00 0. -1.
          2    1    1    2  501    0 -0.41884721851E+02  0.10120689419E+01  0.36203893348E+02  0.55372159987E+02  0.00000000000E+00 0. -1.
          2    1    1    2  502    0  0.41884721851E+02 -0.10120689419E+01 -0.29979690281E+03  0.30271031885E+03  0.00000000000E+00 0. -1.
</event>
<event>
 4    1  0.6089441E+003  0.2197542E+02  0.7546771E-02  0.1505781E+00
          2   -1    0    0  502    0  0.00000000000E+00  0.00000000000E+00  0.11349927911E+01  0.11349927911E+01  0.00000000000E+00 0. -1.
          2   -1    0    0  501    0 -0.00000000000E+00 -0.00000000000E+00 -0.66425637623E+03  0.66425637623E+03  0.00000000000E+00 0.  1.
          2    1    1    2  501    0 -0.21904207184E+02 -0.17677164475E+01 -0.13209276565E+03  0.13390824415E+03  0.00000000000E+00 0. -1.
          2    1    1    2  502    0  0.21904207184E+02  0.17677164475E+01 -0.53102861779E+03  0.53148312488E+03  0.00000000000E+00 0.  1.
</event>
<event>
 4    1  0.6089441E+003  0.5769783E+02  0.7546771E-02  0.1267862E+00
          2   -1    0    0  501    0  0.00000000000E+00  0.00000000000E+00  0.60116243482E+01  0.60116243482E+01  0.00000000000E+00 0.  1.
          2   -1    0    0  502    0 -0.00000000000E+00 -0.00000000000E+00 -0.38697773062E+04  0.38697773062E+04  0.00000000000E+00 0.  1.
          2    1    1    2  501    0 -0.57690869194E+02 -0.89599782930E+00 -0.37257697940E+04  0.37262165258E+04  0.00000000000E+00 0.  1.
          2    1    1    2  502    0  0.57690869194E+02  0.89599782930E+00 -0.13799588785E+03  0.14957240475E+03  0.00000000000E+00 0.  1.
</event>
<event>
 4    1  0.6089441E+003  0.2904333E+02  0.7546771E-02  0.1428096E+00
          2   -1    0    0  502    0  0.00000000000E+00  0.00000000000E+00  0.35627181443E+01  0.35627181443E+01  0.00000000000E+00 0. -1.
          2   -1    0    0  501    0 -0.00000000000E+00 -0.00000000000E+00 -0.39530443572E+03  0.39530443572E+03  0.00000000000E+00 0. -1.
          2    1    1    2  501    0  0.28325596042E+02 -0.64168410411E+01 -0.69570206057E+02  0.75389182320E+02  0.00000000000E+00 0. -1.
          2    1    1    2  502    0 -0.28325596042E+02  0.64168410411E+01 -0.32217151152E+03  0.32347797154E+03  0.00000000000E+00 0. -1.
</event>
<event>
 4    1  0.6089441E+003  0.2652006E+02  0.7546771E-02  0.1452490E+00
          2   -1    0    0  502    0  0.00000000000E+00  0.00000000000E+00  0.38974665013E+01  0.38974665013E+01  0.00000000000E+00 0.  1.
          2   -1    0    0  501    0 -0.00000000000E+00 -0.00000000000E+00 -0.36846521338E+03  0.36846521338E+03  0.00000000000E+00 0. -1.
          2    1    1    2  501    0  0.20261268731E+02 -0.17111243345E+02 -0.49290589345E+02  0.55972098919E+02  0.00000000000E+00 0.  1.
          2    1    1    2  502    0 -0.20261268731E+02  0.17111243345E+02 -0.31527715754E+03  0.31639058097E+03  0.00000000000E+00 0. -1.
</event>
<event>
 4    1  0.6089441E+003  0.2526906E+02  0.7546771E-02  0.1465816E+00
          2   -1    0    0  501    0  0.00000000000E+00  0.00000000000E+00  0.47136414415E+03  0.47136414415E+03  0.00000000000E+00 0.  1.
          2   -1    0    0  502    0 -0.00000000000E+00 -0.00000000000E+00 -0.25800671552E+01  0.25800671552E+01  0.00000000000E+00 0. -1.
          2    1    1    2  501    0  0.24962378975E+02  0.39249016417E+01  0.71076769349E+02  0.75434954485E+02  0.00000000000E+00 0. -1.
          2    1    1    2  502    0 -0.24962378975E+02 -0.39249016417E+01  0.39770730765E+03  0.39850925682E+03  0.00000000000E+00 0.  1.
</event>
<event>
 4    1  0.6089441E+003  0.2490899E+02  0.7546771E-02  0.1469824E+00
          2   -1    0    0  501    0  0.00000000000E+00  0.00000000000E+00  0.28576288292E+03  0.28576288292E+03  0.00000000000E+00 0. -1.
          2   -1    0    0  502    0 -0.00000000000E+00 -0.00000000000E+00 -0.31059917793E+01  0.31059917793E+01  0.00000000000E+00 0. -1.
          2    1    1    2  501    0 -0.23460796360E+02  0.83695220529E+01  0.62092849819E+02  0.66902764246E+02  0.00000000000E+00 0. -1.
          2    1    1    2  502    0  0.23460796360E+02 -0.83695220529E+01  0.22056404132E+03  0.22196611045E+03  0.00000000000E+00 0. -1.
</event>
<event>
 4    1  0.6089441E+003  0.2257434E+02  0.7546771E-02  0.1497913E+00
          2   -1    0    0  502    0  0.00000000000E+00  0.00000000000E+00  0.70251497439E+00  0.70251497439E+00  0.00000000000E+00 0.  1.
          2   -1    0    0  501    0 -0.00000000000E+00 -0.00000000000E+00 -0.98173987612E+03  0.98173987612E+03  0.00000000000E+00 0. -1.
          2    1    1    2  501    0  0.86752276125E+01 -0.20840854963E+02 -0.23950854921E+03  0.24057004376E+03  0.00000000000E+00 0.  1.
          2    1    1    2  502    0 -0.86752276125E+01  0.20840854963E+02 -0.74152881194E+03  0.74187234734E+03  0.00000000000E+00 0. -1.
</event>
<event>
 4    1  0.6089441E+003  0.2569529E+02  0.7546771E-02  0.1461173E+00
          2   -1    0    0  502    0  0.00000000000E+00  0.00000000000E+00  0.61735115814E+03  0.61735115814E+03  0.00000000000E+00 0. -1.
          2   -1    0    0  501    0 -0.00000000000E+00 -0.00000000000E+00 -0.80419168067E+01  0.80419168067E+01  0.00000000000E+00 0.  1.
          2    1    1    2  501    0 -0.11045390300E+01 -0.25671542045E+02  0.59581709950E+03  0.59637091154E+03  0.00000000000E+00 0. -1.
          2    1    1    2  502    0  0.11045390300E+01  0.25671542045E+02  0.13492141835E+02  0.29022163406E+02  0.00000000000E+00 0.  1.
</event>
<event>
 4    1  0.6089441E+003  0.4238935E+02  0.7546771E-02  0.1335026E+00
          2   -1    0    0  502    0  0.00000000000E+00  0.00000000000E+00  0.11019093674E+03  0.11019093674E+03  0.00000000000E+00 0.  1.
          2   -1    0    0  501    0 -0.00000000000E+00 -0.00000000000E+00 -0.86212091451E+02  0.86212091451E+02  0.00000000000E+00 0.  1.
          2    1    1    2  501    0  0.20334393302E+02  0.37193676725E+02  0.10041730884E+03  0.10899767453E+03  0.00000000000E+00 0.  1.
          2    1    1    2  502    0 -0.20334393302E+02 -0.37193676725E+02 -0.76438463546E+02  0.87405353661E+02  0.00000000000E+00 0.  1.
</event>
<event>
 4    1  0.6089441E+003  0.2081963E+02  0.7546771E-02  0.1521856E+00
          2   -1    0    0  502    0  0.00000000000E+00  0.00000000000E+00  0.93601002438E+03  0.93601002438E+03  0.00000000000E+00 0.  1.
          2   -1    0    0  501    0 -0.00000000000E+00 -0.00000000000E+00 -0.88426030804E+00  0.88426030804E+00  0.00000000000E+00 0. -1.
          2    1    1    2  501    0 -0.20474555016E+02 -0.37748420370E+01  0.79085820907E+03  0.79113220368E+03  0.00000000000E+00 0.  1.
          2    1    1    2  502    0  0.20474555016E+02  0.37748420370E+01  0.14426755499E+03  0.14576208101E+03  0.00000000000E+00 0. -1.
</event>
<event>
 4    1  0.6089441E+003  0.2196535E+02  0.7546771E-02  0.1505916E+00
          2   -1    0    0  502    0  0.00000000000E+00  0.00000000000E+00  0.44704102102E+01  0.44704102102E+01  0.00000000000E+00 0.  1.
          2   -1    0    0  501    0 -0.00000000000E+00 -0.00000000000E+00 -0.76111975933E+03  0.76111975933E+03  0.00000000000E+00 0.  1.
          2    1    1    2  501    0  0.16341094226E+02  0.14678054093E+02 -0.23706790477E+02  0.32318548037E+02  0.00000000000E+00 0.  1.
          2    1    1    2  502    0 -0.16341094226E+02 -0.14678054093E+02 -0.73294255864E+03  0.73327162150E+03  0.00000000000E+00 0.  1.
</event>
<event>
 4    1  0.6089441E+003  0.2065378E+02  0.7546771E-02  0.1524266E+00
          2   -1    0    0  501    0  0.00000000000E+00  0.00000000000E+00  0.98681854422E+01  0.98681854422E+01  0.00000000000E+00 0.  1.
          2   -1    0    0  502    0 -0.00000000000E+00 -0.00000000000E+00 -0.74590887737E+03  0.74590887737E+03  0.00000000000E+00 0.  1.
          2    1    1    2  501    0 -0.35202175288E+01  0.20351578092E+02 -0.73479557179E+03  0.73508578478E+03  0.00000000000E+00 0.  1.
          2    1    1    2  502    0  0.35202175288E+01 -0.20351578092E+02 -0.12451201324E+01  0.20691278028E+02  0.00000000000E+00 0.  1.
</event>
<event>
 4    1  0.6089441E+003  0.6721934E+02  0.7546771E-02  0.1237098E+00
          2   -1    0    0  502    0  0.00000000000E+00  0.00000000000E+00  0.16922333577E+03  0.16922333577E+03  0.00000000000E+00 0.  1.
          2   -1    0    0  501    0 -0.00000000000E+00 -0.00000000000E+00 -0.58616880105E+03  0.58616880105E+03  0.00000000000E+00 0.  1.
          2    1    1    2  501    0 -0.82788815327E+01  0.66707565588E+02  0.16052070879E+03  0.17402682879E+03  0.00000000000E+00 0.  1.
          2    1    1    2  502    0  0.82788815327E+01 -0.66707565588E+02 -0.57746617407E+03  0.58136530803E+03  0.00000000000E+00 0.  1.
</event>
<event>
 4    1  0.6089441E+003  0.2550816E+02  0.7546771E-02  0.1463198E+00
          2   -1    0    0  501    0  0.00000000000E+00  0.00000000000E+00  0.27922687841E+02  0.27922687841E+02  0.00000000000E+00 0.  1.
          2   -1    0    0  502    0 -0.00000000000E+00 -0.00000000000E+00 -0.71206971575E+02  0.71206971575E+02  0.00000000000E+00 0.  1.
          2    1    1    2  501    0 -0.90355344842E+01  0.23854249195E+02 -0.62295906481E+02  0.67316016313E+02  0.00000000000E+00 0.  1.
          2    1    1    2  502    0  0.90355344842E+01 -0.23854249195E+02  0.19011622747E+02  0.31813643103E+02  0.00000000000E+00 0.  1.
</event>
<event>
 4    1  0.6089441E+003  0.2208795E+02  0.7546771E-02  0.1504280E+00
          2   -1    0    0  502    0  0.00000000000E+00  0.00000000000E+00  0.13591044780E+02  0.13591044780E+02  0.00000000000E+00 0. -1.
          2   -1    0    0  501    0 -0.00000000000E+00 -0.00000000000E+00 -0.13977860000E+04  0.13977860000E+04  0.00000000000E+00 0. -1.
          2    1    1    2  501    0  0.49836084424E+01 -0.21518388487E+02  0.44706049791E+01  0.22535831581E+02  0.00000000000E+00 0. -1.
          2    1    1    2  502    0 -0.49836084424E+01  0.21518388487E+02 -0.13886655602E+04  0.13888412132E+04  0.00000000000E+00 0. -1.
</event>
<event>
 4    1  0.9607327E+003  0.2880863E+02  0.7546771E-02  0.1430240E+00
          2   -1    0    0  502    0  0.00000000000E+00  0.00000000000E+00  0.68906906452E+03  0.68906906452E+03  0.00000000000E+00 0.  1.
          2   -1    0    0  501    0 -0.00000000000E+00 -0.00000000000E+00 -0.73595911553E+03  0.73595911553E+03  0.00000000000E+00 0.  1.
          2    1    1    2  501    0 -0.22749678720E+02  0.17674544800E+02  0.68848579382E+03  0.68908825684E+03  0.00000000000E+00 0.  1.
          2    1    1    2  502    0  0.22749678720E+02 -0.17674544800E+02 -0.73537584484E+03  0.73593992322E+03  0.00000000000E+00 0.  1.
</event>
<event>
 4    1  0.6089441E+003  0.5235308E+02  0.7546771E-02  0.1288280E+00
          2   -1    0    0  502    0  0.00000000000E+00  0.00000000000E+00  0.27055595059E+02  0.27055595059E+02  0.00000000000E+00 0.  1.
          2   -1    0    0  501    0 -0.00000000000E+00 -0.00000000000E+00 -0.25686860189E+03  0.25686860189E+03  0.00000000000E+00 0. -1.
          2    1    1    2  501    0 -0.46638663980E+02 -0.23784038472E+02 -0.44294687787E+01  0.52540133780E+02  0.00000000000E+00 0.  1.
          2    1    1    2  502    0  0.46638663980E+02  0.23784038472E+02 -0.22538353806E+03  0.23138406317E+03  0.00000000000E+00 0. -1.
</event>
<event>
 4    1  0.6089441E+003  0.2505860E+02  0.7546771E-02  0.1468149E+00
          2   -1    0    0  501    0  0.00000000000E+00  0.00000000000E+00  0.10969365526E+04  0.10969365526E+04  0.00000000000E+00 0.  1.
          2   -1    0    0  502    0 -0.00000000000E+00 -0.00000000000E+00 -0.76307946875E+02  0.76307946875E+02  0.00000000000E+00 0.  1.
          2    1    1    2  501    0  0.51887537454E+01 -0.24515508983E+02 -0.74103459594E+02  0.78225673982E+02  0.00000000000E+00 0.  1.
          2    1    1    2  502    0 -0.51887537454E+01  0.24515508983E+02  0.10947320653E+04  0.10950188255E+04  0.00000000000E+00 0.  1.
</event>
<event>
 4    1  0.6089441E+003  0.2180729E+02  0.7546771E-02  0.1508044E+00
          2   -1    0    0  502    0  0.00000000000E+00  0.00000000000E+00  0.60880350532E+03  0.60880350532E+03  0.00000000000E+00 0.  1.
          2   -1    0    0  501    0 -0.00000000000E+00 -0.00000000000E+00 -0.53271944331E+01  0.53271944331E+01  0.00000000000E+00 0. -1.
          2    1    1    2  501    0 -0.17283635269E+02 -0.13297892830E+02  0.58539879068E+03  0.58580483280E+03  0.00000000000E+00 0.  1.
          2    1    1    2  502    0  0.17283635269E+02  0.13297892830E+02  0.18077520207E+02  0.28325866954E+02  0.00000000000E+00 0. -1.
</event>
<event>
 4    1  0.6089441E+003  0.5578739E+02  0.7546771E-02  0.1274859E+00
          2   -1    0    0  502    0  0.00000000000E+00  0.00000000000E+00  0.15815648240E+03  0.15815648240E+03  0.00000000000E+00 0. -1.
          2   -1    0    0  501    0 -0.00000000000E+00 -0.00000000000E+00 -0.35024639133E+03  0.35024639133E+03  0.00000000000E+00 0. -1.
          2    1    1    2  501    0  0.81548383584E+01 -0.55188147964E+02  0.15091225253E+03  0.16089357050E+03  0.00000000000E+00 0. -1.
          2    1    1    2  502    0 -0.81548383584E+01  0.55188147964E+02 -0.34300216146E+03  0.34750930322E+03  0.00000000000E+00 0. -1.
</event>
<event>
 4    1  0.6089441E+003  0.5284981E+02  0.7546771E-02  0.1286268E+00
          2   -1    0    0  501    0  0.00000000000E+00  0.00000000000E+00  0.23701007680E+03  0.23701007680E+03  0.00000000000E+00 0.  1.
          2   -1    0    0  502    0 -0.00000000000E+00 -0.00000000000E+00 -0.63890035307E+02  0.63890035307E+02  0.00000000000E+00 0.  1.
          2    1    1    2  501    0 -0.51716554669E+02  0.10885773682E+02  0.22242787643E+03  0.22862034535E+03  0.00000000000E+00 0.  1.
          2    1    1    2  502    0  0.51716554669E+02 -0.10885773682E+02 -0.49307834939E+02  0.72279766753E+02  0.00000000000E+00 0.  1.
</event>
<event>
 4    1  0.6089441E+003  0.2376209E+02  0.7546771E-02  0.1483144E+00
          2   -1    0    0  502    0  0.00000000000E+00  0.00000000000E+00  0.22125504087E+02  0.22125504087E+02  0.00000000000E+00 0.  1.
          2   -1    0    0  501    0 -0.00000000000E+00 -0.00000000000E+00 -0.52105328163E+03  0.52105328163E+03  0.00000000000E+00 0.  1.
          2    1    1    2  501    0 -0.18910934505E+02  0.14387962434E+02  0.15391167718E+02  0.28311215986E+02  0.00000000000E+00 0.  1.
          2    1    1    2  502    0  0.18910934505E+02 -0.14387962434E+02 -0.51431894526E+03  0.51486756973E+03  0.00000000000E+00 0.  1.
</event>
<event>
 4    1  0.6089441E+003  0.4551772E+02  0.7546771E-02  0.1318871E+00
          2   -1    0    0  501    0  0.00000000000E+00  0.00000000000E+00  0.14822419158E+03  0.14822419158E+03  0.00000000000E+00 0. -1.
          2   -1    0    0  502    0 -0.00000000000E+00 -0.00000000000E+00 -0.19924329407E+03  0.19924329407E+03  0.00000000000E+00 0. -1.
          2    1    1    2  501    0  0.12262126885E+02  0.43834948643E+02 -0.19303835027E+03  0.19833221411E+03  0.00000000000E+00 0. -1.
          2    1    1    2  502    0 -0.12262126885E+02 -0.43834948643E+02  0.14201924778E+03  0.14913527154E+03  0.00000000000E+00 0. -1.
</event>
<event>
 4    1  0.6089441E+003  0.3370441E+02  0.7546771E-02  0.1389908E+00
          2   -1    0    0  501    0  0.00000000000E+00  0.00000000000E+00  0.64997106055E+03  0.64997106055E+03  0.00000000000E+00 0.  1.
          2   -1    0    0  502    0 -0.00000000000E+00 -0.00000000000E+00 -0.19092798030E+02  0.19092798030E+02  0.00000000000E+00 0. -1.
          2    1    1    2  501    0 -0.23203323032E+02  0.24445713790E+02 -0.34138892628E+01  0.33876861755E+02  0.00000000000E+00 0. -1.
          2    1    1    2  502    0  0.23203323032E+02 -0.24445713790E+02  0.63429215179E+03  0.63518699683E+03  0.00000000000E+00 0.  1.
</event>
<event>
 4    1  0.6089441E+003  0.3094924E+02  0.7546771E-02  0.1411523E+00
          2   -1    0    0  502    0  0.00000000000E+00  0.00000000000E+00  0.15939690498E+03  0.15939690498E+03  0.00000000000E+00 0. -1.
          2   -1    0    0  501    0 -0.00000000000E+00 -0.00000000000E+00 -0.26186675170E+02  0.26186675170E+02  0.00000000000E+00 0. -1.
          2    1    1    2  501    0  0.21339066190E+02 -0.22416510430E+02  0.14805720937E+03  0.15125737315E+03  0.00000000000E+00 0. -1.
          2    1    1    2  502    0 -0.21339066190E+02  0.22416510430E+02 -0.14846979553E+02  0.34326207008E+02  0.00000000000E+00 0. -1.
</event>
<event>
 4    1  0.6089441E+003  0.2639831E+02  0.7546771E-02  0.1453748E+00
          2   -1    0    0  502    0  0.00000000000E+00  0.00000000000E+00  0.22535380994E+03  0.22535380994E+03  0.00000000000E+00 0.  1.
          2   -1    0    0  501    0 -0.00000000000E+00 -0.00000000000E+00 -0.13621457870E+04  0.13621457870E+04  0.00000000000E+00 0.  1.
          2    1    1    2  501    0 -0.23507615721E+02  0.12010938137E+02  0.22445231355E+03  0.22599936214E+03  0.00000000000E+00 0.  1.
          2    1    1    2  502    0  0.23507615721E+02 -0.12010938137E+02 -0.13612442906E+04  0.13615002348E+04  0.00000000000E+00 0.  1.
</event>
<event>
 4    1  0.6089441E+003  0.2425369E+02  0.7546771E-02  0.1477328E+00
          2   -1    0    0  501    0  0.00000000000E+00  0.00000000000E+00  0.39599224064E+01  0.39599224064E+01  0.00000000000E+00 0. -1.
          2   -1    0    0  502    0 -0.00000000000E+00 -0.00000000000E+00 -0.15878839652E+03  0.15878839652E+03  0.00000000000E+00 0.  1.
          2    1    1    2  501    0 -0.16441743628E+02  0.17830050414E+02 -0.98078458130E+02  0.10103279458E+03  0.00000000000E+00 0. -1.
          2    1    1    2  502    0  0.16441743628E+02 -0.17830050414E+02 -0.56750015980E+02  0.61715524343E+02  0.00000000000E+00 0.  1.
</event>
<event>
 4    1  0.6089441E+003  0.2456748E+02  0.7546771E-02  0.1473700E+00
          2   -1    0    0  502    0  0.00000000000E+00  0.00000000000E+00  0.12578443429E+04  0.12578443429E+04  0.00000000000E+00 0.  1.
          2   -1    0    0  501    0 -0.00000000000E+00 -0.00000000000E+00 -0.52324960779E+00  0.52324960779E+00  0.00000000000E+00 0.  1.
          2    1    1    2  501    0  0.47493197347E+01 -0.24104047207E+02  0.80988948098E+03  0.81026201474E+03  0.00000000000E+00 0.  1.
          2    1    1    2  502    0 -0.47493197347E+01  0.24104047207E+02  0.44743161236E+03  0.44810557781E+03  0.00000000000E+00 0.  1.
</event>
<event>
 4    1  0.6089441E+003  0.3818980E+02  0.7546771E-02  0.1359433E+00
          2   -1    0    0  502    0  0.00000000000E+00  0.00000000000E+00  0.40460595607E+03  0.40460595607E+03  0.00000000000E+00 0. -1.
          2   -1    0    0  501    0 -0.00000000000E+00 -0.00000000000E+00 -0.13743199886E+03  0.13743199886E+03  0.00000000000E+00 0.  1.
          2    1    1    2  501    0 -0.23410720110E+02 -0.30172822334E+02  0.40102811903E+03  0.40284241742E+03  0.00000000000E+00 0. -1.
          2    1    1    2  502    0  0.23410720110E+02  0.30172822334E+02 -0.13385416182E+03  0.13919553750E+03  0.00000000000E+00 0.  1.
</event>
<event>
 4    1  0.6089441E+003  0.2253383E+02  0.7546771E-02  0.1498436E+00
          2   -1    0    0  501    0  0.00000000000E+00  0.00000000000E+00  0.18008820002E+01  0.18008820002E+01  0.00000000000E+00 0. -1.
          2   -1    0    0  502    0 -0.00000000000E+00 -0.00000000000E+00 -0.15243702430E+04  0.15243702430E+04  0.00000000000E+00 0.  1.
          2    1    1    2  501    0 -0.22348691819E+02 -0.28826473832E+01 -0.14501920159E+04  0.14503670765E+04  0.00000000000E+00 0.  1.
          2    1    1    2  502    0  0.22348691819E+02  0.28826473832E+01 -0.72377345116E+02  0.75804048494E+02  0.00000000000E+00 0. -1.
</event>
<event>
 4    1  0.6089441E+003  0.3175757E+02  0.7546771E-02  0.1404914E+00
          2   -1    0    0  502    0  0.00000000000E+00  0.00000000000E+00  0.64606618646E+02  0.64606618646E+02  0.00000000000E+00 0. -1.
          2   -1    0    0  501    0 -0.00000000000E+00 -0.00000000000E+00 -0.17465303822E+02  0.17465303822E+02  0.00000000000E+00 0.  1.
          2    1    1    2  501    0  0.12766359958E+02 -0.29078568047E+02  0.36943474658E+02  0.48717177525E+02  0.00000000000E+00 0. -1.
          2    1    1    2  502    0 -0.12766359958E+02  0.29078568047E+02  0.10197840166E+02  0.33354744944E+02  0.00000000000E+00 0.  1.
</event>
<event>
 4    1  0.6089441E+003  0.6806809E+02  0.7546771E-02  0.1234637E+00
          2   -1    0    0  502    0  0.00000000000E+00  0.00000000000E+00  0.15918431368E+01  0.15918431368E+01  0.00000000000E+00 0. -1.
          2   -1    0    0  501    0 -0.00000000000E+00 -0.00000000000E+00 -0.29127569187E+04  0.29127569187E+04  0.00000000000E+00 0.  1.
          2    1    1    2  501    0  0.46716815092E+02 -0.49505598350E+02 -0.14161986316E+04  0.14178334984E+04  0.00000000000E+00 0. -1.
          2    1    1    2  502    0 -0.46716815092E+02  0.49505598350E+02 -0.14949664440E+04  0.14965152635E+04  0.00000000000E+00 0.  1.
</event>
<event>
 4    1  0.6089441E+003  0.7366514E+02  0.7546771E-02  0.1219371E+00
          2   -1    0    0  501    0  0.00000000000E+00  0.00000000000E+00  0.21225615791E+02  0.21225615791E+02  0.00000000000E+00 0. -1.
          2   -1    0    0  502    0 -0.00000000000E+00 -0.00000000000E+00 -0.32889431757E+03  0.32889431757E+03  0.00000000000E+00 0. -1.
          2    1    1    2  501    0 -0.37959105147E+02 -0.63132078358E+02 -0.23644086443E+03  0.24765063164E+03  0.00000000000E+00 0. -1.
          2    1    1    2  502    0  0.37959105147E+02  0.63132078358E+02 -0.71227837353E+02  0.10246930172E+03  0.00000000000E+00 0. -1.
</event>
<event>
 4    1  0.6089441E+003  0.2382367E+02  0.7546771E-02  0.1482406E+00
          2   -1    0    0  501    0  0.00000000000E+00  0.00000000000E+00  0.75924292384E+03  0.75924292384E+03  0.00000000000E+00 0. -1.
          2   -1    0    0  502    0 -0.00000000000E+00 -0.00000000000E+00 -0.10901759065E+03  0.10901759065E+03  0.00000000000E+00 0.  1.
          2    1    1    2  501    0  0.23630252916E+02  0.30295819669E+01 -0.10752659474E+03  0.11013417179E+03  0.00000000000E+00 0.  1.
          2    1    1    2  502    0 -0.23630252916E+02 -0.30295819669E+01  0.75775192793E+03  0.75812634270E+03  0.00000000000E+00 0. -1.
</event>
<event>
 4    1  0.6089441E+003  0.2192325E+02  0.7546771E-02  0.1506480E+00
          2   -1    0    0  501    0  0.00000000000E+00  0.00000000000E+00  0.60078512140E+01  0.60078512140E+01  0.00000000000E+00 0.  1.
          2   -1    0    0  502    0 -0.00000000000E+00 -0.00000000000E+00 -0.59620928235E+03  0.59620928235E+03  0.00000000000E+00 0. -1.
          2    1    1    2  501    0  0.11094130722E+02 -0.18908975497E+02 -0.57528036034E+03  0.57569794345E+03  0.00000000000E+00 0. -1.
          2    1    1    2  502    0 -0.11094130722E+02  0.18908975497E+02 -0.14921070788E+02  0.26519190114E+02  0.00000000000E+00 0.  1.
</event>
<event>
 4    1  0.6089441E+003  0.2070093E+02  0.7546771E-02  0.1523578E+00
          2   -1    0    0  502    0  0.00000000000E+00  0.00000000000E+00  0.37552274662E+03  0.37552274662E+03  0.00000000000E+00 0.  1.
          2   -1    0    0  501    0 -0.00000000000E+00 -0.00000000000E+00 -0.10454384403E+03  0.10454384403E+03  0.00000000000E+00 0.  1.
          2    1    1    2  501    0  0.20550940637E+02  0.24874283345E+01  0.37420910631E+03  0.37478124780E+03  0.00000000000E+00 0.  1.
          2    1    1    2  502    0 -0.20550940637E+02 -0.24874283345E+01 -0.10323020372E+03  0.10528534286E+03  0.00000000000E+00 0.  1.
</event>
<event>
 4    1  0.6089441E+003  0.2273003E+02  0.7546771E-02  0.1495916E+00
          2   -1    0    0  502    0  0.00000000000E+00  0.00000000000E+00  0.14637066485E+02  0.14637066485E+02  0.00000000000E+00 0.  1.
          2   -1    0    0  501    0 -0.00000000000E+00 -0.00000000000E+00 -0.71446053291E+03  0.71446053291E+03  0.00000000000E+00 0. -1.
          2    1    1    2  501    0  0.19607205132E+02  0.11498333019E+02  0.55178074568E+01  0.23390176451E+02  0.00000000000E+00 0.  1.
          2    1    1    2  502    0 -0.19607205132E+02 -0.11498333019E+02 -0.70534127388E+03  0.70570742294E+03  0.00000000000E+00 0. -1.
</event>
<event>
 4    1  0.6089441E+003  0.2715055E+02  0.7546771E-02  0.1446102E+00
          2   -1    0    0  502    0  0.00000000000E+00  0.00000000000E+00  0.90716503817E+01  0.90716503817E+01  0.00000000000E+00 0.  1.
          2   -1    0    0  501    0 -0.00000000000E+00 -0.00000000000E+00 -0.74521326985E+03  0.74521326985E+03  0.00000000000E+00 0.  1.
          2    1    1    2  501    0  0.94317019406E+01  0.25459678758E+02 -0.12083710433E+02  0.29718147684E+02  0.00000000000E+00 0.  1.
          2    1    1    2  502    0 -0.94317019406E+01 -0.25459678758E+02 -0.72405790904E+03  0.72456677255E+03  0.00000000000E+00 0.  1.
</event>
<event>
 4    1  0.6089441E+003  0.3240528E+02  0.7546771E-02  0.1399784E+00
          2   -1    0    0  501    0  0.00000000000E+00  0.00000000000E+00  0.36643426060E+03  0.36643426060E+03  0.00000000000E+00 0. -1.
          2   -1    0    0  502    0 -0.00000000000E+00 -0.00000000000E+00 -0.55070617841E+01  0.55070617841E+01  0.00000000000E+00 0. -1.
          2    1    1    2  501    0 -0.45287779091E+01  0.32087258890E+02  0.51669531950E+02  0.60990511920E+02  0.00000000000E+00 0. -1.
          2    1    1    2  502    0  0.45287779091E+01 -0.32087258890E+02  0.30925766687E+03  0.31095081046E+03  0.00000000000E+00 0. -1.
</event>
<event>
 4    1  0.6089441E+003  0.2813765E+02  0.7546771E-02  0.1436503E+00
          2   -1    0    0  502    0  0.00000000000E+00  0.00000000000E+00  0.96835288844E+03  0.96835288844E+03  0.00000000000E+00 0. -1.
          2   -1    0    0  501    0 -0.00000000000E+00 -0.00000000000E+00 -0.48172412189E+01  0.48172412189E+01  0.00000000000E+00 0. -1.
          2    1    1    2  501    0 -0.27356823772E+02 -0.65826651473E+01  0.92514158195E+03  0.92556937825E+03  0.00000000000E+00 0. -1.
          2    1    1    2  502    0  0.27356823772E+02  0.65826651473E+01  0.38394065268E+02  0.47600751413E+02  0.00000000000E+00 0. -1.
</event>
<event>
 4    1  0.6089441E+003  0.2709632E+02  0.7546771E-02  0.1446643E+00
          2   -1    0    0  501    0  0.00000000000E+00  0.00000000000E+00  0.84779943637E+03  0.84779943637E+03  0.00000000000E+00 0.  1.
          2   -1    0    0  502    0 -0.00000000000E+00 -0.00000000000E+00 -0.70400012433E+02  0.70400012433E+02  0.00000000000E+00 0.  1.
          2    1    1    2  501    0  0.19257962283E+02  0.19061510976E+02 -0.67567489281E+02  0.72798186239E+02  0.00000000000E+00 0.  1.
          2    1    1    2  502    0 -0.19257962283E+02 -0.19061510976E+02  0.84496691322E+03  0.84540126256E+03  0.00000000000E+00 0.  1.
</event>
<event>
 4    1  0.6089441E+003  0.3378917E+02  0.7546771E-02  0.1389281E+00
          2   -1    0    0  502    0  0.00000000000E+00  0.00000000000E+00  0.12189803303E+01  0.12189803303E+01  0.00000000000E+00 0.  1.
          2   -1    0    0  501    0 -0.00000000000E+00 -0.00000000000E+00 -0.10200051583E+04  0.10200051583E+04  0.00000000000E+00 0. -1.
          2    1    1    2  501    0  0.32140299198E+02  0.10426361366E+02 -0.36338963251E+03  0.36495716579E+03  0.00000000000E+00 0. -1.
          2    1    1    2  502    0 -0.32140299198E+02 -0.10426361366E+02 -0.65539654549E+03  0.65626697287E+03  0.00000000000E+00 0.  1.
</event>
<event>
 4    1  0.6089441E+003  0.3654196E+02  0.7546771E-02  0.1370035E+00
          2   -1    0    0  501    0  0.00000000000E+00  0.00000000000E+00  0.55552789201E+01  0.55552789201E+01  0.00000000000E+00 0.  1.
          2   -1    0    0  502    0 -0.00000000000E+00 -0.00000000000E+00 -0.82627462112E+03  0.82627462112E+03  0.00000000000E+00 0.  1.
          2    1    1    2  501    0 -0.35220075128E+02 -0.97396826801E+01 -0.76059203229E+03  0.76146933930E+03  0.00000000000E+00 0.  1.
          2    1    1    2  502    0  0.35220075128E+02  0.97396826801E+01 -0.60127309914E+02  0.70360560744E+02  0.00000000000E+00 0.  1.
</event>
<event>
 4    1  0.6089441E+003  0.2078429E+02  0.7546771E-02  0.1522367E+00
          2   -1    0    0  502    0  0.00000000000E+00  0.00000000000E+00  0.48838457873E+02  0.48838457873E+02  0.00000000000E+00 0.  1.
          2   -1    0    0  501    0 -0.00000000000E+00 -0.00000000000E+00 -0.24961528683E+02  0.24961528683E+02  0.00000000000E+00 0. -1.
          2    1    1    2  501    0  0.20495136455E+02  0.34548564000E+01  0.41588386656E+02  0.46492801117E+02  0.00000000000E+00 0.  1.
          2    1    1    2  502    0 -0.20495136455E+02 -0.34548564000E+01 -0.17711457466E+02  0.27307185439E+02  0.00000000000E+00 0. -1.
</event>
<event>
 4    1  0.6089441E+003  0.4726927E+02  0.7546771E-02  0.1310467E+00
          2   -1    0    0  502    0  0.00000000000E+00  0.00000000000E+00  0.66180015377E+02  0.66180015377E+02  0.00000000000E+00 0.  1.
          2   -1    0    0  501    0 -0.00000000000E+00 -0.00000000000E+00 -0.62685781568E+03  0.62685781568E+03  0.00000000000E+00 0.  1.
          2    1    1    2  501    0  0.46106541285E+02  0.10419742736E+02  0.56719204100E+02  0.73833950875E+02  0.00000000000E+00 0.  1.
          2    1    1    2  502    0 -0.46106541285E+02 -0.10419742736E+02 -0.61739700441E+03  0.61920388019E+03  0.00000000000E+00 0.  1.
</event>
<event>
 4    1  0.6089441E+003  0.2199603E+02  0.7546771E-02  0.1505505E+00
          2   -1    0    0  501    0  0.00000000000E+00  0.00000000000E+00  0.71471130542E+02  0.71471130542E+02  0.00000000000E+00 0.  1.
          2   -1    0    0  502    0 -0.00000000000E+00 -0.00000000000E+00 -0.44335572944E+03  0.44335572944E+03  0.00000000000E+00 0. -1.
          2    1    1    2  501    0  0.21586881391E+02 -0.42227695139E+01 -0.44138297011E+03  0.44193070897E+03  0.00000000000E+00 0. -1.
          2    1    1    2  502    0 -0.21586881391E+02  0.42227695139E+01  0.69498371213E+02  0.72896151008E+02  0.00000000000E+00 0.  1.
</event>
<event>
 4    1  0.6089441E+003  0.2261408E+02  0.7546771E-02  0.1497402E+00
          2   -1    0    0  502    0  0.00000000000E+00  0.00000000000E+00  0.83844474035E+02  0.83844474035E+02  0.00000000000E+00 0. -1.
          2   -1    0    0  501    0 -0.00000000000E+00 -0.00000000000E+00 -0.20062316506E+03  0.20062316506E+03  0.00000000000E+00 0.  1.
          2    1    1    2  501    0 -0.10883782214E+02  0.19822711872E+02  0.81665689186E+02  0.84738901406E+02  0.00000000000E+00 0. -1.
          2    1    1    2  502    0  0.10883782214E+02 -0.19822711872E+02 -0.19844438021E+03  0.19972873768E+03  0.00000000000E+00 0.  1.
</event>
<event>
 4    1  0.9010558E+003  0.2124233E+02  0.7546771E-02  0.1515833E+00
          2   -1    0    0  502    0  0.00000000000E+00  0.00000000000E+00  0.82102518280E+03  0.82102518280E+03  0.00000000000E+00 0.  1.
          2   -1    0    0  501    0 -0.00000000000E+00 -0.00000000000E+00 -0.87755936878E+03  0.87755936878E+03  0.00000000000E+00 0. -1.
          2    1    1    2  501    0 -0.21120350580E+02  0.22732266101E+01  0.82075919196E+03  0.82103403581E+03  0.00000000000E+00 0.  1.
          2    1    1    2  502    0  0.21120350580E+02 -0.22732266101E+01 -0.87729337794E+03  0.87755051578E+03  0.00000000000E+00 0. -1.
</event>
<event>
 4    1  0.6089441E+003  0.2867766E+02  0.7546771E-02  0.1431446E+00
          2   -1    0    0  502    0  0.00000000000E+00  0.00000000000E+00  0.68189284404E+03  0.68189284404E+03  0.00000000000E+00 0. -1.
          2   -1    0    0  501    0 -0.00000000000E+00 -0.00000000000E+00 -0.15481404283E+03  0.15481404283E+03  0.00000000000E+00 0. -1.
          2    1    1    2  501    0 -0.73677467637E+01  0.27715055173E+02  0.68026008350E+03  0.68086429571E+03  0.00000000000E+00 0. -1.
          2    1    1    2  502    0  0.73677467637E+01 -0.27715055173E+02 -0.15318128229E+03  0.15584259116E+03  0.00000000000E+00 0. -1.
</event>
<event>
 4    1  0.6089441E+003  0.2626525E+02  0.7546771E-02  0.1455132E+00
          2   -1    0    0  502    0  0.00000000000E+00  0.00000000000E+00  0.36618833281E+03  0.36618833281E+03  0.00000000000E+00 0.  1.
          2   -1    0    0  501    0 -0.00000000000E+00 -0.00000000000E+00 -0.88789140626E+02  0.88789140626E+02  0.00000000000E+00 0. -1.
          2    1    1    2  501    0 -0.11010939291E+02  0.23845807286E+02  0.36376199744E+03  0.36470899919E+03  0.00000000000E+00 0.  1.
          2    1    1    2  502    0  0.11010939291E+02 -0.23845807286E+02 -0.86362805261E+02  0.90268474241E+02  0.00000000000E+00 0. -1.
</event>
<event>
 4    1  0.6089441E+003  0.2896667E+02  0.7546771E-02  0.1428794E+00
          2   -1    0    0  501    0  0.00000000000E+00  0.00000000000E+00  0.37841268506E+03  0.37841268506E+03  0.00000000000E+00 0.  1.
          2   -1    0    0  502    0 -0.00000000000E+00 -0.00000000000E+00 -0.28603126587E+01  0.28603126587E+01  0.00000000000E+00 0. -1.
          2    1    1    2  501    0  0.53705774800E+01  0.28464448130E+02  0.97391044030E+02  0.10160749661E+03  0.00000000000E+00 0. -1.
          2    1    1    2  502    0 -0.53705774800E+01 -0.28464448130E+02  0.27816132837E+03  0.27966550111E+03  0.00000000000E+00 0.  1.
</event>
<event>
 4    1  0.6089441E+003  0.2067417E+02  0.7546771E-02  0.1523968E+00
          2   -1    0    0  501    0  0.00000000000E+00  0.00000000000E+00  0.73962707798E+01  0.73962707798E+01  0.00000000000E+00 0. -1.
          2   -1    0    0  502    0 -0.00000000000E+00 -0.00000000000E+00 -0.19572571696E+03  0.19572571696E+03  0.00000000000E+00 0. -1.
          2    1    1    2  501    0  0.18841820884E+02  0.85092237954E+01 -0.17942433700E+03  0.18061149966E+03  0.00000000000E+00 0. -1.
          2    1    1    2  502    0 -0.18841820884E+02 -0.85092237954E+01 -0.89051091811E+01  0.22510488074E+02  0.00000000000E+00 0. -1.
</event>
<event>
 4    1  0.6089441E+003  0.3085308E+02  0.7546771E-02  0.1412325E+00
          2   -1    0    0  501    0  0.00000000000E+00  0.00000000000E+00  0.98824166747E+03  0.98824166747E+03  0.00000000000E+00 0.  1.
          2   -1    0    0  502    0 -0.00000000000E+00 -0.00000000000E+00 -0.15365252835E+01  0.15365252835E+01  0.00000000000E+00 0. -1.
          2    1    1    2  501    0 -0.23027595383E+02  0.20533938310E+02  0.19106251550E+03  0.19353758705E+03  0.00000000000E+00 0. -1.
          2    1    1    2  502    0  0.23027595383E+02 -0.20533938310E+02  0.79564262669E+03  0.79624060571E+03  0.00000000000E+00 0.  1.
</event>
<event>
 4    1  0.6089441E+003  0.2275095E+02  0.7546771E-02  0.1495649E+00
          2   -1    0    0  501    0  0.00000000000E+00  0.00000000000E+00  0.12662836466E+02  0.12662836466E+02  0.00000000000E+00 0.  1.
          2   -1    0    0  502    0 -0.00000000000E+00 -0.00000000000E+00 -0.69109390555E+02  0.69109390555E+02  0.00000000000E+00 0.  1.
          2    1    1    2  501    0 -0.19129234225E+02 -0.12315759455E+02 -0.54356270686E+02  0.58925458809E+02  0.00000000000E+00 0.  1.
          2    1    1    2  502    0  0.19129234225E+02  0.12315759455E+02 -0.20902834037E+01  0.22846768212E+02  0.00000000000E+00 0.  1.
</event>
<event>
 4    1  0.6089441E+003  0.2367285E+02  0.7546771E-02  0.1484218E+00
          2   -1    0    0  501    0  0.00000000000E+00  0.00000000000E+00  0.13799058830E+02  0.13799058830E+02  0.00000000000E+00 0.  1.
          2   -1    0    0  502    0 -0.00000000000E+00 -0.00000000000E+00 -0.13145646103E+04  0.13145646103E+04  0.00000000000E+00 0.  1.
          2    1    1    2  501    0 -0.14335895222E+02 -0.18838412785E+02 -0.13042246146E+04  0.13044394386E+04  0.00000000000E+00 0.  1.
          2    1    1    2  502    0  0.14335895222E+02  0.18838412785E+02  0.34590631271E+01  0.23924230516E+02  0.00000000000E+00 0.  1.
</event>
<event>
 4    1  0.6089441E+003  0.5801317E+02  0.7546771E-02  0.1266737E+00
          2   -1    0    0  502    0  0.00000000000E+00  0.00000000000E+00  0.98648212562E+03  0.98648212562E+03  0.00000000000E+00 0. -1.
          2   -1    0    0  501    0 -0.00000000000E+00 -0.00000000000E+00 -0.11731668540E+02  0.11731668540E+02  0.00000000000E+00 0.  1.
          2    1    1    2  501    0 -0.23640004653E+02  0.52978085392E+02  0.90769124797E+03  0.90954325295E+03  0.00000000000E+00 0. -1.
          2    1    1    2  502    0  0.23640004653E+02 -0.52978085392E+02  0.67059209115E+02  0.88670541212E+02  0.00000000000E+00 0.  1.
</event>
<event>
 4    1  0.6089441E+003  0.2598920E+02  0.7546771E-02  0.1458035E+00
          2   -1    0    0  501    0  0.00000000000E+00  0.00000000000E+00  0.50737508934E+02  0.50737508934E+02  0.00000000000E+00 0. -1.
          2   -1    0    0  502    0 -0.00000000000E+00 -0.00000000000E+00 -0.71265122286E+03  0.71265122286E+03  0.00000000000E+00 0.  1.
          2    1    1    2  501    0 -0.25351592553E+02 -0.57214572802E+01 -0.70906936954E+03  0.70954549476E+03  0.00000000000E+00 0.  1.
          2    1    1    2  502    0  0.25351592553E+02  0.57214572802E+01  0.47155655610E+02  0.53843237035E+02  0.00000000000E+00 0. -1.
</event>
<event>
 4    1  0.6089441E+003  0.2508962E+02  0.7546771E-02  0.1467803E+00
          2   -1    0    0  501    0  0.00000000000E+00  0.00000000000E+00  0.75329664348E+03  0.75329664348E+03  0.00000000000E+00 0. -1.
          2   -1    0    0  502    0 -0.00000000000E+00 -0.00000000000E+00 -0.19493549820E+02  0.19493549820E+02  0.00000000000E+00 0.  1.
          2    1    1    2  501    0  0.25084133524E+02  0.52460153522E+00 -0.11120884519E+02  0.27443815950E+02  0.00000000000E+00 0.  1.
          2    1    1    2  502    0 -0.25084133524E+02 -0.52460153522E+00  0.74492397818E+03  0.74534637735E+03  0.00000000000E+00 0. -1.
</event>
<event>
 4    1  0.6089441E+003  0.2138740E+02  0.7546771E-02  0.1513805E+00
          2   -1    0    0  501    0  0.00000000000E+00  0.00000000000E+00  0.83269294998E+03  0.83269294998E+03  0.00000000000E+00 0. -1.
          2   -1    0    0  502    0 -0.00000000000E+00 -0.00000000000E+00 -0.25362316275E+01  0.25362316275E+01  0.00000000000E+00 0.  1.
          2    1    1    2  501    0  0.15150896700E+02 -0.15095400231E+02  0.45446233597E+02  0.50227292652E+02  0.00000000000E+00 0.  1.
          2    1    1    2  502    0 -0.15150896700E+02  0.15095400231E+02  0.78471048476E+03  0.78500188896E+03  0.00000000000E+00 0. -1.
</event>
<event>
 4    1  0.6089441E+003  0.2541826E+02  0.7546771E-02  0.1464178E+00
          2   -1    0    0  501    0  0.00000000000E+00  0.00000000000E+00  0.13937099796E+02  0.13937099796E+02  0.00000000000E+00 0. -1.
          2   -1    0    0  502    0 -0.00000000000E+00 -0.00000000000E+00 -0.18539501693E+03  0.18539501693E+03  0.00000000000E+00 0. -1.
          2    1    1    2  501    0  0.23013985433E+02  0.10790952794E+02 -0.17203960288E+03  0.17390719694E+03  0.00000000000E+00 0. -1.
          2    1    1    2  502    0 -0.23013985433E+02 -0.10790952794E+02  0.58168574903E+00  0.25424919784E+02  0.00000000000E+00 0. -1.
</event>
<event>
 4    1  0.6089441E+003  0.2478203E+02  0.7546771E-02  0.1471257E+00
          2   -1    0    0  502    0  0.00000000000E+00  0.00000000000E+00  0.25818278784E+02  0.25818278784E+02  0.00000000000E+00 0. -1.
          2   -1    0    0  501    0 -0.00000000000E+00 -0.00000000000E+00 -0.26309747109E+03  0.26309747109E+03  0.00000000000E+00 0.  1.
          2    1    1    2  501    0 -0.24584975405E+02 -0.31190104208E+01  0.19133173738E+02  0.31308586345E+02  0.00000000000E+00 0. -1.
          2    1    1    2  502    0  0.24584975405E+02  0.31190104208E+01 -0.25641236604E+03  0.25760716352E+03  0.00000000000E+00 0.  1.
</event>
<event>
 4    1  0.6089441E+003  0.5765803E+02  0.7546771E-02  0.1268004E+00
          2   -1    0    0  501    0  0.00000000000E+00  0.00000000000E+00  0.12824207821E+02  0.12824207821E+02  0.00000000000E+00 0.  1.
          2   -1    0    0  502    0 -0.00000000000E+00 -0.00000000000E+00 -0.20927990240E+04  0.20927990240E+04  0.00000000000E+00 0.  1.
          2    1    1    2  501    0 -0.36859657486E+02  0.44337508119E+02 -0.20254389298E+04  0.20262594373E+04  0.00000000000E+00 0.  1.
          2    1    1    2  502    0  0.36859657486E+02 -0.44337508119E+02 -0.54535886409E+02  0.79363794532E+02  0.00000000000E+00 0.  1.
</event>
<event>
 4    1  0.6089441E+003  0.3656162E+02  0.7546771E-02  0.1369905E+00
          2   -1    0    0  501    0  0.00000000000E+00  0.00000000000E+00  0.43164893153E+02  0.43164893153E+02  0.00000000000E+00 0. -1.
          2   -1    0    0  502    0 -0.00000000000E+00 -0.00000000000E+00 -0.38984624607E+03  0.38984624607E+03  0.00000000000E+00 0. -1.
          2    1    1    2  501    0  0.17540068506E+02  0.32079556157E+02 -0.38106897314E+03  0.38281890525E+03  0.00000000000E+00 0. -1.
          2    1    1    2  502    0 -0.17540068506E+02 -0.32079556157E+02  0.34387620225E+02  0.50192233972E+02  0.00000000000E+00 0. -1.
</event>
<event>
 4    1  0.6089441E+003  0.2576389E+02  0.7546771E-02  0.1460436E+00
          2   -1    0    0  501    0  0.00000000000E+00  0.00000000000E+00  0.64492988955E+01  0.64492988955E+01  0.00000000000E+00 0. -1.
          2   -1    0    0  502    0 -0.00000000000E+00 -0.00000000000E+00 -0.13171678890E+03  0.13171678890E+03  0.00000000000E+00 0. -1.
          2    1    1    2  501    0  0.32219185633E+01 -0.25561634454E+02 -0.94933864972E+02  0.98367762167E+02  0.00000000000E+00 0. -1.
          2    1    1    2  502    0 -0.32219185633E+01  0.25561634454E+02 -0.30333625031E+02  0.39798325627E+02  0.00000000000E+00 0. -1.
</event>
<event>
 4    1  0.6089441E+003  0.2069974E+02  0.7546771E-02  0.1523595E+00
          2   -1    0    0  502    0  0.00000000000E+00  0.00000000000E+00  0.36581463612E+02  0.36581463612E+02  0.00000000000E+00 0.  1.
          2   -1    0    0  501    0 -0.00000000000E+00 -0.00000000000E+00 -0.33026876235E+03  0.33026876235E+03  0.00000000000E+00 0. -1.
          2    1    1    2  501    0  0.15216975085E+02  0.14032927769E+02  0.33299505891E+02  0.39208882732E+02  0.00000000000E+00 0.  1.
          2    1    1    2  502    0 -0.15216975085E+02 -0.14032927769E+02 -0.32698680463E+03  0.32764134323E+03  0.00000000000E+00 0. -1.
</event>
<event>
 4    1  0.6089441E+003  0.2142340E+02  0.7546771E-02  0.1513305E+00
          2   -1    0    0  502    0  0.00000000000E+00  0.00000000000E+00  0.42362875154E+01  0.42362875154E+01  0.00000000000E+00 0.  1.
          2   -1    0    0  501    0 -0.00000000000E+00 -0.00000000000E+00 -0.36691363164E+03  0.36691363164E+03  0.00000000000E+00 0.  1.
          2    1    1    2  501    0  0.20950407065E+02  0.44768689553E+01 -0.25552441694E+02  0.33345002449E+02  0.00000000000E+00 0.  1.
          2    1    1    2  502    0 -0.20950407065E+02 -0.44768689553E+01 -0.33712490243E+03  0.33780491671E+03  0.00000000000E+00 0.  1.
</event>
<event>
 4    1  0.6089441E+003  0.5231514E+02  0.7546771E-02  0.1288435E+00
          2   -1    0    0  502    0  0.00000000000E+00  0.00000000000E+00  0.22894985898E+04  0.22894985898E+04  0.00000000000E+00 0. -1.
          2   -1    0    0  501    0 -0.00000000000E+00 -0.00000000000E+00 -0.13477756501E+02  0.13477756501E+02  0.00000000000E+00 0. -1.
          2    1    1    2  501    0  0.28473863412E+02 -0.43887499303E+02  0.22372477632E+04  0.22378593404E+04  0.00000000000E+00 0. -1.
          2    1    1    2  502    0 -0.28473863412E+02  0.43887499303E+02  0.38773070112E+02  0.65117005909E+02  0.00000000000E+00 0. -1.
</event>
<event>
 4    1  0.6089441E+003  0.3245476E+02  0.7546771E-02  0.1399398E+00
          2   -1    0    0  502    0  0.00000000000E+00  0.00000000000E+00  0.71673423354E+00  0.71673423354E+00  0.00000000000E+00 0. -1.
          2   -1    0    0  501    0 -0.00000000000E+00 -0.00000000000E+00 -0.16091724750E+04  0.16091724750E+04  0.00000000000E+00 0. -1.
          2    1    1    2  501    0 -0.14350341362E+02 -0.29109773370E+02 -0.56716273771E+03  0.56809055814E+03  0.00000000000E+00 0. -1.
          2    1    1    2  502    0  0.14350341362E+02  0.29109773370E+02 -0.10412930031E+04  0.10417986511E+04  0.00000000000E+00 0. -1.
</event>
<event>
 4    1  0.6089441E+003  0.2693858E+02  0.7546771E-02  0.1448226E+00
          2   -1    0    0  501    0  0.00000000000E+00  0.00000000000E+00  0.42167908522E+02  0.42167908522E+02  0.00000000000E+00 0.  1.
          2   -1    0    0  502    0 -0.00000000000E+00 -0.00000000000E+00 -0.17358285058E+02  0.17358285058E+02  0.00000000000E+00 0.  1.
          2    1    1    2  501    0 -0.20946143605E+02  0.16939488321E+02  0.96489736927E+01  0.28614504885E+02  0.00000000000E+00 0.  1.
          2    1    1    2  502    0  0.20946143605E+02 -0.16939488321E+02  0.15160649771E+02  0.30911688695E+02  0.00000000000E+00 0.  1.
</event>
<event>
 4    1  0.6089441E+003  0.2101644E+02  0.7546771E-02  0.1519030E+00
          2   -1    0    0  501    0  0.00000000000E+00  0.00000000000E+00  0.13319934788E+04  0.13319934788E+04  0.00000000000E+00 0.  1.
          2   -1    0    0  502    0 -0.00000000000E+00 -0.00000000000E+00 -0.47088998080E+01  0.47088998080E+01  0.00000000000E+00 0.  1.
          2    1    1    2  501    0 -0.13532833166E+02  0.16079586837E+02  0.19253338242E+02  0.28502310780E+02  0.00000000000E+00 0.  1.
          2    1    1    2  502    0  0.13532833166E+02 -0.16079586837E+02  0.13080312408E+04  0.13082000679E+04  0.00000000000E+00 0.  1.
</event>
<event>
 4    1  0.6089441E+003  0.3041004E+02  0.7546771E-02  0.1416066E+00
          2   -1    0    0  502    0  0.00000000000E+00  0.00000000000E+00  0.34358927077E+01  0.34358927077E+01  0.00000000000E+00 0. -1.
          2   -1    0    0  501    0 -0.00000000000E+00 -0.00000000000E+00 -0.73975225266E+03  0.73975225266E+03  0.00000000000E+00 0.  1.
          2    1    1    2  501    0  0.30042222407E+02 -0.47154716553E+01 -0.71775655203E+02  0.77952007542E+02  0.00000000000E+00 0. -1.
          2    1    1    2  502    0 -0.30042222407E+02  0.47154716553E+01 -0.66454070475E+03  0.66523613782E+03  0.00000000000E+00 0.  1.
</event>
<event>
 4    1  0.6089441E+003  0.4637980E+02  0.7546771E-02  0.1314681E+00
          2   -1    0    0  501    0  0.00000000000E+00  0.00000000000E+00  0.16618021015E+02  0.16618021015E+02  0.00000000000E+00 0. -1.
          2   -1    0    0  502    0 -0.00000000000E+00 -0.00000000000E+00 -0.37450694086E+03  0.37450694086E+03  0.00000000000E+00 0. -1.
          2    1    1    2  501    0  0.38998542527E+02 -0.25103775746E+02 -0.33714040311E+03  0.34031564361E+03  0.00000000000E+00 0. -1.
          2    1    1    2  502    0 -0.38998542527E+02  0.25103775746E+02 -0.20748516734E+02  0.50809318266E+02  0.00000000000E+00 0. -1.
</event>
<event>
 4    1  0.6089441E+003  0.2928228E+02  0.7546771E-02  0.1425938E+00
          2   -1    0    0  502    0  0.00000000000E+00  0.00000000000E+00  0.10788973133E+02  0.10788973133E+02  0.00000000000E+00 0. -1.
          2   -1    0    0  501    0 -0.00000000000E+00 -0.00000000000E+00 -0.16191482876E+03  0.16191482876E+03  0.00000000000E+00 0. -1.
          2    1    1    2  501    0  0.29273929044E+02  0.69943999017E+00 -0.13946360877E+02  0.32433826781E+02  0.00000000000E+00 0. -1.
          2    1    1    2  502    0 -0.29273929044E+02 -0.69943999017E+00 -0.13717949475E+03  0.14026997512E+03  0.00000000000E+00 0. -1.
</event>
<event>
 4    1  0.6089441E+003  0.3372263E+02  0.7546771E-02  0.1389773E+00
          2   -1    0    0  501    0  0.00000000000E+00  0.00000000000E+00  0.14400217236E+03  0.14400217236E+03  0.00000000000E+00 0. -1.
          2   -1    0    0  502    0 -0.00000000000E+00 -0.00000000000E+00 -0.34155771474E+02  0.34155771474E+02  0.00000000000E+00 0. -1.
          2    1    1    2  501    0 -0.33720803437E+02  0.35088359096E+00 -0.23181755905E+02  0.40921992994E+02  0.00000000000E+00 0. -1.
          2    1    1    2  502    0  0.33720803437E+02 -0.35088359096E+00  0.13302815679E+03  0.13723595084E+03  0.00000000000E+00 0. -1.
</event>
<event>
 4    1  0.6089441E+003  0.2499898E+02  0.7546771E-02  0.1468815E+00
          2   -1    0    0  501    0  0.00000000000E+00  0.00000000000E+00  0.51287656732E+03  0.51287656732E+03  0.00000000000E+00 0. -1.
          2   -1    0    0  502    0 -0.00000000000E+00 -0.00000000000E+00 -0.22022231566E+02  0.22022231566E+02  0.00000000000E+00 0. -1.
          2    1    1    2  501    0 -0.18724123810E+02  0.16563696915E+02 -0.14517795286E+02  0.28908739992E+02  0.00000000000E+00 0. -1.
          2    1    1    2  502    0  0.18724123810E+02 -0.16563696915E+02  0.50537213104E+03  0.50599005890E+03  0.00000000000E+00 0. -1.
</event>
<event>
 4    1  0.6089441E+003  0.3395213E+02  0.7546771E-02  0.1388083E+00
          2   -1    0    0  501    0  0.00000000000E+00  0.00000000000E+00  0.72707250725E+03  0.72707250725E+03  0.00000000000E+00 0. -1.
          2   -1    0    0  502    0 -0.00000000000E+00 -0.00000000000E+00 -0.30701349956E+02  0.30701349956E+02  0.00000000000E+00 0. -1.
          2    1    1    2  501    0  0.21473386716E+00  0.33951448511E+02 -0.20788532026E+02  0.39810928530E+02  0.00000000000E+00 0. -1.
          2    1    1    2  502    0 -0.21473386716E+00 -0.33951448511E+02  0.71715968932E+03  0.71796292868E+03  0.00000000000E+00 0. -1.
</event>
<event>
 4    1  0.6089441E+003  0.2064848E+02  0.7546771E-02  0.1524343E+00
          2   -1    0    0  502    0  0.00000000000E+00  0.00000000000E+00  0.15209375976E+03  0.15209375976E+03  0.00000000000E+00 0.  1.
          2   -1    0    0  501    0 -0.00000000000E+00 -0.00000000000E+00 -0.31507003493E+03  0.31507003493E+03  0.00000000000E+00 0. -1.
          2    1    1    2  501    0 -0.20379576898E+02  0.33215385055E+01  0.15105231519E+03  0.15245708149E+03  0.00000000000E+00 0.  1.
          2    1    1    2  502    0  0.20379576898E+02 -0.33215385055E+01 -0.31402859036E+03  0.31470671320E+03  0.00000000000E+00 0. -1.
</event>
<event>
 4    1  0.6089441E+003  0.6767312E+02  0.7546771E-02  0.1235777E+00
          2   -1    0    0  501    0  0.00000000000E+00  0.00000000000E+00  0.58316322259E+03  0.58316322259E+03  0.00000000000E+00 0.  1.
          2   -1    0    0  502    0 -0.00000000000E+00 -0.00000000000E+00 -0.10359379530E+02  0.10359379530E+02  0.00000000000E+00 0. -1.
          2    1    1    2  501    0  0.22918218689E+02 -0.63674222497E+02  0.14043537702E+03  0.15589017441E+03  0.00000000000E+00 0. -1.
          2    1    1    2  502    0 -0.22918218689E+02  0.63674222497E+02  0.43236846604E+03  0.43763242771E+03  0.00000000000E+00 0.  1.
</event>
<event>
 4    1  0.6089441E+003  0.2040833E+02  0.7546771E-02  0.1527882E+00
          2   -1    0    0  501    0  0.00000000000E+00  0.00000000000E+00  0.25284240820E+00  0.25284240820E+00  0.00000000000E+00 0. -1.
          2   -1    0    0  502    0 -0.00000000000E+00 -0.00000000000E+00 -0.18668673019E+04  0.18668673019E+04  0.00000000000E+00 0.  1.
          2    1    1    2  501    0 -0.18114998660E+02 -0.93992953967E+01 -0.12534901762E+04  0.12536563013E+04  0.00000000000E+00 0.  1.
          2    1    1    2  502    0  0.18114998660E+02  0.93992953967E+01 -0.61312428323E+03  0.61346384296E+03  0.00000000000E+00 0. -1.
</event>
<event>
 4    1  0.6089441E+003  0.3692852E+02  0.7546771E-02  0.1367490E+00
          2   -1    0    0  502    0  0.00000000000E+00  0.00000000000E+00  0.26776946198E+03  0.26776946198E+03  0.00000000000E+00 0.  1.
          2   -1    0    0  501    0 -0.00000000000E+00 -0.00000000000E+00 -0.40089852208E+03  0.40089852208E+03  0.00000000000E+00 0. -1.
          2    1    1    2  501    0  0.36166850357E+02 -0.74615544183E+01  0.26563904396E+03  0.26819361949E+03  0.00000000000E+00 0.  1.
          2    1    1    2  502    0 -0.36166850357E+02  0.74615544183E+01 -0.39876810406E+03  0.40047436457E+03  0.00000000000E+00 0. -1.
</event>
<event>
 4    1  0.6089441E+003  0.2135891E+02  0.7546771E-02  0.1514202E+00
          2   -1    0    0  501    0  0.00000000000E+00  0.00000000000E+00  0.12625343653E+04  0.12625343653E+04  0.00000000000E+00 0.  1.
          2   -1    0    0  502    0 -0.00000000000E+00 -0.00000000000E+00 -0.10706697157E+03  0.10706697157E+03  0.00000000000E+00 0. -1.
          2    1    1    2  501    0 -0.12817388602E+02  0.17085598160E+02 -0.10591043175E+03  0.10804268910E+03  0.00000000000E+00 0. -1.
          2    1    1    2  502    0  0.12817388602E+02 -0.17085598160E+02  0.12613778255E+04  0.12615586478E+04  0.00000000000E+00 0.  1.
</event>
<event>
 4    1  0.6089441E+003  0.2198748E+02  0.7546771E-02  0.1505619E+00
          2   -1    0    0  501    0  0.00000000000E+00  0.00000000000E+00  0.55774133604E+01  0.55774133604E+01  0.00000000000E+00 0.  1.
          2   -1    0    0  502    0 -0.00000000000E+00 -0.00000000000E+00 -0.12298721682E+04  0.12298721682E+04  0.00000000000E+00 0.  1.
          2    1    1    2  501    0 -0.17268843700E+02  0.13610160552E+02 -0.12077062378E+04  0.12079063732E+04  0.00000000000E+00 0.  1.
          2    1    1    2  502    0  0.17268843700E+02 -0.13610160552E+02 -0.16588517041E+02  0.27543208430E+02  0.00000000000E+00 0.  1.
</event>
<event>
 4    1  0.6089441E+003  0.4075117E+02  0.7546771E-02  0.1344139E+00
          2   -1    0    0  502    0  0.00000000000E+00  0.00000000000E+00  0.36923848415E+04  0.36923848415E+04  0.00000000000E+00 0. -1.
          2   -1    0    0  501    0 -0.00000000000E+00 -0.00000000000E+00 -0.45294315218E+00  0.45294315218E+00  0.00000000000E+00 0. -1.
          2    1    1    2  501    0  0.38715700058E+02 -0.12718177837E+02  0.20009481900E+04  0.20013631146E+04  0.00000000000E+00 0. -1.
          2    1    1    2  502    0 -0.38715700058E+02  0.12718177837E+02  0.16909837083E+04  0.16914746700E+04  0.00000000000E+00 0. -1.
</event>
<event>
 4    1  0.6089441E+003  0.2217840E+02  0.7546771E-02  0.1503081E+00
          2   -1    0    0  502    0  0.00000000000E+00  0.00000000000E+00  0.28736058165E+03  0.28736058165E+03  0.00000000000E+00 0. -1.
          2   -1    0    0  501    0 -0.00000000000E+00 -0.00000000000E+00 -0.37020325444E+03  0.37020325444E+03  0.00000000000E+00 0. -1.
          2    1    1    2  501    0 -0.22123381471E+02 -0.15612136340E+01  0.28659960069E+03  0.28745645325E+03  0.00000000000E+00 0. -1.
          2    1    1    2  502    0  0.22123381471E+02  0.15612136340E+01 -0.36944227348E+03  0.37010738284E+03  0.00000000000E+00 0. -1.
</event>
<event>
 4    1  0.6089441E+003  0.3047388E+02  0.7546771E-02  0.1415522E+00
          2   -1    0    0  501    0  0.00000000000E+00  0.00000000000E+00  0.29087557302E+01  0.29087557302E+01  0.00000000000E+00 0. -1.
          2   -1    0    0  502    0 -0.00000000000E+00 -0.00000000000E+00 -0.11346658950E+04  0.11346658950E+04  0.00000000000E+00 0.  1.
          2    1    1    2  501    0  0.30252290583E+02 -0.36683073388E+01 -0.10480506743E+04  0.10484936211E+04  0.00000000000E+00 0.  1.
          2    1    1    2  502    0 -0.30252290583E+02  0.36683073388E+01 -0.83706464977E+02  0.89081029648E+02  0.00000000000E+00 0. -1.
</event>
<event>
 4    1  0.6089441E+003  0.2049558E+02  0.7546771E-02  0.1526590E+00
          2   -1    0    0  501    0  0.00000000000E+00  0.00000000000E+00  0.19380722393E+03  0.19380722393E+03  0.00000000000E+00 0. -1.
          2   -1    0    0  502    0 -0.00000000000E+00 -0.00000000000E+00 -0.23415398087E+01  0.23415398087E+01  0.00000000000E+00 0. -1.
          2    1    1    2  501    0  0.19507521726E+02 -0.62869299864E+01  0.68991554804E+02  0.71971546647E+02  0.00000000000E+00 0. -1.
          2    1    1    2  502    0 -0.19507521726E+02  0.62869299864E+01  0.12247412932E+03  0.12417721710E+03  0.00000000000E+00 0. -1.
</event>
<event>
 4    1  0.6089441E+003  0.2970366E+02  0.7546771E-02  0.1422189E+00
          2   -1    0    0  502    0  0.00000000000E+00  0.00000000000E+00  0.10713151054E+03  0.10713151054E+03  0.00000000000E+00 0.  1.
          2   -1    0    0  501    0 -0.00000000000E+00 -0.00000000000E+00 -0.31647437364E+02  0.31647437364E+02  0.00000000000E+00 0.  1.
          2    1    1    2  501    0  0.28517324100E+02 -0.83108202872E+01  0.97423676833E+02  0.10185126565E+03  0.00000000000E+00 0.  1.
          2    1    1    2  502    0 -0.28517324100E+02  0.83108202872E+01 -0.21939603657E+02  0.36927682249E+02  0.00000000000E+00 0.  1.
</event>
<event>
 4    1  0.6089441E+003  0.3529916E+02  0.7546771E-02  0.1378472E+00
          2   -1    0    0  502    0  0.00000000000E+00  0.00000000000E+00  0.10753048861E+03  0.10753048861E+03  0.00000000000E+00 0.  1.
          2   -1    0    0  501    0 -0.00000000000E+00 -0.00000000000E+00 -0.20642193608E+02  0.20642193608E+02  0.00000000000E+00 0. -1.
          2    1    1    2  501    0  0.11536169429E+02  0.33360867374E+02  0.85888481006E+02  0.92859365960E+02  0.00000000000E+00 0.  1.
          2    1    1    2  502    0 -0.11536169429E+02 -0.33360867374E+02  0.99981399671E+00  0.35313316257E+02  0.00000000000E+00 0. -1.
</event>
<event>
 4    1  0.6089441E+003  0.2564553E+02  0.7546771E-02  0.1461710E+00
          2   -1    0    0  501    0  0.00000000000E+00  0.00000000000E+00  0.16529439845E+04  0.16529439845E+04  0.00000000000E+00 0. -1.
          2   -1    0    0  502    0 -0.00000000000E+00 -0.00000000000E+00 -0.61220086530E+00  0.61220086530E+00  0.00000000000E+00 0.  1.
          2    1    1    2  501    0 -0.23308371100E+02  0.10696396385E+02  0.33699327438E+03  0.33796769082E+03  0.00000000000E+00 0.  1.
          2    1    1    2  502    0  0.23308371100E+02 -0.10696396385E+02  0.13153385093E+04  0.13155884946E+04  0.00000000000E+00 0. -1.
</event>
<event>
 4    1  0.6089441E+003  0.2877034E+02  0.7546771E-02  0.1430592E+00
          2   -1    0    0  502    0  0.00000000000E+00  0.00000000000E+00  0.62761423178E+03  0.62761423178E+03  0.00000000000E+00 0.  1.
          2   -1    0    0  501    0 -0.00000000000E+00 -0.00000000000E+00 -0.40837622824E+01  0.40837622824E+01  0.00000000000E+00 0.  1.
          2    1    1    2  501    0  0.27814189358E+02  0.73554922304E+01  0.57165521311E+03  0.57237873395E+03  0.00000000000E+00 0.  1.
          2    1    1    2  502    0 -0.27814189358E+02 -0.73554922304E+01  0.51875256381E+02  0.59319260112E+02  0.00000000000E+00 0.  1.
</event>
<event>
 4    1  0.6089441E+003  0.2633561E+02  0.7546771E-02  0.1454399E+00
          2   -1    0    0  502    0  0.00000000000E+00  0.00000000000E+00  0.23554330440E+04  0.23554330440E+04  0.00000000000E+00 0.  1.
          2   -1    0    0  501    0 -0.00000000000E+00 -0.00000000000E+00 -0.29579484124E+00  0.29579484124E+00  0.00000000000E+00 0. -1.
          2    1    1    2  501    0 -0.14549280774E+02 -0.21951825928E+02  0.10982350546E+04  0.10985507723E+04  0.00000000000E+00 0. -1.
          2    1    1    2  502    0  0.14549280774E+02  0.21951825928E+02  0.12569021946E+04  0.12571780666E+04  0.00000000000E+00 0.  1.
</event>
<event>
 4    1  0.6089441E+003  0.2422512E+02  0.7546771E-02  0.1477662E+00
          2   -1    0    0  502    0  0.00000000000E+00  0.00000000000E+00  0.96476916934E+03  0.96476916934E+03  0.00000000000E+00 0. -1.
          2   -1    0    0  501    0 -0.00000000000E+00 -0.00000000000E+00 -0.70226294842E+00  0.70226294842E+00  0.00000000000E+00 0. -1.
          2    1    1    2  501    0  0.18828047971E+02 -0.15243386382E+02  0.65862450414E+03  0.65906987010E+03  0.00000000000E+00 0. -1.
          2    1    1    2  502    0 -0.18828047971E+02  0.15243386382E+02  0.30544240225E+03  0.30640156219E+03  0.00000000000E+00 0. -1.
</event>
<event>
 4    1  0.6089441E+003  0.2111304E+02  0.7546771E-02  0.1517657E+00
          2   -1    0    0  502    0  0.00000000000E+00  0.00000000000E+00  0.15009827797E+03  0.15009827797E+03  0.00000000000E+00 0. -1.
          2   -1    0    0  501    0 -0.00000000000E+00 -0.00000000000E+00 -0.32524183022E+02  0.32524183022E+02  0.00000000000E+00 0.  1.
          2    1    1    2  501    0 -0.39045386518E+01 -0.20748852945E+02  0.14582968082E+03  0.14735011411E+03  0.00000000000E+00 0. -1.
          2    1    1    2  502    0  0.39045386518E+01  0.20748852945E+02 -0.28255585879E+02  0.35272346874E+02  0.00000000000E+00 0.  1.
</event>
<event>
 4    1  0.6089441E+003  0.3345825E+02  0.7546771E-02  0.1391739E+00
          2   -1    0    0  502    0  0.00000000000E+00  0.00000000000E+00  0.10520032289E+02  0.10520032289E+02  0.00000000000E+00 0.  1.
          2   -1    0    0  501    0 -0.00000000000E+00 -0.00000000000E+00 -0.93906167827E+03  0.93906167827E+03  0.00000000000E+00 0. -1.
          2    1    1    2  501    0  0.11749512493E+02  0.31327354815E+02 -0.17189495277E+02  0.37615594524E+02  0.00000000000E+00 0.  1.
          2    1    1    2  502    0 -0.11749512493E+02 -0.31327354815E+02 -0.91135215070E+03  0.91196611604E+03  0.00000000000E+00 0. -1.
</event>
<event>
 4    1  0.6089441E+003  0.3896978E+02  0.7546771E-02  0.1354631E+00
          2   -1    0    0  501    0  0.00000000000E+00  0.00000000000E+00  0.22587094418E+02  0.22587094418E+02  0.00000000000E+00 0.  1.
          2   -1    0    0  502    0 -0.00000000000E+00 -0.00000000000E+00 -0.23322182687E+04  0.23322182687E+04  0.00000000000E+00 0.  1.
          2    1    1    2  501    0  0.27456050882E+02 -0.27655174941E+02 -0.23151226148E+04  0.23154505750E+04  0.00000000000E+00 0.  1.
          2    1    1    2  502    0 -0.27456050882E+02  0.27655174941E+02  0.54914405471E+01  0.39354788150E+02  0.00000000000E+00 0.  1.
</event>
<event>
 4    1  0.6089441E+003  0.2195400E+02  0.7546771E-02  0.1506068E+00
          2   -1    0    0  502    0  0.00000000000E+00  0.00000000000E+00  0.26263217019E+02  0.26263217019E+02  0.00000000000E+00 0.  1.
          2   -1    0    0  501    0 -0.00000000000E+00 -0.00000000000E+00 -0.35231458083E+02  0.35231458083E+02  0.00000000000E+00 0. -1.
          2    1    1    2  501    0  0.18900035414E+02 -0.11169903114E+02  0.16798429030E+02  0.27643539790E+02  0.00000000000E+00 0.  1.
          2    1    1    2  502    0 -0.18900035414E+02  0.11169903114E+02 -0.25766670094E+02  0.33851135313E+02  0.00000000000E+00 0. -1.
</event>
<event>
 4    1  0.6089441E+003  0.2077696E+02  0.7546771E-02  0.1522473E+00
          2   -1    0    0  502    0  0.00000000000E+00  0.00000000000E+00  0.34608089440E+01  0.34608089440E+01  0.00000000000E+00 0.  1.
          2   -1    0    0  501    0 -0.00000000000E+00 -0.00000000000E+00 -0.88969044813E+03  0.88969044813E+03  0.00000000000E+00 0.  1.
          2    1    1    2  501    0 -0.18249429296E+02 -0.99317781389E+01 -0.29025719513E+02  0.35695577875E+02  0.00000000000E+00 0.  1.
          2    1    1    2  502    0  0.18249429296E+02  0.99317781389E+01 -0.85720391967E+03  0.85745567920E+03  0.00000000000E+00 0.  1.
</event>
<event>
 4    1  0.6089441E+003  0.2137269E+02  0.7546771E-02  0.1514010E+00
          2   -1    0    0  502    0  0.00000000000E+00  0.00000000000E+00  0.85122424287E+02  0.85122424287E+02  0.00000000000E+00 0.  1.
          2   -1    0    0  501    0 -0.00000000000E+00 -0.00000000000E+00 -0.18340125293E+02  0.18340125293E+02  0.00000000000E+00 0. -1.
          2    1    1    2  501    0 -0.20404903790E+02 -0.63585832264E+01  0.76900861514E+02  0.79815626170E+02  0.00000000000E+00 0.  1.
          2    1    1    2  502    0  0.20404903790E+02  0.63585832264E+01 -0.10118562520E+02  0.23646923410E+02  0.00000000000E+00 0. -1.
</event>
<event>
 4    1  0.6089441E+003  0.2326893E+02  0.7546771E-02  0.1489149E+00
          2   -1    0    0  502    0  0.00000000000E+00  0.00000000000E+00  0.48648807838E+02  0.48648807838E+02  0.00000000000E+00 0.  1.
          2   -1    0    0  501    0 -0.00000000000E+00 -0.00000000000E+00 -0.14129879358E+02  0.14129879358E+02  0.00000000000E+00 0.  1.
          2    1    1    2  501    0 -0.20998638037E+02  0.10024980334E+02  0.31723583099E+02  0.39342454864E+02  0.00000000000E+00 0.  1.
          2    1    1    2  502    0  0.20998638037E+02 -0.10024980334E+02  0.27953453803E+01  0.23436232332E+02  0.00000000000E+00 0.  1.
</event>
<event>
 4    1  0.6089441E+003  0.4732863E+02  0.7546771E-02  0.1310189E+00
          2   -1    0    0  502    0  0.00000000000E+00  0.00000000000E+00  0.69064818943E+03  0.69064818943E+03  0.00000000000E+00 0. -1.
          2   -1    0    0  501    0 -0.00000000000E+00 -0.00000000000E+00 -0.32020802930E+04  0.32020802930E+04  0.00000000000E+00 0. -1.
          2    1    1    2  501    0 -0.40928709763E+02 -0.23766365163E+02  0.68966222116E+03  0.69128429657E+03  0.00000000000E+00 0. -1.
          2    1    1    2  502    0  0.40928709763E+02  0.23766365163E+02 -0.32010943247E+04  0.32014441859E+04  0.00000000000E+00 0. -1.
</event>
<event>
 4    1  0.6089441E+003  0.2586997E+02  0.7546771E-02  0.1459302E+00
          2   -1    0    0  501    0  0.00000000000E+00  0.00000000000E+00  0.14533416675E+04  0.14533416675E+04  0.00000000000E+00 0. -1.
          2   -1    0    0  502    0 -0.00000000000E+00 -0.00000000000E+00 -0.12897599331E+03  0.12897599331E+03  0.00000000000E+00 0.  1.
          2    1    1    2  501    0 -0.10113526492E+02  0.23811177424E+02 -0.12756235843E+03  0.13015917515E+03  0.00000000000E+00 0.  1.
          2    1    1    2  502    0  0.10113526492E+02 -0.23811177424E+02  0.14519280326E+04  0.14521584857E+04  0.00000000000E+00 0. -1.
</event>
<event>
 4    1  0.6089441E+003  0.2045219E+02  0.7546771E-02  0.1527232E+00
          2   -1    0    0  501    0  0.00000000000E+00  0.00000000000E+00  0.13911759045E+04  0.13911759045E+04  0.00000000000E+00 0. -1.
          2   -1    0    0  502    0 -0.00000000000E+00 -0.00000000000E+00 -0.17594215520E+03  0.17594215520E+03  0.00000000000E+00 0. -1.
          2    1    1    2  501    0 -0.11588383027E+01 -0.20419328669E+02 -0.17527234019E+03  0.17646156841E+03  0.00000000000E+00 0. -1.
          2    1    1    2  502    0  0.11588383027E+01  0.20419328669E+02  0.13905060895E+04  0.13906564913E+04  0.00000000000E+00 0. -1.
</event>
<event>
 4    1  0.6089441E+003  0.3281510E+02  0.7546771E-02  0.1396611E+00
          2   -1    0    0  502    0  0.00000000000E+00  0.00000000000E+00  0.10432270631E+02  0.10432270631E+02  0.00000000000E+00 0. -1.
          2   -1    0    0  501    0 -0.00000000000E+00 -0.00000000000E+00 -0.20399593431E+03  0.20399593431E+03  0.00000000000E+00 0.  1.
          2    1    1    2  501    0 -0.10441326468E+02  0.31109634340E+02 -0.17213771499E+03  0.17523762030E+03  0.00000000000E+00 0.  1.
          2    1    1    2  502    0  0.10441326468E+02 -0.31109634340E+02 -0.21425948692E+02  0.39190584642E+02  0.00000000000E+00 0. -1.
</event>
<event>
 4    1  0.6089441E+003  0.3841880E+02  0.7546771E-02  0.1358009E+00
          2   -1    0    0  502    0  0.00000000000E+00  0.00000000000E+00  0.14478470240E+03  0.14478470240E+03  0.00000000000E+00 0. -1.
          2   -1    0    0  501    0 -0.00000000000E+00 -0.00000000000E+00 -0.85214525257E+03  0.85214525257E+03  0.00000000000E+00 0.  1.
          2    1    1    2  501    0 -0.20618478315E+02 -0.32417319279E+02  0.14179408595E+03  0.14690666101E+03  0.00000000000E+00 0. -1.
          2    1    1    2  502    0  0.20618478315E+02  0.32417319279E+02 -0.84915463612E+03  0.85002329396E+03  0.00000000000E+00 0.  1.
</event>
<event>
 4    1  0.6089441E+003  0.2197050E+02  0.7546771E-02  0.1505847E+00
          2   -1    0    0  502    0  0.00000000000E+00  0.00000000000E+00  0.37874575201E+03  0.37874575201E+03  0.00000000000E+00 0. -1.
          2   -1    0    0  501    0 -0.00000000000E+00 -0.00000000000E+00 -0.65129311910E+03  0.65129311910E+03  0.00000000000E+00 0. -1.
          2    1    1    2  501    0  0.20190316868E+02  0.86633727310E+01  0.37824159953E+03  0.37887915031E+03  0.00000000000E+00 0. -1.
          2    1    1    2  502    0 -0.20190316868E+02 -0.86633727310E+01 -0.65078896662E+03  0.65115972080E+03  0.00000000000E+00 0. -1.
</event>
<event>
 4    1  0.6089441E+003  0.2148762E+02  0.7546771E-02  0.1512416E+00
          2   -1    0    0  501    0  0.00000000000E+00  0.00000000000E+00  0.10819923883E+03  0.10819923883E+03  0.00000000000E+00 0. -1.
          2   -1    0    0  502    0 -0.00000000000E+00 -0.00000000000E+00 -0.68150924239E+01  0.68150924239E+01  0.00000000000E+00 0. -1.
          2    1    1    2  501    0  0.21094920728E+02 -0.40892601127E+01  0.15530459003E+02  0.26512504326E+02  0.00000000000E+00 0. -1.
          2    1    1    2  502    0 -0.21094920728E+02  0.40892601127E+01  0.85853687400E+02  0.88501826924E+02  0.00000000000E+00 0. -1.
</event>
<event>
 4    1  0.6089441E+003  0.2010029E+02  0.7546771E-02  0.1532508E+00
          2   -1    0    0  501    0  0.00000000000E+00  0.00000000000E+00  0.63902913994E+03  0.63902913994E+03  0.00000000000E+00 0.  1.
          2   -1    0    0  502    0 -0.00000000000E+00 -0.00000000000E+00 -0.18490054281E+01  0.18490054281E+01  0.00000000000E+00 0. -1.
          2    1    1    2  501    0 -0.18838706243E+02 -0.70089152252E+01  0.58646391357E+02  0.61995330185E+02  0.00000000000E+00 0. -1.
          2    1    1    2  502    0  0.18838706243E+02  0.70089152252E+01  0.57853374315E+03  0.57888281518E+03  0.00000000000E+00 0.  1.
</event>
<event>
 4    1  0.6089441E+003  0.2341963E+02  0.7546771E-02  0.1487295E+00
          2   -1    0    0  502    0  0.00000000000E+00  0.00000000000E+00  0.56586537658E+01  0.56586537658E+01  0.00000000000E+00 0. -1.
          2   -1    0    0  501    0 -0.00000000000E+00 -0.00000000000E+00 -0.99829395262E+02  0.99829395262E+02  0.00000000000E+00 0. -1.
          2    1    1    2  501    0  0.19050813375E+02  0.13621506536E+02 -0.38092714690E+02  0.44716147453E+02  0.00000000000E+00 0. -1.
          2    1    1    2  502    0 -0.19050813375E+02 -0.13621506536E+02 -0.56078026806E+02  0.60771901575E+02  0.00000000000E+00 0. -1.
</event>
<event>
 4    1  0.6089441E+003  0.2836579E+02  0.7546771E-02  0.1434351E+00
          2   -1    0    0  501    0  0.00000000000E+00  0.00000000000E+00  0.86849053538E+00  0.86849053538E+00  0.00000000000E+00 0.  1.
          2   -1    0    0  502    0 -0.00000000000E+00 -0.00000000000E+00 -0.12517570955E+04  0.12517570955E+04  0.00000000000E+00 0.  1.
          2    1    1    2  501    0  0.11282330553E+02  0.26025506137E+02 -0.94472617134E+03  0.94515192259E+03  0.00000000000E+00 0.  1.
          2    1    1    2  502    0 -0.11282330553E+02 -0.26025506137E+02 -0.30616243365E+03  0.30747366347E+03  0.00000000000E+00 0.  1.
</event>
<event>
 4    1  0.6089441E+003  0.3767159E+02  0.7546771E-02  0.1362698E+00
          2   -1    0    0  502    0  0.00000000000E+00  0.00000000000E+00  0.46219286739E+03  0.46219286739E+03  0.00000000000E+00 0. -1.
          2   -1    0    0  501    0 -0.00000000000E+00 -0.00000000000E+00 -0.98478066205E+01  0.98478066205E+01  0.00000000000E+00 0.  1.
          2    1    1    2  501    0 -0.31908177037E+02  0.20025411691E+02  0.42197097181E+03  0.42364920622E+03  0.00000000000E+00 0. -1.
          2    1    1    2  502    0  0.31908177037E+02 -0.20025411691E+02  0.30374088954E+02  0.48391467792E+02  0.00000000000E+00 0.  1.
</event>
<event>
 4    1  0.6089441E+003  0.2009675E+02  0.7546771E-02  0.1532562E+00
          2   -1    0    0  501    0  0.00000000000E+00  0.00000000000E+00  0.34264426147E+03  0.34264426147E+03  0.00000000000E+00 0.  1.
          2   -1    0    0  502    0 -0.00000000000E+00 -0.00000000000E+00 -0.15976623667E+02  0.15976623667E+02  0.00000000000E+00 0.  1.
          2    1    1    2  501    0 -0.90453907693E+01  0.17946035169E+02 -0.92353784814E+01  0.22117221528E+02  0.00000000000E+00 0.  1.
          2    1    1    2  502    0  0.90453907693E+01 -0.17946035169E+02  0.33590301628E+03  0.33650366361E+03  0.00000000000E+00 0.  1.
</event>
<event>
 4    1  0.6089441E+003  0.2076405E+02  0.7546771E-02  0.1522660E+00
          2   -1    0    0  502    0  0.00000000000E+00  0.00000000000E+00  0.87398975147E+03  0.87398975147E+03  0.00000000000E+00 0. -1.
          2   -1    0    0  501    0 -0.00000000000E+00 -0.00000000000E+00 -0.35040342586E+02  0.35040342586E+02  0.00000000000E+00 0.  1.
          2    1    1    2  501    0  0.13101489848E+02 -0.16108904430E+02  0.87077901658E+03  0.87102654469E+03  0.00000000000E+00 0. -1.
          2    1    1    2  502    0 -0.13101489848E+02  0.16108904430E+02 -0.31829607697E+02  0.38003549365E+02  0.00000000000E+00 0.  1.
</event>
<event>
 4    1  0.6089441E+003  0.3480629E+02  0.7546771E-02  0.1381930E+00
          2   -1    0    0  501    0  0.00000000000E+00  0.00000000000E+00  0.85428229812E+02  0.85428229812E+02  0.00000000000E+00 0. -1.
          2   -1    0    0  502    0 -0.00000000000E+00 -0.00000000000E+00 -0.29889112443E+03  0.29889112443E+03  0.00000000000E+00 0.  1.
          2    1    1    2  501    0  0.15891556576E+02 -0.30966691800E+02 -0.29427711194E+03  0.29632835873E+03  0.00000000000E+00 0.  1.
          2    1    1    2  502    0 -0.15891556576E+02  0.30966691800E+02  0.80814217321E+02  0.87990995520E+02  0.00000000000E+00 0. -1.
</event>
<event>
 4    1  0.6089441E+003  0.2205508E+02  0.7546771E-02  0.1504717E+00
          2   -1    0    0  502    0  0.00000000000E+00  0.00000000000E+00  0.37569588977E+03  0.37569588977E+03  0.00000000000E+00 0.  1.
          2   -1    0    0  501    0 -0.00000000000E+00 -0.00000000000E+00 -0.13285554982E+01  0.13285554982E+01  0.00000000000E+00 0.  1.
          2    1    1    2  501    0 -0.17950347657E+02  0.12814505459E+02  0.15710620799E+03  0.15864673687E+03  0.00000000000E+00 0.  1.
          2    1    1    2  502    0  0.17950347657E+02 -0.12814505459E+02  0.21726112629E+03  0.21837770840E+03  0.00000000000E+00 0.  1.
</event>
<event>
 4    1  0.6089441E+003  0.2740894E+02  0.7546771E-02  0.1443543E+00
          2   -1    0    0  501    0  0.00000000000E+00  0.00000000000E+00  0.57984307296E+03  0.57984307296E+03  0.00000000000E+00 0.  1.
          2   -1    0    0  502    0 -0.00000000000E+00 -0.00000000000E+00 -0.11582016061E+03  0.11582016061E+03  0.00000000000E+00 0. -1.
          2    1    1    2  501    0  0.25343202888E+02 -0.10438980672E+02 -0.11386919898E+03  0.11712149558E+03  0.00000000000E+00 0. -1.
          2    1    1    2  502    0 -0.25343202888E+02  0.10438980672E+02  0.57789211133E+03  0.57854173799E+03  0.00000000000E+00 0.  1.
</event>
<event>
 4    1  0.6089441E+003  0.2102045E+02  0.7546771E-02  0.1518973E+00
          2   -1    0    0  501    0  0.00000000000E+00  0.00000000000E+00  0.87080660334E+02  0.87080660334E+02  0.00000000000E+00 0.  1.
          2   -1    0    0  502    0 -0.00000000000E+00 -0.00000000000E+00 -0.94209479522E+02  0.94209479522E+02  0.00000000000E+00 0.  1.
          2    1    1    2  501    0  0.15893196064E+02 -0.13757383185E+02 -0.91734615076E+02  0.94112161150E+02  0.00000000000E+00 0.  1.
          2    1    1    2  502    0 -0.15893196064E+02  0.13757383185E+02  0.84605795888E+02  0.87177978705E+02  0.00000000000E+00 0.  1.
</event>
<event>
 4    1  0.6089441E+003  0.2050713E+02  0.7546771E-02  0.1526419E+00
          2   -1    0    0  502    0  0.00000000000E+00  0.00000000000E+00  0.97143143244E+00  0.97143143244E+00  0.00000000000E+00 0.  1.
          2   -1    0    0  501    0 -0.00000000000E+00 -0.00000000000E+00 -0.72288119093E+03  0.72288119093E+03  0.00000000000E+00 0.  1.
          2    1    1    2  501    0  0.19231916906E+02  0.71187010999E+01 -0.13172881265E+03  0.13331550028E+03  0.00000000000E+00 0.  1.
          2    1    1    2  502    0 -0.19231916906E+02 -0.71187010999E+01 -0.59018094686E+03  0.59053712209E+03  0.00000000000E+00 0.  1.
</event>
<event>
 4    1  0.6089441E+003  0.2244890E+02  0.7546771E-02  0.1499537E+00
          2   -1    0    0  501    0  0.00000000000E+00  0.00000000000E+00  0.49578559786E+03  0.49578559786E+03  0.00000000000E+00 0. -1.
          2   -1    0    0  502    0 -0.00000000000E+00 -0.00000000000E+00 -0.15281863991E+01  0.15281863991E+01  0.00000000000E+00 0.  1.
          2    1    1    2  501    0  0.20355863630E+02 -0.94653052598E+01  0.10324046888E+03  0.10565295832E+03  0.00000000000E+00 0.  1.
          2    1    1    2  502    0 -0.20355863630E+02  0.94653052598E+01  0.39101694258E+03  0.39166082593E+03  0.00000000000E+00 0. -1.
</event>
<event>
 4    1  0.6089441E+003  0.2054242E+02  0.7546771E-02  0.1525899E+00
          2   -1    0    0  501    0  0.00000000000E+00  0.00000000000E+00  0.54998100580E+03  0.54998100580E+03  0.00000000000E+00 0.  1.
          2   -1    0    0  502    0 -0.00000000000E+00 -0.00000000000E+00 -0.20360061562E+01  0.20360061562E+01  0.00000000000E+00 0. -1.
          2    1    1    2  501    0 -0.99988970427E+01  0.17944724439E+02  0.56093006954E+02  0.59736224406E+02  0.00000000000E+00 0. -1.
          2    1    1    2  502    0  0.99988970427E+01 -0.17944724439E+02  0.49185199269E+03  0.49228078755E+03  0.00000000000E+00 0.  1.
</event>
<event>
 4    1  0.6089441E+003  0.2293189E+02  0.7546771E-02  0.1493355E+00
          2   -1    0    0  502    0  0.00000000000E+00  0.00000000000E+00  0.20028829000E+03  0.20028829000E+03  0.00000000000E+00 0. -1.
          2   -1    0    0  501    0 -0.00000000000E+00 -0.00000000000E+00 -0.39030040787E+03  0.39030040787E+03  0.00000000000E+00 0.  1.
          2    1    1    2  501    0  0.11466219287E+02 -0.19859444463E+02  0.19929338269E+03  0.20060838492E+03  0.00000000000E+00 0. -1.
          2    1    1    2  502    0 -0.11466219287E+02  0.19859444463E+02 -0.38930550056E+03  0.38998031294E+03  0.00000000000E+00 0.  1.
</event>
<event>
 4    1  0.6089441E+003  0.2114982E+02  0.7546771E-02  0.1517136E+00
          2   -1    0    0  502    0  0.00000000000E+00  0.00000000000E+00  0.11452749293E+04  0.11452749293E+04  0.00000000000E+00 0.  1.
          2   -1    0    0  501    0 -0.00000000000E+00 -0.00000000000E+00 -0.41774305601E+00  0.41774305601E+00  0.00000000000E+00 0.  1.
          2    1    1    2  501    0  0.15392772736E+02 -0.14504394281E+02  0.71851800165E+03  0.71882921032E+03  0.00000000000E+00 0.  1.
          2    1    1    2  502    0 -0.15392772736E+02  0.14504394281E+02  0.42633918458E+03  0.42686346203E+03  0.00000000000E+00 0.  1.
</event>
<event>
 4    1  0.6089441E+003  0.2502277E+02  0.7546771E-02  0.1468549E+00
          2   -1    0    0  501    0  0.00000000000E+00  0.00000000000E+00  0.94737490195E+02  0.94737490195E+02  0.00000000000E+00 0. -1.
          2   -1    0    0  502    0 -0.00000000000E+00 -0.00000000000E+00 -0.31452606667E+03  0.31452606667E+03  0.00000000000E+00 0.  1.
          2    1    1    2  501    0 -0.10690863226E+02 -0.22623982018E+02 -0.31236466704E+03  0.31336532088E+03  0.00000000000E+00 0.  1.
          2    1    1    2  502    0  0.10690863226E+02  0.22623982018E+02  0.92576090567E+02  0.95898235977E+02  0.00000000000E+00 0. -1.
</event>
<event>
 4    1  0.6089441E+003  0.2500855E+02  0.7546771E-02  0.1468708E+00
          2   -1    0    0  501    0  0.00000000000E+00  0.00000000000E+00  0.15141423090E+01  0.15141423090E+01  0.00000000000E+00 0. -1.
          2   -1    0    0  502    0 -0.00000000000E+00 -0.00000000000E+00 -0.44737765230E+03  0.44737765230E+03  0.00000000000E+00 0. -1.
          2    1    1    2  501    0  0.12513302396E+02 -0.21652825864E+02 -0.28509735093E+03  0.28619211574E+03  0.00000000000E+00 0. -1.
          2    1    1    2  502    0 -0.12513302396E+02  0.21652825864E+02 -0.16076615907E+03  0.16269967888E+03  0.00000000000E+00 0. -1.
</event>
<event>
 4    1  0.6089441E+003  0.3961338E+02  0.7546771E-02  0.1350766E+00
          2   -1    0    0  502    0  0.00000000000E+00  0.00000000000E+00  0.13647488566E+04  0.13647488566E+04  0.00000000000E+00 0. -1.
          2   -1    0    0  501    0 -0.00000000000E+00 -0.00000000000E+00 -0.47875019621E+02  0.47875019621E+02  0.00000000000E+00 0.  1.
          2    1    1    2  501    0 -0.27967560595E+02  0.28054155181E+02  0.13562154952E+04  0.13567939009E+04  0.00000000000E+00 0. -1.
          2    1    1    2  502    0  0.27967560595E+02 -0.28054155181E+02 -0.39341658250E+02  0.55829975304E+02  0.00000000000E+00 0.  1.
</event>
<event>
 4    1  0.6089441E+003  0.2182087E+02  0.7546771E-02  0.1507860E+00
          2   -1    0    0  501    0  0.00000000000E+00  0.00000000000E+00  0.14709905918E+02  0.14709905918E+02  0.00000000000E+00 0. -1.
          2   -1    0    0  502    0 -0.00000000000E+00 -0.00000000000E+00 -0.43858781655E+02  0.43858781655E+02  0.00000000000E+00 0.  1.
          2    1    1    2  501    0 -0.20735467982E+02 -0.67963626839E+01 -0.29562875972E+02  0.36743894920E+02  0.00000000000E+00 0.  1.
          2    1    1    2  502    0  0.20735467982E+02  0.67963626839E+01  0.41400023452E+00  0.21824792654E+02  0.00000000000E+00 0. -1.
</event>
<event>
 4    1  0.6089441E+003  0.2420967E+02  0.7546771E-02  0.1477842E+00
          2   -1    0    0  501    0  0.00000000000E+00  0.00000000000E+00  0.21095630409E+01  0.21095630409E+01  0.00000000000E+00 0. -1.
          2   -1    0    0  502    0 -0.00000000000E+00 -0.00000000000E+00 -0.96493013849E+03  0.96493013849E+03  0.00000000000E+00 0. -1.
          2    1    1    2  501    0  0.47759940582E+01  0.23733895748E+02 -0.88942440363E+03  0.88975382983E+03  0.00000000000E+00 0. -1.
          2    1    1    2  502    0 -0.47759940582E+01 -0.23733895748E+02 -0.73396171813E+02  0.77285871694E+02  0.00000000000E+00 0. -1.
</event>
<event>
 4    1  0.6089441E+003  0.2688150E+02  0.7546771E-02  0.1448802E+00
          2   -1    0    0  501    0  0.00000000000E+00  0.00000000000E+00  0.16027076785E+03  0.16027076785E+03  0.00000000000E+00 0. -1.
          2   -1    0    0  502    0 -0.00000000000E+00 -0.00000000000E+00 -0.48651588758E+01  0.48651588758E+01  0.00000000000E+00 0.  1.
          2    1    1    2  501    0 -0.86698808182E+01 -0.25445005442E+02  0.55353761009E+02  0.61535794406E+02  0.00000000000E+00 0.  1.
          2    1    1    2  502    0  0.86698808182E+01  0.25445005442E+02  0.10005184796E+03  0.10360013232E+03  0.00000000000E+00 0. -1.
</event>
<event>
 4    1  0.6089441E+003  0.3390150E+02  0.7546771E-02  0.1388455E+00
          2   -1    0    0  501    0  0.00000000000E+00  0.00000000000E+00  0.13861978461E+02  0.13861978461E+02  0.00000000000E+00 0. -1.
          2   -1    0    0  502    0 -0.00000000000E+00 -0.00000000000E+00 -0.16648719927E+03  0.16648719927E+03  0.00000000000E+00 0. -1.
          2    1    1    2  501    0  0.33883803978E+02  0.10953324832E+01 -0.14020288988E+03  0.14424341322E+03  0.00000000000E+00 0. -1.
          2    1    1    2  502    0 -0.33883803978E+02 -0.10953324832E+01 -0.12422330922E+02  0.36105764509E+02  0.00000000000E+00 0. -1.
</event>
<event>
 4    1  0.1467602E+004  0.2365580E+02  0.7546771E-02  0.1484423E+00
          2   -1    0    0  501    0  0.00000000000E+00  0.00000000000E+00  0.70806824649E+03  0.70806824649E+03  0.00000000000E+00 0. -1.
          2   -1    0    0  502    0 -0.00000000000E+00 -0.00000000000E+00 -0.97355012968E+03  0.97355012968E+03  0.00000000000E+00 0. -1.
          2    1    1    2  501    0 -0.14456179828E+02  0.18724740732E+02 -0.97320878149E+03  0.97349624007E+03  0.00000000000E+00 0. -1.
          2    1    1    2  502    0  0.14456179828E+02 -0.18724740732E+02  0.70772689830E+03  0.70812213610E+03  0.00000000000E+00 0. -1.
</event>
<event>
 4    1  0.6089441E+003  0.2001213E+02  0.7546771E-02  0.1533850E+00
          2   -1    0    0  501    0  0.00000000000E+00  0.00000000000E+00  0.13018555155E+02  0.13018555155E+02  0.00000000000E+00 0.  1.
          2   -1    0    0  502    0 -0.00000000000E+00 -0.00000000000E+00 -0.59727592017E+02  0.59727592017E+02  0.00000000000E+00 0. -1.
          2    1    1    2  501    0  0.73769652616E+01 -0.18602846110E+02 -0.48684139299E+02  0.52636782948E+02  0.00000000000E+00 0. -1.
          2    1    1    2  502    0 -0.73769652616E+01  0.18602846110E+02  0.19751024371E+01  0.20109364224E+02  0.00000000000E+00 0.  1.
</event>
<event>
 4    1  0.6089441E+003  0.2025150E+02  0.7546771E-02  0.1530225E+00
          2   -1    0    0  502    0  0.00000000000E+00  0.00000000000E+00  0.93007608048E+03  0.93007608048E+03  0.00000000000E+00 0. -1.
          2   -1    0    0  501    0 -0.00000000000E+00 -0.00000000000E+00 -0.36219593947E+03  0.36219593947E+03  0.00000000000E+00 0. -1.
          2    1    1    2  501    0 -0.20045042354E+02 -0.28843599711E+01  0.92968264046E+03  0.92990318594E+03  0.00000000000E+00 0. -1.
          2    1    1    2  502    0  0.20045042354E+02  0.28843599711E+01 -0.36180249945E+03  0.36236883401E+03  0.00000000000E+00 0. -1.
</event>
<event>
 4    1  0.6089441E+003  0.4002889E+02  0.7546771E-02  0.1348317E+00
          2   -1    0    0  501    0  0.00000000000E+00  0.00000000000E+00  0.13107522489E+04  0.13107522489E+04  0.00000000000E+00 0. -1.
          2   -1    0    0  502    0 -0.00000000000E+00 -0.00000000000E+00 -0.13391555619E+01  0.13391555619E+01  0.00000000000E+00 0. -1.
          2    1    1    2  501    0 -0.37480767338E+02  0.14053617367E+02  0.46102488822E+03  0.46275939713E+03  0.00000000000E+00 0. -1.
          2    1    1    2  502    0  0.37480767338E+02 -0.14053617367E+02  0.84838820516E+03  0.84933200736E+03  0.00000000000E+00 0. -1.
</event>
<event>
 4    1  0.6089441E+003  0.2034896E+02  0.7546771E-02  0.1528766E+00
          2   -1    0    0  502    0  0.00000000000E+00  0.00000000000E+00  0.21651943101E+02  0.21651943101E+02  0.00000000000E+00 0. -1.
          2   -1    0    0  501    0 -0.00000000000E+00 -0.00000000000E+00 -0.23886652273E+02  0.23886652273E+02  0.00000000000E+00 0. -1.
          2    1    1    2  501    0  0.99103944549E+01 -0.17772570751E+02  0.90493142514E+01  0.22270390158E+02  0.00000000000E+00 0. -1.
          2    1    1    2  502    0 -0.99103944549E+01  0.17772570751E+02 -0.11284023423E+02  0.23268205216E+02  0.00000000000E+00 0. -1.
</event>
<event>
 4    1  0.6089441E+003  0.2068628E+02  0.7546771E-02  0.1523791E+00
          2   -1    0    0  501    0  0.00000000000E+00  0.00000000000E+00  0.20191697977E+04  0.20191697977E+04  0.00000000000E+00 0.  1.
          2   -1    0    0  502    0 -0.00000000000E+00 -0.00000000000E+00 -0.21248510596E+00  0.21248510596E+00  0.00000000000E+00 0.  1.
          2    1    1    2  501    0  0.20656524899E+02 -0.11090924927E+01  0.95785860673E+03  0.95808195505E+03  0.00000000000E+00 0.  1.
          2    1    1    2  502    0 -0.20656524899E+02  0.11090924927E+01  0.10610987058E+04  0.10613003277E+04  0.00000000000E+00 0.  1.
</event>
<event>
 4    1  0.6089441E+003  0.2913235E+02  0.7546771E-02  0.1427289E+00
          2   -1    0    0  501    0  0.00000000000E+00  0.00000000000E+00  0.34035247440E+02  0.34035247440E+02  0.00000000000E+00 0. -1.
          2   -1    0    0  502    0 -0.00000000000E+00 -0.00000000000E+00 -0.11171560070E+03  0.11171560070E+03  0.00000000000E+00 0.  1.
          2    1    1    2  501    0 -0.71714465311E+01 -0.28235862081E+02 -0.10306955156E+03  0.10710754414E+03  0.00000000000E+00 0.  1.
          2    1    1    2  502    0  0.71714465311E+01  0.28235862081E+02  0.25389198307E+02  0.38643303993E+02  0.00000000000E+00 0. -1.
</event>
<event>
 4    1  0.6089441E+003  0.2770413E+02  0.7546771E-02  0.1440660E+00
          2   -1    0    0  502    0  0.00000000000E+00  0.00000000000E+00  0.47266775141E+02  0.47266775141E+02  0.00000000000E+00 0.  1.
          2   -1    0    0  501    0 -0.00000000000E+00 -0.00000000000E+00 -0.18038502233E+04  0.18038502233E+04  0.00000000000E+00 0.  1.
          2    1    1    2  501    0 -0.21356569012E+02  0.17646971853E+02  0.43091481235E+02  0.51228843542E+02  0.00000000000E+00 0.  1.
          2    1    1    2  502    0  0.21356569012E+02 -0.17646971853E+02 -0.17996749294E+04  0.17998881549E+04  0.00000000000E+00 0.  1.
</event>
<event>
 4    1  0.6089441E+003  0.8042687E+02  0.7546771E-02  0.1202860E+00
          2   -1    0    0  501    0  0.00000000000E+00  0.00000000000E+00  0.15108416666E+04  0.15108416666E+04  0.00000000000E+00 0.  1.
          2   -1    0    0  502    0 -0.00000000000E+00 -0.00000000000E+00 -0.46327762297E+01  0.46327762297E+01  0.00000000000E+00 0.  1.
          2    1    1    2  501    0  0.50108418309E+02  0.62909683522E+02  0.96179304641E+03  0.96514990856E+03  0.00000000000E+00 0.  1.
          2    1    1    2  502    0 -0.50108418309E+02 -0.62909683522E+02  0.54441584392E+03  0.55032453423E+03  0.00000000000E+00 0.  1.
</event>
<event>
 4    1  0.6089441E+003  0.2138142E+02  0.7546771E-02  0.1513888E+00
          2   -1    0    0  501    0  0.00000000000E+00  0.00000000000E+00  0.16766191190E+03  0.16766191190E+03  0.00000000000E+00 0.  1.
          2   -1    0    0  502    0 -0.00000000000E+00 -0.00000000000E+00 -0.35142301601E+01  0.35142301601E+01  0.00000000000E+00 0. -1.
          2    1    1    2  501    0 -0.80951474107E+01 -0.19789741877E+02  0.41557597647E+02  0.46735417162E+02  0.00000000000E+00 0. -1.
          2    1    1    2  502    0  0.80951474107E+01  0.19789741877E+02  0.12259008409E+03  0.12444072490E+03  0.00000000000E+00 0.  1.
</event>
<event>
 4    1  0.6089441E+003  0.2796840E+02  0.7546771E-02  0.1438116E+00
          2   -1    0    0  502    0  0.00000000000E+00  0.00000000000E+00  0.16773715983E+04  0.16773715983E+04  0.00000000000E+00 0.  1.
          2   -1    0    0  501    0 -0.00000000000E+00 -0.00000000000E+00 -0.14052419256E+02  0.14052419256E+02  0.00000000000E+00 0. -1.
          2    1    1    2  501    0  0.23602807595E+02  0.15004633818E+02  0.16632203008E+04  0.16634554399E+04  0.00000000000E+00 0.  1.
          2    1    1    2  502    0 -0.23602807595E+02 -0.15004633818E+02  0.98878308405E-01  0.27968577713E+02  0.00000000000E+00 0. -1.
</event>
<event>
 4    1  0.6089441E+003  0.2198119E+02  0.7546771E-02  0.1505704E+00
          2   -1    0    0  502    0  0.00000000000E+00  0.00000000000E+00  0.22862019580E+02  0.22862019580E+02  0.00000000000E+00 0. -1.
          2   -1    0    0  501    0 -0.00000000000E+00 -0.00000000000E+00 -0.73238241000E+03  0.73238241000E+03  0.00000000000E+00 0.  1.
          2    1    1    2  501    0  0.18577665054E+02  0.11749176822E+02  0.17373628195E+02  0.28018132549E+02  0.00000000000E+00 0. -1.
          2    1    1    2  502    0 -0.18577665054E+02 -0.11749176822E+02 -0.72689401861E+03  0.72722629703E+03  0.00000000000E+00 0.  1.
</event>
<event>
 4    1  0.6089441E+003  0.2538823E+02  0.7546771E-02  0.1464507E+00
          2   -1    0    0  502    0  0.00000000000E+00  0.00000000000E+00  0.82621878580E+03  0.82621878580E+03  0.00000000000E+00 0. -1.
          2   -1    0    0  501    0 -0.00000000000E+00 -0.00000000000E+00 -0.13147078721E+01  0.13147078721E+01  0.00000000000E+00 0. -1.
          2    1    1    2  501    0  0.33230563251E+01  0.25169815790E+02  0.67629428982E+03  0.67677066188E+03  0.00000000000E+00 0. -1.
          2    1    1    2  502    0 -0.33230563251E+01 -0.25169815790E+02  0.14860978810E+03  0.15076283179E+03  0.00000000000E+00 0. -1.
</event>
<event>
 4    1  0.6089441E+003  0.2571942E+02  0.7546771E-02  0.1460914E+00
          2   -1    0    0  502    0  0.00000000000E+00  0.00000000000E+00  0.23074902799E+02  0.23074902799E+02  0.00000000000E+00 0.  1.
          2   -1    0    0  501    0 -0.00000000000E+00 -0.00000000000E+00 -0.30771241851E+02  0.30771241851E+02  0.00000000000E+00 0.  1.
          2    1    1    2  501    0  0.25232724897E+02 -0.49797988378E+01  0.31922317365E+01  0.25916773442E+02  0.00000000000E+00 0.  1.
          2    1    1    2  502    0 -0.25232724897E+02  0.49797988378E+01 -0.10888570789E+02  0.27929371207E+02  0.00000000000E+00 0.  1.
</event>
<event>
 4    1  0.6089441E+003  0.2414990E+02  0.7546771E-02  0.1478542E+00
          2   -1    0    0  501    0  0.00000000000E+00  0.00000000000E+00  0.14715909351E+03  0.14715909351E+03  0.00000000000E+00 0.  1.
          2   -1    0    0  502    0 -0.00000000000E+00 -0.00000000000E+00 -0.72117956571E+01  0.72117956571E+01  0.00000000000E+00 0.  1.
          2    1    1    2  501    0 -0.14471975444E+02  0.19333380138E+02  0.18169682472E+02  0.30221764045E+02  0.00000000000E+00 0.  1.
          2    1    1    2  502    0  0.14471975444E+02 -0.19333380138E+02  0.12177761538E+03  0.12414912512E+03  0.00000000000E+00 0.  1.
</event>
<event>
 4    1  0.6089441E+003  0.3821467E+02  0.7546771E-02  0.1359278E+00
          2   -1    0    0  501    0  0.00000000000E+00  0.00000000000E+00  0.13412425229E+02  0.13412425229E+02  0.00000000000E+00 0.  1.
          2   -1    0    0  502    0 -0.00000000000E+00 -0.00000000000E+00 -0.14613478736E+03  0.14613478736E+03  0.00000000000E+00 0.  1.
          2    1    1    2  501    0  0.37144165772E+02 -0.89817599052E+01 -0.10663904425E+03  0.11327950751E+03  0.00000000000E+00 0.  1.
          2    1    1    2  502    0 -0.37144165772E+02  0.89817599052E+01 -0.26083317875E+02  0.46267705079E+02  0.00000000000E+00 0.  1.
</event>
<event>
 4    1  0.6089441E+003  0.2216516E+02  0.7546771E-02  0.1503256E+00
          2   -1    0    0  502    0  0.00000000000E+00  0.00000000000E+00  0.94181843450E+01  0.94181843450E+01  0.00000000000E+00 0.  1.
          2   -1    0    0  501    0 -0.00000000000E+00 -0.00000000000E+00 -0.12026005183E+04  0.12026005183E+04  0.00000000000E+00 0.  1.
          2    1    1    2  501    0  0.48725188159E+01  0.21622974874E+02 -0.38707660405E+01  0.22500606920E+02  0.00000000000E+00 0.  1.
          2    1    1    2  502    0 -0.48725188159E+01 -0.21622974874E+02 -0.11893115679E+04  0.11895180957E+04  0.00000000000E+00 0.  1.
</event>
<event>
 4    1  0.6089441E+003  0.4307801E+02  0.7546771E-02  0.1331335E+00
          2   -1    0    0  501    0  0.00000000000E+00  0.00000000000E+00  0.36318534749E+01  0.36318534749E+01  0.00000000000E+00 0. -1.
          2   -1    0    0  502    0 -0.00000000000E+00 -0.00000000000E+00 -0.10887128801E+04  0.10887128801E+04  0.00000000000E+00 0. -1.
          2    1    1    2  501    0  0.76981843987E+01 -0.42384585597E+02 -0.94041476252E+03  0.94140089266E+03  0.00000000000E+00 0. -1.
          2    1    1    2  502    0 -0.76981843987E+01  0.42384585597E+02 -0.14466626409E+03  0.15094384090E+03  0.00000000000E+00 0. -1.
</event>
<event>
 4    1  0.6089441E+003  0.1093256E+03  0.7546771E-02  0.1148560E+00
          2   -1    0    0  501    0  0.00000000000E+00  0.00000000000E+00  0.47799411579E+03  0.47799411579E+03  0.00000000000E+00 0.  1.
          2   -1    0    0  502    0 -0.00000000000E+00 -0.00000000000E+00 -0.22144976140E+03  0.22144976140E+03  0.00000000000E+00 0. -1.
          2    1    1    2  501    0 -0.89206948625E+02  0.63199823087E+02 -0.20111434997E+03  0.22890845132E+03  0.00000000000E+00 0. -1.
          2    1    1    2  502    0  0.89206948625E+02 -0.63199823087E+02  0.45765870436E+03  0.47053542587E+03  0.00000000000E+00 0.  1.
</event>
<event>
 4    1  0.6089441E+003  0.2597026E+02  0.7546771E-02  0.1458236E+00
          2   -1    0    0  502    0  0.00000000000E+00  0.00000000000E+00  0.83447394858E+02  0.83447394858E+02  0.00000000000E+00 0. -1.
          2   -1    0    0  501    0 -0.00000000000E+00 -0.00000000000E+00 -0.55016597057E+03  0.55016597057E+03  0.00000000000E+00 0. -1.
          2    1    1    2  501    0 -0.25952313320E+02  0.96518777495E+00  0.81111710461E+02  0.85167856191E+02  0.00000000000E+00 0. -1.
          2    1    1    2  502    0  0.25952313320E+02 -0.96518777495E+00 -0.54783028617E+03  0.54844550924E+03  0.00000000000E+00 0. -1.
</event>
<event>
 4    1  0.6089441E+003  0.2691521E+02  0.7546771E-02  0.1448462E+00
          2   -1    0    0  502    0  0.00000000000E+00  0.00000000000E+00  0.28199197594E+00  0.28199197594E+00  0.00000000000E+00 0.  1.
          2   -1    0    0  501    0 -0.00000000000E+00 -0.00000000000E+00 -0.27140046648E+04  0.27140046648E+04  0.00000000000E+00 0. -1.
          2    1    1    2  501    0  0.25550134015E+02  0.84628165085E+01 -0.10431299264E+04  0.10434771066E+04  0.00000000000E+00 0.  1.
          2    1    1    2  502    0 -0.25550134015E+02 -0.84628165085E+01 -0.16705927464E+04  0.16708095501E+04  0.00000000000E+00 0. -1.
</event>
<event>
 4    1  0.6089441E+003  0.2130639E+02  0.7546771E-02  0.1514935E+00
          2   -1    0    0  502    0  0.00000000000E+00  0.00000000000E+00  0.43517097205E+03  0.43517097205E+03  0.00000000000E+00 0. -1.
          2   -1    0    0  501    0 -0.00000000000E+00 -0.00000000000E+00 -0.40422086300E+01  0.40422086300E+01  0.00000000000E+00 0.  1.
          2    1    1    2  501    0  0.15212128791E+02 -0.14918220734E+02  0.40472304063E+03  0.40528348324E+03  0.00000000000E+00 0. -1.
          2    1    1    2  502    0 -0.15212128791E+02  0.14918220734E+02  0.26405722795E+02  0.33929697443E+02  0.00000000000E+00 0.  1.
</event>
<event>
 4    1  0.6089441E+003  0.3037214E+02  0.7546771E-02  0.1416390E+00
          2   -1    0    0  501    0  0.00000000000E+00  0.00000000000E+00  0.11576812750E+03  0.11576812750E+03  0.00000000000E+00 0.  1.
          2   -1    0    0  502    0 -0.00000000000E+00 -0.00000000000E+00 -0.13566054215E+03  0.13566054215E+03  0.00000000000E+00 0. -1.
          2    1    1    2  501    0  0.24478363865E+02  0.17979901219E+02 -0.13191266257E+03  0.13536401919E+03  0.00000000000E+00 0. -1.
          2    1    1    2  502    0 -0.24478363865E+02 -0.17979901219E+02  0.11202024792E+03  0.11606465047E+03  0.00000000000E+00 0.  1.
</event>
<event>
 4    1  0.6089441E+003  0.2867833E+02  0.7546771E-02  0.1431440E+00
          2   -1    0    0  502    0  0.00000000000E+00  0.00000000000E+00  0.23515357308E+03  0.23515357308E+03  0.00000000000E+00 0. -1.
          2   -1    0    0  501    0 -0.00000000000E+00 -0.00000000000E+00 -0.85697073448E+01  0.85697073448E+01  0.00000000000E+00 0. -1.
          2    1    1    2  501    0 -0.93923431789E+01  0.27096685028E+02  0.20704448534E+03  0.20902120792E+03  0.00000000000E+00 0. -1.
          2    1    1    2  502    0  0.93923431789E+01 -0.27096685028E+02  0.19539380392E+02  0.34702072503E+02  0.00000000000E+00 0. -1.
</event>
<event>
 4    1  0.6089441E+003  0.2193143E+02  0.7546771E-02  0.1506370E+00
          2   -1    0    0  501    0  0.00000000000E+00  0.00000000000E+00  0.81807097843E+01  0.81807097843E+01  0.00000000000E+00 0.  1.
          2   -1    0    0  502    0 -0.00000000000E+00 -0.00000000000E+00 -0.99906828824E+03  0.99906828824E+03  0.00000000000E+00 0.  1.
          2    1    1    2  501    0 -0.67516938989E+01  0.20866297156E+02 -0.98402440091E+03  0.98426876884E+03  0.00000000000E+00 0.  1.
          2    1    1    2  502    0  0.67516938989E+01 -0.20866297156E+02 -0.68631775503E+01  0.22980229189E+02  0.00000000000E+00 0.  1.
</event>
<event>
 4    1  0.6089441E+003  0.2585199E+02  0.7546771E-02  0.1459494E+00
          2   -1    0    0  501    0  0.00000000000E+00  0.00000000000E+00  0.30914488459E+01  0.30914488459E+01  0.00000000000E+00 0. -1.
          2   -1    0    0  502    0 -0.00000000000E+00 -0.00000000000E+00 -0.28090818035E+03  0.28090818035E+03  0.00000000000E+00 0.  1.
          2    1    1    2  501    0 -0.10232391499E+02  0.23740754733E+02 -0.20706922744E+03  0.20867676015E+03  0.00000000000E+00 0.  1.
          2    1    1    2  502    0  0.10232391499E+02 -0.23740754733E+02 -0.70747504061E+02  0.75322869050E+02  0.00000000000E+00 0. -1.
</event>
<event>
 4    1  0.6089441E+003  0.2666438E+02  0.7546771E-02  0.1451009E+00
          2   -1    0    0  502    0  0.00000000000E+00  0.00000000000E+00  0.25867516347E+01  0.25867516347E+01  0.00000000000E+00 0.  1.
          2   -1    0    0  501    0 -0.00000000000E+00 -0.00000000000E+00 -0.52766127289E+03  0.52766127289E+03  0.00000000000E+00 0.  1.
          2    1    1    2  501    0 -0.24158634805E+02  0.11284921271E+02 -0.79025924249E+02  0.83403152142E+02  0.00000000000E+00 0.  1.
          2    1    1    2  502    0  0.24158634805E+02 -0.11284921271E+02 -0.44604859700E+03  0.44684487238E+03  0.00000000000E+00 0.  1.
</event>
<event>
 4    1  0.6089441E+003  0.2129193E+02  0.7546771E-02  0.1515137E+00
          2   -1    0    0  502    0  0.00000000000E+00  0.00000000000E+00  0.90663744936E+02  0.90663744936E+02  0.00000000000E+00 0.  1.
          2   -1    0    0  501    0 -0.00000000000E+00 -0.00000000000E+00 -0.82221645674E+03  0.82221645674E+03  0.00000000000E+00 0.  1.
          2    1    1    2  501    0 -0.21106306250E+02 -0.28054004666E+01  0.89273709140E+02  0.91777674730E+02  0.00000000000E+00 0.  1.
          2    1    1    2  502    0  0.21106306250E+02  0.28054004666E+01 -0.82082642094E+03  0.82110252694E+03  0.00000000000E+00 0.  1.
</event>
<event>
 4    1  0.6089441E+003  0.1329340E+03  0.7546771E-02  0.1116519E+00
          2   -1    0    0  502    0  0.00000000000E+00  0.00000000000E+00  0.66273749591E+03  0.66273749591E+03  0.00000000000E+00 0.  1.
          2   -1    0    0  501    0 -0.00000000000E+00 -0.00000000000E+00 -0.22923606841E+03  0.22923606841E+03  0.00000000000E+00 0. -1.
          2    1    1    2  501    0 -0.37292938514E+02  0.12759580974E+03  0.63599768634E+03  0.64974188025E+03  0.00000000000E+00 0.  1.
          2    1    1    2  502    0  0.37292938514E+02 -0.12759580974E+03 -0.20249625883E+03  0.24223168407E+03  0.00000000000E+00 0. -1.
</event>
<event>
 4    1  0.6089441E+003  0.2715218E+02  0.7546771E-02  0.1446085E+00
          2   -1    0    0  501    0  0.00000000000E+00  0.00000000000E+00  0.23185799938E+03  0.23185799938E+03  0.00000000000E+00 0.  1.
          2   -1    0    0  502    0 -0.00000000000E+00 -0.00000000000E+00 -0.18297763045E+02  0.18297763045E+02  0.00000000000E+00 0.  1.
          2    1    1    2  501    0 -0.11807052134E+02 -0.24450651222E+02 -0.69117680546E+01  0.28018089923E+02  0.00000000000E+00 0.  1.
          2    1    1    2  502    0  0.11807052134E+02  0.24450651222E+02  0.22047200439E+03  0.22213767250E+03  0.00000000000E+00 0.  1.
</event>
<event>
 4    1  0.6089441E+003  0.2128893E+02  0.7546771E-02  0.1515179E+00
          2   -1    0    0  502    0  0.00000000000E+00  0.00000000000E+00  0.50118453085E+03  0.50118453085E+03  0.00000000000E+00 0. -1.
          2   -1    0    0  501    0 -0.00000000000E+00 -0.00000000000E+00 -0.36920249979E+01  0.36920249979E+01  0.00000000000E+00 0. -1.
          2    1    1    2  501    0  0.91037316730E+01 -0.19244237604E+02  0.46810161497E+03  0.46858546771E+03  0.00000000000E+00 0. -1.
          2    1    1    2  502    0 -0.91037316730E+01  0.19244237604E+02  0.29390890877E+02  0.36291088133E+02  0.00000000000E+00 0. -1.
</event>
<event>
 4    1  0.6089441E+003  0.2130442E+02  0.7546771E-02  0.1514963E+00
          2   -1    0    0  502    0  0.00000000000E+00  0.00000000000E+00  0.23649833343E+02  0.23649833343E+02  0.00000000000E+00 0. -1.
          2   -1    0    0  501    0 -0.00000000000E+00 -0.00000000000E+00 -0.78236013579E+03  0.78236013579E+03  0.00000000000E+00 0.  1.
          2    1    1    2  501    0  0.19974606092E+02  0.74090110217E+01  0.18676205692E+02  0.28331590000E+02  0.00000000000E+00 0. -1.
          2    1    1    2  502    0 -0.19974606092E+02 -0.74090110217E+01 -0.77738650814E+03  0.77767837913E+03  0.00000000000E+00 0.  1.
</event>
<event>
 4    1  0.6089441E+003  0.5892908E+02  0.7546771E-02  0.1263515E+00
          2   -1    0    0  502    0  0.00000000000E+00  0.00000000000E+00  0.12865507273E+03  0.12865507273E+03  0.00000000000E+00 0. -1.
          2   -1    0    0  501    0 -0.00000000000E+00 -0.00000000000E+00 -0.15451763098E+04  0.15451763098E+04  0.00000000000E+00 0. -1.
          2    1    1    2  501    0  0.55343376384E+02  0.20242213054E+02  0.12131305813E+03  0.13486843431E+03  0.00000000000E+00 0. -1.
          2    1    1    2  502    0 -0.55343376384E+02 -0.20242213054E+02 -0.15378342952E+04  0.15389629482E+04  0.00000000000E+00 0. -1.
</event>
<event>
 4    1  0.6089441E+003  0.2001336E+02  0.7546771E-02  0.1533831E+00
          2   -1    0    0  501    0  0.00000000000E+00  0.00000000000E+00  0.26175038019E+01  0.26175038019E+01  0.00000000000E+00 0.  1.
          2   -1    0    0  502    0 -0.00000000000E+00 -0.00000000000E+00 -0.33788778811E+03  0.33788778811E+03  0.00000000000E+00 0.  1.
          2    1    1    2  501    0  0.40787034311E+01 -0.19593334031E+02 -0.29356722666E+03  0.29424862129E+03  0.00000000000E+00 0.  1.
          2    1    1    2  502    0 -0.40787034311E+01  0.19593334031E+02 -0.41703057648E+02  0.46256670625E+02  0.00000000000E+00 0.  1.
</event>
<event>
 4    1  0.6089441E+003  0.2432170E+02  0.7546771E-02  0.1476537E+00
          2   -1    0    0  501    0  0.00000000000E+00  0.00000000000E+00  0.13553423269E+02  0.13553423269E+02  0.00000000000E+00 0. -1.
          2   -1    0    0  502    0 -0.00000000000E+00 -0.00000000000E+00 -0.14542749772E+04  0.14542749772E+04  0.00000000000E+00 0.  1.
          2    1    1    2  501    0 -0.23834347149E+02 -0.48444724473E+01 -0.14431780343E+04  0.14433829650E+04  0.00000000000E+00 0.  1.
          2    1    1    2  502    0  0.23834347149E+02  0.48444724473E+01  0.24564803925E+01  0.24445435427E+02  0.00000000000E+00 0. -1.
</event>
<event>
 4    1  0.6089441E+003  0.2169255E+02  0.7546771E-02  0.1509602E+00
          2   -1    0    0  501    0  0.00000000000E+00  0.00000000000E+00  0.37930346498E+03  0.37930346498E+03  0.00000000000E+00 0.  1.
          2   -1    0    0  502    0 -0.00000000000E+00 -0.00000000000E+00 -0.56391259665E+03  0.56391259665E+03  0.00000000000E+00 0. -1.
          2    1    1    2  501    0  0.10789013146E+02 -0.18819245737E+02 -0.56339354217E+03  0.56381100572E+03  0.00000000000E+00 0. -1.
          2    1    1    2  502    0 -0.10789013146E+02  0.18819245737E+02  0.37878441050E+03  0.37940505591E+03  0.00000000000E+00 0.  1.
</event>
<event>
 4    1  0.6089441E+003  0.2604853E+02  0.7546771E-02  0.1457407E+00
          2   -1    0    0  501    0  0.00000000000E+00  0.00000000000E+00  0.90825726744E+02  0.90825726744E+02  0.00000000000E+00 0.  1.
          2   -1    0    0  502    0 -0.00000000000E+00 -0.00000000000E+00 -0.11378880378E+03  0.11378880378E+03  0.00000000000E+00 0. -1.
          2    1    1    2  501    0  0.18762369542E+02 -0.18069298699E+02 -0.11037337657E+03  0.11340550394E+03  0.00000000000E+00 0. -1.
          2    1    1    2  502    0 -0.18762369542E+02  0.18069298699E+02  0.87410299538E+02  0.91209026590E+02  0.00000000000E+00 0.  1.
</event>
<event>
 4    1  0.6089441E+003  0.3662279E+02  0.7546771E-02  0.1369500E+00
          2   -1    0    0  501    0  0.00000000000E+00  0.00000000000E+00  0.15905373206E+03  0.15905373206E+03  0.00000000000E+00 0.  1.
          2   -1    0    0  502    0 -0.00000000000E+00 -0.00000000000E+00 -0.34450665220E+03  0.34450665220E+03  0.00000000000E+00 0.  1.
          2    1    1    2  501    0 -0.26355756034E+01 -0.36527832816E+02 -0.34140612693E+03  0.34336478027E+03  0.00000000000E+00 0.  1.
          2    1    1    2  502    0  0.26355756034E+01  0.36527832816E+02  0.15595320679E+03  0.16019560399E+03  0.00000000000E+00 0.  1.
</event>
<event>
 4    1  0.6089441E+003  0.2294460E+02  0.7546771E-02  0.1493195E+00
          2   -1    0    0  501    0  0.00000000000E+00  0.00000000000E+00  0.46080554077E+00  0.46080554077E+00  0.00000000000E+00 0. -1.
          2   -1    0    0  502    0 -0.00000000000E+00 -0.00000000000E+00 -0.15299753976E+04  0.15299753976E+04  0.00000000000E+00 0. -1.
          2    1    1    2  501    0 -0.18771562615E+02  0.13194054024E+02 -0.11498667476E+04  0.11500956446E+04  0.00000000000E+00 0. -1.
          2    1    1    2  502    0  0.18771562615E+02 -0.13194054024E+02 -0.37964784447E+03  0.38034055849E+03  0.00000000000E+00 0. -1.
</event>
<event>
 4    1  0.6089441E+003  0.3974711E+02  0.7546771E-02  0.1349974E+00
          2   -1    0    0  501    0  0.00000000000E+00  0.00000000000E+00  0.92891262927E+02  0.92891262927E+02  0.00000000000E+00 0. -1.
          2   -1    0    0  502    0 -0.00000000000E+00 -0.00000000000E+00 -0.10059698831E+04  0.10059698831E+04  0.00000000000E+00 0.  1.
          2    1    1    2  501    0  0.39105253461E+02  0.71141831178E+01 -0.10013056382E+04  0.10020942139E+04  0.00000000000E+00 0.  1.
          2    1    1    2  502    0 -0.39105253461E+02 -0.71141831178E+01  0.88227018008E+02  0.96766932142E+02  0.00000000000E+00 0. -1.
</event>
<event>
 4    1  0.6089441E+003  0.3624666E+02  0.7546771E-02  0.1372004E+00
          2   -1    0    0  501    0  0.00000000000E+00  0.00000000000E+00  0.27737459300E+04  0.27737459300E+04  0.00000000000E+00 0.  1.
          2   -1    0    0  502    0 -0.00000000000E+00 -0.00000000000E+00 -0.22144122291E+01  0.22144122291E+01  0.00000000000E+00 0. -1.
          2    1    1    2  501    0  0.54921313603E+01 -0.35828154112E+02  0.15515087701E+03  0.15932863763E+03  0.00000000000E+00 0. -1.
          2    1    1    2  502    0 -0.54921313603E+01  0.35828154112E+02  0.26163806408E+04  0.26166317046E+04  0.00000000000E+00 0.  1.
</event>
<event>
 4    1  0.6089441E+003  0.4333862E+02  0.7546771E-02  0.1329959E+00
          2   -1    0    0  502    0  0.00000000000E+00  0.00000000000E+00  0.19355851968E+03  0.19355851968E+03  0.00000000000E+00 0.  1.
          2   -1    0    0  501    0 -0.00000000000E+00 -0.00000000000E+00 -0.12479770723E+02  0.12479770723E+02  0.00000000000E+00 0. -1.
          2    1    1    2  501    0 -0.40412741293E+02 -0.15653947314E+02  0.13912738609E+03  0.14572119024E+03  0.00000000000E+00 0.  1.
          2    1    1    2  502    0  0.40412741293E+02  0.15653947314E+02  0.41951362865E+02  0.60317100158E+02  0.00000000000E+00 0. -1.
</event>
<event>
 4    1  0.6089441E+003  0.2285285E+02  0.7546771E-02  0.1494354E+00
          2   -1    0    0  502    0  0.00000000000E+00  0.00000000000E+00  0.16779303323E+01  0.16779303323E+01  0.00000000000E+00 0.  1.
          2   -1    0    0  501    0 -0.00000000000E+00 -0.00000000000E+00 -0.41280770073E+03  0.41280770073E+03  0.00000000000E+00 0. -1.
          2    1    1    2  501    0  0.10092869305E+02  0.20503337755E+02 -0.10277135700E+03  0.10528154962E+03  0.00000000000E+00 0.  1.
          2    1    1    2  502    0 -0.10092869305E+02 -0.20503337755E+02 -0.30835841340E+03  0.30920408144E+03  0.00000000000E+00 0. -1.
</event>
<event>
 4    1  0.6089441E+003  0.2267910E+02  0.7546771E-02  0.1496568E+00
          2   -1    0    0  501    0  0.00000000000E+00  0.00000000000E+00  0.32977511019E+03  0.32977511019E+03  0.00000000000E+00 0. -1.
          2   -1    0    0  502    0 -0.00000000000E+00 -0.00000000000E+00 -0.60574288694E+02  0.60574288694E+02  0.00000000000E+00 0. -1.
          2    1    1    2  501    0  0.15125311581E+02  0.16898710734E+02 -0.58045213026E+02  0.62318442135E+02  0.00000000000E+00 0. -1.
          2    1    1    2  502    0 -0.15125311581E+02 -0.16898710734E+02  0.32724603452E+03  0.32803095674E+03  0.00000000000E+00 0. -1.
</event>
<event>
 4    1  0.6089441E+003  0.2647948E+02  0.7546771E-02  0.1452908E+00
          2   -1    0    0  502    0  0.00000000000E+00  0.00000000000E+00  0.36451484525E+02  0.36451484525E+02  0.00000000000E+00 0.  1.
          2   -1    0    0  501    0 -0.00000000000E+00 -0.00000000000E+00 -0.23797119399E+02  0.23797119399E+02  0.00000000000E+00 0. -1.
          2    1    1    2  501    0 -0.26036338229E+02 -0.48240847497E+01  0.19516250247E+02  0.32894478651E+02  0.00000000000E+00 0.  1.
          2    1    1    2  502    0  0.26036338229E+02  0.48240847497E+01 -0.68618851210E+01  0.27354125273E+02  0.00000000000E+00 0. -1.
</event>
<event>
 4    1  0.6089441E+003  0.2026895E+02  0.7546771E-02  0.1529963E+00
          2   -1    0    0  501    0  0.00000000000E+00  0.00000000000E+00  0.27369857361E+02  0.27369857361E+02  0.00000000000E+00 0. -1.
          2   -1    0    0  502    0 -0.00000000000E+00 -0.00000000000E+00 -0.92982644925E+02  0.92982644925E+02  0.00000000000E+00 0.  1.
          2    1    1    2  501    0  0.11477626450E+02 -0.16706117333E+02 -0.87911827889E+02  0.90218178590E+02  0.00000000000E+00 0.  1.
          2    1    1    2  502    0 -0.11477626450E+02  0.16706117333E+02  0.22299040324E+02  0.30134323696E+02  0.00000000000E+00 0. -1.
</event>
<event>
 4    1  0.6089441E+003  0.2807957E+02  0.7546771E-02  0.1437055E+00
          2   -1    0    0  501    0  0.00000000000E+00  0.00000000000E+00  0.32382556079E+03  0.32382556079E+03  0.00000000000E+00 0. -1.
          2   -1    0    0  502    0 -0.00000000000E+00 -0.00000000000E+00 -0.24348706469E+01  0.24348706469E+01  0.00000000000E+00 0. -1.
          2    1    1    2  501    0  0.28069889702E+02  0.73725600420E+00  0.16130737325E+03  0.16373310880E+03  0.00000000000E+00 0. -1.
          2    1    1    2  502    0 -0.28069889702E+02 -0.73725600420E+00  0.16008331690E+03  0.16252732264E+03  0.00000000000E+00 0. -1.
</event>
<event>
 4    1  0.6089441E+003  0.2626642E+02  0.7546771E-02  0.1455120E+00
          2   -1    0    0  502    0  0.00000000000E+00  0.00000000000E+00  0.62442744598E+02  0.62442744598E+02  0.00000000000E+00 0.  1.
          2   -1    0    0  501    0 -0.00000000000E+00 -0.00000000000E+00 -0.17124269092E+02  0.17124269092E+02  0.00000000000E+00 0. -1.
          2    1    1    2  501    0  0.51286385809E+01  0.25760859399E+02  0.46355655909E+02  0.53280124300E+02  0.00000000000E+00 0.  1.
          2    1    1    2  502    0 -0.51286385809E+01 -0.25760859399E+02 -0.10371804026E+01  0.26286889391E+02  0.00000000000E+00 0. -1.
</event>
<event>
 4    1  0.6089441E+003  0.2558136E+02  0.7546771E-02  0.1462404E+00
          2   -1    0    0  502    0  0.00000000000E+00  0.00000000000E+00  0.11863465424E+04  0.11863465424E+04  0.00000000000E+00 0.  1.
          2   -1    0    0  501    0 -0.00000000000E+00 -0.00000000000E+00 -0.49922860359E+01  0.49922860359E+01  0.00000000000E+00 0.  1.
          2    1    1    2  501    0  0.55427898605E+01  0.24973654685E+02  0.11524747500E+04  0.11527586284E+04  0.00000000000E+00 0.  1.
          2    1    1    2  502    0 -0.55427898605E+01 -0.24973654685E+02  0.28879506379E+02  0.38580200057E+02  0.00000000000E+00 0.  1.
</event>
<event>
 4    1  0.6089441E+003  0.2589268E+02  0.7546771E-02  0.1459060E+00
          2   -1    0    0  502    0  0.00000000000E+00  0.00000000000E+00  0.16279168435E+03  0.16279168435E+03  0.00000000000E+00 0. -1.
          2   -1    0    0  501    0 -0.00000000000E+00 -0.00000000000E+00 -0.17535741777E+04  0.17535741777E+04  0.00000000000E+00 0. -1.
          2    1    1    2  501    0 -0.25729143147E+02  0.29054907276E+01  0.16166585861E+03  0.16372623652E+03  0.00000000000E+00 0. -1.
          2    1    1    2  502    0  0.25729143147E+02 -0.29054907276E+01 -0.17524483520E+04  0.17526396255E+04  0.00000000000E+00 0. -1.
</event>
<event>
 4    1  0.6089441E+003  0.2500921E+02  0.7546771E-02  0.1468700E+00
          2   -1    0    0  502    0  0.00000000000E+00  0.00000000000E+00  0.89771610519E+03  0.89771610519E+03  0.00000000000E+00 0. -1.
          2   -1    0    0  501    0 -0.00000000000E+00 -0.00000000000E+00 -0.22797168719E+02  0.22797168719E+02  0.00000000000E+00 0. -1.
          2    1    1    2  501    0 -0.12819910578E+02  0.21473481097E+02  0.89062837917E+03  0.89097944436E+03  0.00000000000E+00 0. -1.
          2    1    1    2  502    0  0.12819910578E+02 -0.21473481097E+02 -0.15709442698E+02  0.29533829544E+02  0.00000000000E+00 0. -1.
</event>
<event>
 4    1  0.6089441E+003  0.4311275E+02  0.7546771E-02  0.1331151E+00
          2   -1    0    0  501    0  0.00000000000E+00  0.00000000000E+00  0.30621450101E+01  0.30621450101E+01  0.00000000000E+00 0. -1.
          2   -1    0    0  502    0 -0.00000000000E+00 -0.00000000000E+00 -0.61376410156E+03  0.61376410156E+03  0.00000000000E+00 0. -1.
          2    1    1    2  501    0  0.34610123015E+02 -0.25706975696E+02 -0.33773802795E+03  0.34047861128E+03  0.00000000000E+00 0. -1.
          2    1    1    2  502    0 -0.34610123015E+02  0.25706975696E+02 -0.27296392859E+03  0.27634763529E+03  0.00000000000E+00 0. -1.
</event>
<event>
 4    1  0.6089441E+003  0.2168317E+02  0.7546771E-02  0.1509730E+00
          2   -1    0    0  502    0  0.00000000000E+00  0.00000000000E+00  0.45250937247E+01  0.45250937247E+01  0.00000000000E+00 0.  1.
          2   -1    0    0  501    0 -0.00000000000E+00 -0.00000000000E+00 -0.25370170737E+03  0.25370170737E+03  0.00000000000E+00 0. -1.
          2    1    1    2  501    0 -0.21672224146E+02 -0.68884847454E+00 -0.25375626697E+02  0.33377870542E+02  0.00000000000E+00 0.  1.
          2    1    1    2  502    0  0.21672224146E+02  0.68884847454E+00 -0.22380098695E+03  0.22484893056E+03  0.00000000000E+00 0. -1.
</event>
<event>
 4    1  0.6089441E+003  0.2005574E+02  0.7546771E-02  0.1533185E+00
          2   -1    0    0  502    0  0.00000000000E+00  0.00000000000E+00  0.52806329907E+01  0.52806329907E+01  0.00000000000E+00 0. -1.
          2   -1    0    0  501    0 -0.00000000000E+00 -0.00000000000E+00 -0.13655305208E+04  0.13655305208E+04  0.00000000000E+00 0.  1.
          2    1    1    2  501    0 -0.14773963331E+02  0.13563288609E+02 -0.14110128994E+02  0.24522000951E+02  0.00000000000E+00 0. -1.
          2    1    1    2  502    0  0.14773963331E+02 -0.13563288609E+02 -0.13461397588E+04  0.13462891529E+04  0.00000000000E+00 0.  1.
</event>
<event>
 4    1  0.6089441E+003  0.2591083E+02  0.7546771E-02  0.1458867E+00
          2   -1    0    0  502    0  0.00000000000E+00  0.00000000000E+00  0.15329658527E+04  0.15329658527E+04  0.00000000000E+00 0.  1.
          2   -1    0    0  501    0 -0.00000000000E+00 -0.00000000000E+00 -0.10732952610E+01  0.10732952610E+01  0.00000000000E+00 0.  1.
          2    1    1    2  501    0  0.25615296712E+02  0.39022848703E+01  0.13560790924E+04  0.13563266111E+04  0.00000000000E+00 0.  1.
          2    1    1    2  502    0 -0.25615296712E+02 -0.39022848703E+01  0.17581346502E+03  0.17771253680E+03  0.00000000000E+00 0.  1.
</event>
<event>
 4    1  0.6089441E+003  0.3525566E+02  0.7546771E-02  0.1378775E+00
          2   -1    0    0  502    0  0.00000000000E+00  0.00000000000E+00  0.21594181527E+02  0.21594181527E+02  0.00000000000E+00 0. -1.
          2   -1    0    0  501    0 -0.00000000000E+00 -0.00000000000E+00 -0.24095050823E+03  0.24095050823E+03  0.00000000000E+00 0. -1.
          2    1    1    2  501    0  0.34779375995E+02  0.57755197944E+01  0.48461554793E+01  0.35587172498E+02  0.00000000000E+00 0. -1.
          2    1    1    2  502    0 -0.34779375995E+02 -0.57755197944E+01 -0.22420248219E+03  0.22695751726E+03  0.00000000000E+00 0. -1.
</event>
<event>
 4    1  0.6089441E+003  0.3686596E+02  0.7546771E-02  0.1367899E+00
          2   -1    0    0  501    0  0.00000000000E+00  0.00000000000E+00  0.17614862211E+04  0.17614862211E+04  0.00000000000E+00 0.  1.
          2   -1    0    0  502    0 -0.00000000000E+00 -0.00000000000E+00 -0.77305936361E+00  0.77305936361E+00  0.00000000000E+00 0. -1.
          2    1    1    2  501    0 -0.29286906062E+02  0.22391430826E+02  0.84160114359E+03  0.84240820504E+03  0.00000000000E+00 0. -1.
          2    1    1    2  502    0  0.29286906062E+02 -0.22391430826E+02  0.91911201819E+03  0.91985107546E+03  0.00000000000E+00 0.  1.
</event>
<event>
 4    1  0.6089441E+003  0.2104618E+02  0.7546771E-02  0.1518606E+00
          2   -1    0    0  502    0  0.00000000000E+00  0.00000000000E+00  0.95041593085E+03  0.95041593085E+03  0.00000000000E+00 0. -1.
          2   -1    0    0  501    0 -0.00000000000E+00 -0.00000000000E+00 -0.19750269854E+01  0.19750269854E+01  0.00000000000E+00 0. -1.
          2    1    1    2  501    0 -0.31692186957E+01  0.20806198283E+02  0.89045678298E+03  0.89070546433E+03  0.00000000000E+00 0. -1.
          2    1    1    2  502    0  0.31692186957E+01 -0.20806198283E+02  0.57984120884E+02  0.61685493504E+02  0.00000000000E+00 0. -1.
</event>
<event>
 4    1  0.6089441E+003  0.5428664E+02  0.7546771E-02  0.1280585E+00
          2   -1    0    0  502    0  0.00000000000E+00  0.00000000000E+00  0.10339821011E+04  0.10339821011E+04  0.00000000000E+00 0. -1.
          2   -1    0    0  501    0 -0.00000000000E+00 -0.00000000000E+00 -0.78416918577E+03  0.78416918577E+03  0.00000000000E+00 0.  1.
          2    1    1    2  501    0 -0.34749463442E+02  0.41707477230E+02  0.10323285095E+04  0.10337548986E+04  0.00000000000E+00 0. -1.
          2    1    1    2  502    0  0.34749463442E+02 -0.41707477230E+02 -0.78251559415E+03  0.78439638829E+03  0.00000000000E+00 0.  1.
</event>
<event>
 4    1  0.6089441E+003  0.2691566E+02  0.7546771E-02  0.1448457E+00
          2   -1    0    0  502    0  0.00000000000E+00  0.00000000000E+00  0.56511877336E+02  0.56511877336E+02  0.00000000000E+00 0.  1.
          2   -1    0    0  501    0 -0.00000000000E+00 -0.00000000000E+00 -0.14144169374E+04  0.14144169374E+04  0.00000000000E+00 0.  1.
          2    1    1    2  501    0 -0.45082137061E+01  0.26535422533E+02  0.53171374137E+02  0.59595701754E+02  0.00000000000E+00 0.  1.
          2    1    1    2  502    0  0.45082137061E+01 -0.26535422533E+02 -0.14110764342E+04  0.14113331130E+04  0.00000000000E+00 0.  1.
</event>
<event>
 4    1  0.6089441E+003  0.3163544E+02  0.7546771E-02  0.1405897E+00
          2   -1    0    0  501    0  0.00000000000E+00  0.00000000000E+00  0.24148313094E+02  0.24148313094E+02  0.00000000000E+00 0. -1.
          2   -1    0    0  502    0 -0.00000000000E+00 -0.00000000000E+00 -0.21523184282E+04  0.21523184282E+04  0.00000000000E+00 0. -1.
          2    1    1    2  501    0  0.14543059163E+02 -0.28094496907E+02 -0.21417902678E+04  0.21420238917E+04  0.00000000000E+00 0. -1.
          2    1    1    2  502    0 -0.14543059163E+02  0.28094496907E+02  0.13620152727E+02  0.34442849571E+02  0.00000000000E+00 0. -1.
</event>
<event>
 4    1  0.6089441E+003  0.3951465E+02  0.7546771E-02  0.1351354E+00
          2   -1    0    0  501    0  0.00000000000E+00  0.00000000000E+00  0.13174284866E+01  0.13174284866E+01  0.00000000000E+00 0.  1.
          2   -1    0    0  502    0 -0.00000000000E+00 -0.00000000000E+00 -0.23541472188E+04  0.23541472188E+04  0.00000000000E+00 0.  1.
          2    1    1    2  501    0 -0.19019146883E+02 -0.34636392600E+02 -0.20063200257E+04  0.20067091102E+04  0.00000000000E+00 0.  1.
          2    1    1    2  502    0  0.19019146883E+02  0.34636392600E+02 -0.34650976465E+03  0.34875553707E+03  0.00000000000E+00 0.  1.
</event>
<event>
 4    1  0.6089441E+003  0.4311098E+02  0.7546771E-02  0.1331160E+00
          2   -1    0    0  502    0  0.00000000000E+00  0.00000000000E+00  0.65933910870E+03  0.65933910870E+03  0.00000000000E+00 0.  1.
          2   -1    0    0  501    0 -0.00000000000E+00 -0.00000000000E+00 -0.22358424238E+04  0.22358424238E+04  0.00000000000E+00 0.  1.
          2    1    1    2  501    0  0.13810837479E+02  0.40838921934E+02  0.65842630254E+03  0.65983615592E+03  0.00000000000E+00 0.  1.
          2    1    1    2  502    0 -0.13810837479E+02 -0.40838921934E+02 -0.22349296177E+04  0.22353453766E+04  0.00000000000E+00 0.  1.
</event>
<event>
 4    1  0.6089441E+003  0.3276807E+02  0.7546771E-02  0.1396972E+00
          2   -1    0    0  502    0  0.00000000000E+00  0.00000000000E+00  0.38864948873E+02  0.38864948873E+02  0.00000000000E+00 0.  1.
          2   -1    0    0  501    0 -0.00000000000E+00 -0.00000000000E+00 -0.73105725732E+02  0.73105725732E+02  0.00000000000E+00 0. -1.
          2    1    1    2  501    0  0.29384156732E+02 -0.14502344246E+02  0.27036626867E+02  0.42482065014E+02  0.00000000000E+00 0.  1.
          2    1    1    2  502    0 -0.29384156732E+02  0.14502344246E+02 -0.61277403726E+02  0.69488609591E+02  0.00000000000E+00 0. -1.
</event>
<event>
 4    1  0.6089441E+003  0.2514590E+02  0.7546771E-02  0.1467178E+00
          2   -1    0    0  501    0  0.00000000000E+00  0.00000000000E+00  0.11562069780E+03  0.11562069780E+03  0.00000000000E+00 0. -1.
          2   -1    0    0  502    0 -0.00000000000E+00 -0.00000000000E+00 -0.15724761078E+02  0.15724761078E+02  0.00000000000E+00 0. -1.
          2    1    1    2  501    0  0.10813115376E+02  0.22702270228E+02 -0.30890837797E+01  0.25334935884E+02  0.00000000000E+00 0. -1.
          2    1    1    2  502    0 -0.10813115376E+02 -0.22702270228E+02  0.10298502050E+03  0.10601052299E+03  0.00000000000E+00 0. -1.
</event>
<event>
 4    1  0.6089441E+003  0.2201316E+02  0.7546771E-02  0.1505276E+00
          2   -1    0    0  501    0  0.00000000000E+00  0.00000000000E+00  0.26346327379E+03  0.26346327379E+03  0.00000000000E+00 0.  1.
          2   -1    0    0  502    0 -0.00000000000E+00 -0.00000000000E+00 -0.33132830011E+01  0.33132830011E+01  0.00000000000E+00 0. -1.
          2    1    1    2  501    0 -0.61989704742E+01  0.21122305463E+02  0.41105801042E+02  0.46629024248E+02  0.00000000000E+00 0. -1.
          2    1    1    2  502    0  0.61989704742E+01 -0.21122305463E+02  0.21904418975E+03  0.22014753254E+03  0.00000000000E+00 0.  1.
</event>
<event>
 4    1  0.6089441E+003  0.2536472E+02  0.7546771E-02  0.1464764E+00
          2   -1    0    0  502    0  0.00000000000E+00  0.00000000000E+00  0.53877430289E+02  0.53877430289E+02  0.00000000000E+00 0. -1.
          2   -1    0    0  501    0 -0.00000000000E+00 -0.00000000000E+00 -0.53525744912E+02  0.53525744912E+02  0.00000000000E+00 0.  1.
          2    1    1    2  501    0  0.45801657530E+01 -0.24947772178E+02  0.47509597638E+02  0.53856579196E+02  0.00000000000E+00 0. -1.
          2    1    1    2  502    0 -0.45801657530E+01  0.24947772178E+02 -0.47157912261E+02  0.53546596005E+02  0.00000000000E+00 0.  1.
</event>
<event>
 4    1  0.6089441E+003  0.3518015E+02  0.7546771E-02  0.1379301E+00
          2   -1    0    0  501    0  0.00000000000E+00  0.00000000000E+00  0.98568277853E+03  0.98568277853E+03  0.00000000000E+00 0.  1.
          2   -1    0    0  502    0 -0.00000000000E+00 -0.00000000000E+00 -0.15621833413E+01  0.15621833413E+01  0.00000000000E+00 0.  1.
          2    1    1    2  501    0 -0.34961157001E+02 -0.39192701038E+01  0.27339044106E+03  0.27564465610E+03  0.00000000000E+00 0.  1.
          2    1    1    2  502    0  0.34961157001E+02  0.39192701038E+01  0.71073015414E+03  0.71160030577E+03  0.00000000000E+00 0.  1.
</event>
<event>
 4    1  0.6089441E+003  0.2168360E+02  0.7546771E-02  0.1509724E+00
          2   -1    0    0  502    0  0.00000000000E+00  0.00000000000E+00  0.18846897619E+02  0.18846897619E+02  0.00000000000E+00 0. -1.
          2   -1    0    0  501    0 -0.00000000000E+00 -0.00000000000E+00 -0.16488008204E+03  0.16488008204E+03  0.00000000000E+00 0.  1.
          2    1    1    2  501    0 -0.18896500929E+02  0.10634889311E+02  0.11612294041E+02  0.24597235432E+02  0.00000000000E+00 0. -1.
          2    1    1    2  502    0  0.18896500929E+02 -0.10634889311E+02 -0.15764547846E+03  0.15912974422E+03  0.00000000000E+00 0.  1.
</event>
<event>
 4    1  0.6089441E+003  0.3505502E+02  0.7546771E-02  0.1380177E+00
          2   -1    0    0  501    0  0.00000000000E+00  0.00000000000E+00  0.19267019036E+04  0.19267019036E+04  0.00000000000E+00 0.  1.
          2   -1    0    0  502    0 -0.00000000000E+00 -0.00000000000E+00 -0.90946113026E+02  0.90946113026E+02  0.00000000000E+00 0. -1.
          2    1    1    2  501    0 -0.14555983771E+02  0.31890086455E+02 -0.87402465125E+02  0.94170298861E+02  0.00000000000E+00 0. -1.
          2    1    1    2  502    0  0.14555983771E+02 -0.31890086455E+02  0.19231582557E+04  0.19234777177E+04  0.00000000000E+00 0.  1.
</event>
<event>
 4    1  0.6089441E+003  0.2664605E+02  0.7546771E-02  0.1451196E+00
          2   -1    0    0  501    0  0.00000000000E+00  0.00000000000E+00  0.75003707017E+02  0.75003707017E+02  0.00000000000E+00 0. -1.
          2   -1    0    0  502    0 -0.00000000000E+00 -0.00000000000E+00 -0.54602972022E+03  0.54602972022E+03  0.00000000000E+00 0. -1.
          2    1    1    2  501    0 -0.25963050127E+02  0.59943287775E+01 -0.54332628294E+03  0.54397928424E+03  0.00000000000E+00 0. -1.
          2    1    1    2  502    0  0.25963050127E+02 -0.59943287775E+01  0.72300269735E+02  0.77054142998E+02  0.00000000000E+00 0. -1.
</event>
<event>
 4    1  0.6089441E+003  0.2041270E+02  0.7546771E-02  0.1527818E+00
          2   -1    0    0  501    0  0.00000000000E+00  0.00000000000E+00  0.10719875831E+02  0.10719875831E+02  0.00000000000E+00 0.  1.
          2   -1    0    0  502    0 -0.00000000000E+00 -0.00000000000E+00 -0.45927523781E+02  0.45927523781E+02  0.00000000000E+00 0.  1.
          2    1    1    2  501    0  0.19008513306E+02 -0.74400653783E+01 -0.28707057290E+02  0.35224611981E+02  0.00000000000E+00 0.  1.
          2    1    1    2  502    0 -0.19008513306E+02  0.74400653783E+01 -0.65005906603E+01  0.21422787631E+02  0.00000000000E+00 0.  1.
</event>
<event>
 4    1  0.6089441E+003  0.2438677E+02  0.7546771E-02  0.1475782E+00
          2   -1    0    0  502    0  0.00000000000E+00  0.00000000000E+00  0.19596922056E+03  0.19596922056E+03  0.00000000000E+00 0. -1.
          2   -1    0    0  501    0 -0.00000000000E+00 -0.00000000000E+00 -0.82094275731E+03  0.82094275731E+03  0.00000000000E+00 0. -1.
          2    1    1    2  501    0 -0.20406212540E+02 -0.13352948827E+02  0.19502855930E+03  0.19654733194E+03  0.00000000000E+00 0. -1.
          2    1    1    2  502    0  0.20406212540E+02  0.13352948827E+02 -0.82000209605E+03  0.82036464592E+03  0.00000000000E+00 0. -1.
</event>
<event>
 4    1  0.6089441E+003  0.3033067E+02  0.7546771E-02  0.1416744E+00
          2   -1    0    0  502    0  0.00000000000E+00  0.00000000000E+00  0.20761333412E+03  0.20761333412E+03  0.00000000000E+00 0.  1.
          2   -1    0    0  501    0 -0.00000000000E+00 -0.00000000000E+00 -0.32658911103E+03  0.32658911103E+03  0.00000000000E+00 0.  1.
          2    1    1    2  501    0  0.29106247868E+02  0.85308854429E+01  0.20579516761E+03  0.20801827007E+03  0.00000000000E+00 0.  1.
          2    1    1    2  502    0 -0.29106247868E+02 -0.85308854429E+01 -0.32477094452E+03  0.32618417508E+03  0.00000000000E+00 0.  1.
</event>
<event>
 4    1  0.6089441E+003  0.2402451E+02  0.7546771E-02  0.1480019E+00
          2   -1    0    0  501    0  0.00000000000E+00  0.00000000000E+00  0.65056835657E+02  0.65056835657E+02  0.00000000000E+00 0.  1.
          2   -1    0    0  502    0 -0.00000000000E+00 -0.00000000000E+00 -0.17160913346E+02  0.17160913346E+02  0.00000000000E+00 0. -1.
          2    1    1    2  501    0 -0.11417136313E+02  0.21138259269E+02 -0.46224902626E+01  0.24465167539E+02  0.00000000000E+00 0. -1.
          2    1    1    2  502    0  0.11417136313E+02 -0.21138259269E+02  0.52518412574E+02  0.57752581464E+02  0.00000000000E+00 0.  1.
</event>
<event>
 4    1  0.6089441E+003  0.2125893E+02  0.7546771E-02  0.1515600E+00
          2   -1    0    0  502    0  0.00000000000E+00  0.00000000000E+00  0.15893618789E+02  0.15893618789E+02  0.00000000000E+00 0. -1.
          2   -1    0    0  501    0 -0.00000000000E+00 -0.00000000000E+00 -0.15217907187E+03  0.15217907187E+03  0.00000000000E+00 0. -1.
          2    1    1    2  501    0 -0.14869084383E+02  0.15193834190E+02  0.76366618766E+01  0.22588954655E+02  0.00000000000E+00 0. -1.
          2    1    1    2  502    0  0.14869084383E+02 -0.15193834190E+02 -0.14392211496E+03  0.14548373600E+03  0.00000000000E+00 0. -1.
</event>
<event>
 4    1  0.6089441E+003  0.3180198E+02  0.7546771E-02  0.1404558E+00
          2   -1    0    0  502    0  0.00000000000E+00  0.00000000000E+00  0.42111622098E+02  0.42111622098E+02  0.00000000000E+00 0. -1.
          2   -1    0    0  501    0 -0.00000000000E+00 -0.00000000000E+00 -0.29917210829E+03  0.29917210829E+03  0.00000000000E+00 0.  1.
          2    1    1    2  501    0  0.30714599837E+02 -0.82449616814E+01  0.35119138328E+02  0.47378475210E+02  0.00000000000E+00 0. -1.
          2    1    1    2  502    0 -0.30714599837E+02  0.82449616814E+01 -0.29217962452E+03  0.29390525517E+03  0.00000000000E+00 0.  1.
</event>
<event>
 4    1  0.6089441E+003  0.2907313E+02  0.7546771E-02  0.1427825E+00
          2   -1    0    0  502    0  0.00000000000E+00  0.00000000000E+00  0.85111167487E+03  0.85111167487E+03  0.00000000000E+00 0.  1.
          2   -1    0    0  501    0 -0.00000000000E+00 -0.00000000000E+00 -0.61127880603E+01  0.61127880603E+01  0.00000000000E+00 0. -1.
          2    1    1    2  501    0  0.26008523258E+02  0.12992451770E+02  0.81475241183E+03  0.81527096089E+03  0.00000000000E+00 0.  1.
          2    1    1    2  502    0 -0.26008523258E+02 -0.12992451770E+02  0.30246474986E+02  0.41953502048E+02  0.00000000000E+00 0. -1.
</event>
<event>
 4    1  0.6089441E+003  0.2010089E+02  0.7546771E-02  0.1532499E+00
          2   -1    0    0  502    0  0.00000000000E+00  0.00000000000E+00  0.62997884282E+02  0.62997884282E+02  0.00000000000E+00 0. -1.
          2   -1    0    0  501    0 -0.00000000000E+00 -0.00000000000E+00 -0.10382360856E+04  0.10382360856E+04  0.00000000000E+00 0. -1.
          2    1    1    2  501    0  0.41507353511E+01  0.19667669560E+02  0.61294547913E+02  0.64506336384E+02  0.00000000000E+00 0. -1.
          2    1    1    2  502    0 -0.41507353511E+01 -0.19667669560E+02 -0.10365327493E+04  0.10367276335E+04  0.00000000000E+00 0. -1.
</event>
<event>
 4    1  0.6089441E+003  0.3064945E+02  0.7546771E-02  0.1414035E+00
          2   -1    0    0  502    0  0.00000000000E+00  0.00000000000E+00  0.23818621263E+01  0.23818621263E+01  0.00000000000E+00 0.  1.
          2   -1    0    0  501    0 -0.00000000000E+00 -0.00000000000E+00 -0.54194183500E+03  0.54194183500E+03  0.00000000000E+00 0. -1.
          2    1    1    2  501    0  0.39880370127E+01 -0.30388889516E+02 -0.12776988589E+03  0.13139456909E+03  0.00000000000E+00 0.  1.
          2    1    1    2  502    0 -0.39880370127E+01  0.30388889516E+02 -0.41179008698E+03  0.41292912803E+03  0.00000000000E+00 0. -1.
</event>
<event>
 4    1  0.6089441E+003  0.2169709E+02  0.7546771E-02  0.1509541E+00
          2   -1    0    0  502    0  0.00000000000E+00  0.00000000000E+00  0.40584256726E+03  0.40584256726E+03  0.00000000000E+00 0.  1.
          2   -1    0    0  501    0 -0.00000000000E+00 -0.00000000000E+00 -0.88674294715E+01  0.88674294715E+01  0.00000000000E+00 0. -1.
          2    1    1    2  501    0  0.20516756687E+02  0.70587700160E+01  0.39180516120E+03  0.39240546362E+03  0.00000000000E+00 0.  1.
          2    1    1    2  502    0 -0.20516756687E+02 -0.70587700160E+01  0.51699765854E+01  0.22304533104E+02  0.00000000000E+00 0. -1.
</event>
<event>
 4    1  0.6089441E+003  0.2224539E+02  0.7546771E-02  0.1502198E+00
          2   -1    0    0  501    0  0.00000000000E+00  0.00000000000E+00  0.39735808049E+03  0.39735808049E+03  0.00000000000E+00 0.  1.
          2   -1    0    0  502    0 -0.00000000000E+00 -0.00000000000E+00 -0.56390998644E+03  0.56390998644E+03  0.00000000000E+00 0. -1.
          2    1    1    2  501    0  0.22213467320E+02  0.11913299829E+01 -0.56337896417E+03  0.56381798009E+03  0.00000000000E+00 0. -1.
          2    1    1    2  502    0 -0.22213467320E+02 -0.11913299829E+01  0.39682705822E+03  0.39745008684E+03  0.00000000000E+00 0.  1.
</event>
<event>
 4    1  0.6089441E+003  0.2092001E+02  0.7546771E-02  0.1520410E+00
          2   -1    0    0  501    0  0.00000000000E+00  0.00000000000E+00  0.73013046068E+00  0.73013046068E+00  0.00000000000E+00 0.  1.
          2   -1    0    0  502    0 -0.00000000000E+00 -0.00000000000E+00 -0.11612010438E+04  0.11612010438E+04  0.00000000000E+00 0. -1.
          2    1    1    2  501    0 -0.19661232026E+02  0.71472321195E+01 -0.98433130115E+03  0.98455358279E+03  0.00000000000E+00 0. -1.
          2    1    1    2  502    0  0.19661232026E+02 -0.71472321195E+01 -0.17613961217E+03  0.17737759145E+03  0.00000000000E+00 0.  1.
</event>
<event>
 4    1  0.6089441E+003  0.2016438E+02  0.7546771E-02  0.1531538E+00
          2   -1    0    0  501    0  0.00000000000E+00  0.00000000000E+00  0.76308554485E+03  0.76308554485E+03  0.00000000000E+00 0. -1.
          2   -1    0    0  502    0 -0.00000000000E+00 -0.00000000000E+00 -0.37028165264E+02  0.37028165264E+02  0.00000000000E+00 0. -1.
          2    1    1    2  501    0  0.22263667040E+01 -0.20041096985E+02 -0.34139301951E+02  0.39649643312E+02  0.00000000000E+00 0. -1.
          2    1    1    2  502    0 -0.22263667040E+01  0.20041096985E+02  0.76019668154E+03  0.76046406680E+03  0.00000000000E+00 0. -1.
</event>
<event>
 4    1  0.6089441E+003  0.5260721E+02  0.7546771E-02  0.1287248E+00
          2   -1    0    0  502    0  0.00000000000E+00  0.00000000000E+00  0.81008718359E+00  0.81008718359E+00  0.00000000000E+00 0.  1.
          2   -1    0    0  501    0 -0.00000000000E+00 -0.00000000000E+00 -0.38422967879E+04  0.38422967879E+04  0.00000000000E+00 0.  1.
          2    1    1    2  501    0 -0.50860416353E+02 -0.13443839779E+02 -0.12809364943E+04  0.12820163108E+04  0.00000000000E+00 0.  1.
          2    1    1    2  502    0  0.50860416353E+02  0.13443839779E+02 -0.25605502064E+04  0.25610905643E+04  0.00000000000E+00 0.  1.
</event>
<event>
 4    1  0.6089441E+003  0.2077882E+02  0.7546771E-02  0.1522446E+00
          2   -1    0    0  501    0  0.00000000000E+00  0.00000000000E+00  0.11659989387E+04  0.11659989387E+04  0.00000000000E+00 0. -1.
          2   -1    0    0  502    0 -0.00000000000E+00 -0.00000000000E+00 -0.10199486748E+02  0.10199486748E+02  0.00000000000E+00 0. -1.
          2    1    1    2  501    0  0.17651013608E+02 -0.10963627139E+02  0.57464943425E+00  0.20786765583E+02  0.00000000000E+00 0. -1.
          2    1    1    2  502    0 -0.17651013608E+02  0.10963627139E+02  0.11552248025E+04  0.11554116598E+04  0.00000000000E+00 0. -1.
</event>
<event>
 4    1  0.6089441E+003  0.2598483E+02  0.7546771E-02  0.1458081E+00
          2   -1    0    0  502    0  0.00000000000E+00  0.00000000000E+00  0.12537617151E+04  0.12537617151E+04  0.00000000000E+00 0. -1.
          2   -1    0    0  501    0 -0.00000000000E+00 -0.00000000000E+00 -0.36029808860E+01  0.36029808860E+01  0.00000000000E+00 0. -1.
          2    1    1    2  501    0 -0.22348273831E+02  0.13257682112E+02  0.12048754940E+04  0.12051556611E+04  0.00000000000E+00 0. -1.
          2    1    1    2  502    0  0.22348273831E+02 -0.13257682112E+02  0.45283240243E+02  0.52209034899E+02  0.00000000000E+00 0. -1.
</event>
<event>
 4    1  0.6089441E+003  0.2193235E+02  0.7546771E-02  0.1506358E+00
          2   -1    0    0  501    0  0.00000000000E+00  0.00000000000E+00  0.10991636020E+02  0.10991636020E+02  0.00000000000E+00 0. -1.
          2   -1    0    0  502    0 -0.00000000000E+00 -0.00000000000E+00 -0.41122681899E+03  0.41122681899E+03  0.00000000000E+00 0.  1.
          2    1    1    2  501    0  0.13685771081E+02  0.17138479862E+02 -0.39967770743E+03  0.40027902473E+03  0.00000000000E+00 0.  1.
          2    1    1    2  502    0 -0.13685771081E+02 -0.17138479862E+02 -0.55747554105E+00  0.21939430281E+02  0.00000000000E+00 0. -1.
</event>
<event>
 4    1  0.6089441E+003  0.2866534E+02  0.7546771E-02  0.1431560E+00
          2   -1    0    0  502    0  0.00000000000E+00  0.00000000000E+00  0.12804841779E+01  0.12804841779E+01  0.00000000000E+00 0. -1.
          2   -1    0    0  501    0 -0.00000000000E+00 -0.00000000000E+00 -0.67872747692E+03  0.67872747692E+03  0.00000000000E+00 0. -1.
          2    1    1    2  501    0 -0.26112114056E+02 -0.11826210151E+02 -0.25932186831E+03  0.26090138584E+03  0.00000000000E+00 0. -1.
          2    1    1    2  502    0  0.26112114056E+02  0.11826210151E+02 -0.41812512442E+03  0.41910657525E+03  0.00000000000E+00 0. -1.
</event>
<event>
 4    1  0.6089441E+003  0.2222081E+02  0.7546771E-02  0.1502521E+00
          2   -1    0    0  502    0  0.00000000000E+00  0.00000000000E+00  0.57884928725E+03  0.57884928725E+03  0.00000000000E+00 0. -1.
          2   -1    0    0  501    0 -0.00000000000E+00 -0.00000000000E+00 -0.29558581206E+01  0.29558581206E+01  0.00000000000E+00 0.  1.
          2    1    1    2  501    0 -0.44771390384E+00 -0.22216296587E+02  0.53331007675E+03  0.53377280021E+03  0.00000000000E+00 0. -1.
          2    1    1    2  502    0  0.44771390384E+00  0.22216296587E+02  0.42583352387E+02  0.48032345167E+02  0.00000000000E+00 0.  1.
</event>
<event>
 4    1  0.6089441E+003  0.2108695E+02  0.7546771E-02  0.1518027E+00
          2   -1    0    0  501    0  0.00000000000E+00  0.00000000000E+00  0.54774745890E+03  0.54774745890E+03  0.00000000000E+00 0. -1.
          2   -1    0    0  502    0 -0.00000000000E+00 -0.00000000000E+00 -0.27600977685E+01  0.27600977685E+01  0.00000000000E+00 0. -1.
          2    1    1    2  501    0 -0.40140007524E+01 -0.20701381806E+02  0.41234424171E+02  0.46313466156E+02  0.00000000000E+00 0. -1.
          2    1    1    2  502    0  0.40140007524E+01  0.20701381806E+02  0.50375293696E+03  0.50419409051E+03  0.00000000000E+00 0. -1.
</event>
<event>
 4    1  0.6089441E+003  0.2076881E+02  0.7546771E-02  0.1522591E+00
          2   -1    0    0  501    0  0.00000000000E+00  0.00000000000E+00  0.41881907422E+03  0.41881907422E+03  0.00000000000E+00 0.  1.
          2   -1    0    0  502    0 -0.00000000000E+00 -0.00000000000E+00 -0.10741919142E+01  0.10741919142E+01  0.00000000000E+00 0. -1.
          2    1    1    2  501    0 -0.38888551287E+01 -0.20401475430E+02  0.16624285413E+03  0.16753516032E+03  0.00000000000E+00 0.  1.
          2    1    1    2  502    0  0.38888551287E+01  0.20401475430E+02  0.25150202818E+03  0.25235810582E+03  0.00000000000E+00 0. -1.
</event>
<event>
 4    1  0.6089441E+003  0.2984954E+02  0.7546771E-02  0.1420909E+00
          2   -1    0    0  501    0  0.00000000000E+00  0.00000000000E+00  0.16244805550E+04  0.16244805550E+04  0.00000000000E+00 0. -1.
          2   -1    0    0  502    0 -0.00000000000E+00 -0.00000000000E+00 -0.58373791995E+01  0.58373791995E+01  0.00000000000E+00 0.  1.
          2    1    1    2  501    0 -0.13581417992E+02  0.26580817642E+02  0.33403260562E+02  0.44797015496E+02  0.00000000000E+00 0.  1.
          2    1    1    2  502    0  0.13581417992E+02 -0.26580817642E+02  0.15852399153E+04  0.15855209187E+04  0.00000000000E+00 0. -1.
</event>
<event>
 4    1  0.6089441E+003  0.2547575E+02  0.7546771E-02  0.1463551E+00
          2   -1    0    0  502    0  0.00000000000E+00  0.00000000000E+00  0.57005577123E+03  0.57005577123E+03  0.00000000000E+00 0. -1.
          2   -1    0    0  501    0 -0.00000000000E+00 -0.00000000000E+00 -0.16417370800E+01  0.16417370800E+01  0.00000000000E+00 0. -1.
          2    1    1    2  501    0 -0.14672112958E+02 -0.20826491437E+02  0.44246547138E+03  0.44319827054E+03  0.00000000000E+00 0. -1.
          2    1    1    2  502    0  0.14672112958E+02  0.20826491437E+02  0.12594856277E+03  0.12849923777E+03  0.00000000000E+00 0. -1.
</event>
<event>
 4    1  0.6089441E+003  0.5458059E+02  0.7546771E-02  0.1279447E+00
          2   -1    0    0  502    0  0.00000000000E+00  0.00000000000E+00  0.38633435627E+02  0.38633435627E+02  0.00000000000E+00 0. -1.
          2   -1    0    0  501    0 -0.00000000000E+00 -0.00000000000E+00 -0.69537859574E+03  0.69537859574E+03  0.00000000000E+00 0. -1.
          2    1    1    2  501    0 -0.39395297996E+02  0.37776331147E+02  0.17687072637E+02  0.57374848476E+02  0.00000000000E+00 0. -1.
          2    1    1    2  502    0  0.39395297996E+02 -0.37776331147E+02 -0.67443223275E+03  0.67663718290E+03  0.00000000000E+00 0. -1.
</event>
<event>
 4    1  0.6089441E+003  0.2567082E+02  0.7546771E-02  0.1461437E+00
          2   -1    0    0  502    0  0.00000000000E+00  0.00000000000E+00  0.82783196744E+00  0.82783196744E+00  0.00000000000E+00 0.  1.
          2   -1    0    0  501    0 -0.00000000000E+00 -0.00000000000E+00 -0.80530088885E+03  0.80530088885E+03  0.00000000000E+00 0.  1.
          2    1    1    2  501    0  0.25487797068E+02 -0.30599222997E+01 -0.35902290736E+03  0.35993949343E+03  0.00000000000E+00 0.  1.
          2    1    1    2  502    0 -0.25487797068E+02  0.30599222997E+01 -0.44545014953E+03  0.44618922739E+03  0.00000000000E+00 0.  1.
</event>
<event>
 4    1  0.6089441E+003  0.2318387E+02  0.7546771E-02  0.1490202E+00
          2   -1    0    0  501    0  0.00000000000E+00  0.00000000000E+00  0.33202215762E+03  0.33202215762E+03  0.00000000000E+00 0. -1.
          2   -1    0    0  502    0 -0.00000000000E+00 -0.00000000000E+00 -0.12844124940E+03  0.12844124940E+03  0.00000000000E+00 0.  1.
          2    1    1    2  501    0  0.20730019624E+02 -0.10380668458E+02 -0.12698575516E+03  0.12908475512E+03  0.00000000000E+00 0.  1.
          2    1    1    2  502    0 -0.20730019624E+02  0.10380668458E+02  0.33056666338E+03  0.33137865189E+03  0.00000000000E+00 0. -1.
</event>
<event>
 4    1  0.6089441E+003  0.2420778E+02  0.7546771E-02  0.1477864E+00
          2   -1    0    0  502    0  0.00000000000E+00  0.00000000000E+00  0.19546555733E+04  0.19546555733E+04  0.00000000000E+00 0.  1.
          2   -1    0    0  501    0 -0.00000000000E+00 -0.00000000000E+00 -0.49243078455E+00  0.49243078455E+00  0.00000000000E+00 0.  1.
          2    1    1    2  501    0  0.56856166997E+01  0.23530623565E+02  0.15884932040E+04  0.15886776500E+04  0.00000000000E+00 0.  1.
          2    1    1    2  502    0 -0.56856166997E+01 -0.23530623565E+02  0.36566993848E+03  0.36647035404E+03  0.00000000000E+00 0.  1.
</event>
<event>
 4    1  0.6089441E+003  0.2342818E+02  0.7546771E-02  0.1487190E+00
          2   -1    0    0  502    0  0.00000000000E+00  0.00000000000E+00  0.85933329707E+03  0.85933329707E+03  0.00000000000E+00 0.  1.
          2   -1    0    0  501    0 -0.00000000000E+00 -0.00000000000E+00 -0.70131440270E+02  0.70131440270E+02  0.00000000000E+00 0. -1.
          2    1    1    2  501    0  0.99287477108E+01 -0.21220266930E+02  0.85721216368E+03  0.85753225789E+03  0.00000000000E+00 0.  1.
          2    1    1    2  502    0 -0.99287477108E+01  0.21220266930E+02 -0.68010306874E+02  0.71932479457E+02  0.00000000000E+00 0. -1.
</event>
<event>
 4    1  0.6089441E+003  0.2713783E+02  0.7546771E-02  0.1446228E+00
          2   -1    0    0  502    0  0.00000000000E+00  0.00000000000E+00  0.16968856154E+02  0.16968856154E+02  0.00000000000E+00 0. -1.
          2   -1    0    0  501    0 -0.00000000000E+00 -0.00000000000E+00 -0.93390853178E+03  0.93390853178E+03  0.00000000000E+00 0. -1.
          2    1    1    2  501    0  0.64307221950E+01 -0.26364895736E+02  0.57900908043E+01  0.27748640807E+02  0.00000000000E+00 0. -1.
          2    1    1    2  502    0 -0.64307221950E+01  0.26364895736E+02 -0.92272976643E+03  0.92312874713E+03  0.00000000000E+00 0. -1.
</event>
<event>
 4    1  0.6089441E+003  0.4379421E+02  0.7546771E-02  0.1327580E+00
          2   -1    0    0  501    0  0.00000000000E+00  0.00000000000E+00  0.50037474365E+01  0.50037474365E+01  0.00000000000E+00 0. -1.
          2   -1    0    0  502    0 -0.00000000000E+00 -0.00000000000E+00 -0.76682592387E+03  0.76682592387E+03  0.00000000000E+00 0.  1.
          2    1    1    2  501    0 -0.82211978508E+01  0.43015632400E+02 -0.65383454198E+03  0.65529958112E+03  0.00000000000E+00 0.  1.
          2    1    1    2  502    0  0.82211978508E+01 -0.43015632400E+02 -0.10798763445E+03  0.11653009019E+03  0.00000000000E+00 0. -1.
</event>
<event>
 4    1  0.6089441E+003  0.2703208E+02  0.7546771E-02  0.1447286E+00
          2   -1    0    0  501    0  0.00000000000E+00  0.00000000000E+00  0.22264403775E+03  0.22264403775E+03  0.00000000000E+00 0. -1.
          2   -1    0    0  502    0 -0.00000000000E+00 -0.00000000000E+00 -0.12742954866E+02  0.12742954866E+02  0.00000000000E+00 0. -1.
          2    1    1    2  501    0  0.14342153982E+02  0.22913663585E+02  0.35399614844E+01  0.27262881122E+02  0.00000000000E+00 0. -1.
          2    1    1    2  502    0 -0.14342153982E+02 -0.22913663585E+02  0.20636112140E+03  0.20812411149E+03  0.00000000000E+00 0. -1.
</event>
<event>
 4    1  0.6089441E+003  0.2364728E+02  0.7546771E-02  0.1484526E+00
          2   -1    0    0  501    0  0.00000000000E+00  0.00000000000E+00  0.11309818313E+04  0.11309818313E+04  0.00000000000E+00 0. -1.
          2   -1    0    0  502    0 -0.00000000000E+00 -0.00000000000E+00 -0.13204531384E+01  0.13204531384E+01  0.00000000000E+00 0.  1.
          2    1    1    2  501    0  0.63555447718E+01 -0.22777197489E+02  0.11704886968E+03  0.11941369924E+03  0.00000000000E+00 0.  1.
          2    1    1    2  502    0 -0.63555447718E+01  0.22777197489E+02  0.10126125085E+04  0.10128885852E+04  0.00000000000E+00 0. -1.
</event>
<event>
 4    1  0.6089441E+003  0.2156451E+02  0.7546771E-02  0.1511356E+00
          2   -1    0    0  501    0  0.00000000000E+00  0.00000000000E+00  0.18361407419E+03  0.18361407419E+03  0.00000000000E+00 0.  1.
          2   -1    0    0  502    0 -0.00000000000E+00 -0.00000000000E+00 -0.22018008351E+02  0.22018008351E+02  0.00000000000E+00 0. -1.
          2    1    1    2  501    0  0.20829467717E+02 -0.55822377245E+01 -0.15924171726E+02  0.26806852642E+02  0.00000000000E+00 0. -1.
          2    1    1    2  502    0 -0.20829467717E+02  0.55822377245E+01  0.17752023757E+03  0.17882522990E+03  0.00000000000E+00 0.  1.
</event>
<event>
 4    1  0.6089441E+003  0.6718238E+02  0.7546771E-02  0.1237206E+00
          2   -1    0    0  501    0  0.00000000000E+00  0.00000000000E+00  0.21031076058E+04  0.21031076058E+04  0.00000000000E+00 0.  1.
          2   -1    0    0  502    0 -0.00000000000E+00 -0.00000000000E+00 -0.27935150880E+01  0.27935150880E+01  0.00000000000E+00 0.  1.
          2    1    1    2  501    0  0.36687799769E+02 -0.56280347368E+02  0.54325387566E+03  0.54739222279E+03  0.00000000000E+00 0.  1.
          2    1    1    2  502    0 -0.36687799769E+02  0.56280347368E+02  0.15570602151E+04  0.15585088981E+04  0.00000000000E+00 0.  1.
</event>
<event>
 4    1  0.6089441E+003  0.2861982E+02  0.7546771E-02  0.1431982E+00
          2   -1    0    0  501    0  0.00000000000E+00  0.00000000000E+00  0.11214639880E+01  0.11214639880E+01  0.00000000000E+00 0.  1.
          2   -1    0    0  502    0 -0.00000000000E+00 -0.00000000000E+00 -0.10368711405E+04  0.10368711405E+04  0.00000000000E+00 0.  1.
          2    1    1    2  501    0 -0.21731673025E+02 -0.18623335461E+02 -0.23570458258E+03  0.23743576918E+03  0.00000000000E+00 0.  1.
          2    1    1    2  502    0  0.21731673025E+02  0.18623335461E+02 -0.80004509392E+03  0.80055683530E+03  0.00000000000E+00 0.  1.
</event>
<event>
 4    1  0.6089441E+003  0.3307937E+02  0.7546771E-02  0.1394593E+00
          2   -1    0    0  502    0  0.00000000000E+00  0.00000000000E+00  0.78465376063E+02  0.78465376063E+02  0.00000000000E+00 0. -1.
          2   -1    0    0  501    0 -0.00000000000E+00 -0.00000000000E+00 -0.22095087595E+02  0.22095087595E+02  0.00000000000E+00 0.  1.
          2    1    1    2  501    0  0.32995953846E+02  0.23476713061E+01  0.58721366790E+02  0.67397651654E+02  0.00000000000E+00 0. -1.
          2    1    1    2  502    0 -0.32995953846E+02 -0.23476713061E+01 -0.23510783224E+01  0.33162812004E+02  0.00000000000E+00 0.  1.
</event>
<event>
 4    1  0.6089441E+003  0.3218546E+02  0.7546771E-02  0.1401509E+00
          2   -1    0    0  501    0  0.00000000000E+00  0.00000000000E+00  0.14674848207E+04  0.14674848207E+04  0.00000000000E+00 0.  1.
          2   -1    0    0  502    0 -0.00000000000E+00 -0.00000000000E+00 -0.97203103753E+01  0.97203103753E+01  0.00000000000E+00 0.  1.
          2    1    1    2  501    0  0.32052945261E+02 -0.29176063654E+01  0.17604368995E+02  0.36685385843E+02  0.00000000000E+00 0.  1.
          2    1    1    2  502    0 -0.32052945261E+02  0.29176063654E+01  0.14401601413E+04  0.14405197452E+04  0.00000000000E+00 0.  1.
</event>
<event>
 4    1  0.6089441E+003  0.2414520E+02  0.7546771E-02  0.1478598E+00
          2   -1    0    0  501    0  0.00000000000E+00  0.00000000000E+00  0.11126792092E+04  0.11126792092E+04  0.00000000000E+00 0.  1.
          2   -1    0    0  502    0 -0.00000000000E+00 -0.00000000000E+00 -0.38091123750E+02  0.38091123750E+02  0.00000000000E+00 0.  1.
          2    1    1    2  501    0  0.13930086881E+02 -0.19721645183E+02 -0.34120143889E+02  0.41799220426E+02  0.00000000000E+00 0.  1.
          2    1    1    2  502    0 -0.13930086881E+02  0.19721645183E+02  0.11087082294E+04  0.11089711125E+04  0.00000000000E+00 0.  1.
</event>
<event>
 4    1  0.6089441E+003  0.2912876E+02  0.7546771E-02  0.1427322E+00
          2   -1    0    0  501    0  0.00000000000E+00  0.00000000000E+00  0.11209035656E+01  0.11209035656E+01  0.00000000000E+00 0.  1.
          2   -1    0    0  502    0 -0.00000000000E+00 -0.00000000000E+00 -0.11763889121E+04  0.11763889121E+04  0.00000000000E+00 0. -1.
          2    1    1    2  501    0  0.22275865140E+02 -0.18768864903E+02 -0.93918296283E+03  0.93963456840E+03  0.00000000000E+00 0. -1.
          2    1    1    2  502    0 -0.22275865140E+02  0.18768864903E+02 -0.23608504566E+03  0.23787524722E+03  0.00000000000E+00 0.  1.
</event>
<event>
 4    1  0.6089441E+003  0.2414073E+02  0.7546771E-02  0.1478650E+00
          2   -1    0    0  501    0  0.00000000000E+00  0.00000000000E+00  0.65727331782E+00  0.65727331782E+00  0.00000000000E+00 0.  1.
          2   -1    0    0  502    0 -0.00000000000E+00 -0.00000000000E+00 -0.89950905181E+03  0.89950905181E+03  0.00000000000E+00 0. -1.
          2    1    1    2  501    0  0.17450315963E+02 -0.16681163137E+02 -0.50322914418E+03  0.50380784659E+03  0.00000000000E+00 0. -1.
          2    1    1    2  502    0 -0.17450315963E+02  0.16681163137E+02 -0.39562263431E+03  0.39635847854E+03  0.00000000000E+00 0.  1.
</event>
<event>
 4    1  0.9345473E+003  0.4860023E+02  0.7546771E-02  0.1304358E+00
          2   -1    0    0  501    0  0.00000000000E+00  0.00000000000E+00  0.10145685026E+04  0.10145685026E+04  0.00000000000E+00 0.  1.
          2   -1    0    0  502    0 -0.00000000000E+00 -0.00000000000E+00 -0.14631935403E+04  0.14631935403E+04  0.00000000000E+00 0. -1.
          2    1    1    2  501    0  0.19054765698E+02 -0.44709034630E+02 -0.14622075654E+04  0.14630150191E+04  0.00000000000E+00 0. -1.
          2    1    1    2  502    0 -0.19054765698E+02  0.44709034630E+02  0.10135825277E+04  0.10147470238E+04  0.00000000000E+00 0.  1.
</event>
<event>
 4    1  0.6089441E+003  0.2294342E+02  0.7546771E-02  0.1493210E+00
          2   -1    0    0  502    0  0.00000000000E+00  0.00000000000E+00  0.19908842790E+01  0.19908842790E+01  0.00000000000E+00 0. -1.
          2   -1    0    0  501    0 -0.00000000000E+00 -0.00000000000E+00 -0.38735811378E+03  0.38735811378E+03  0.00000000000E+00 0.  1.
          2    1    1    2  501    0  0.94703707544E+01 -0.20897671262E+02 -0.83005047664E+02  0.86117585452E+02  0.00000000000E+00 0. -1.
          2    1    1    2  502    0 -0.94703707544E+01  0.20897671262E+02 -0.30236218184E+03  0.30323141261E+03  0.00000000000E+00 0.  1.
</event>
<event>
 4    1  0.6089441E+003  0.4023096E+02  0.7546771E-02  0.1347138E+00
          2   -1    0    0  501    0  0.00000000000E+00  0.00000000000E+00  0.14059833643E+02  0.14059833643E+02  0.00000000000E+00 0. -1.
          2   -1    0    0  502    0 -0.00000000000E+00 -0.00000000000E+00 -0.12046885961E+04  0.12046885961E+04  0.00000000000E+00 0. -1.
          2    1    1    2  501    0  0.28039667083E+02  0.28849738275E+02 -0.11748424792E+04  0.11755311060E+04  0.00000000000E+00 0. -1.
          2    1    1    2  502    0 -0.28039667083E+02 -0.28849738275E+02 -0.15786283248E+02  0.43217323696E+02  0.00000000000E+00 0. -1.
</event>
<event>
 4    1  0.6089441E+003  0.2133401E+02  0.7546771E-02  0.1514549E+00
          2   -1    0    0  502    0  0.00000000000E+00  0.00000000000E+00  0.23077000570E+02  0.23077000570E+02  0.00000000000E+00 0. -1.
          2   -1    0    0  501    0 -0.00000000000E+00 -0.00000000000E+00 -0.16900700670E+03  0.16900700670E+03  0.00000000000E+00 0. -1.
          2    1    1    2  501    0 -0.14202627554E+01 -0.21286680868E+02  0.17299290354E+02  0.27466440895E+02  0.00000000000E+00 0. -1.
          2    1    1    2  502    0  0.14202627554E+01  0.21286680868E+02 -0.16322929648E+03  0.16461756637E+03  0.00000000000E+00 0. -1.
</event>
<event>
 4    1  0.6089441E+003  0.5096194E+02  0.7546771E-02  0.1294055E+00
          2   -1    0    0  502    0  0.00000000000E+00  0.00000000000E+00  0.49398197836E+03  0.49398197836E+03  0.00000000000E+00 0. -1.
          2   -1    0    0  501    0 -0.00000000000E+00 -0.00000000000E+00 -0.95896532030E+01  0.95896532030E+01  0.00000000000E+00 0. -1.
          2    1    1    2  501    0 -0.43064050234E+02 -0.27250808314E+02  0.41142751604E+03  0.41457173075E+03  0.00000000000E+00 0. -1.
          2    1    1    2  502    0  0.43064050234E+02  0.27250808314E+02  0.72964809113E+02  0.88999900816E+02  0.00000000000E+00 0. -1.
</event>
<event>
 4    1  0.6089441E+003  0.2138089E+02  0.7546771E-02  0.1513896E+00
          2   -1    0    0  501    0  0.00000000000E+00  0.00000000000E+00  0.68693490866E+03  0.68693490866E+03  0.00000000000E+00 0. -1.
          2   -1    0    0  502    0 -0.00000000000E+00 -0.00000000000E+00 -0.34306415225E+01  0.34306415225E+01  0.00000000000E+00 0.  1.
          2    1    1    2  501    0 -0.20615061758E+02 -0.56711233777E+01  0.31852125309E+02  0.38362746230E+02  0.00000000000E+00 0.  1.
          2    1    1    2  502    0  0.20615061758E+02  0.56711233777E+01  0.65165214183E+03  0.65200280395E+03  0.00000000000E+00 0. -1.
</event>
<event>
 4    1  0.6089441E+003  0.4153580E+02  0.7546771E-02  0.1339714E+00
          2   -1    0    0  502    0  0.00000000000E+00  0.00000000000E+00  0.40311511635E+03  0.40311511635E+03  0.00000000000E+00 0. -1.
          2   -1    0    0  501    0 -0.00000000000E+00 -0.00000000000E+00 -0.12189161506E+02  0.12189161506E+02  0.00000000000E+00 0. -1.
          2    1    1    2  501    0  0.99838885194E+01 -0.40318046986E+02  0.36273456938E+03  0.36510490379E+03  0.00000000000E+00 0. -1.
          2    1    1    2  502    0 -0.99838885194E+01  0.40318046986E+02  0.28191385459E+02  0.50199374068E+02  0.00000000000E+00 0. -1.
</event>
<event>
 4    1  0.6089441E+003  0.2086880E+02  0.7546771E-02  0.1521146E+00
          2   -1    0    0  502    0  0.00000000000E+00  0.00000000000E+00  0.13718338576E+01  0.13718338576E+01  0.00000000000E+00 0. -1.
          2   -1    0    0  501    0 -0.00000000000E+00 -0.00000000000E+00 -0.43963012467E+03  0.43963012467E+03  0.00000000000E+00 0.  1.
          2    1    1    2  501    0 -0.14194690669E+02 -0.15297637885E+02 -0.10289242178E+03  0.10498741557E+03  0.00000000000E+00 0. -1.
          2    1    1    2  502    0  0.14194690669E+02  0.15297637885E+02 -0.33536586903E+03  0.33601454296E+03  0.00000000000E+00 0.  1.
</event>
<event>
 4    1  0.6089441E+003  0.4310564E+02  0.7546771E-02  0.1331189E+00
          2   -1    0    0  501    0  0.00000000000E+00  0.00000000000E+00  0.17800367315E+04  0.17800367315E+04  0.00000000000E+00 0. -1.
          2   -1    0    0  502    0 -0.00000000000E+00 -0.00000000000E+00 -0.80934936669E+01  0.80934936669E+01  0.00000000000E+00 0.  1.
          2    1    1    2  501    0  0.27381272269E+02  0.33292068345E+02  0.51551749416E+02  0.67198800239E+02  0.00000000000E+00 0.  1.
          2    1    1    2  502    0 -0.27381272269E+02 -0.33292068345E+02  0.17203914884E+04  0.17209314249E+04  0.00000000000E+00 0. -1.
</event>
<event>
 4    1  0.6089441E+003  0.2625407E+02  0.7546771E-02  0.1455248E+00
          2   -1    0    0  502    0  0.00000000000E+00  0.00000000000E+00  0.32247710587E+03  0.32247710587E+03  0.00000000000E+00 0.  1.
          2   -1    0    0  501    0 -0.00000000000E+00 -0.00000000000E+00 -0.23017091391E+02  0.23017091391E+02  0.00000000000E+00 0. -1.
          2    1    1    2  501    0  0.19375294756E+02  0.17716492700E+02  0.31426078100E+03  0.31535553687E+03  0.00000000000E+00 0.  1.
          2    1    1    2  502    0 -0.19375294756E+02 -0.17716492700E+02 -0.14800766521E+02  0.30138660390E+02  0.00000000000E+00 0. -1.
</event>
<event>
 4    1  0.6089441E+003  0.2273304E+02  0.7546771E-02  0.1495878E+00
          2   -1    0    0  502    0  0.00000000000E+00  0.00000000000E+00  0.14866018293E+04  0.14866018293E+04  0.00000000000E+00 0.  1.
          2   -1    0    0  501    0 -0.00000000000E+00 -0.00000000000E+00 -0.10901750950E+01  0.10901750950E+01  0.00000000000E+00 0.  1.
          2    1    1    2  501    0 -0.23522308847E+01  0.22611014264E+02  0.13566529826E+04  0.13568434347E+04  0.00000000000E+00 0.  1.
          2    1    1    2  502    0  0.23522308847E+01 -0.22611014264E+02  0.12885867155E+03  0.13084856969E+03  0.00000000000E+00 0.  1.
</event>
<event>
 4    1  0.6089441E+003  0.8096406E+02  0.7546771E-02  0.1201627E+00
          2   -1    0    0  501    0  0.00000000000E+00  0.00000000000E+00  0.15176992966E+04  0.15176992966E+04  0.00000000000E+00 0.  1.
          2   -1    0    0  502    0 -0.00000000000E+00 -0.00000000000E+00 -0.26378629404E+02  0.26378629404E+02  0.00000000000E+00 0.  1.
          2    1    1    2  501    0 -0.47050014349E+02 -0.65889872988E+02  0.39650612072E+02  0.90151817787E+02  0.00000000000E+00 0.  1.
          2    1    1    2  502    0  0.47050014349E+02  0.65889872988E+02  0.14516700551E+04  0.14539261082E+04  0.00000000000E+00 0.  1.
</event>
<event>
 4    1  0.6089441E+003  0.2316110E+02  0.7546771E-02  0.1490485E+00
          2   -1    0    0  502    0  0.00000000000E+00  0.00000000000E+00  0.76776812153E+00  0.76776812153E+00  0.00000000000E+00 0. -1.
          2   -1    0    0  501    0 -0.00000000000E+00 -0.00000000000E+00 -0.87715770948E+03  0.87715770948E+03  0.00000000000E+00 0.  1.
          2    1    1    2  501    0 -0.88599019114E+01 -0.21399502041E+02 -0.24019675118E+03  0.24131082824E+03  0.00000000000E+00 0. -1.
          2    1    1    2  502    0  0.88599019114E+01  0.21399502041E+02 -0.63619319018E+03  0.63661464936E+03  0.00000000000E+00 0.  1.
</event>
<event>
 4    1  0.6089441E+003  0.2155184E+02  0.7546771E-02  0.1511530E+00
          2   -1    0    0  501    0  0.00000000000E+00  0.00000000000E+00  0.78613136723E+03  0.78613136723E+03  0.00000000000E+00 0. -1.
          2   -1    0    0  502    0 -0.00000000000E+00 -0.00000000000E+00 -0.34544033075E+03  0.34544033075E+03  0.00000000000E+00 0.  1.
          2    1    1    2  501    0  0.15924625427E+02  0.14521981303E+02 -0.34495626061E+03  0.34562885205E+03  0.00000000000E+00 0.  1.
          2    1    1    2  502    0 -0.15924625427E+02 -0.14521981303E+02  0.78564729709E+03  0.78594284592E+03  0.00000000000E+00 0. -1.
</event>
<event>
 4    1  0.6089441E+003  0.2402113E+02  0.7546771E-02  0.1480059E+00
          2   -1    0    0  501    0  0.00000000000E+00  0.00000000000E+00  0.27809918458E+02  0.27809918458E+02  0.00000000000E+00 0.  1.
          2   -1    0    0  502    0 -0.00000000000E+00 -0.00000000000E+00 -0.27837428607E+02  0.27837428607E+02  0.00000000000E+00 0.  1.
          2    1    1    2  501    0  0.52640767620E+00  0.24015365825E+02 -0.14054473256E+02  0.27830614784E+02  0.00000000000E+00 0.  1.
          2    1    1    2  502    0 -0.52640767620E+00 -0.24015365825E+02  0.14026963107E+02  0.27816732281E+02  0.00000000000E+00 0.  1.
</event>
<event>
 4    1  0.6089441E+003  0.2255364E+02  0.7546771E-02  0.1498180E+00
          2   -1    0    0  501    0  0.00000000000E+00  0.00000000000E+00  0.36199456799E+02  0.36199456799E+02  0.00000000000E+00 0.  1.
          2   -1    0    0  502    0 -0.00000000000E+00 -0.00000000000E+00 -0.24514763257E+03  0.24514763257E+03  0.00000000000E+00 0.  1.
          2    1    1    2  501    0  0.19492580485E+02  0.11344872368E+02 -0.24105646101E+03  0.24210924025E+03  0.00000000000E+00 0.  1.
          2    1    1    2  502    0 -0.19492580485E+02 -0.11344872368E+02  0.32108285232E+02  0.39237849120E+02  0.00000000000E+00 0.  1.
</event>
<event>
 4    1  0.6089441E+003  0.2342979E+02  0.7546771E-02  0.1487171E+00
          2   -1    0    0  501    0  0.00000000000E+00  0.00000000000E+00  0.12058430213E+03  0.12058430213E+03  0.00000000000E+00 0. -1.
          2   -1    0    0  502    0 -0.00000000000E+00 -0.00000000000E+00 -0.54927569320E+03  0.54927569320E+03  0.00000000000E+00 0. -1.
          2    1    1    2  501    0  0.16009317172E+02 -0.17107211982E+02 -0.54788483687E+03  0.54838558461E+03  0.00000000000E+00 0. -1.
          2    1    1    2  502    0 -0.16009317172E+02  0.17107211982E+02  0.11919344580E+03  0.12147441072E+03  0.00000000000E+00 0. -1.
</event>
<event>
 4    1  0.6089441E+003  0.2963042E+02  0.7546771E-02  0.1422836E+00
          2   -1    0    0  501    0  0.00000000000E+00  0.00000000000E+00  0.62370902401E+03  0.62370902401E+03  0.00000000000E+00 0. -1.
          2   -1    0    0  502    0 -0.00000000000E+00 -0.00000000000E+00 -0.52214033034E+01  0.52214033034E+01  0.00000000000E+00 0. -1.
          2    1    1    2  501    0  0.65783014506E+01  0.28890967191E+02  0.40489480895E+02  0.50173300652E+02  0.00000000000E+00 0. -1.
          2    1    1    2  502    0 -0.65783014506E+01 -0.28890967191E+02  0.57799813982E+03  0.57875712667E+03  0.00000000000E+00 0. -1.
</event>
<event>
 4    1  0.6089441E+003  0.2098121E+02  0.7546771E-02  0.1519533E+00
          2   -1    0    0  502    0  0.00000000000E+00  0.00000000000E+00  0.18105553794E+01  0.18105553794E+01  0.00000000000E+00 0. -1.
          2   -1    0    0  501    0 -0.00000000000E+00 -0.00000000000E+00 -0.13018773578E+04  0.13018773578E+04  0.00000000000E+00 0.  1.
          2    1    1    2  501    0  0.18434474376E+02 -0.10019053694E+02 -0.62200979852E+02  0.65644292798E+02  0.00000000000E+00 0. -1.
          2    1    1    2  502    0 -0.18434474376E+02  0.10019053694E+02 -0.12378658225E+04  0.12380436203E+04  0.00000000000E+00 0.  1.
</event>
<event>
 4    1  0.9862848E+003  0.2467088E+02  0.7546771E-02  0.1472519E+00
          2   -1    0    0  502    0  0.00000000000E+00  0.00000000000E+00  0.16013523964E+04  0.16013523964E+04  0.00000000000E+00 0.  1.
          2   -1    0    0  501    0 -0.00000000000E+00 -0.00000000000E+00 -0.70056214192E+03  0.70056214192E+03  0.00000000000E+00 0. -1.
          2    1    1    2  501    0  0.20620128399E+02 -0.13544835769E+02  0.16010401310E+04  0.16012302000E+04  0.00000000000E+00 0.  1.
          2    1    1    2  502    0 -0.20620128399E+02  0.13544835769E+02 -0.70024987658E+03  0.70068433829E+03  0.00000000000E+00 0. -1.
</event>
<event>
 4    1  0.6089441E+003  0.2046056E+02  0.7546771E-02  0.1527108E+00
          2   -1    0    0  501    0  0.00000000000E+00  0.00000000000E+00  0.12553442995E+04  0.12553442995E+04  0.00000000000E+00 0.  1.
          2   -1    0    0  502    0 -0.00000000000E+00 -0.00000000000E+00 -0.63663567032E+00  0.63663567032E+00  0.00000000000E+00 0.  1.
          2    1    1    2  501    0 -0.15211419129E+02  0.13683835728E+02  0.19400359606E+03  0.19507954766E+03  0.00000000000E+00 0.  1.
          2    1    1    2  502    0  0.15211419129E+02 -0.13683835728E+02  0.10607040677E+04  0.10609013875E+04  0.00000000000E+00 0.  1.
</event>
<event>
 4    1  0.6089441E+003  0.3536323E+02  0.7546771E-02  0.1378027E+00
          2   -1    0    0  502    0  0.00000000000E+00  0.00000000000E+00  0.10750505446E+02  0.10750505446E+02  0.00000000000E+00 0. -1.
          2   -1    0    0  501    0 -0.00000000000E+00 -0.00000000000E+00 -0.11835220238E+04  0.11835220238E+04  0.00000000000E+00 0. -1.
          2    1    1    2  501    0  0.21747043752E+02  0.27885914060E+02 -0.19353884860E+02  0.40312913242E+02  0.00000000000E+00 0. -1.
          2    1    1    2  502    0 -0.21747043752E+02 -0.27885914060E+02 -0.11534176335E+04  0.11539596160E+04  0.00000000000E+00 0. -1.
</event>
<event>
 4    1  0.6089441E+003  0.2020545E+02  0.7546771E-02  0.1530918E+00
          2   -1    0    0  502    0  0.00000000000E+00  0.00000000000E+00  0.54470440573E+02  0.54470440573E+02  0.00000000000E+00 0.  1.
          2   -1    0    0  501    0 -0.00000000000E+00 -0.00000000000E+00 -0.14360441227E+02  0.14360441227E+02  0.00000000000E+00 0. -1.
          2    1    1    2  501    0  0.90996654291E+01 -0.18040411511E+02  0.43850843721E+02  0.48282055191E+02  0.00000000000E+00 0.  1.
          2    1    1    2  502    0 -0.90996654291E+01  0.18040411511E+02 -0.37408443745E+01  0.20548826609E+02  0.00000000000E+00 0. -1.
</event>
<event>
 4    1  0.6089441E+003  0.3142500E+02  0.7546771E-02  0.1407605E+00
          2   -1    0    0  502    0  0.00000000000E+00  0.00000000000E+00  0.75473395184E+03  0.75473395184E+03  0.00000000000E+00 0.  1.
          2   -1    0    0  501    0 -0.00000000000E+00 -0.00000000000E+00 -0.35194311805E+03  0.35194311805E+03  0.00000000000E+00 0.  1.
          2    1    1    2  501    0  0.42460186787E+01 -0.31136823374E+02  0.75370439751E+03  0.75435923092E+03  0.00000000000E+00 0.  1.
          2    1    1    2  502    0 -0.42460186787E+01  0.31136823374E+02 -0.35091356373E+03  0.35231783896E+03  0.00000000000E+00 0.  1.
</event>
<event>
 4    1  0.6089441E+003  0.3688059E+02  0.7546771E-02  0.1367803E+00
          2   -1    0    0  501    0  0.00000000000E+00  0.00000000000E+00  0.14866791381E+02  0.14866791381E+02  0.00000000000E+00 0.  1.
          2   -1    0    0  502    0 -0.00000000000E+00 -0.00000000000E+00 -0.89092636286E+03  0.89092636286E+03  0.00000000000E+00 0.  1.
          2    1    1    2  501    0  0.18977029235E+02 -0.31623568157E+02 -0.86704215048E+03  0.86782617407E+03  0.00000000000E+00 0.  1.
          2    1    1    2  502    0 -0.18977029235E+02  0.31623568157E+02 -0.90174210031E+01  0.37966980169E+02  0.00000000000E+00 0.  1.
</event>
<event>
 4    1  0.6089441E+003  0.2135639E+02  0.7546771E-02  0.1514237E+00
          2   -1    0    0  502    0  0.00000000000E+00  0.00000000000E+00  0.21732768754E+04  0.21732768754E+04  0.00000000000E+00 0. -1.
          2   -1    0    0  501    0 -0.00000000000E+00 -0.00000000000E+00 -0.22291023334E+00  0.22291023334E+00  0.00000000000E+00 0. -1.
          2    1    1    2  501    0 -0.20712928467E+02  0.52028672180E+01  0.13494247153E+04  0.13495937009E+04  0.00000000000E+00 0. -1.
          2    1    1    2  502    0  0.20712928467E+02 -0.52028672180E+01  0.82362924992E+03  0.82390608479E+03  0.00000000000E+00 0. -1.
</event>
<event>
 4    1  0.6089441E+003  0.2373646E+02  0.7546771E-02  0.1483452E+00
          2   -1    0    0  502    0  0.00000000000E+00  0.00000000000E+00  0.13383747339E+03  0.13383747339E+03  0.00000000000E+00 0.  1.
          2   -1    0    0  501    0 -0.00000000000E+00 -0.00000000000E+00 -0.67677172037E+03  0.67677172037E+03  0.00000000000E+00 0. -1.
          2    1    1    2  501    0 -0.24563234842E+01  0.23609025309E+02  0.13257494691E+03  0.13468309526E+03  0.00000000000E+00 0.  1.
          2    1    1    2  502    0  0.24563234842E+01 -0.23609025309E+02 -0.67550919389E+03  0.67592609850E+03  0.00000000000E+00 0. -1.
</event>
<event>
 4    1  0.6089441E+003  0.2011023E+02  0.7546771E-02  0.1532357E+00
          2   -1    0    0  501    0  0.00000000000E+00  0.00000000000E+00  0.53870548556E+03  0.53870548556E+03  0.00000000000E+00 0.  1.
          2   -1    0    0  502    0 -0.00000000000E+00 -0.00000000000E+00 -0.15001750467E+03  0.15001750467E+03  0.00000000000E+00 0. -1.
          2    1    1    2  501    0  0.19382407124E+02  0.53612964641E+01 -0.14915478534E+03  0.15050438929E+03  0.00000000000E+00 0. -1.
          2    1    1    2  502    0 -0.19382407124E+02 -0.53612964641E+01  0.53784276623E+03  0.53821860093E+03  0.00000000000E+00 0.  1.
</event>
<event>
 4    1  0.6089441E+003  0.2405133E+02  0.7546771E-02  0.1479702E+00
          2   -1    0    0  501    0  0.00000000000E+00  0.00000000000E+00  0.54232318897E+03  0.54232318897E+03  0.00000000000E+00 0. -1.
          2   -1    0    0  502    0 -0.00000000000E+00 -0.00000000000E+00 -0.42616536053E+03  0.42616536053E+03  0.00000000000E+00 0.  1.
          2    1    1    2  501    0  0.22148155232E+02 -0.93768822090E+01 -0.42555897540E+03  0.42623808868E+03  0.00000000000E+00 0.  1.
          2    1    1    2  502    0 -0.22148155232E+02  0.93768822090E+01  0.54171680384E+03  0.54225046082E+03  0.00000000000E+00 0. -1.
</event>
<event>
 4    1  0.6089441E+003  0.2339576E+02  0.7546771E-02  0.1487587E+00
          2   -1    0    0  501    0  0.00000000000E+00  0.00000000000E+00  0.34872044928E+03  0.34872044928E+03  0.00000000000E+00 0.  1.
          2   -1    0    0  502    0 -0.00000000000E+00 -0.00000000000E+00 -0.25841278720E+01  0.25841278720E+01  0.00000000000E+00 0. -1.
          2    1    1    2  501    0 -0.22840014017E+02 -0.50690472002E+01  0.63009873365E+02  0.67213135780E+02  0.00000000000E+00 0. -1.
          2    1    1    2  502    0  0.22840014017E+02  0.50690472002E+01  0.28312644804E+03  0.28409144137E+03  0.00000000000E+00 0.  1.
</event>
<event>
 4    1  0.6089441E+003  0.2169498E+02  0.7546771E-02  0.1509569E+00
          2   -1    0    0  501    0  0.00000000000E+00  0.00000000000E+00  0.22657091109E+01  0.22657091109E+01  0.00000000000E+00 0. -1.
          2   -1    0    0  502    0 -0.00000000000E+00 -0.00000000000E+00 -0.75339822586E+03  0.75339822586E+03  0.00000000000E+00 0. -1.
          2    1    1    2  501    0 -0.21069698875E+02  0.51710767345E+01 -0.69711575898E+03  0.69745326271E+03  0.00000000000E+00 0. -1.
          2    1    1    2  502    0  0.21069698875E+02 -0.51710767345E+01 -0.54016757767E+02  0.58210672259E+02  0.00000000000E+00 0. -1.
</event>
<event>
 4    1  0.6089441E+003  0.2882119E+02  0.7546771E-02  0.1430124E+00
          2   -1    0    0  501    0  0.00000000000E+00  0.00000000000E+00  0.14984643023E+04  0.14984643023E+04  0.00000000000E+00 0. -1.
          2   -1    0    0  502    0 -0.00000000000E+00 -0.00000000000E+00 -0.61014695497E+02  0.61014695497E+02  0.00000000000E+00 0. -1.
          2    1    1    2  501    0  0.45522789830E+01  0.28459402231E+02 -0.57464500353E+02  0.64287087507E+02  0.00000000000E+00 0. -1.
          2    1    1    2  502    0 -0.45522789830E+01 -0.28459402231E+02  0.14949141071E+04  0.14951919102E+04  0.00000000000E+00 0. -1.
</event>
<event>
 4    1  0.6089441E+003  0.2327700E+02  0.7546771E-02  0.1489049E+00
          2   -1    0    0  501    0  0.00000000000E+00  0.00000000000E+00  0.18583639581E+03  0.18583639581E+03  0.00000000000E+00 0. -1.
          2   -1    0    0  502    0 -0.00000000000E+00 -0.00000000000E+00 -0.33078499959E+01  0.33078499959E+01  0.00000000000E+00 0. -1.
          2    1    1    2  501    0  0.22138278419E+02 -0.71913481979E+01  0.58696445126E+02  0.63143420328E+02  0.00000000000E+00 0. -1.
          2    1    1    2  502    0 -0.22138278419E+02  0.71913481979E+01  0.12383210069E+03  0.12600082548E+03  0.00000000000E+00 0. -1.
</event>
<event>
 4    1  0.6089441E+003  0.2097567E+02  0.7546771E-02  0.1519612E+00
          2   -1    0    0  501    0  0.00000000000E+00  0.00000000000E+00  0.50733786272E+02  0.50733786272E+02  0.00000000000E+00 0.  1.
          2   -1    0    0  502    0 -0.00000000000E+00 -0.00000000000E+00 -0.38834599772E+02  0.38834599772E+02  0.00000000000E+00 0.  1.
          2    1    1    2  501    0  0.20921503378E+02  0.15064574226E+01 -0.33518627398E+02  0.39540828269E+02  0.00000000000E+00 0.  1.
          2    1    1    2  502    0 -0.20921503378E+02 -0.15064574226E+01  0.45417813898E+02  0.50027557774E+02  0.00000000000E+00 0.  1.
</event>
<event>
 4    1  0.6089441E+003  0.2926903E+02  0.7546771E-02  0.1426057E+00
          2   -1    0    0  501    0  0.00000000000E+00  0.00000000000E+00  0.56362454306E+03  0.56362454306E+03  0.00000000000E+00 0. -1.
          2   -1    0    0  502    0 -0.00000000000E+00 -0.00000000000E+00 -0.57328128710E+01  0.57328128710E+01  0.00000000000E+00 0.  1.
          2    1    1    2  501    0 -0.28119235953E+02 -0.81230969748E+01  0.34906337762E+02  0.45553578905E+02  0.00000000000E+00 0.  1.
          2    1    1    2  502    0  0.28119235953E+02  0.81230969748E+01  0.52298539242E+03  0.52380377702E+03  0.00000000000E+00 0. -1.
</event>
<event>
 4    1  0.6089441E+003  0.2414961E+02  0.7546771E-02  0.1478546E+00
          2   -1    0    0  502    0  0.00000000000E+00  0.00000000000E+00  0.94369012765E+02  0.94369012765E+02  0.00000000000E+00 0.  1.
          2   -1    0    0  501    0 -0.00000000000E+00 -0.00000000000E+00 -0.92409072132E+02  0.92409072132E+02  0.00000000000E+00 0.  1.
          2    1    1    2  501    0 -0.22128903939E+02  0.96703390601E+01  0.91192193311E+02  0.94335677068E+02  0.00000000000E+00 0.  1.
          2    1    1    2  502    0  0.22128903939E+02 -0.96703390601E+01 -0.89232252678E+02  0.92442407828E+02  0.00000000000E+00 0.  1.
</event>
<event>
 4    1  0.6089441E+003  0.2005605E+02  0.7546771E-02  0.1533181E+00
          2   -1    0    0  501    0  0.00000000000E+00  0.00000000000E+00  0.33709995871E+02  0.33709995871E+02  0.00000000000E+00 0. -1.
          2   -1    0    0  502    0 -0.00000000000E+00 -0.00000000000E+00 -0.15852230096E+03  0.15852230096E+03  0.00000000000E+00 0.  1.
          2    1    1    2  501    0 -0.11916567792E+02  0.16131975929E+02 -0.15483403897E+03  0.15612759160E+03  0.00000000000E+00 0.  1.
          2    1    1    2  502    0  0.11916567792E+02 -0.16131975929E+02  0.30021733875E+02  0.36104705236E+02  0.00000000000E+00 0. -1.
</event>
<event>
 4    1  0.6089441E+003  0.2289853E+02  0.7546771E-02  0.1493776E+00
          2   -1    0    0  502    0  0.00000000000E+00  0.00000000000E+00  0.36587925385E+03  0.36587925385E+03  0.00000000000E+00 0.  1.
          2   -1    0    0  501    0 -0.00000000000E+00 -0.00000000000E+00 -0.83194893871E+02  0.83194893871E+02  0.00000000000E+00 0.  1.
          2    1    1    2  501    0  0.18522356479E+02 -0.13463470463E+02  0.36393693142E+03  0.36465659569E+03  0.00000000000E+00 0.  1.
          2    1    1    2  502    0 -0.18522356479E+02  0.13463470463E+02 -0.81252571438E+02  0.84417552036E+02  0.00000000000E+00 0.  1.
</event>
<event>
 4    1  0.6089441E+003  0.2176837E+02  0.7546771E-02  0.1508571E+00
          2   -1    0    0  501    0  0.00000000000E+00  0.00000000000E+00  0.45766226734E+02  0.45766226734E+02  0.00000000000E+00 0.  1.
          2   -1    0    0  502    0 -0.00000000000E+00 -0.00000000000E+00 -0.35361260205E+02  0.35361260205E+02  0.00000000000E+00 0.  1.
          2    1    1    2  501    0 -0.21768369878E+02 -0.24388068246E-02 -0.28909542932E+02  0.36188722077E+02  0.00000000000E+00 0.  1.
          2    1    1    2  502    0  0.21768369878E+02  0.24388068246E-02  0.39314509461E+02  0.44938764861E+02  0.00000000000E+00 0.  1.
</event>
<event>
 4    1  0.6326458E+003  0.2528464E+02  0.7546771E-02  0.1465644E+00
          2   -1    0    0  501    0  0.00000000000E+00  0.00000000000E+00  0.74466221379E+03  0.74466221379E+03  0.00000000000E+00 0.  1.
          2   -1    0    0  502    0 -0.00000000000E+00 -0.00000000000E+00 -0.57420097897E+03  0.57420097897E+03  0.00000000000E+00 0. -1.
          2    1    1    2  501    0  0.19013642497E+02 -0.16667170232E+02 -0.57370781359E+03  0.57426471991E+03  0.00000000000E+00 0. -1.
          2    1    1    2  502    0 -0.19013642497E+02  0.16667170232E+02  0.74416904840E+03  0.74459847285E+03  0.00000000000E+00 0.  1.
</event>
<event>
 4    1  0.6089441E+003  0.2030185E+02  0.7546771E-02  0.1529470E+00
          2   -1    0    0  502    0  0.00000000000E+00  0.00000000000E+00  0.14900195371E+02  0.14900195371E+02  0.00000000000E+00 0.  1.
          2   -1    0    0  501    0 -0.00000000000E+00 -0.00000000000E+00 -0.39690279806E+03  0.39690279806E+03  0.00000000000E+00 0.  1.
          2    1    1    2  501    0 -0.19328429398E+02  0.62110419132E+01  0.75955784101E+01  0.21676208987E+02  0.00000000000E+00 0.  1.
          2    1    1    2  502    0  0.19328429398E+02 -0.62110419132E+01 -0.38959818110E+03  0.39012678444E+03  0.00000000000E+00 0.  1.
</event>
<event>
 4    1  0.6089441E+003  0.2712393E+02  0.7546771E-02  0.1446367E+00
          2   -1    0    0  502    0  0.00000000000E+00  0.00000000000E+00  0.35578934539E+03  0.35578934539E+03  0.00000000000E+00 0.  1.
          2   -1    0    0  501    0 -0.00000000000E+00 -0.00000000000E+00 -0.46897885207E+02  0.46897885207E+02  0.00000000000E+00 0. -1.
          2    1    1    2  501    0  0.26612898833E+02  0.52403230649E+01  0.35130049485E+03  0.35234605866E+03  0.00000000000E+00 0.  1.
          2    1    1    2  502    0 -0.26612898833E+02 -0.52403230649E+01 -0.42409034671E+02  0.50341171936E+02  0.00000000000E+00 0. -1.
</event>
<event>
 4    1  0.6089441E+003  0.2383012E+02  0.7546771E-02  0.1482329E+00
          2   -1    0    0  501    0  0.00000000000E+00  0.00000000000E+00  0.86176836926E+01  0.86176836926E+01  0.00000000000E+00 0.  1.
          2   -1    0    0  502    0 -0.00000000000E+00 -0.00000000000E+00 -0.10101653460E+04  0.10101653460E+04  0.00000000000E+00 0.  1.
          2    1    1    2  501    0 -0.32978546582E+01 -0.23600819626E+02 -0.99327052780E+03  0.99355634763E+03  0.00000000000E+00 0.  1.
          2    1    1    2  502    0  0.32978546582E+01  0.23600819626E+02 -0.82771345212E+01  0.25226682070E+02  0.00000000000E+00 0.  1.
</event>
<event>
 4    1  0.6089441E+003  0.2661240E+02  0.7546771E-02  0.1451541E+00
          2   -1    0    0  501    0  0.00000000000E+00  0.00000000000E+00  0.28664779077E+02  0.28664779077E+02  0.00000000000E+00 0. -1.
          2   -1    0    0  502    0 -0.00000000000E+00 -0.00000000000E+00 -0.29629392084E+02  0.29629392084E+02  0.00000000000E+00 0. -1.
          2    1    1    2  501    0 -0.49951526824E+01  0.26139397033E+02  0.11397886954E+02  0.28950500075E+02  0.00000000000E+00 0. -1.
          2    1    1    2  502    0  0.49951526824E+01 -0.26139397033E+02 -0.12362499961E+02  0.29343671087E+02  0.00000000000E+00 0. -1.
</event>
<event>
 4    1  0.6089441E+003  0.3604935E+02  0.7546771E-02  0.1373332E+00
          2   -1    0    0  501    0  0.00000000000E+00  0.00000000000E+00  0.86644592473E+01  0.86644592473E+01  0.00000000000E+00 0. -1.
          2   -1    0    0  502    0 -0.00000000000E+00 -0.00000000000E+00 -0.54923339051E+03  0.54923339051E+03  0.00000000000E+00 0. -1.
          2    1    1    2  501    0 -0.35340768591E+02  0.71123559679E+01 -0.50811453911E+03  0.50939173569E+03  0.00000000000E+00 0. -1.
          2    1    1    2  502    0  0.35340768591E+02 -0.71123559679E+01 -0.32454392148E+02  0.48506114065E+02  0.00000000000E+00 0. -1.
</event>
<event>
 4    1  0.6089441E+003  0.3649992E+02  0.7546771E-02  0.1370314E+00
          2   -1    0    0  501    0  0.00000000000E+00  0.00000000000E+00  0.16739742359E+04  0.16739742359E+04  0.00000000000E+00 0. -1.
          2   -1    0    0  502    0 -0.00000000000E+00 -0.00000000000E+00 -0.17598120247E+03  0.17598120247E+03  0.00000000000E+00 0. -1.
          2    1    1    2  501    0  0.33880119052E+02  0.13578717670E+02 -0.17388727392E+03  0.17767675163E+03  0.00000000000E+00 0. -1.
          2    1    1    2  502    0 -0.33880119052E+02 -0.13578717670E+02  0.16718803073E+04  0.16722786867E+04  0.00000000000E+00 0. -1.
</event>
<event>
 4    1  0.6089441E+003  0.2054556E+02  0.7546771E-02  0.1525853E+00
          2   -1    0    0  502    0  0.00000000000E+00  0.00000000000E+00  0.13594341955E+04  0.13594341955E+04  0.00000000000E+00 0. -1.
          2   -1    0    0  501    0 -0.00000000000E+00 -0.00000000000E+00 -0.90410841622E+02  0.90410841622E+02  0.00000000000E+00 0. -1.
          2    1    1    2  501    0  0.39493960765E+01 -0.20162395529E+02  0.13581882699E+04  0.13583436591E+04  0.00000000000E+00 0. -1.
          2    1    1    2  502    0 -0.39493960765E+01  0.20162395529E+02 -0.89164916007E+02  0.91501377964E+02  0.00000000000E+00 0. -1.
</event>
<event>
 4    1  0.6089441E+003  0.2137751E+02  0.7546771E-02  0.1513943E+00
          2   -1    0    0  501    0  0.00000000000E+00  0.00000000000E+00  0.39609960190E+02  0.39609960190E+02  0.00000000000E+00 0.  1.
          2   -1    0    0  502    0 -0.00000000000E+00 -0.00000000000E+00 -0.30576739734E+03  0.30576739734E+03  0.00000000000E+00 0. -1.
          2    1    1    2  501    0 -0.78397703433E+01 -0.19888083412E+02 -0.30247805971E+03  0.30323254190E+03  0.00000000000E+00 0. -1.
          2    1    1    2  502    0  0.78397703433E+01  0.19888083412E+02  0.36320622563E+02  0.42144815627E+02  0.00000000000E+00 0.  1.
</event>
<event>
 4    1  0.6089441E+003  0.2231734E+02  0.7546771E-02  0.1501253E+00
          2   -1    0    0  501    0  0.00000000000E+00  0.00000000000E+00  0.71087627384E+01  0.71087627384E+01  0.00000000000E+00 0. -1.
          2   -1    0    0  502    0 -0.00000000000E+00 -0.00000000000E+00 -0.47653488491E+03  0.47653488491E+03  0.00000000000E+00 0.  1.
          2    1    1    2  501    0 -0.48971839355E+01 -0.21773405898E+02 -0.45805136846E+03  0.45859472279E+03  0.00000000000E+00 0.  1.
          2    1    1    2  502    0  0.48971839355E+01  0.21773405898E+02 -0.11374753708E+02  0.25048924863E+02  0.00000000000E+00 0. -1.
</event>
<event>
 4    1  0.6089441E+003  0.2048503E+02  0.7546771E-02  0.1526746E+00
          2   -1    0    0  502    0  0.00000000000E+00  0.00000000000E+00  0.10650796129E+04  0.10650796129E+04  0.00000000000E+00 0. -1.
          2   -1    0    0  501    0 -0.00000000000E+00 -0.00000000000E+00 -0.16135237723E+03  0.16135237723E+03  0.00000000000E+00 0.  1.
          2    1    1    2  501    0  0.13423780356E+02 -0.15473801604E+02  0.10643304702E+04  0.10645275883E+04  0.00000000000E+00 0. -1.
          2    1    1    2  502    0 -0.13423780356E+02  0.15473801604E+02 -0.16060323450E+03  0.16190440188E+03  0.00000000000E+00 0.  1.
</event>
<event>
 4    1  0.6089441E+003  0.2331323E+02  0.7546771E-02  0.1488602E+00
          2   -1    0    0  501    0  0.00000000000E+00  0.00000000000E+00  0.22630172067E+03  0.22630172067E+03  0.00000000000E+00 0.  1.
          2   -1    0    0  502    0 -0.00000000000E+00 -0.00000000000E+00 -0.32134182278E+01  0.32134182278E+01  0.00000000000E+00 0. -1.
          2    1    1    2  501    0  0.21886205996E+02 -0.80312301101E+01  0.53867115445E+02  0.58695594352E+02  0.00000000000E+00 0. -1.
          2    1    1    2  502    0 -0.21886205996E+02  0.80312301101E+01  0.16922118700E+03  0.17081954455E+03  0.00000000000E+00 0.  1.
</event>
<event>
 4    1  0.6089441E+003  0.7638696E+02  0.7546771E-02  0.1212493E+00
          2   -1    0    0  502    0  0.00000000000E+00  0.00000000000E+00  0.67442457640E+03  0.67442457640E+03  0.00000000000E+00 0.  1.
          2   -1    0    0  501    0 -0.00000000000E+00 -0.00000000000E+00 -0.14513057438E+04  0.14513057438E+04  0.00000000000E+00 0.  1.
          2    1    1    2  501    0  0.44764328867E+02  0.61896058999E+02  0.67125177421E+03  0.67558412625E+03  0.00000000000E+00 0.  1.
          2    1    1    2  502    0 -0.44764328867E+02 -0.61896058999E+02 -0.14481329416E+04  0.14501461940E+04  0.00000000000E+00 0.  1.
</event>
<event>
 4    1  0.6089441E+003  0.2195061E+02  0.7546771E-02  0.1506113E+00
          2   -1    0    0  502    0  0.00000000000E+00  0.00000000000E+00  0.10732731867E+01  0.10732731867E+01  0.00000000000E+00 0.  1.
          2   -1    0    0  501    0 -0.00000000000E+00 -0.00000000000E+00 -0.10261414229E+04  0.10261414229E+04  0.00000000000E+00 0. -1.
          2    1    1    2  501    0  0.15359946334E+02  0.15681243341E+02 -0.12732776677E+03  0.12920599651E+03  0.00000000000E+00 0.  1.
          2    1    1    2  502    0 -0.15359946334E+02 -0.15681243341E+02 -0.89774038294E+03  0.89800869958E+03  0.00000000000E+00 0. -1.
</event>
<event>
 4    1  0.6089441E+003  0.2163107E+02  0.7546771E-02  0.1510442E+00
          2   -1    0    0  501    0  0.00000000000E+00  0.00000000000E+00  0.90331064688E+00  0.90331064688E+00  0.00000000000E+00 0. -1.
          2   -1    0    0  502    0 -0.00000000000E+00 -0.00000000000E+00 -0.10695711601E+04  0.10695711601E+04  0.00000000000E+00 0.  1.
          2    1    1    2  501    0  0.15474323006E+02 -0.15114514055E+02 -0.91870204010E+03  0.91895665931E+03  0.00000000000E+00 0.  1.
          2    1    1    2  502    0 -0.15474323006E+02  0.15114514055E+02 -0.14996580940E+03  0.15151781148E+03  0.00000000000E+00 0. -1.
</event>
<event>
 4    1  0.6089441E+003  0.2352067E+02  0.7546771E-02  0.1486061E+00
          2   -1    0    0  501    0  0.00000000000E+00  0.00000000000E+00  0.11264186472E+01  0.11264186472E+01  0.00000000000E+00 0.  1.
          2   -1    0    0  502    0 -0.00000000000E+00 -0.00000000000E+00 -0.12633619883E+04  0.12633619883E+04  0.00000000000E+00 0. -1.
          2    1    1    2  501    0  0.60853667029E+01 -0.22719825070E+02 -0.11254214281E+04  0.11256671857E+04  0.00000000000E+00 0. -1.
          2    1    1    2  502    0 -0.60853667029E+01  0.22719825070E+02 -0.13681414153E+03  0.13882122122E+03  0.00000000000E+00 0.  1.
</event>
<event>
 4    1  0.6089441E+003  0.2154797E+02  0.7546771E-02  0.1511583E+00
          2   -1    0    0  502    0  0.00000000000E+00  0.00000000000E+00  0.12721121789E+04  0.12721121789E+04  0.00000000000E+00 0.  1.
          2   -1    0    0  501    0 -0.00000000000E+00 -0.00000000000E+00 -0.20797215545E+01  0.20797215545E+01  0.00000000000E+00 0.  1.
          2    1    1    2  501    0  0.15124899009E+02  0.15347719107E+02  0.12135112668E+04  0.12137025623E+04  0.00000000000E+00 0.  1.
          2    1    1    2  502    0 -0.15124899009E+02 -0.15347719107E+02  0.56521190615E+02  0.60489338237E+02  0.00000000000E+00 0.  1.
</event>
<event>
 4    1  0.6089441E+003  0.2134362E+02  0.7546771E-02  0.1514415E+00
          2   -1    0    0  501    0  0.00000000000E+00  0.00000000000E+00  0.10215184061E+02  0.10215184061E+02  0.00000000000E+00 0. -1.
          2   -1    0    0  502    0 -0.00000000000E+00 -0.00000000000E+00 -0.35205306884E+03  0.35205306884E+03  0.00000000000E+00 0.  1.
          2    1    1    2  501    0 -0.11060531499E+02  0.18254173456E+02 -0.34019240563E+03  0.34086129592E+03  0.00000000000E+00 0.  1.
          2    1    1    2  502    0  0.11060531499E+02 -0.18254173456E+02 -0.16454791455E+01  0.21406956981E+02  0.00000000000E+00 0. -1.
</event>
<event>
 4    1  0.6089441E+003  0.4214474E+02  0.7546771E-02  0.1336356E+00
          2   -1    0    0  501    0  0.00000000000E+00  0.00000000000E+00  0.24854991190E+01  0.24854991190E+01  0.00000000000E+00 0.  1.
          2   -1    0    0  502    0 -0.00000000000E+00 -0.00000000000E+00 -0.71889300951E+03  0.71889300951E+03  0.00000000000E+00 0.  1.
          2    1    1    2  501    0 -0.34558756981E+02  0.24122018724E+02 -0.33038551513E+03  0.33306270893E+03  0.00000000000E+00 0.  1.
          2    1    1    2  502    0  0.34558756981E+02 -0.24122018724E+02 -0.38602199526E+03  0.38831579970E+03  0.00000000000E+00 0.  1.
</event>
<event>
 4    1  0.6089441E+003  0.2051976E+02  0.7546771E-02  0.1526233E+00
          2   -1    0    0  501    0  0.00000000000E+00  0.00000000000E+00  0.41596770160E+03  0.41596770160E+03  0.00000000000E+00 0.  1.
          2   -1    0    0  502    0 -0.00000000000E+00 -0.00000000000E+00 -0.32055755661E+02  0.32055755661E+02  0.00000000000E+00 0.  1.
          2    1    1    2  501    0 -0.20465141740E+02 -0.14962006315E+01 -0.28490508843E+02  0.35110820795E+02  0.00000000000E+00 0.  1.
          2    1    1    2  502    0  0.20465141740E+02  0.14962006315E+01  0.41240245479E+03  0.41291263647E+03  0.00000000000E+00 0.  1.
</event>
<event>
 4    1  0.6089441E+003  0.6757176E+02  0.7546771E-02  0.1236071E+00
          2   -1    0    0  501    0  0.00000000000E+00  0.00000000000E+00  0.21358087523E+02  0.21358087523E+02  0.00000000000E+00 0.  1.
          2   -1    0    0  502    0 -0.00000000000E+00 -0.00000000000E+00 -0.10544942056E+04  0.10544942056E+04  0.00000000000E+00 0. -1.
          2    1    1    2  501    0 -0.13299063166E+02  0.66250114295E+02 -0.99688136502E+03  0.99916885392E+03  0.00000000000E+00 0. -1.
          2    1    1    2  502    0  0.13299063166E+02 -0.66250114295E+02 -0.36254753020E+02  0.76683439162E+02  0.00000000000E+00 0.  1.
</event>
<event>
 4    1  0.6089441E+003  0.2345920E+02  0.7546771E-02  0.1486811E+00
          2   -1    0    0  501    0  0.00000000000E+00  0.00000000000E+00  0.18136397814E+01  0.18136397814E+01  0.00000000000E+00 0. -1.
          2   -1    0    0  502    0 -0.00000000000E+00 -0.00000000000E+00 -0.80130959523E+03  0.80130959523E+03  0.00000000000E+00 0.  1.
          2    1    1    2  501    0  0.97201754193E+01  0.21350702219E+02 -0.71627369268E+03  0.71665775453E+03  0.00000000000E+00 0.  1.
          2    1    1    2  502    0 -0.97201754193E+01 -0.21350702219E+02 -0.83222262768E+02  0.86465480486E+02  0.00000000000E+00 0. -1.
</event>
<event>
 4    1  0.6089441E+003  0.2557052E+02  0.7546771E-02  0.1462521E+00
          2   -1    0    0  502    0  0.00000000000E+00  0.00000000000E+00  0.74694238766E+02  0.74694238766E+02  0.00000000000E+00 0.  1.
          2   -1    0    0  501    0 -0.00000000000E+00 -0.00000000000E+00 -0.24673086658E+02  0.24673086658E+02  0.00000000000E+00 0.  1.
          2    1    1    2  501    0  0.13277590592E+02 -0.21853082144E+02  0.64919030511E+02  0.69773434297E+02  0.00000000000E+00 0.  1.
          2    1    1    2  502    0 -0.13277590592E+02  0.21853082144E+02 -0.14897878403E+02  0.29593891127E+02  0.00000000000E+00 0.  1.
</event>
<event>
 4    1  0.6089441E+003  0.5127063E+02  0.7546771E-02  0.1292755E+00
          2   -1    0    0  501    0  0.00000000000E+00  0.00000000000E+00  0.76522499355E+01  0.76522499355E+01  0.00000000000E+00 0.  1.
          2   -1    0    0  502    0 -0.00000000000E+00 -0.00000000000E+00 -0.77052135976E+03  0.77052135976E+03  0.00000000000E+00 0.  1.
          2    1    1    2  501    0  0.40478342927E+02  0.31467144910E+02 -0.67108243115E+03  0.67303811694E+03  0.00000000000E+00 0.  1.
          2    1    1    2  502    0 -0.40478342927E+02 -0.31467144910E+02 -0.91786678671E+02  0.10513549275E+03  0.00000000000E+00 0.  1.
</event>
<event>
 4    1  0.6089441E+003  0.2235752E+02  0.7546771E-02  0.1500727E+00
          2   -1    0    0  501    0  0.00000000000E+00  0.00000000000E+00  0.60020690068E+02  0.60020690068E+02  0.00000000000E+00 0.  1.
          2   -1    0    0  502    0 -0.00000000000E+00 -0.00000000000E+00 -0.26256573331E+02  0.26256573331E+02  0.00000000000E+00 0.  1.
          2    1    1    2  501    0  0.16125580528E+02  0.15486266043E+02 -0.18764606349E+02  0.29188512034E+02  0.00000000000E+00 0.  1.
          2    1    1    2  502    0 -0.16125580528E+02 -0.15486266043E+02  0.52528723086E+02  0.57088751365E+02  0.00000000000E+00 0.  1.
</event>
<event>
 4    1  0.6089441E+003  0.2389418E+02  0.7546771E-02  0.1481565E+00
          2   -1    0    0  502    0  0.00000000000E+00  0.00000000000E+00  0.62863764085E+02  0.62863764085E+02  0.00000000000E+00 0. -1.
          2   -1    0    0  501    0 -0.00000000000E+00 -0.00000000000E+00 -0.28157542182E+03  0.28157542182E+03  0.00000000000E+00 0. -1.
          2    1    1    2  501    0 -0.69305052233E+01  0.22867000868E+02  0.60063579548E+02  0.64641822526E+02  0.00000000000E+00 0. -1.
          2    1    1    2  502    0  0.69305052233E+01 -0.22867000868E+02 -0.27877523728E+03  0.27979736338E+03  0.00000000000E+00 0. -1.
</event>
<event>
 4    1  0.6089441E+003  0.2601350E+02  0.7546771E-02  0.1457777E+00
          2   -1    0    0  501    0  0.00000000000E+00  0.00000000000E+00  0.10543750073E+04  0.10543750073E+04  0.00000000000E+00 0.  1.
          2   -1    0    0  502    0 -0.00000000000E+00 -0.00000000000E+00 -0.57828485283E+01  0.57828485283E+01  0.00000000000E+00 0. -1.
          2    1    1    2  501    0  0.15231422657E+02 -0.21088056607E+02  0.24497170548E+02  0.35732530452E+02  0.00000000000E+00 0. -1.
          2    1    1    2  502    0 -0.15231422657E+02  0.21088056607E+02  0.10240949882E+04  0.10244253254E+04  0.00000000000E+00 0.  1.
</event>
<event>
 4    1  0.6089441E+003  0.2272843E+02  0.7546771E-02  0.1495937E+00
          2   -1    0    0  502    0  0.00000000000E+00  0.00000000000E+00  0.42528377806E+01  0.42528377806E+01  0.00000000000E+00 0.  1.
          2   -1    0    0  501    0 -0.00000000000E+00 -0.00000000000E+00 -0.28898254133E+03  0.28898254133E+03  0.00000000000E+00 0. -1.
          2    1    1    2  501    0  0.22665865172E+02 -0.16853124105E+01 -0.30735750678E+02  0.38226536485E+02  0.00000000000E+00 0.  1.
          2    1    1    2  502    0 -0.22665865172E+02  0.16853124105E+01 -0.25399395287E+03  0.25500884263E+03  0.00000000000E+00 0. -1.
</event>
<event>
 4    1  0.6089441E+003  0.2419420E+02  0.7546771E-02  0.1478023E+00
          2   -1    0    0  501    0  0.00000000000E+00  0.00000000000E+00  0.19845685984E+01  0.19845685984E+01  0.00000000000E+00 0.  1.
          2   -1    0    0  502    0 -0.00000000000E+00 -0.00000000000E+00 -0.13556324167E+04  0.13556324167E+04  0.00000000000E+00 0. -1.
          2    1    1    2  501    0 -0.38391870778E+01 -0.23887652727E+02 -0.12772615026E+04  0.12774906283E+04  0.00000000000E+00 0. -1.
          2    1    1    2  502    0  0.38391870778E+01  0.23887652727E+02 -0.76386345462E+02  0.80126356982E+02  0.00000000000E+00 0.  1.
</event>
<event>
 4    1  0.6089441E+003  0.2812178E+02  0.7546771E-02  0.1436654E+00
          2   -1    0    0  501    0  0.00000000000E+00  0.00000000000E+00  0.60343857037E+02  0.60343857037E+02  0.00000000000E+00 0.  1.
          2   -1    0    0  502    0 -0.00000000000E+00 -0.00000000000E+00 -0.27851127344E+02  0.27851127344E+02  0.00000000000E+00 0.  1.
          2    1    1    2  501    0  0.28121781452E+02 -0.25622506854E-02 -0.15840299677E+02  0.32276147423E+02  0.00000000000E+00 0.  1.
          2    1    1    2  502    0 -0.28121781452E+02  0.25622506854E-02  0.48333029370E+02  0.55918836958E+02  0.00000000000E+00 0.  1.
</event>
<event>
 4    1  0.6089441E+003  0.3867647E+02  0.7546771E-02  0.1356421E+00
          2   -1    0    0  502    0  0.00000000000E+00  0.00000000000E+00  0.75147427285E+02  0.75147427285E+02  0.00000000000E+00 0. -1.
          2   -1    0    0  501    0 -0.00000000000E+00 -0.00000000000E+00 -0.29370649524E+02  0.29370649524E+02  0.00000000000E+00 0. -1.
          2    1    1    2  501    0  0.15716087673E+02 -0.35339412070E+02  0.52554564063E+02  0.65252215755E+02  0.00000000000E+00 0. -1.
          2    1    1    2  502    0 -0.15716087673E+02  0.35339412070E+02 -0.67777863019E+01  0.39265861054E+02  0.00000000000E+00 0. -1.
</event>
<event>
 4    1  0.6089441E+003  0.2230448E+02  0.7546771E-02  0.1501421E+00
          2   -1    0    0  501    0  0.00000000000E+00  0.00000000000E+00  0.47390357349E+02  0.47390357349E+02  0.00000000000E+00 0.  1.
          2   -1    0    0  502    0 -0.00000000000E+00 -0.00000000000E+00 -0.12949007062E+02  0.12949007062E+02  0.00000000000E+00 0. -1.
          2    1    1    2  501    0 -0.21489118571E+02 -0.59755957263E+01  0.40941137797E+01  0.22677119060E+02  0.00000000000E+00 0. -1.
          2    1    1    2  502    0  0.21489118571E+02  0.59755957263E+01  0.30347236507E+02  0.37662245351E+02  0.00000000000E+00 0.  1.
</event>
<event>
 4    1  0.6089441E+003  0.3397522E+02  0.7546771E-02  0.1387914E+00
          2   -1    0    0  501    0  0.00000000000E+00  0.00000000000E+00  0.11550634149E+03  0.11550634149E+03  0.00000000000E+00 0.  1.
          2   -1    0    0  502    0 -0.00000000000E+00 -0.00000000000E+00 -0.10906458076E+02  0.10906458076E+02  0.00000000000E+00 0. -1.
          2    1    1    2  501    0  0.20293435889E+02  0.27248702520E+02  0.34013086232E+02  0.48074997288E+02  0.00000000000E+00 0. -1.
          2    1    1    2  502    0 -0.20293435889E+02 -0.27248702520E+02  0.70586797186E+02  0.78337802281E+02  0.00000000000E+00 0.  1.
</event>
<event>
 4    1  0.6089441E+003  0.3472156E+02  0.7546771E-02  0.1382531E+00
          2   -1    0    0  502    0  0.00000000000E+00  0.00000000000E+00  0.78835686071E+03  0.78835686071E+03  0.00000000000E+00 0.  1.
          2   -1    0    0  501    0 -0.00000000000E+00 -0.00000000000E+00 -0.24925881210E+02  0.24925881210E+02  0.00000000000E+00 0.  1.
          2    1    1    2  501    0 -0.25232674266E+02  0.23851598843E+02  0.77568540649E+03  0.77646212815E+03  0.00000000000E+00 0.  1.
          2    1    1    2  502    0  0.25232674266E+02 -0.23851598843E+02 -0.12254426982E+02  0.36820613773E+02  0.00000000000E+00 0.  1.
</event>
<event>
 4    1  0.6089441E+003  0.3121234E+02  0.7546771E-02  0.1409346E+00
          2   -1    0    0  501    0  0.00000000000E+00  0.00000000000E+00  0.19693502213E+01  0.19693502213E+01  0.00000000000E+00 0.  1.
          2   -1    0    0  502    0 -0.00000000000E+00 -0.00000000000E+00 -0.63661245208E+03  0.63661245208E+03  0.00000000000E+00 0. -1.
          2    1    1    2  501    0 -0.15277039278E+02 -0.27218048762E+02 -0.46807961603E+03  0.46911910753E+03  0.00000000000E+00 0. -1.
          2    1    1    2  502    0  0.15277039278E+02  0.27218048762E+02 -0.16656348583E+03  0.16946269477E+03  0.00000000000E+00 0.  1.
</event>
<event>
 4    1  0.6089441E+003  0.2697573E+02  0.7546771E-02  0.1447852E+00
          2   -1    0    0  502    0  0.00000000000E+00  0.00000000000E+00  0.10738584421E+02  0.10738584421E+02  0.00000000000E+00 0. -1.
          2   -1    0    0  501    0 -0.00000000000E+00 -0.00000000000E+00 -0.14053330345E+03  0.14053330345E+03  0.00000000000E+00 0.  1.
          2    1    1    2  501    0 -0.12581067099E+02 -0.23862248370E+02 -0.10470595373E+02  0.28936542885E+02  0.00000000000E+00 0. -1.
          2    1    1    2  502    0  0.12581067099E+02  0.23862248370E+02 -0.11932412366E+03  0.12233534499E+03  0.00000000000E+00 0.  1.
</event>
<event>
 4    1  0.1417219E+004  0.3544459E+02  0.7546771E-02  0.1377464E+00
          2   -1    0    0  502    0  0.00000000000E+00  0.00000000000E+00  0.11156597410E+04  0.11156597410E+04  0.00000000000E+00 0.  1.
          2   -1    0    0  501    0 -0.00000000000E+00 -0.00000000000E+00 -0.15371992331E+04  0.15371992331E+04  0.00000000000E+00 0.  1.
          2    1    1    2  501    0 -0.27063936409E+01  0.35341113788E+02  0.11151738132E+04  0.11157369549E+04  0.00000000000E+00 0.  1.
          2    1    1    2  502    0  0.27063936409E+01 -0.35341113788E+02 -0.15367133053E+04  0.15371220191E+04  0.00000000000E+00 0.  1.
</event>
<event>
 4    1  0.6089441E+003  0.5168314E+02  0.7546771E-02  0.1291035E+00
          2   -1    0    0  501    0  0.00000000000E+00  0.00000000000E+00  0.71607653144E+03  0.71607653144E+03  0.00000000000E+00 0.  1.
          2   -1    0    0  502    0 -0.00000000000E+00 -0.00000000000E+00 -0.19358538849E+04  0.19358538849E+04  0.00000000000E+00 0. -1.
          2    1    1    2  501    0  0.14863363698E+02  0.49499772242E+02 -0.19345757483E+04  0.19352659954E+04  0.00000000000E+00 0. -1.
          2    1    1    2  502    0 -0.14863363698E+02 -0.49499772242E+02  0.71479839483E+03  0.71666442097E+03  0.00000000000E+00 0.  1.
</event>
<event>
 4    1  0.6089441E+003  0.3106903E+02  0.7546771E-02  0.1410528E+00
          2   -1    0    0  502    0  0.00000000000E+00  0.00000000000E+00  0.27209061854E+02  0.27209061854E+02  0.00000000000E+00 0.  1.
          2   -1    0    0  501    0 -0.00000000000E+00 -0.00000000000E+00 -0.33324855242E+03  0.33324855242E+03  0.00000000000E+00 0. -1.
          2    1    1    2  501    0  0.18001344580E+02  0.25322636616E+02  0.17345885178E+02  0.35583199188E+02  0.00000000000E+00 0.  1.
          2    1    1    2  502    0 -0.18001344580E+02 -0.25322636616E+02 -0.32338537575E+03  0.32487441509E+03  0.00000000000E+00 0. -1.
</event>
<event>
 4    1  0.6089441E+003  0.2085228E+02  0.7546771E-02  0.1521384E+00
          2   -1    0    0  501    0  0.00000000000E+00  0.00000000000E+00  0.62214776919E+01  0.62214776919E+01  0.00000000000E+00 0.  1.
          2   -1    0    0  502    0 -0.00000000000E+00 -0.00000000000E+00 -0.59924675416E+03  0.59924675416E+03  0.00000000000E+00 0.  1.
          2    1    1    2  501    0 -0.15023225947E+02 -0.14460995053E+02 -0.58104576782E+03  0.58141981562E+03  0.00000000000E+00 0.  1.
          2    1    1    2  502    0  0.15023225947E+02  0.14460995053E+02 -0.11979508649E+02  0.24048416232E+02  0.00000000000E+00 0.  1.
</event>
<event>
 4    1  0.6089441E+003  0.2057094E+02  0.7546771E-02  0.1525480E+00
          2   -1    0    0  501    0  0.00000000000E+00  0.00000000000E+00  0.10730540781E+04  0.10730540781E+04  0.00000000000E+00 0. -1.
          2   -1    0    0  502    0 -0.00000000000E+00 -0.00000000000E+00 -0.35857577922E+01  0.35857577922E+01  0.00000000000E+00 0. -1.
          2    1    1    2  501    0  0.17944764658E+02  0.10057277493E+02  0.26877868961E+02  0.33846465828E+02  0.00000000000E+00 0. -1.
          2    1    1    2  502    0 -0.17944764658E+02 -0.10057277493E+02  0.10425904513E+04  0.10427933700E+04  0.00000000000E+00 0. -1.
</event>
<event>
 4    1  0.6089441E+003  0.2374658E+02  0.7546771E-02  0.1483330E+00
          2   -1    0    0  502    0  0.00000000000E+00  0.00000000000E+00  0.13696645385E+02  0.13696645385E+02  0.00000000000E+00 0. -1.
          2   -1    0    0  501    0 -0.00000000000E+00 -0.00000000000E+00 -0.62174388728E+03  0.62174388728E+03  0.00000000000E+00 0.  1.
          2    1    1    2  501    0 -0.12099893522E+02 -0.20432640305E+02  0.29970740868E+01  0.23934967436E+02  0.00000000000E+00 0. -1.
          2    1    1    2  502    0  0.12099893522E+02  0.20432640305E+02 -0.61104431598E+03  0.61150556523E+03  0.00000000000E+00 0.  1.
</event>
<event>
 4    1  0.6089441E+003  0.2037863E+02  0.7546771E-02  0.1528324E+00
          2   -1    0    0  501    0  0.00000000000E+00  0.00000000000E+00  0.38783165065E+02  0.38783165065E+02  0.00000000000E+00 0.  1.
          2   -1    0    0  502    0 -0.00000000000E+00 -0.00000000000E+00 -0.12981247378E+04  0.12981247378E+04  0.00000000000E+00 0. -1.
          2    1    1    2  501    0 -0.79254244809E-01 -0.20378480424E+02 -0.12953620592E+04  0.12955223476E+04  0.00000000000E+00 0. -1.
          2    1    1    2  502    0  0.79254244809E-01  0.20378480424E+02  0.36020486419E+02  0.41385555299E+02  0.00000000000E+00 0.  1.
</event>
<event>
 4    1  0.6089441E+003  0.2220660E+02  0.7546771E-02  0.1502709E+00
          2   -1    0    0  501    0  0.00000000000E+00  0.00000000000E+00  0.23673432081E+02  0.23673432081E+02  0.00000000000E+00 0. -1.
          2   -1    0    0  502    0 -0.00000000000E+00 -0.00000000000E+00 -0.31424651881E+03  0.31424651881E+03  0.00000000000E+00 0.  1.
          2    1    1    2  501    0  0.65432905687E+01  0.21220704070E+02 -0.30855053132E+03  0.30934861129E+03  0.00000000000E+00 0.  1.
          2    1    1    2  502    0 -0.65432905687E+01 -0.21220704070E+02  0.17977444586E+02  0.28571339600E+02  0.00000000000E+00 0. -1.
</event>
<event>
 4    1  0.6089441E+003  0.2236539E+02  0.7546771E-02  0.1500624E+00
          2   -1    0    0  502    0  0.00000000000E+00  0.00000000000E+00  0.38533476041E+02  0.38533476041E+02  0.00000000000E+00 0.  1.
          2   -1    0    0  501    0 -0.00000000000E+00 -0.00000000000E+00 -0.16224430296E+02  0.16224430296E+02  0.00000000000E+00 0.  1.
          2    1    1    2  501    0 -0.19307821975E+02  0.11287991321E+02  0.23395639699E+02  0.32366134994E+02  0.00000000000E+00 0.  1.
          2    1    1    2  502    0  0.19307821975E+02 -0.11287991321E+02 -0.10865939540E+01  0.22391771344E+02  0.00000000000E+00 0.  1.
</event>
<event>
 4    1  0.6089441E+003  0.2969479E+02  0.7546771E-02  0.1422268E+00
          2   -1    0    0  501    0  0.00000000000E+00  0.00000000000E+00  0.26506437266E+01  0.26506437266E+01  0.00000000000E+00 0.  1.
          2   -1    0    0  502    0 -0.00000000000E+00 -0.00000000000E+00 -0.62895201703E+03  0.62895201703E+03  0.00000000000E+00 0. -1.
          2    1    1    2  501    0 -0.80366595930E+01  0.28586580054E+02 -0.52990132539E+03  0.53073269647E+03  0.00000000000E+00 0. -1.
          2    1    1    2  502    0  0.80366595930E+01 -0.28586580054E+02 -0.96400047912E+02  0.10086996428E+03  0.00000000000E+00 0.  1.
</event>
<event>
 4    1  0.6089441E+003  0.3365358E+02  0.7546771E-02  0.1390284E+00
          2   -1    0    0  501    0  0.00000000000E+00  0.00000000000E+00  0.11065006443E+04  0.11065006443E+04  0.00000000000E+00 0. -1.
          2   -1    0    0  502    0 -0.00000000000E+00 -0.00000000000E+00 -0.57692581972E+01  0.57692581972E+01  0.00000000000E+00 0.  1.
          2    1    1    2  501    0 -0.31801500386E+02  0.11010374206E+02  0.45970999026E+02  0.56972769974E+02  0.00000000000E+00 0.  1.
          2    1    1    2  502    0  0.31801500386E+02 -0.11010374206E+02  0.10547603871E+04  0.10552971325E+04  0.00000000000E+00 0. -1.
</event>
<event>
 4    1  0.6089441E+003  0.3892130E+02  0.7546771E-02  0.1354925E+00
          2   -1    0    0  501    0  0.00000000000E+00  0.00000000000E+00  0.67043399219E+01  0.67043399219E+01  0.00000000000E+00 0. -1.
          2   -1    0    0  502    0 -0.00000000000E+00 -0.00000000000E+00 -0.20044296092E+04  0.20044296092E+04  0.00000000000E+00 0. -1.
          2    1    1    2  501    0 -0.21370042348E+02  0.32529821121E+02 -0.19460581531E+04  0.19464473287E+04  0.00000000000E+00 0. -1.
          2    1    1    2  502    0  0.21370042348E+02 -0.32529821121E+02 -0.51667116123E+02  0.64686620414E+02  0.00000000000E+00 0. -1.
</event>
<event>
 4    1  0.6089441E+003  0.4048447E+02  0.7546771E-02  0.1345670E+00
          2   -1    0    0  501    0  0.00000000000E+00  0.00000000000E+00  0.28898534375E+04  0.28898534375E+04  0.00000000000E+00 0.  1.
          2   -1    0    0  502    0 -0.00000000000E+00 -0.00000000000E+00 -0.16071214991E+01  0.16071214991E+01  0.00000000000E+00 0.  1.
          2    1    1    2  501    0 -0.73650227419E+01 -0.39808902148E+02  0.28114172191E+03  0.28404165196E+03  0.00000000000E+00 0.  1.
          2    1    1    2  502    0  0.73650227419E+01  0.39808902148E+02  0.26071045941E+04  0.26074189070E+04  0.00000000000E+00 0.  1.
</event>
<event>
 4    1  0.6089441E+003  0.2532603E+02  0.7546771E-02  0.1465189E+00
          2   -1    0    0  501    0  0.00000000000E+00  0.00000000000E+00  0.20841284660E+02  0.20841284660E+02  0.00000000000E+00 0.  1.
          2   -1    0    0  502    0 -0.00000000000E+00 -0.00000000000E+00 -0.40171915627E+02  0.40171915627E+02  0.00000000000E+00 0. -1.
          2    1    1    2  501    0  0.65753502141E+01 -0.24457569425E+02 -0.24419184108E+02  0.35181024504E+02  0.00000000000E+00 0. -1.
          2    1    1    2  502    0 -0.65753502141E+01  0.24457569425E+02  0.50885531413E+01  0.25832175783E+02  0.00000000000E+00 0.  1.
</event>
<event>
 4    1  0.6089441E+003  0.2413298E+02  0.7546771E-02  0.1478741E+00
          2   -1    0    0  501    0  0.00000000000E+00  0.00000000000E+00  0.32974199923E+01  0.32974199923E+01  0.00000000000E+00 0.  1.
          2   -1    0    0  502    0 -0.00000000000E+00 -0.00000000000E+00 -0.21663982953E+03  0.21663982953E+03  0.00000000000E+00 0.  1.
          2    1    1    2  501    0  0.11787756559E+02  0.21058237944E+02 -0.15393410377E+03  0.15581434110E+03  0.00000000000E+00 0.  1.
          2    1    1    2  502    0 -0.11787756559E+02 -0.21058237944E+02 -0.59408305776E+02  0.64122908427E+02  0.00000000000E+00 0.  1.
</event>
<event>
 4    1  0.6089441E+003  0.2153589E+02  0.7546771E-02  0.1511749E+00
          2   -1    0    0  501    0  0.00000000000E+00  0.00000000000E+00  0.26880166197E+01  0.26880166197E+01  0.00000000000E+00 0. -1.
          2   -1    0    0  502    0 -0.00000000000E+00 -0.00000000000E+00 -0.74636917580E+03  0.74636917580E+03  0.00000000000E+00 0.  1.
          2    1    1    2  501    0  0.21277012276E+02 -0.33291666408E+01 -0.70023733285E+03  0.70056842415E+03  0.00000000000E+00 0.  1.
          2    1    1    2  502    0 -0.21277012276E+02  0.33291666408E+01 -0.43443826332E+02  0.48488768269E+02  0.00000000000E+00 0. -1.
</event>
<event>
 4    1  0.6089441E+003  0.2418344E+02  0.7546771E-02  0.1478149E+00
          2   -1    0    0  502    0  0.00000000000E+00  0.00000000000E+00  0.16083887078E+04  0.16083887078E+04  0.00000000000E+00 0.  1.
          2   -1    0    0  501    0 -0.00000000000E+00 -0.00000000000E+00 -0.21638488375E+01  0.21638488375E+01  0.00000000000E+00 0.  1.
          2    1    1    2  501    0  0.23977499405E+02 -0.31493285152E+01  0.15376188059E+04  0.15378089709E+04  0.00000000000E+00 0.  1.
          2    1    1    2  502    0 -0.23977499405E+02  0.31493285152E+01  0.68606053041E+02  0.72743585708E+02  0.00000000000E+00 0.  1.
</event>
<event>
 4    1  0.6089441E+003  0.2751411E+02  0.7546771E-02  0.1442511E+00
          2   -1    0    0  501    0  0.00000000000E+00  0.00000000000E+00  0.40044272883E+01  0.40044272883E+01  0.00000000000E+00 0. -1.
          2   -1    0    0  502    0 -0.00000000000E+00 -0.00000000000E+00 -0.37766009338E+03  0.37766009338E+03  0.00000000000E+00 0. -1.
          2    1    1    2  501    0  0.14104681906E+01 -0.27477936834E+02 -0.32168894719E+03  0.32286344665E+03  0.00000000000E+00 0. -1.
          2    1    1    2  502    0 -0.14104681906E+01  0.27477936834E+02 -0.51966718893E+02  0.58801074018E+02  0.00000000000E+00 0. -1.
</event>
<event>
 4    1  0.6089441E+003  0.3361186E+02  0.7546771E-02  0.1390594E+00
          2   -1    0    0  502    0  0.00000000000E+00  0.00000000000E+00  0.62302212871E+00  0.62302212871E+00  0.00000000000E+00 0.  1.
          2   -1    0    0  501    0 -0.00000000000E+00 -0.00000000000E+00 -0.22132585212E+04  0.22132585212E+04  0.00000000000E+00 0.  1.
          2    1    1    2  501    0  0.52863972495E+01 -0.33193542255E+02 -0.63578637949E+03  0.63667423192E+03  0.00000000000E+00 0.  1.
          2    1    1    2  502    0 -0.52863972495E+01  0.33193542255E+02 -0.15768491196E+04  0.15772073114E+04  0.00000000000E+00 0.  1.
</event>
<event>
 4    1  0.6089441E+003  0.3865696E+02  0.7546771E-02  0.1356541E+00
          2   -1    0    0  502    0  0.00000000000E+00  0.00000000000E+00  0.13805790368E+03  0.13805790368E+03  0.00000000000E+00 0.  1.
          2   -1    0    0  501    0 -0.00000000000E+00 -0.00000000000E+00 -0.16267969492E+04  0.16267969492E+04  0.00000000000E+00 0. -1.
          2    1    1    2  501    0 -0.12064503972E+02  0.36726128874E+02  0.13511731646E+03  0.14053842893E+03  0.00000000000E+00 0.  1.
          2    1    1    2  502    0  0.12064503972E+02 -0.36726128874E+02 -0.16238563620E+04  0.16243164239E+04  0.00000000000E+00 0. -1.
</event>
<event>
 4    1  0.6089441E+003  0.2297343E+02  0.7546771E-02  0.1492832E+00
          2   -1    0    0  502    0  0.00000000000E+00  0.00000000000E+00  0.92815233603E+01  0.92815233603E+01  0.00000000000E+00 0.  1.
          2   -1    0    0  501    0 -0.00000000000E+00 -0.00000000000E+00 -0.56875198473E+02  0.56875198473E+02  0.00000000000E+00 0. -1.
          2    1    1    2  501    0 -0.21365979047E+02  0.84423597763E+01 -0.23319376847E+02  0.32734871861E+02  0.00000000000E+00 0. -1.
          2    1    1    2  502    0  0.21365979047E+02 -0.84423597763E+01 -0.24274298265E+02  0.33421849972E+02  0.00000000000E+00 0.  1.
</event>
<event>
 4    1  0.6089441E+003  0.2384611E+02  0.7546771E-02  0.1482138E+00
          2   -1    0    0  501    0  0.00000000000E+00  0.00000000000E+00  0.32649300337E+02  0.32649300337E+02  0.00000000000E+00 0.  1.
          2   -1    0    0  502    0 -0.00000000000E+00 -0.00000000000E+00 -0.83112286072E+02  0.83112286072E+02  0.00000000000E+00 0.  1.
          2    1    1    2  501    0  0.18509314194E+02 -0.15034700322E+02 -0.76691587163E+02  0.80313364188E+02  0.00000000000E+00 0.  1.
          2    1    1    2  502    0 -0.18509314194E+02  0.15034700322E+02  0.26228601428E+02  0.35448222220E+02  0.00000000000E+00 0.  1.
</event>
<event>
 4    1  0.6089441E+003  0.3572361E+02  0.7546771E-02  0.1375546E+00
          2   -1    0    0  501    0  0.00000000000E+00  0.00000000000E+00  0.14273644270E+04  0.14273644270E+04  0.00000000000E+00 0. -1.
          2   -1    0    0  502    0 -0.00000000000E+00 -0.00000000000E+00 -0.32286552745E+02  0.32286552745E+02  0.00000000000E+00 0. -1.
          2    1    1    2  501    0 -0.25414740556E+02 -0.25105119714E+02 -0.22110451637E+02  0.42012476064E+02  0.00000000000E+00 0. -1.
          2    1    1    2  502    0  0.25414740556E+02  0.25105119714E+02  0.14171883259E+04  0.14176385037E+04  0.00000000000E+00 0. -1.
</event>
<event>
 4    1  0.6089441E+003  0.2622558E+02  0.7546771E-02  0.1455546E+00
          2   -1    0    0  502    0  0.00000000000E+00  0.00000000000E+00  0.68596944133E+02  0.68596944133E+02  0.00000000000E+00 0.  1.
          2   -1    0    0  501    0 -0.00000000000E+00 -0.00000000000E+00 -0.29103787482E+02  0.29103787482E+02  0.00000000000E+00 0. -1.
          2    1    1    2  501    0 -0.19121358865E+02 -0.17948662041E+02  0.59297120692E+02  0.64837715539E+02  0.00000000000E+00 0.  1.
          2    1    1    2  502    0  0.19121358865E+02  0.17948662041E+02 -0.19803964041E+02  0.32863016077E+02  0.00000000000E+00 0. -1.
</event>
<event>
 4    1  0.6089441E+003  0.2171824E+02  0.7546771E-02  0.1509252E+00
          2   -1    0    0  501    0  0.00000000000E+00  0.00000000000E+00  0.18360549375E+03  0.18360549375E+03  0.00000000000E+00 0.  1.
          2   -1    0    0  502    0 -0.00000000000E+00 -0.00000000000E+00 -0.75310336592E+02  0.75310336592E+02  0.00000000000E+00 0. -1.
          2    1    1    2  501    0 -0.21566153740E+02 -0.25657472882E+01 -0.73083134252E+02  0.76241895034E+02  0.00000000000E+00 0. -1.
          2    1    1    2  502    0  0.21566153740E+02  0.25657472882E+01  0.18137829141E+03  0.18267393531E+03  0.00000000000E+00 0.  1.
</event>
<event>
 4    1  0.6089441E+003  0.2073140E+02  0.7546771E-02  0.1523135E+00
          2   -1    0    0  502    0  0.00000000000E+00  0.00000000000E+00  0.14343127129E+04  0.14343127129E+04  0.00000000000E+00 0. -1.
          2   -1    0    0  501    0 -0.00000000000E+00 -0.00000000000E+00 -0.14589177217E+01  0.14589177217E+01  0.00000000000E+00 0.  1.
          2    1    1    2  501    0  0.17883550211E+02  0.10486636873E+02  0.13563561447E+04  0.13565145714E+04  0.00000000000E+00 0. -1.
          2    1    1    2  502    0 -0.17883550211E+02 -0.10486636873E+02  0.76497650403E+02  0.79257059232E+02  0.00000000000E+00 0.  1.
</event>
<event>
 4    1  0.6089441E+003  0.2421746E+02  0.7546771E-02  0.1477751E+00
          2   -1    0    0  502    0  0.00000000000E+00  0.00000000000E+00  0.27511767140E+03  0.27511767140E+03  0.00000000000E+00 0. -1.
          2   -1    0    0  501    0 -0.00000000000E+00 -0.00000000000E+00 -0.90109030935E+01  0.90109030935E+01  0.00000000000E+00 0. -1.
          2    1    1    2  501    0 -0.23995359767E+02  0.32723291317E+01  0.25718084232E+03  0.25831854576E+03  0.00000000000E+00 0. -1.
          2    1    1    2  502    0  0.23995359767E+02 -0.32723291317E+01  0.89259259842E+01  0.25810028729E+02  0.00000000000E+00 0. -1.
</event>
<event>
 4    1  0.6089441E+003  0.2716253E+02  0.7546771E-02  0.1445982E+00
          2   -1    0    0  501    0  0.00000000000E+00  0.00000000000E+00  0.17443002158E+01  0.17443002158E+01  0.00000000000E+00 0. -1.
          2   -1    0    0  502    0 -0.00000000000E+00 -0.00000000000E+00 -0.59059512280E+03  0.59059512280E+03  0.00000000000E+00 0.  1.
          2    1    1    2  501    0 -0.27128004375E+02  0.13691171351E+01 -0.45220581332E+03  0.45302086122E+03  0.00000000000E+00 0.  1.
          2    1    1    2  502    0  0.27128004375E+02 -0.13691171351E+01 -0.13664500927E+03  0.13931856180E+03  0.00000000000E+00 0. -1.
</event>
<event>
 4    1  0.6089441E+003  0.2788902E+02  0.7546771E-02  0.1438877E+00
          2   -1    0    0  502    0  0.00000000000E+00  0.00000000000E+00  0.70386077965E+02  0.70386077965E+02  0.00000000000E+00 0. -1.
          2   -1    0    0  501    0 -0.00000000000E+00 -0.00000000000E+00 -0.67269975953E+02  0.67269975953E+02  0.00000000000E+00 0. -1.
          2    1    1    2  501    0 -0.33475760596E+01  0.27687378302E+02  0.64479441193E+02  0.70252370204E+02  0.00000000000E+00 0. -1.
          2    1    1    2  502    0  0.33475760596E+01 -0.27687378302E+02 -0.61363339181E+02  0.67403683714E+02  0.00000000000E+00 0. -1.
</event>
<event>
 4    1  0.6089441E+003  0.2613211E+02  0.7546771E-02  0.1456526E+00
          2   -1    0    0  502    0  0.00000000000E+00  0.00000000000E+00  0.12296043827E+03  0.12296043827E+03  0.00000000000E+00 0.  1.
          2   -1    0    0  501    0 -0.00000000000E+00 -0.00000000000E+00 -0.11603615119E+03  0.11603615119E+03  0.00000000000E+00 0. -1.
          2    1    1    2  501    0 -0.11272550861E+02 -0.23575771959E+02  0.12006566545E+03  0.12287656997E+03  0.00000000000E+00 0.  1.
          2    1    1    2  502    0  0.11272550861E+02  0.23575771959E+02 -0.11314137837E+03  0.11612001949E+03  0.00000000000E+00 0. -1.
</event>
<event>
 4    1  0.6089441E+003  0.2171788E+02  0.7546771E-02  0.1509257E+00
          2   -1    0    0  502    0  0.00000000000E+00  0.00000000000E+00  0.14648783850E+02  0.14648783850E+02  0.00000000000E+00 0. -1.
          2   -1    0    0  501    0 -0.00000000000E+00 -0.00000000000E+00 -0.32686312713E+02  0.32686312713E+02  0.00000000000E+00 0.  1.
          2    1    1    2  501    0 -0.21365609558E+02  0.38957859605E+01 -0.11910584062E+02  0.24769506106E+02  0.00000000000E+00 0.  1.
          2    1    1    2  502    0  0.21365609558E+02 -0.38957859605E+01 -0.61269448002E+01  0.22565590456E+02  0.00000000000E+00 0. -1.
</event>
<event>
 4    1  0.6089441E+003  0.3543764E+02  0.7546771E-02  0.1377512E+00
          2   -1    0    0  501    0  0.00000000000E+00  0.00000000000E+00  0.20500446813E+02  0.20500446813E+02  0.00000000000E+00 0. -1.
          2   -1    0    0  502    0 -0.00000000000E+00 -0.00000000000E+00 -0.47352529654E+03  0.47352529654E+03  0.00000000000E+00 0. -1.
          2    1    1    2  501    0  0.53975812942E+01 -0.35024171916E+02 -0.45699451021E+03  0.45836645696E+03  0.00000000000E+00 0. -1.
          2    1    1    2  502    0 -0.53975812942E+01  0.35024171916E+02  0.39696604774E+01  0.35659286400E+02  0.00000000000E+00 0. -1.
</event>
<event>
 4    1  0.6089441E+003  0.2106061E+02  0.7546771E-02  0.1518401E+00
          2   -1    0    0  502    0  0.00000000000E+00  0.00000000000E+00  0.20524444533E+01  0.20524444533E+01  0.00000000000E+00 0. -1.
          2   -1    0    0  501    0 -0.00000000000E+00 -0.00000000000E+00 -0.12552949400E+04  0.12552949400E+04  0.00000000000E+00 0. -1.
          2    1    1    2  501    0  0.44538749897E+01  0.20584277892E+02 -0.54616998593E+02  0.58536877556E+02  0.00000000000E+00 0. -1.
          2    1    1    2  502    0 -0.44538749897E+01 -0.20584277892E+02 -0.11986254969E+04  0.11988105069E+04  0.00000000000E+00 0. -1.
</event>
<event>
 4    1  0.6089441E+003  0.4730683E+02  0.7546771E-02  0.1310291E+00
          2   -1    0    0  502    0  0.00000000000E+00  0.00000000000E+00  0.19051949560E+04  0.19051949560E+04  0.00000000000E+00 0. -1.
          2   -1    0    0  501    0 -0.00000000000E+00 -0.00000000000E+00 -0.24057224273E+02  0.24057224273E+02  0.00000000000E+00 0.  1.
          2    1    1    2  501    0  0.39471451627E+02 -0.26075677301E+02  0.18813501955E+04  0.18819448702E+04  0.00000000000E+00 0. -1.
          2    1    1    2  502    0 -0.39471451627E+02  0.26075677301E+02 -0.21246380775E+00  0.47307310017E+02  0.00000000000E+00 0.  1.
</event>
<event>
 4    1  0.6089441E+003  0.4363010E+02  0.7546771E-02  0.1328433E+00
          2   -1    0    0  502    0  0.00000000000E+00  0.00000000000E+00  0.15015818400E+02  0.15015818400E+02  0.00000000000E+00 0. -1.
          2   -1    0    0  501    0 -0.00000000000E+00 -0.00000000000E+00 -0.14213597215E+03  0.14213597215E+03  0.00000000000E+00 0. -1.
          2    1    1    2  501    0 -0.25409409043E+02 -0.35467562305E+02 -0.37726269331E+02  0.57678916784E+02  0.00000000000E+00 0. -1.
          2    1    1    2  502    0  0.25409409043E+02  0.35467562305E+02 -0.89393884419E+02  0.99472873766E+02  0.00000000000E+00 0. -1.
</event>
<event>
 4    1  0.6089441E+003  0.2039015E+02  0.7546771E-02  0.1528153E+00
          2   -1    0    0  502    0  0.00000000000E+00  0.00000000000E+00  0.19826525010E+03  0.19826525010E+03  0.00000000000E+00 0.  1.
          2   -1    0    0  501    0 -0.00000000000E+00 -0.00000000000E+00 -0.50298992256E+03  0.50298992256E+03  0.00000000000E+00 0.  1.
          2    1    1    2  501    0  0.19804791320E+02  0.48506092721E+01  0.19753359847E+03  0.19858318331E+03  0.00000000000E+00 0.  1.
          2    1    1    2  502    0 -0.19804791320E+02 -0.48506092721E+01 -0.50225827092E+03  0.50267198935E+03  0.00000000000E+00 0.  1.
</event>
<event>
 4    1  0.6089441E+003  0.6203717E+02  0.7546771E-02  0.1253064E+00
          2   -1    0    0  502    0  0.00000000000E+00  0.00000000000E+00  0.88553233303E+03  0.88553233303E+03  0.00000000000E+00 0. -1.
          2   -1    0    0  501    0 -0.00000000000E+00 -0.00000000000E+00 -0.60291311803E+01  0.60291311803E+01  0.00000000000E+00 0.  1.
          2    1    1    2  501    0  0.47999797418E+02  0.39301772108E+02  0.67527840134E+03  0.67812206067E+03  0.00000000000E+00 0. -1.
          2    1    1    2  502    0 -0.47999797418E+02 -0.39301772108E+02  0.20422480051E+03  0.21343940355E+03  0.00000000000E+00 0.  1.
</event>
<event>
 4    1  0.6089441E+003  0.2184700E+02  0.7546771E-02  0.1507507E+00
          2   -1    0    0  501    0  0.00000000000E+00  0.00000000000E+00  0.82083038025E+00  0.82083038025E+00  0.00000000000E+00 0. -1.
          2   -1    0    0  502    0 -0.00000000000E+00 -0.00000000000E+00 -0.58654226530E+03  0.58654226530E+03  0.00000000000E+00 0. -1.
          2    1    1    2  501    0  0.14469945168E+02 -0.16368018888E+02 -0.32016089660E+03  0.32090542386E+03  0.00000000000E+00 0. -1.
          2    1    1    2  502    0 -0.14469945168E+02  0.16368018888E+02 -0.26556053832E+03  0.26645767182E+03  0.00000000000E+00 0. -1.
</event>
<event>
 4    1  0.6089441E+003  0.2498126E+02  0.7546771E-02  0.1469013E+00
          2   -1    0    0  502    0  0.00000000000E+00  0.00000000000E+00  0.90660692362E+02  0.90660692362E+02  0.00000000000E+00 0. -1.
          2   -1    0    0  501    0 -0.00000000000E+00 -0.00000000000E+00 -0.16191744860E+02  0.16191744860E+02  0.00000000000E+00 0. -1.
          2    1    1    2  501    0 -0.19343298519E+02 -0.15808234056E+02  0.77742525847E+02  0.81657600912E+02  0.00000000000E+00 0. -1.
          2    1    1    2  502    0  0.19343298519E+02  0.15808234056E+02 -0.32735783455E+01  0.25194836311E+02  0.00000000000E+00 0. -1.
</event>
<event>
 4    1  0.6089441E+003  0.2245651E+02  0.7546771E-02  0.1499438E+00
          2   -1    0    0  502    0  0.00000000000E+00  0.00000000000E+00  0.26676570825E+03  0.26676570825E+03  0.00000000000E+00 0. -1.
          2   -1    0    0  501    0 -0.00000000000E+00 -0.00000000000E+00 -0.95910474717E+01  0.95910474717E+01  0.00000000000E+00 0.  1.
          2    1    1    2  501    0  0.20016084120E+02 -0.10180931480E+02  0.25240156438E+03  0.25339858858E+03  0.00000000000E+00 0. -1.
          2    1    1    2  502    0 -0.20016084120E+02  0.10180931480E+02  0.47730963905E+01  0.22958167141E+02  0.00000000000E+00 0.  1.
</event>
<event>
 4    1  0.6089441E+003  0.2798126E+02  0.7546771E-02  0.1437993E+00
          2   -1    0    0  502    0  0.00000000000E+00  0.00000000000E+00  0.65453219885E+03  0.65453219885E+03  0.00000000000E+00 0. -1.
          2   -1    0    0  501    0 -0.00000000000E+00 -0.00000000000E+00 -0.44344441688E+02  0.44344441688E+02  0.00000000000E+00 0. -1.
          2    1    1    2  501    0 -0.24862526258E+02  0.12837658103E+02  0.64978689965E+03  0.65038908788E+03  0.00000000000E+00 0. -1.
          2    1    1    2  502    0  0.24862526258E+02 -0.12837658103E+02 -0.39599142484E+02  0.48487552660E+02  0.00000000000E+00 0. -1.
</event>
<event>
 4    1  0.6089441E+003  0.4541515E+02  0.7546771E-02  0.1319376E+00
          2   -1    0    0  502    0  0.00000000000E+00  0.00000000000E+00  0.94108943884E+02  0.94108943884E+02  0.00000000000E+00 0. -1.
          2   -1    0    0  501    0 -0.00000000000E+00 -0.00000000000E+00 -0.92883473435E+03  0.92883473435E+03  0.00000000000E+00 0.  1.
          2    1    1    2  501    0  0.15483112827E+02  0.42694373140E+02  0.88038662572E+02  0.99062315681E+02  0.00000000000E+00 0. -1.
          2    1    1    2  502    0 -0.15483112827E+02 -0.42694373140E+02 -0.92276445304E+03  0.92388136255E+03  0.00000000000E+00 0.  1.
</event>
<event>
 4    1  0.1164160E+004  0.2417672E+02  0.7546771E-02  0.1478228E+00
          2   -1    0    0  501    0  0.00000000000E+00  0.00000000000E+00  0.12805853775E+04  0.12805853775E+04  0.00000000000E+00 0. -1.
          2   -1    0    0  502    0 -0.00000000000E+00 -0.00000000000E+00 -0.68140402696E+03  0.68140402696E+03  0.00000000000E+00 0. -1.
          2    1    1    2  501    0 -0.16788879851E+02  0.17396768178E+02 -0.68107540914E+03  0.68150438514E+03  0.00000000000E+00 0. -1.
          2    1    1    2  502    0  0.16788879851E+02 -0.17396768178E+02  0.12802567597E+04  0.12804850193E+04  0.00000000000E+00 0. -1.
</event>
<event>
 4    1  0.6089441E+003  0.2338262E+02  0.7546771E-02  0.1487749E+00
          2   -1    0    0  501    0  0.00000000000E+00  0.00000000000E+00  0.39498985639E+00  0.39498985639E+00  0.00000000000E+00 0.  1.
          2   -1    0    0  502    0 -0.00000000000E+00 -0.00000000000E+00 -0.17981469809E+04  0.17981469809E+04  0.00000000000E+00 0.  1.
          2    1    1    2  501    0  0.12450606288E+02  0.19792149121E+02 -0.13303433584E+04  0.13305488334E+04  0.00000000000E+00 0.  1.
          2    1    1    2  502    0 -0.12450606288E+02 -0.19792149121E+02 -0.46740863266E+03  0.46799313740E+03  0.00000000000E+00 0.  1.
</event>
<event>
 4    1  0.6089441E+003  0.2009239E+02  0.7546771E-02  0.1532628E+00
          2   -1    0    0  502    0  0.00000000000E+00  0.00000000000E+00  0.91866727987E+03  0.91866727987E+03  0.00000000000E+00 0.  1.
          2   -1    0    0  501    0 -0.00000000000E+00 -0.00000000000E+00 -0.54635911590E+02  0.54635911590E+02  0.00000000000E+00 0.  1.
          2    1    1    2  501    0 -0.11544511533E+02  0.16444703131E+02  0.91670622071E+03  0.91692638696E+03  0.00000000000E+00 0.  1.
          2    1    1    2  502    0  0.11544511533E+02 -0.16444703131E+02 -0.52674852430E+02  0.56376804504E+02  0.00000000000E+00 0.  1.
</event>
<event>
 4    1  0.6089441E+003  0.2804294E+02  0.7546771E-02  0.1437404E+00
          2   -1    0    0  502    0  0.00000000000E+00  0.00000000000E+00  0.13364669636E+02  0.13364669636E+02  0.00000000000E+00 0.  1.
          2   -1    0    0  501    0 -0.00000000000E+00 -0.00000000000E+00 -0.13610257275E+04  0.13610257275E+04  0.00000000000E+00 0. -1.
          2    1    1    2  501    0 -0.18430762532E+02 -0.21135595677E+02 -0.16544552487E+01  0.28091700452E+02  0.00000000000E+00 0.  1.
          2    1    1    2  502    0  0.18430762532E+02  0.21135595677E+02 -0.13460066026E+04  0.13462986967E+04  0.00000000000E+00 0. -1.
</event>
<event>
 4    1  0.6089441E+003  0.2197438E+02  0.7546771E-02  0.1505795E+00
          2   -1    0    0  501    0  0.00000000000E+00  0.00000000000E+00  0.86033793903E+02  0.86033793903E+02  0.00000000000E+00 0. -1.
          2   -1    0    0  502    0 -0.00000000000E+00 -0.00000000000E+00 -0.66330174079E+02  0.66330174079E+02  0.00000000000E+00 0.  1.
          2    1    1    2  501    0  0.12976254037E+02  0.17733873287E+02 -0.63035833551E+02  0.66756196282E+02  0.00000000000E+00 0.  1.
          2    1    1    2  502    0 -0.12976254037E+02 -0.17733873287E+02  0.82739453375E+02  0.85607771700E+02  0.00000000000E+00 0. -1.
</event>
<event>
 4    1  0.6089441E+003  0.2665994E+02  0.7546771E-02  0.1451054E+00
          2   -1    0    0  501    0  0.00000000000E+00  0.00000000000E+00  0.14007616977E+01  0.14007616977E+01  0.00000000000E+00 0.  1.
          2   -1    0    0  502    0 -0.00000000000E+00 -0.00000000000E+00 -0.10609105062E+04  0.10609105062E+04  0.00000000000E+00 0. -1.
          2    1    1    2  501    0 -0.82414426201E+01 -0.25354116930E+02 -0.91341231971E+03  0.91380130139E+03  0.00000000000E+00 0. -1.
          2    1    1    2  502    0  0.82414426201E+01  0.25354116930E+02 -0.14609742483E+03  0.14850996655E+03  0.00000000000E+00 0.  1.
</event>
<event>
 4    1  0.6089441E+003  0.2486278E+02  0.7546771E-02  0.1470344E+00
          2   -1    0    0  501    0  0.00000000000E+00  0.00000000000E+00  0.86703493407E+00  0.86703493407E+00  0.00000000000E+00 0. -1.
          2   -1    0    0  502    0 -0.00000000000E+00 -0.00000000000E+00 -0.85469563823E+03  0.85469563823E+03  0.00000000000E+00 0. -1.
          2    1    1    2  501    0 -0.74814369408E+01 -0.23710461476E+02 -0.25270893469E+03  0.25392905220E+03  0.00000000000E+00 0. -1.
          2    1    1    2  502    0  0.74814369408E+01  0.23710461476E+02 -0.60111966861E+03  0.60163362096E+03  0.00000000000E+00 0. -1.
</event>
<event>
 4    1  0.6089441E+003  0.2603067E+02  0.7546771E-02  0.1457596E+00
          2   -1    0    0  501    0  0.00000000000E+00  0.00000000000E+00  0.14190767940E+03  0.14190767940E+03  0.00000000000E+00 0.  1.
          2   -1    0    0  502    0 -0.00000000000E+00 -0.00000000000E+00 -0.54893232993E+01  0.54893232993E+01  0.00000000000E+00 0. -1.
          2    1    1    2  501    0 -0.25375734530E+02 -0.58024040956E+01  0.41621812618E+02  0.49091456302E+02  0.00000000000E+00 0. -1.
          2    1    1    2  502    0  0.25375734530E+02  0.58024040956E+01  0.94796543486E+02  0.98305546401E+02  0.00000000000E+00 0.  1.
</event>
<event>
 4    1  0.6089441E+003  0.2614991E+02  0.7546771E-02  0.1456339E+00
          2   -1    0    0  502    0  0.00000000000E+00  0.00000000000E+00  0.53515929820E+01  0.53515929820E+01  0.00000000000E+00 0.  1.
          2   -1    0    0  501    0 -0.00000000000E+00 -0.00000000000E+00 -0.41441921867E+03  0.41441921867E+03  0.00000000000E+00 0.  1.
          2    1    1    2  501    0  0.22149149460E+02 -0.13900825825E+02 -0.29979194081E+02  0.39781526594E+02  0.00000000000E+00 0.  1.
          2    1    1    2  502    0 -0.22149149460E+02  0.13900825825E+02 -0.37908843161E+03  0.37998928506E+03  0.00000000000E+00 0.  1.
</event>
<event>
 4    1  0.6089441E+003  0.2973199E+02  0.7546771E-02  0.1421940E+00
          2   -1    0    0  502    0  0.00000000000E+00  0.00000000000E+00  0.45756282921E+02  0.45756282921E+02  0.00000000000E+00 0.  1.
          2   -1    0    0  501    0 -0.00000000000E+00 -0.00000000000E+00 -0.19840744908E+02  0.19840744908E+02  0.00000000000E+00 0. -1.
          2    1    1    2  501    0 -0.22116011202E+02  0.19871414074E+02  0.18273621936E+02  0.34898657674E+02  0.00000000000E+00 0.  1.
          2    1    1    2  502    0  0.22116011202E+02 -0.19871414074E+02  0.76419160777E+01  0.30698370154E+02  0.00000000000E+00 0. -1.
</event>
<event>
 4    1  0.6089441E+003  0.2142104E+02  0.7546771E-02  0.1513338E+00
          2   -1    0    0  502    0  0.00000000000E+00  0.00000000000E+00  0.42403852357E+03  0.42403852357E+03  0.00000000000E+00 0. -1.
          2   -1    0    0  501    0 -0.00000000000E+00 -0.00000000000E+00 -0.21434541020E+01  0.21434541020E+01  0.00000000000E+00 0. -1.
          2    1    1    2  501    0  0.21417116646E+02  0.40999229277E+00  0.36089317784E+03  0.36152834853E+03  0.00000000000E+00 0. -1.
          2    1    1    2  502    0 -0.21417116646E+02 -0.40999229277E+00  0.61001891631E+02  0.64653629146E+02  0.00000000000E+00 0. -1.
</event>
<event>
 4    1  0.6089441E+003  0.2116341E+02  0.7546771E-02  0.1516945E+00
          2   -1    0    0  502    0  0.00000000000E+00  0.00000000000E+00  0.26792516979E+03  0.26792516979E+03  0.00000000000E+00 0.  1.
          2   -1    0    0  501    0 -0.00000000000E+00 -0.00000000000E+00 -0.32359043938E+03  0.32359043938E+03  0.00000000000E+00 0.  1.
          2    1    1    2  501    0 -0.17453251473E+02 -0.11969704978E+02  0.26716022480E+03  0.26799715584E+03  0.00000000000E+00 0.  1.
          2    1    1    2  502    0  0.17453251473E+02  0.11969704978E+02 -0.32282549438E+03  0.32351845333E+03  0.00000000000E+00 0.  1.
</event>
<event>
 4    1  0.6089441E+003  0.2953124E+02  0.7546771E-02  0.1423714E+00
          2   -1    0    0  502    0  0.00000000000E+00  0.00000000000E+00  0.25726205750E+03  0.25726205750E+03  0.00000000000E+00 0. -1.
          2   -1    0    0  501    0 -0.00000000000E+00 -0.00000000000E+00 -0.41783270035E+02  0.41783270035E+02  0.00000000000E+00 0. -1.
          2    1    1    2  501    0  0.21016941474E+02 -0.20745661670E+02  0.25106833521E+03  0.25279913618E+03  0.00000000000E+00 0. -1.
          2    1    1    2  502    0 -0.21016941474E+02  0.20745661670E+02 -0.35589547740E+02  0.46246191361E+02  0.00000000000E+00 0. -1.
</event>
<event>
 4    1  0.6089441E+003  0.2236148E+02  0.7546771E-02  0.1500676E+00
          2   -1    0    0  501    0  0.00000000000E+00  0.00000000000E+00  0.13444171674E+03  0.13444171674E+03  0.00000000000E+00 0.  1.
          2   -1    0    0  502    0 -0.00000000000E+00 -0.00000000000E+00 -0.55455847176E+01  0.55455847176E+01  0.00000000000E+00 0.  1.
          2    1    1    2  501    0 -0.21358373725E+02  0.66223543338E+01  0.24281624803E+02  0.33009589639E+02  0.00000000000E+00 0.  1.
          2    1    1    2  502    0  0.21358373725E+02 -0.66223543338E+01  0.10461450722E+03  0.10697771182E+03  0.00000000000E+00 0.  1.
</event>
<event>
 4    1  0.6089441E+003  0.2143761E+02  0.7546771E-02  0.1513108E+00
          2   -1    0    0  501    0  0.00000000000E+00  0.00000000000E+00  0.57166086452E+01  0.57166086452E+01  0.00000000000E+00 0. -1.
          2   -1    0    0  502    0 -0.00000000000E+00 -0.00000000000E+00 -0.13565499587E+03  0.13565499587E+03  0.00000000000E+00 0. -1.
          2    1    1    2  501    0 -0.18988668673E+02  0.99499644747E+01 -0.11008516570E+03  0.11215308751E+03  0.00000000000E+00 0. -1.
          2    1    1    2  502    0  0.18988668673E+02 -0.99499644747E+01 -0.19853221525E+02  0.29218517005E+02  0.00000000000E+00 0. -1.
</event>
<event>
 4    1  0.6089441E+003  0.3485020E+02  0.7546771E-02  0.1381619E+00
          2   -1    0    0  502    0  0.00000000000E+00  0.00000000000E+00  0.39750259411E+03  0.39750259411E+03  0.00000000000E+00 0.  1.
          2   -1    0    0  501    0 -0.00000000000E+00 -0.00000000000E+00 -0.14679417857E+02  0.14679417857E+02  0.00000000000E+00 0. -1.
          2    1    1    2  501    0  0.34202745344E+02 -0.66864729281E+01  0.37480444441E+03  0.37642118466E+03  0.00000000000E+00 0.  1.
          2    1    1    2  502    0 -0.34202745344E+02  0.66864729281E+01  0.80187318405E+01  0.35760827306E+02  0.00000000000E+00 0. -1.
</event>
<event>
 4    1  0.6089441E+003  0.4618342E+02  0.7546771E-02  0.1315626E+00
          2   -1    0    0  502    0  0.00000000000E+00  0.00000000000E+00  0.27925555901E+03  0.27925555901E+03  0.00000000000E+00 0. -1.
          2   -1    0    0  501    0 -0.00000000000E+00 -0.00000000000E+00 -0.79305897624E+01  0.79305897624E+01  0.00000000000E+00 0.  1.
          2    1    1    2  501    0  0.31952748505E+02  0.33345615529E+02  0.10807374498E+03  0.11752805012E+03  0.00000000000E+00 0.  1.
          2    1    1    2  502    0 -0.31952748505E+02 -0.33345615529E+02  0.16325122426E+03  0.16965809864E+03  0.00000000000E+00 0. -1.
</event>
<event>
 4    1  0.6089441E+003  0.2113010E+02  0.7546771E-02  0.1517415E+00
          2   -1    0    0  501    0  0.00000000000E+00  0.00000000000E+00  0.63803065328E+02  0.63803065328E+02  0.00000000000E+00 0.  1.
          2   -1    0    0  502    0 -0.00000000000E+00 -0.00000000000E+00 -0.14530554002E+03  0.14530554002E+03  0.00000000000E+00 0.  1.
          2    1    1    2  501    0  0.21124004284E+02  0.50745439054E+00 -0.14275684949E+03  0.14431215868E+03  0.00000000000E+00 0.  1.
          2    1    1    2  502    0 -0.21124004284E+02 -0.50745439054E+00  0.61254374805E+02  0.64796446659E+02  0.00000000000E+00 0.  1.
</event>
<event>
 4    1  0.6089441E+003  0.2786269E+02  0.7546771E-02  0.1439130E+00
          2   -1    0    0  501    0  0.00000000000E+00  0.00000000000E+00  0.17198381739E+03  0.17198381739E+03  0.00000000000E+00 0.  1.
          2   -1    0    0  502    0 -0.00000000000E+00 -0.00000000000E+00 -0.37133982200E+02  0.37133982200E+02  0.00000000000E+00 0. -1.
          2    1    1    2  501    0  0.27795185563E+02 -0.19382855117E+01 -0.30573106969E+02  0.41364769562E+02  0.00000000000E+00 0. -1.
          2    1    1    2  502    0 -0.27795185563E+02  0.19382855117E+01  0.16542294216E+03  0.16775303003E+03  0.00000000000E+00 0.  1.
</event>
<event>
 4    1  0.6089441E+003  0.2049843E+02  0.7546771E-02  0.1526548E+00
          2   -1    0    0  502    0  0.00000000000E+00  0.00000000000E+00  0.49355984975E+02  0.49355984975E+02  0.00000000000E+00 0.  1.
          2   -1    0    0  501    0 -0.00000000000E+00 -0.00000000000E+00 -0.12980163978E+03  0.12980163978E+03  0.00000000000E+00 0. -1.
          2    1    1    2  501    0  0.20142253083E+02  0.38046146619E+01  0.46368544914E+02  0.50697410283E+02  0.00000000000E+00 0.  1.
          2    1    1    2  502    0 -0.20142253083E+02 -0.38046146619E+01 -0.12681419971E+03  0.12846021447E+03  0.00000000000E+00 0. -1.
</event>
<event>
 4    1  0.6089441E+003  0.2830180E+02  0.7546771E-02  0.1434952E+00
          2   -1    0    0  502    0  0.00000000000E+00  0.00000000000E+00  0.11833795188E+04  0.11833795188E+04  0.00000000000E+00 0. -1.
          2   -1    0    0  501    0 -0.00000000000E+00 -0.00000000000E+00 -0.17869135379E+01  0.17869135379E+01  0.00000000000E+00 0. -1.
          2    1    1    2  501    0  0.27522020014E+02  0.65977492776E+01  0.10578512207E+04  0.10582297468E+04  0.00000000000E+00 0. -1.
          2    1    1    2  502    0 -0.27522020014E+02 -0.65977492776E+01  0.12374138453E+03  0.12693668551E+03  0.00000000000E+00 0. -1.
</event>
<event>
 4    1  0.6089441E+003  0.3078567E+02  0.7546771E-02  0.1412889E+00
          2   -1    0    0  501    0  0.00000000000E+00  0.00000000000E+00  0.17691996278E+03  0.17691996278E+03  0.00000000000E+00 0.  1.
          2   -1    0    0  502    0 -0.00000000000E+00 -0.00000000000E+00 -0.13183180494E+02  0.13183180494E+02  0.00000000000E+00 0.  1.
          2    1    1    2  501    0  0.63739644532E+01  0.30118595007E+02  0.86323918738E+01  0.31973041418E+02  0.00000000000E+00 0.  1.
          2    1    1    2  502    0 -0.63739644532E+01 -0.30118595007E+02  0.15510439041E+03  0.15813010185E+03  0.00000000000E+00 0.  1.
</event>
<event>
 4    1  0.6089441E+003  0.3024507E+02  0.7546771E-02  0.1417478E+00
          2   -1    0    0  501    0  0.00000000000E+00  0.00000000000E+00  0.28289569041E+02  0.28289569041E+02  0.00000000000E+00 0.  1.
          2   -1    0    0  502    0 -0.00000000000E+00 -0.00000000000E+00 -0.18409436562E+03  0.18409436562E+03  0.00000000000E+00 0.  1.
          2    1    1    2  501    0 -0.73957540688E+01  0.29326897393E+02 -0.17431817712E+03  0.17692255640E+03  0.00000000000E+00 0.  1.
          2    1    1    2  502    0  0.73957540688E+01 -0.29326897393E+02  0.18513380542E+02  0.35461378260E+02  0.00000000000E+00 0.  1.
</event>
<event>
 4    1  0.6089441E+003  0.2005244E+02  0.7546771E-02  0.1533236E+00
          2   -1    0    0  501    0  0.00000000000E+00  0.00000000000E+00  0.10674838548E+02  0.10674838548E+02  0.00000000000E+00 0.  1.
          2   -1    0    0  502    0 -0.00000000000E+00 -0.00000000000E+00 -0.12279145436E+03  0.12279145436E+03  0.00000000000E+00 0. -1.
          2    1    1    2  501    0  0.17849222442E+02 -0.91381365161E+01 -0.11162084135E+03  0.11340772683E+03  0.00000000000E+00 0. -1.
          2    1    1    2  502    0 -0.17849222442E+02  0.91381365161E+01 -0.49577446017E+00  0.20058566078E+02  0.00000000000E+00 0.  1.
</event>
<event>
 4    1  0.6089441E+003  0.2587724E+02  0.7546771E-02  0.1459224E+00
          2   -1    0    0  502    0  0.00000000000E+00  0.00000000000E+00  0.25121287236E+02  0.25121287236E+02  0.00000000000E+00 0. -1.
          2   -1    0    0  501    0 -0.00000000000E+00 -0.00000000000E+00 -0.10396357820E+03  0.10396357820E+03  0.00000000000E+00 0.  1.
          2    1    1    2  501    0 -0.23319117075E+02  0.11218304215E+02  0.16235358000E+02  0.30548623864E+02  0.00000000000E+00 0. -1.
          2    1    1    2  502    0  0.23319117075E+02 -0.11218304215E+02 -0.95077648966E+02  0.98536241574E+02  0.00000000000E+00 0.  1.
</event>
<event>
 4    1  0.6089441E+003  0.2299242E+02  0.7546771E-02  0.1492593E+00
          2   -1    0    0  502    0  0.00000000000E+00  0.00000000000E+00  0.15275887229E+02  0.15275887229E+02  0.00000000000E+00 0.  1.
          2   -1    0    0  501    0 -0.00000000000E+00 -0.00000000000E+00 -0.22922445631E+03  0.22922445631E+03  0.00000000000E+00 0. -1.
          2    1    1    2  501    0 -0.19549636019E+02 -0.12102186829E+02  0.56702184378E+01  0.23681270482E+02  0.00000000000E+00 0.  1.
          2    1    1    2  502    0  0.19549636019E+02  0.12102186829E+02 -0.21961878752E+03  0.22081907306E+03  0.00000000000E+00 0. -1.
</event>
<event>
 4    1  0.6089441E+003  0.2032501E+02  0.7546771E-02  0.1529124E+00
          2   -1    0    0  502    0  0.00000000000E+00  0.00000000000E+00  0.24886206940E+03  0.24886206940E+03  0.00000000000E+00 0. -1.
          2   -1    0    0  501    0 -0.00000000000E+00 -0.00000000000E+00 -0.36376268899E+03  0.36376268899E+03  0.00000000000E+00 0. -1.
          2    1    1    2  501    0 -0.16122172348E+02 -0.12376650799E+02  0.24816236367E+03  0.24899330246E+03  0.00000000000E+00 0. -1.
          2    1    1    2  502    0  0.16122172348E+02  0.12376650799E+02 -0.36306298327E+03  0.36363145593E+03  0.00000000000E+00 0. -1.
</event>
<event>
 4    1  0.6089441E+003  0.2544356E+02  0.7546771E-02  0.1463902E+00
          2   -1    0    0  501    0  0.00000000000E+00  0.00000000000E+00  0.20684313413E+03  0.20684313413E+03  0.00000000000E+00 0.  1.
          2   -1    0    0  502    0 -0.00000000000E+00 -0.00000000000E+00 -0.75565598192E+02  0.75565598192E+02  0.00000000000E+00 0.  1.
          2    1    1    2  501    0 -0.19007167144E+02  0.16914556049E+02 -0.72610465607E+02  0.76939289865E+02  0.00000000000E+00 0.  1.
          2    1    1    2  502    0  0.19007167144E+02 -0.16914556049E+02  0.20388800155E+03  0.20546944246E+03  0.00000000000E+00 0.  1.
</event>
<event>
 4    1  0.6089441E+003  0.2321086E+02  0.7546771E-02  0.1489867E+00
          2   -1    0    0  502    0  0.00000000000E+00  0.00000000000E+00  0.11423292108E+04  0.11423292108E+04  0.00000000000E+00 0.  1.
          2   -1    0    0  501    0 -0.00000000000E+00 -0.00000000000E+00 -0.47801285433E+01  0.47801285433E+01  0.00000000000E+00 0. -1.
          2    1    1    2  501    0 -0.23209990135E+02  0.20084508963E+00  0.11133004766E+04  0.11135424083E+04  0.00000000000E+00 0.  1.
          2    1    1    2  502    0  0.23209990135E+02 -0.20084508963E+00  0.24248605675E+02  0.33566931018E+02  0.00000000000E+00 0. -1.
</event>
<event>
 4    1  0.6089441E+003  0.3119715E+02  0.7546771E-02  0.1409471E+00
          2   -1    0    0  501    0  0.00000000000E+00  0.00000000000E+00  0.76512740102E+03  0.76512740102E+03  0.00000000000E+00 0. -1.
          2   -1    0    0  502    0 -0.00000000000E+00 -0.00000000000E+00 -0.14242361228E+02  0.14242361228E+02  0.00000000000E+00 0.  1.
          2    1    1    2  501    0 -0.26198749243E+02 -0.16937751910E+02  0.35665124100E+01  0.31400348923E+02  0.00000000000E+00 0.  1.
          2    1    1    2  502    0  0.26198749243E+02  0.16937751910E+02  0.74731852739E+03  0.74796941333E+03  0.00000000000E+00 0. -1.
</event>
<event>
 4    1  0.6089441E+003  0.2202827E+02  0.7546771E-02  0.1505074E+00
          2   -1    0    0  501    0  0.00000000000E+00  0.00000000000E+00  0.40261927317E+03  0.40261927317E+03  0.00000000000E+00 0. -1.
          2   -1    0    0  502    0 -0.00000000000E+00 -0.00000000000E+00 -0.14304478160E+03  0.14304478160E+03  0.00000000000E+00 0. -1.
          2    1    1    2  501    0 -0.20701849945E+02 -0.75284895474E+01 -0.14189298099E+03  0.14359269759E+03  0.00000000000E+00 0. -1.
          2    1    1    2  502    0  0.20701849945E+02  0.75284895474E+01  0.40146747255E+03  0.40207135718E+03  0.00000000000E+00 0. -1.
</event>
<event>
 4    1  0.6089441E+003  0.2634498E+02  0.7546771E-02  0.1454301E+00
          2   -1    0    0  502    0  0.00000000000E+00  0.00000000000E+00  0.41754429187E+02  0.41754429187E+02  0.00000000000E+00 0. -1.
          2   -1    0    0  501    0 -0.00000000000E+00 -0.00000000000E+00 -0.33836015841E+02  0.33836015841E+02  0.00000000000E+00 0. -1.
          2    1    1    2  501    0  0.18256477641E+01 -0.26281642734E+02 -0.22998545660E+02  0.34971285894E+02  0.00000000000E+00 0. -1.
          2    1    1    2  502    0 -0.18256477641E+01  0.26281642734E+02  0.30916959006E+02  0.40619159134E+02  0.00000000000E+00 0. -1.
</event>
<event>
 4    1  0.6089441E+003  0.4362089E+02  0.7546771E-02  0.1328481E+00
          2   -1    0    0  502    0  0.00000000000E+00  0.00000000000E+00  0.29100848365E+04  0.29100848365E+04  0.00000000000E+00 0. -1.
          2   -1    0    0  501    0 -0.00000000000E+00 -0.00000000000E+00 -0.20030604028E+02  0.20030604028E+02  0.00000000000E+00 0. -1.
          2    1    1    2  501    0  0.27520298545E+02  0.33843986628E+02  0.28859745434E+04  0.28863041849E+04  0.00000000000E+00 0. -1.
          2    1    1    2  502    0 -0.27520298545E+02 -0.33843986628E+02  0.40796890818E+01  0.43811255699E+02  0.00000000000E+00 0. -1.
</event>
<event>
 4    1  0.6089441E+003  0.2092018E+02  0.7546771E-02  0.1520408E+00
          2   -1    0    0  502    0  0.00000000000E+00  0.00000000000E+00  0.38048708102E+03  0.38048708102E+03  0.00000000000E+00 0. -1.
          2   -1    0    0  501    0 -0.00000000000E+00 -0.00000000000E+00 -0.40406892432E+01  0.40406892432E+01  0.00000000000E+00 0. -1.
          2    1    1    2  501    0 -0.11488325749E+02  0.17483486143E+02  0.35083504076E+03  0.35145821906E+03  0.00000000000E+00 0. -1.
          2    1    1    2  502    0  0.11488325749E+02 -0.17483486143E+02  0.25611351018E+02  0.33069551210E+02  0.00000000000E+00 0. -1.
</event>
<event>
 4    1  0.6089441E+003  0.2615560E+02  0.7546771E-02  0.1456280E+00
          2   -1    0    0  501    0  0.00000000000E+00  0.00000000000E+00  0.31482778398E+01  0.31482778398E+01  0.00000000000E+00 0.  1.
          2   -1    0    0  502    0 -0.00000000000E+00 -0.00000000000E+00 -0.36410532982E+03  0.36410532982E+03  0.00000000000E+00 0. -1.
          2    1    1    2  501    0  0.14974706190E+02 -0.21444669215E+02 -0.29707780633E+03  0.29822699187E+03  0.00000000000E+00 0. -1.
          2    1    1    2  502    0 -0.14974706190E+02  0.21444669215E+02 -0.63879245653E+02  0.69026615797E+02  0.00000000000E+00 0.  1.
</event>
<event>
 4    1  0.6089441E+003  0.2112655E+02  0.7546771E-02  0.1517466E+00
          2   -1    0    0  501    0  0.00000000000E+00  0.00000000000E+00  0.64594276712E+03  0.64594276712E+03  0.00000000000E+00 0.  1.
          2   -1    0    0  502    0 -0.00000000000E+00 -0.00000000000E+00 -0.26118128173E+01  0.26118128173E+01  0.00000000000E+00 0. -1.
          2    1    1    2  501    0 -0.65150606705E+01 -0.20096893576E+02  0.43572058094E+02  0.48423706936E+02  0.00000000000E+00 0. -1.
          2    1    1    2  502    0  0.65150606705E+01  0.20096893576E+02  0.59975889621E+03  0.60013087300E+03  0.00000000000E+00 0.  1.
</event>
<event>
 4    1  0.6089441E+003  0.2064423E+02  0.7546771E-02  0.1524405E+00
          2   -1    0    0  502    0  0.00000000000E+00  0.00000000000E+00  0.13082693167E+01  0.13082693167E+01  0.00000000000E+00 0. -1.
          2   -1    0    0  501    0 -0.00000000000E+00 -0.00000000000E+00 -0.71840037086E+03  0.71840037086E+03  0.00000000000E+00 0. -1.
          2    1    1    2  501    0 -0.27549280089E+00  0.20642391599E+02 -0.92510361693E+02  0.94785817757E+02  0.00000000000E+00 0. -1.
          2    1    1    2  502    0  0.27549280089E+00 -0.20642391599E+02 -0.62458173985E+03  0.62492282242E+03  0.00000000000E+00 0. -1.
</event>
<event>
 4    1  0.6089441E+003  0.2002620E+02  0.7546771E-02  0.1533635E+00
          2   -1    0    0  502    0  0.00000000000E+00  0.00000000000E+00  0.62599085463E+03  0.62599085463E+03  0.00000000000E+00 0.  1.
          2   -1    0    0  501    0 -0.00000000000E+00 -0.00000000000E+00 -0.72555686185E+00  0.72555686185E+00  0.00000000000E+00 0.  1.
          2    1    1    2  501    0  0.11345696867E+02  0.16502243650E+02  0.41982028656E+03  0.42029765868E+03  0.00000000000E+00 0.  1.
          2    1    1    2  502    0 -0.11345696867E+02 -0.16502243650E+02  0.20544501120E+03  0.20641875281E+03  0.00000000000E+00 0.  1.
</event>
<event>
 4    1  0.6089441E+003  0.2448454E+02  0.7546771E-02  0.1474653E+00
          2   -1    0    0  501    0  0.00000000000E+00  0.00000000000E+00  0.12998137248E+01  0.12998137248E+01  0.00000000000E+00 0.  1.
          2   -1    0    0  502    0 -0.00000000000E+00 -0.00000000000E+00 -0.13494340652E+04  0.13494340652E+04  0.00000000000E+00 0.  1.
          2    1    1    2  501    0 -0.16933803797E+02  0.17684422698E+02 -0.12219960280E+04  0.12222412957E+04  0.00000000000E+00 0.  1.
          2    1    1    2  502    0  0.16933803797E+02 -0.17684422698E+02 -0.12613822353E+03  0.12849258326E+03  0.00000000000E+00 0.  1.
</event>
<event>
 4    1  0.6089441E+003  0.4222020E+02  0.7546771E-02  0.1335945E+00
          2   -1    0    0  501    0  0.00000000000E+00  0.00000000000E+00  0.77855396714E+03  0.77855396714E+03  0.00000000000E+00 0. -1.
          2   -1    0    0  502    0 -0.00000000000E+00 -0.00000000000E+00 -0.66698299022E+01  0.66698299022E+01  0.00000000000E+00 0. -1.
          2    1    1    2  501    0  0.34792966889E+02 -0.23916420048E+02  0.67774041743E+02  0.79849022705E+02  0.00000000000E+00 0. -1.
          2    1    1    2  502    0 -0.34792966889E+02  0.23916420048E+02  0.70411009549E+03  0.70537477433E+03  0.00000000000E+00 0. -1.
</event>
<event>
 4    1  0.6089441E+003  0.2386822E+02  0.7546771E-02  0.1481874E+00
          2   -1    0    0  502    0  0.00000000000E+00  0.00000000000E+00  0.20437126503E+03  0.20437126503E+03  0.00000000000E+00 0. -1.
          2   -1    0    0  501    0 -0.00000000000E+00 -0.00000000000E+00 -0.54406895572E+01  0.54406895572E+01  0.00000000000E+00 0.  1.
          2    1    1    2  501    0  0.20217444800E+02 -0.12686474063E+02  0.17272322375E+03  0.17436457128E+03  0.00000000000E+00 0. -1.
          2    1    1    2  502    0 -0.20217444800E+02  0.12686474063E+02  0.26207351726E+02  0.35447383301E+02  0.00000000000E+00 0.  1.
</event>
<event>
 4    1  0.6089441E+003  0.2136748E+02  0.7546771E-02  0.1514082E+00
          2   -1    0    0  502    0  0.00000000000E+00  0.00000000000E+00  0.31714999817E+02  0.31714999817E+02  0.00000000000E+00 0.  1.
          2   -1    0    0  501    0 -0.00000000000E+00 -0.00000000000E+00 -0.11467041862E+04  0.11467041862E+04  0.00000000000E+00 0. -1.
          2    1    1    2  501    0 -0.19245543767E+02  0.92832134163E+01  0.28004779923E+02  0.35225512129E+02  0.00000000000E+00 0.  1.
          2    1    1    2  502    0  0.19245543767E+02 -0.92832134163E+01 -0.11429939663E+04  0.11431936739E+04  0.00000000000E+00 0. -1.
</event>
<event>
 4    1  0.6089441E+003  0.2044356E+02  0.7546771E-02  0.1527360E+00
          2   -1    0    0  501    0  0.00000000000E+00  0.00000000000E+00  0.11709907595E+02  0.11709907595E+02  0.00000000000E+00 0.  1.
          2   -1    0    0  502    0 -0.00000000000E+00 -0.00000000000E+00 -0.70331038732E+03  0.70331038732E+03  0.00000000000E+00 0. -1.
          2    1    1    2  501    0 -0.91189324561E+00  0.20423215906E+02 -0.69412095227E+03  0.69442194354E+03  0.00000000000E+00 0. -1.
          2    1    1    2  502    0  0.91189324561E+00 -0.20423215906E+02  0.25204725456E+01  0.20598351368E+02  0.00000000000E+00 0.  1.
</event>
<event>
 4    1  0.6089441E+003  0.2643364E+02  0.7546771E-02  0.1453382E+00
          2   -1    0    0  502    0  0.00000000000E+00  0.00000000000E+00  0.15751339295E+04  0.15751339295E+04  0.00000000000E+00 0. -1.
          2   -1    0    0  501    0 -0.00000000000E+00 -0.00000000000E+00 -0.32118449902E+02  0.32118449902E+02  0.00000000000E+00 0.  1.
          2    1    1    2  501    0 -0.21429611017E+02 -0.15476088601E+02  0.15695649771E+04  0.15697875509E+04  0.00000000000E+00 0. -1.
          2    1    1    2  502    0  0.21429611017E+02  0.15476088601E+02 -0.26549497597E+02  0.37464828431E+02  0.00000000000E+00 0.  1.
</event>
<event>
 4    1  0.6089441E+003  0.2174814E+02  0.7546771E-02  0.1508846E+00
          2   -1    0    0  502    0  0.00000000000E+00  0.00000000000E+00  0.19662881489E+03  0.19662881489E+03  0.00000000000E+00 0. -1.
          2   -1    0    0  501    0 -0.00000000000E+00 -0.00000000000E+00 -0.19888404522E+02  0.19888404522E+02  0.00000000000E+00 0.  1.
          2    1    1    2  501    0  0.18703694286E+02 -0.11097454218E+02  0.18987109065E+03  0.19111256561E+03  0.00000000000E+00 0. -1.
          2    1    1    2  502    0 -0.18703694286E+02  0.11097454218E+02 -0.13130680282E+02  0.25404653801E+02  0.00000000000E+00 0.  1.
</event>
<event>
 4    1  0.6089441E+003  0.2462458E+02  0.7546771E-02  0.1473047E+00
          2   -1    0    0  501    0  0.00000000000E+00  0.00000000000E+00  0.11271111615E+01  0.11271111615E+01  0.00000000000E+00 0. -1.
          2   -1    0    0  502    0 -0.00000000000E+00 -0.00000000000E+00 -0.61839938255E+03  0.61839938255E+03  0.00000000000E+00 0.  1.
          2    1    1    2  501    0 -0.88089908250E+01  0.22995036066E+02 -0.42033778431E+03  0.42105845547E+03  0.00000000000E+00 0.  1.
          2    1    1    2  502    0  0.88089908250E+01 -0.22995036066E+02 -0.19693448707E+03  0.19846803824E+03  0.00000000000E+00 0. -1.
</event>
<event>
 4    1  0.6089441E+003  0.2562829E+02  0.7546771E-02  0.1461896E+00
          2   -1    0    0  502    0  0.00000000000E+00  0.00000000000E+00  0.91381925113E+00  0.91381925113E+00  0.00000000000E+00 0. -1.
          2   -1    0    0  501    0 -0.00000000000E+00 -0.00000000000E+00 -0.20051796715E+04  0.20051796715E+04  0.00000000000E+00 0.  1.
          2    1    1    2  501    0  0.20308555970E+02 -0.15632391558E+02 -0.19872285934E+03  0.20036862014E+03  0.00000000000E+00 0. -1.
          2    1    1    2  502    0 -0.20308555970E+02  0.15632391558E+02 -0.18055429929E+04  0.18057248706E+04  0.00000000000E+00 0.  1.
</event>
<event>
 4    1  0.6888986E+003  0.3796750E+02  0.7546771E-02  0.1360826E+00
          2   -1    0    0  502    0  0.00000000000E+00  0.00000000000E+00  0.68523689953E+03  0.68523689953E+03  0.00000000000E+00 0. -1.
          2   -1    0    0  501    0 -0.00000000000E+00 -0.00000000000E+00 -0.67876131502E+03  0.67876131502E+03  0.00000000000E+00 0. -1.
          2    1    1    2  501    0 -0.37309076973E+02 -0.70401534166E+01  0.68417921327E+03  0.68523187816E+03  0.00000000000E+00 0. -1.
          2    1    1    2  502    0  0.37309076973E+02  0.70401534166E+01 -0.67770362876E+03  0.67876633639E+03  0.00000000000E+00 0. -1.
</event>
<event>
 4    1  0.6089441E+003  0.2092124E+02  0.7546771E-02  0.1520392E+00
          2   -1    0    0  501    0  0.00000000000E+00  0.00000000000E+00  0.10912558986E+03  0.10912558986E+03  0.00000000000E+00 0.  1.
          2   -1    0    0  502    0 -0.00000000000E+00 -0.00000000000E+00 -0.29638089486E+02  0.29638089486E+02  0.00000000000E+00 0.  1.
          2    1    1    2  501    0 -0.71043269357E+01 -0.19678077554E+02 -0.24772735708E+02  0.32425092627E+02  0.00000000000E+00 0.  1.
          2    1    1    2  502    0  0.71043269357E+01  0.19678077554E+02  0.10426023608E+03  0.10633858672E+03  0.00000000000E+00 0.  1.
</event>
<event>
 4    1  0.6089441E+003  0.2632318E+02  0.7546771E-02  0.1454528E+00
          2   -1    0    0  501    0  0.00000000000E+00  0.00000000000E+00  0.20817136279E+02  0.20817136279E+02  0.00000000000E+00 0.  1.
          2   -1    0    0  502    0 -0.00000000000E+00 -0.00000000000E+00 -0.38200433059E+02  0.38200433059E+02  0.00000000000E+00 0. -1.
          2    1    1    2  501    0  0.23599474095E+02  0.11660820606E+02 -0.19276227561E+02  0.32626413590E+02  0.00000000000E+00 0. -1.
          2    1    1    2  502    0 -0.23599474095E+02 -0.11660820606E+02  0.18929307814E+01  0.26391155748E+02  0.00000000000E+00 0.  1.
</event>
<event>
 4    1  0.6089441E+003  0.2933650E+02  0.7546771E-02  0.1425451E+00
          2   -1    0    0  501    0  0.00000000000E+00  0.00000000000E+00  0.11072528450E+03  0.11072528450E+03  0.00000000000E+00 0. -1.
          2   -1    0    0  502    0 -0.00000000000E+00 -0.00000000000E+00 -0.10968799880E+02  0.10968799880E+02  0.00000000000E+00 0. -1.
          2    1    1    2  501    0  0.28650706687E+02  0.63061079422E+01  0.17032974788E+02  0.33922738999E+02  0.00000000000E+00 0. -1.
          2    1    1    2  502    0 -0.28650706687E+02 -0.63061079422E+01  0.82723509834E+02  0.87771345383E+02  0.00000000000E+00 0. -1.
</event>
<event>
 4    1  0.6089441E+003  0.2298116E+02  0.7546771E-02  0.1492735E+00
          2   -1    0    0  502    0  0.00000000000E+00  0.00000000000E+00  0.71795724325E+01  0.71795724325E+01  0.00000000000E+00 0. -1.
          2   -1    0    0  501    0 -0.00000000000E+00 -0.00000000000E+00 -0.11786623384E+03  0.11786623384E+03  0.00000000000E+00 0. -1.
          2    1    1    2  501    0  0.17974616321E+02  0.14319463620E+02 -0.17010246536E+02  0.28591648387E+02  0.00000000000E+00 0. -1.
          2    1    1    2  502    0 -0.17974616321E+02 -0.14319463620E+02 -0.93676414871E+02  0.96454157886E+02  0.00000000000E+00 0. -1.
</event>
<event>
 4    1  0.6089441E+003  0.2465701E+02  0.7546771E-02  0.1472677E+00
          2   -1    0    0  501    0  0.00000000000E+00  0.00000000000E+00  0.26811882651E+01  0.26811882651E+01  0.00000000000E+00 0.  1.
          2   -1    0    0  502    0 -0.00000000000E+00 -0.00000000000E+00 -0.10184430216E+04  0.10184430216E+04  0.00000000000E+00 0.  1.
          2    1    1    2  501    0 -0.11464893623E+02 -0.21829440846E+02 -0.95803139264E+03  0.95834864092E+03  0.00000000000E+00 0.  1.
          2    1    1    2  502    0  0.11464893623E+02  0.21829440846E+02 -0.57730440710E+02  0.62775568958E+02  0.00000000000E+00 0.  1.
</event>
<event>
 4    1  0.6089441E+003  0.2498330E+02  0.7546771E-02  0.1468990E+00
          2   -1    0    0  502    0  0.00000000000E+00  0.00000000000E+00  0.51952640248E+03  0.51952640248E+03  0.00000000000E+00 0. -1.
          2   -1    0    0  501    0 -0.00000000000E+00 -0.00000000000E+00 -0.19819592151E+01  0.19819592151E+01  0.00000000000E+00 0.  1.
          2    1    1    2  501    0 -0.20239290525E+02  0.14647062941E+02  0.42240996077E+03  0.42314813044E+03  0.00000000000E+00 0. -1.
          2    1    1    2  502    0  0.20239290525E+02 -0.14647062941E+02  0.95134482495E+02  0.98360231259E+02  0.00000000000E+00 0.  1.
</event>
<event>
 4    1  0.6089441E+003  0.2773005E+02  0.7546771E-02  0.1440409E+00
          2   -1    0    0  501    0  0.00000000000E+00  0.00000000000E+00  0.72005912066E+03  0.72005912066E+03  0.00000000000E+00 0. -1.
          2   -1    0    0  502    0 -0.00000000000E+00 -0.00000000000E+00 -0.37000303627E+01  0.37000303627E+01  0.00000000000E+00 0.  1.
          2    1    1    2  501    0  0.12661141496E+02 -0.24670862290E+02  0.52958430488E+02  0.59779187932E+02  0.00000000000E+00 0.  1.
          2    1    1    2  502    0 -0.12661141496E+02  0.24670862290E+02  0.66340065981E+03  0.66397996309E+03  0.00000000000E+00 0. -1.
</event>
<event>
 4    1  0.6089441E+003  0.7057068E+02  0.7546771E-02  0.1227612E+00
          2   -1    0    0  502    0  0.00000000000E+00  0.00000000000E+00  0.18050140193E+04  0.18050140193E+04  0.00000000000E+00 0. -1.
          2   -1    0    0  501    0 -0.00000000000E+00 -0.00000000000E+00 -0.19557364057E+02  0.19557364057E+02  0.00000000000E+00 0. -1.
          2    1    1    2  501    0 -0.59513054250E+02  0.37926478235E+02  0.17382171174E+04  0.17396490935E+04  0.00000000000E+00 0. -1.
          2    1    1    2  502    0  0.59513054250E+02 -0.37926478235E+02  0.47239537878E+02  0.84922289868E+02  0.00000000000E+00 0. -1.
</event>
<event>
 4    1  0.6089441E+003  0.2508148E+02  0.7546771E-02  0.1467894E+00
          2   -1    0    0  502    0  0.00000000000E+00  0.00000000000E+00  0.63868501275E+01  0.63868501275E+01  0.00000000000E+00 0.  1.
          2   -1    0    0  501    0 -0.00000000000E+00 -0.00000000000E+00 -0.50261759379E+03  0.50261759379E+03  0.00000000000E+00 0.  1.
          2    1    1    2  501    0  0.17090719119E+02  0.18357233994E+02 -0.19908543632E+02  0.32022348906E+02  0.00000000000E+00 0.  1.
          2    1    1    2  502    0 -0.17090719119E+02 -0.18357233994E+02 -0.47632220003E+03  0.47698209501E+03  0.00000000000E+00 0.  1.
</event>
<event>
 4    1  0.6089441E+003  0.3081688E+02  0.7546771E-02  0.1412628E+00
          2   -1    0    0  502    0  0.00000000000E+00  0.00000000000E+00  0.73129795856E+03  0.73129795856E+03  0.00000000000E+00 0.  1.
          2   -1    0    0  501    0 -0.00000000000E+00 -0.00000000000E+00 -0.33952184573E+02  0.33952184573E+02  0.00000000000E+00 0. -1.
          2    1    1    2  501    0 -0.65711730902E+01  0.30108138877E+02  0.72390918355E+03  0.72456482551E+03  0.00000000000E+00 0.  1.
          2    1    1    2  502    0  0.65711730902E+01 -0.30108138877E+02 -0.26563409561E+02  0.40685317621E+02  0.00000000000E+00 0. -1.
</event>
<event>
 4    1  0.6089441E+003  0.2669518E+02  0.7546771E-02  0.1450694E+00
          2   -1    0    0  502    0  0.00000000000E+00  0.00000000000E+00  0.22653938826E+03  0.22653938826E+03  0.00000000000E+00 0.  1.
          2   -1    0    0  501    0 -0.00000000000E+00 -0.00000000000E+00 -0.72348334606E+01  0.72348334606E+01  0.00000000000E+00 0. -1.
          2    1    1    2  501    0 -0.21127738486E+02 -0.16317215959E+02  0.19752744003E+03  0.19932316081E+03  0.00000000000E+00 0.  1.
          2    1    1    2  502    0  0.21127738486E+02  0.16317215959E+02  0.21777114768E+02  0.34451060910E+02  0.00000000000E+00 0. -1.
</event>
<event>
 4    1  0.6089441E+003  0.3193624E+02  0.7546771E-02  0.1403485E+00
          2   -1    0    0  501    0  0.00000000000E+00  0.00000000000E+00  0.11203494517E+04  0.11203494517E+04  0.00000000000E+00 0. -1.
          2   -1    0    0  502    0 -0.00000000000E+00 -0.00000000000E+00 -0.12939566400E+01  0.12939566400E+01  0.00000000000E+00 0. -1.
          2    1    1    2  501    0 -0.49713226129E+01  0.31546934513E+02  0.25417527615E+03  0.25617375770E+03  0.00000000000E+00 0. -1.
          2    1    1    2  502    0  0.49713226129E+01 -0.31546934513E+02  0.86488021891E+03  0.86546965065E+03  0.00000000000E+00 0. -1.
</event>
<event>
 4    1  0.6089441E+003  0.3093321E+02  0.7546771E-02  0.1411656E+00
          2   -1    0    0  502    0  0.00000000000E+00  0.00000000000E+00  0.38990727983E+01  0.38990727983E+01  0.00000000000E+00 0. -1.
          2   -1    0    0  501    0 -0.00000000000E+00 -0.00000000000E+00 -0.27933554233E+03  0.27933554233E+03  0.00000000000E+00 0.  1.
          2    1    1    2  501    0  0.29843785965E+02  0.81370611192E+01 -0.88363368313E+02  0.93621301977E+02  0.00000000000E+00 0. -1.
          2    1    1    2  502    0 -0.29843785965E+02 -0.81370611192E+01 -0.18707310122E+03  0.18961331315E+03  0.00000000000E+00 0.  1.
</event>
<event>
 4    1  0.6089441E+003  0.2234157E+02  0.7546771E-02  0.1500936E+00
          2   -1    0    0  501    0  0.00000000000E+00  0.00000000000E+00  0.52995228310E+01  0.52995228310E+01  0.00000000000E+00 0. -1.
          2   -1    0    0  502    0 -0.00000000000E+00 -0.00000000000E+00 -0.72607469221E+03  0.72607469221E+03  0.00000000000E+00 0. -1.
          2    1    1    2  501    0  0.16927952060E+02  0.14580467015E+02 -0.70153256493E+03  0.70188822845E+03  0.00000000000E+00 0. -1.
          2    1    1    2  502    0 -0.16927952060E+02 -0.14580467015E+02 -0.19242604452E+02  0.29485986595E+02  0.00000000000E+00 0. -1.
</event>
<event>
 4    1  0.6089441E+003  0.3254166E+02  0.7546771E-02  0.1398722E+00
          2   -1    0    0  502    0  0.00000000000E+00  0.00000000000E+00  0.16944280671E+04  0.16944280671E+04  0.00000000000E+00 0.  1.
          2   -1    0    0  501    0 -0.00000000000E+00 -0.00000000000E+00 -0.18339644121E+03  0.18339644121E+03  0.00000000000E+00 0. -1.
          2    1    1    2  501    0 -0.31916564387E+02  0.63476209003E+01  0.16928269218E+04  0.16931396713E+04  0.00000000000E+00 0.  1.
          2    1    1    2  502    0  0.31916564387E+02 -0.63476209003E+01 -0.18179529596E+03  0.18468483697E+03  0.00000000000E+00 0. -1.
</event>
<event>
 4    1  0.6089441E+003  0.5722265E+02  0.7546771E-02  0.1269573E+00
          2   -1    0    0  502    0  0.00000000000E+00  0.00000000000E+00  0.40271276330E+02  0.40271276330E+02  0.00000000000E+00 0.  1.
          2   -1    0    0  501    0 -0.00000000000E+00 -0.00000000000E+00 -0.27513834724E+03  0.27513834724E+03  0.00000000000E+00 0.  1.
          2    1    1    2  501    0 -0.39066827528E+02 -0.41811656489E+02  0.14933166369E+02  0.59139082587E+02  0.00000000000E+00 0.  1.
          2    1    1    2  502    0  0.39066827528E+02  0.41811656489E+02 -0.24980023727E+03  0.25627054098E+03  0.00000000000E+00 0.  1.
</event>
<event>
 4    1  0.6089441E+003  0.4838470E+02  0.7546771E-02  0.1305332E+00
          2   -1    0    0  501    0  0.00000000000E+00  0.00000000000E+00  0.57791853079E+03  0.57791853079E+03  0.00000000000E+00 0.  1.
          2   -1    0    0  502    0 -0.00000000000E+00 -0.00000000000E+00 -0.63477618002E+01  0.63477618002E+01  0.00000000000E+00 0.  1.
          2    1    1    2  501    0  0.22819479643E+02  0.42665566300E+02  0.11005787516E+03  0.12022402041E+03  0.00000000000E+00 0.  1.
          2    1    1    2  502    0 -0.22819479643E+02 -0.42665566300E+02  0.46151289383E+03  0.46404227218E+03  0.00000000000E+00 0.  1.
</event>
<event>
 4    1  0.6089441E+003  0.3221106E+02  0.7546771E-02  0.1401307E+00
          2   -1    0    0  502    0  0.00000000000E+00  0.00000000000E+00  0.94157169753E+03  0.94157169753E+03  0.00000000000E+00 0. -1.
          2   -1    0    0  501    0 -0.00000000000E+00 -0.00000000000E+00 -0.66686223224E+01  0.66686223224E+01  0.00000000000E+00 0. -1.
          2    1    1    2  501    0 -0.28853893979E+02 -0.14318002471E+02  0.90063184948E+03  0.90120767901E+03  0.00000000000E+00 0. -1.
          2    1    1    2  502    0  0.28853893979E+02  0.14318002471E+02  0.34271225723E+02  0.47032640847E+02  0.00000000000E+00 0. -1.
</event>
<event>
 4    1  0.6089441E+003  0.3256800E+02  0.7546771E-02  0.1398517E+00
          2   -1    0    0  501    0  0.00000000000E+00  0.00000000000E+00  0.62107658447E+03  0.62107658447E+03  0.00000000000E+00 0. -1.
          2   -1    0    0  502    0 -0.00000000000E+00 -0.00000000000E+00 -0.41447966188E+03  0.41447966188E+03  0.00000000000E+00 0. -1.
          2    1    1    2  501    0 -0.23127018499E+02 -0.22930667001E+02 -0.41341184818E+03  0.41469269428E+03  0.00000000000E+00 0. -1.
          2    1    1    2  502    0  0.23127018499E+02  0.22930667001E+02  0.62000877076E+03  0.62086355207E+03  0.00000000000E+00 0. -1.
</event>
<event>
 4    1  0.6089441E+003  0.2315949E+02  0.7546771E-02  0.1490505E+00
          2   -1    0    0  501    0  0.00000000000E+00  0.00000000000E+00  0.86555608089E+01  0.86555608089E+01  0.00000000000E+00 0. -1.
          2   -1    0    0  502    0 -0.00000000000E+00 -0.00000000000E+00 -0.99280350586E+02  0.99280350586E+02  0.00000000000E+00 0. -1.
          2    1    1    2  501    0 -0.22618649080E+02  0.49758058557E+01 -0.78397655689E+02  0.81746891975E+02  0.00000000000E+00 0. -1.
          2    1    1    2  502    0  0.22618649080E+02 -0.49758058557E+01 -0.12227134088E+02  0.26189019419E+02  0.00000000000E+00 0. -1.
</event>
<event>
 4    1  0.6089441E+003  0.2414096E+02  0.7546771E-02  0.1478647E+00
          2   -1    0    0  502    0  0.00000000000E+00  0.00000000000E+00  0.54122985002E+03  0.54122985002E+03  0.00000000000E+00 0. -1.
          2   -1    0    0  501    0 -0.00000000000E+00 -0.00000000000E+00 -0.94925205675E+01  0.94925205675E+01  0.00000000000E+00 0.  1.
          2    1    1    2  501    0  0.23808602149E+02  0.39920677674E+01  0.52514213876E+03  0.52569673011E+03  0.00000000000E+00 0. -1.
          2    1    1    2  502    0 -0.23808602149E+02 -0.39920677674E+01  0.65951906937E+01  0.25025640484E+02  0.00000000000E+00 0.  1.
</event>
<event>
 4    1  0.6089441E+003  0.4010414E+02  0.7546771E-02  0.1347877E+00
          2   -1    0    0  502    0  0.00000000000E+00  0.00000000000E+00  0.23098185040E+01  0.23098185040E+01  0.00000000000E+00 0. -1.
          2   -1    0    0  501    0 -0.00000000000E+00 -0.00000000000E+00 -0.24470070958E+04  0.24470070958E+04  0.00000000000E+00 0.  1.
          2    1    1    2  501    0  0.21882756842E+02 -0.33607839112E+02 -0.18648330903E+03  0.19074686483E+03  0.00000000000E+00 0. -1.
          2    1    1    2  502    0 -0.21882756842E+02  0.33607839112E+02 -0.22582139683E+04  0.22585700495E+04  0.00000000000E+00 0.  1.
</event>
<event>
 4    1  0.6089441E+003  0.2066833E+02  0.7546771E-02  0.1524053E+00
          2   -1    0    0  502    0  0.00000000000E+00  0.00000000000E+00  0.22801140047E+02  0.22801140047E+02  0.00000000000E+00 0.  1.
          2   -1    0    0  501    0 -0.00000000000E+00 -0.00000000000E+00 -0.72774030544E+03  0.72774030544E+03  0.00000000000E+00 0. -1.
          2    1    1    2  501    0 -0.20665785268E+02 -0.32453829463E+00  0.17939138161E+02  0.27367730703E+02  0.00000000000E+00 0.  1.
          2    1    1    2  502    0  0.20665785268E+02  0.32453829463E+00 -0.72287830355E+03  0.72317371478E+03  0.00000000000E+00 0. -1.
</event>
<event>
 4    1  0.6089441E+003  0.3310227E+02  0.7546771E-02  0.1394419E+00
          2   -1    0    0  501    0  0.00000000000E+00  0.00000000000E+00  0.22939456550E+03  0.22939456550E+03  0.00000000000E+00 0. -1.
          2   -1    0    0  502    0 -0.00000000000E+00 -0.00000000000E+00 -0.63020412191E+02  0.63020412191E+02  0.00000000000E+00 0.  1.
          2    1    1    2  501    0 -0.25260665741E+02  0.21392966160E+02 -0.57370201848E+02  0.66235189249E+02  0.00000000000E+00 0.  1.
          2    1    1    2  502    0  0.25260665741E+02 -0.21392966160E+02  0.22374435516E+03  0.22617978845E+03  0.00000000000E+00 0. -1.
</event>
<event>
 4    1  0.6089441E+003  0.3261340E+02  0.7546771E-02  0.1398166E+00
          2   -1    0    0  501    0  0.00000000000E+00  0.00000000000E+00  0.23473419345E+02  0.23473419345E+02  0.00000000000E+00 0.  1.
          2   -1    0    0  502    0 -0.00000000000E+00 -0.00000000000E+00 -0.88497965076E+02  0.88497965076E+02  0.00000000000E+00 0.  1.
          2    1    1    2  501    0 -0.14795723814E+02  0.29064071273E+02 -0.71621606549E+02  0.78697447270E+02  0.00000000000E+00 0.  1.
          2    1    1    2  502    0  0.14795723814E+02 -0.29064071273E+02  0.65970608184E+01  0.33273937151E+02  0.00000000000E+00 0.  1.
</event>
<event>
 4    1  0.6089441E+003  0.2827451E+02  0.7546771E-02  0.1435209E+00
          2   -1    0    0  502    0  0.00000000000E+00  0.00000000000E+00  0.14856512071E+04  0.14856512071E+04  0.00000000000E+00 0.  1.
          2   -1    0    0  501    0 -0.00000000000E+00 -0.00000000000E+00 -0.46749340602E+02  0.46749340602E+02  0.00000000000E+00 0. -1.
          2    1    1    2  501    0 -0.11954915817E+02 -0.25622802965E+02  0.14812287322E+04  0.14814985674E+04  0.00000000000E+00 0.  1.
          2    1    1    2  502    0  0.11954915817E+02  0.25622802965E+02 -0.42326865686E+02  0.50901980342E+02  0.00000000000E+00 0. -1.
</event>
<event>
 4    1  0.6089441E+003  0.3544571E+02  0.7546771E-02  0.1377457E+00
          2   -1    0    0  502    0  0.00000000000E+00  0.00000000000E+00  0.39707014327E+01  0.39707014327E+01  0.00000000000E+00 0. -1.
          2   -1    0    0  501    0 -0.00000000000E+00 -0.00000000000E+00 -0.23308305732E+04  0.23308305732E+04  0.00000000000E+00 0.  1.
          2    1    1    2  501    0 -0.26760390724E+02 -0.23243915201E+02 -0.78157246132E+02  0.85819305687E+02  0.00000000000E+00 0. -1.
          2    1    1    2  502    0  0.26760390724E+02  0.23243915201E+02 -0.22487026256E+04  0.22489819689E+04  0.00000000000E+00 0.  1.
</event>
<event>
 4    1  0.6089441E+003  0.2410538E+02  0.7546771E-02  0.1479065E+00
          2   -1    0    0  502    0  0.00000000000E+00  0.00000000000E+00  0.47541807208E+03  0.47541807208E+03  0.00000000000E+00 0.  1.
          2   -1    0    0  501    0 -0.00000000000E+00 -0.00000000000E+00 -0.10825420339E+02  0.10825420339E+02  0.00000000000E+00 0. -1.
          2    1    1    2  501    0 -0.19762445683E+02 -0.13802720744E+02  0.46128248468E+03  0.46191189639E+03  0.00000000000E+00 0.  1.
          2    1    1    2  502    0  0.19762445683E+02  0.13802720744E+02  0.33101670673E+01  0.24331596029E+02  0.00000000000E+00 0. -1.
</event>
<event>
 4    1  0.6089441E+003  0.4441976E+02  0.7546771E-02  0.1324366E+00
          2   -1    0    0  502    0  0.00000000000E+00  0.00000000000E+00  0.19150491636E+04  0.19150491636E+04  0.00000000000E+00 0.  1.
          2   -1    0    0  501    0 -0.00000000000E+00 -0.00000000000E+00 -0.56375289521E+02  0.56375289521E+02  0.00000000000E+00 0.  1.
          2    1    1    2  501    0  0.40353343999E+02 -0.18566703322E+02  0.19060001375E+04  0.19065176734E+04  0.00000000000E+00 0.  1.
          2    1    1    2  502    0 -0.40353343999E+02  0.18566703322E+02 -0.47326263420E+02  0.64906779719E+02  0.00000000000E+00 0.  1.
</event>
<event>
 4    1  0.6089441E+003  0.2509939E+02  0.7546771E-02  0.1467695E+00
          2   -1    0    0  502    0  0.00000000000E+00  0.00000000000E+00  0.52001156376E+02  0.52001156376E+02  0.00000000000E+00 0. -1.
          2   -1    0    0  501    0 -0.00000000000E+00 -0.00000000000E+00 -0.75968080274E+02  0.75968080274E+02  0.00000000000E+00 0. -1.
          2    1    1    2  501    0  0.15294711417E+02 -0.19901035690E+02  0.46677865738E+02  0.52998137408E+02  0.00000000000E+00 0. -1.
          2    1    1    2  502    0 -0.15294711417E+02  0.19901035690E+02 -0.70644789636E+02  0.74971099242E+02  0.00000000000E+00 0. -1.
</event>
<event>
 4    1  0.6089441E+003  0.4360886E+02  0.7546771E-02  0.1328544E+00
          2   -1    0    0  501    0  0.00000000000E+00  0.00000000000E+00  0.15418670209E+02  0.15418670209E+02  0.00000000000E+00 0. -1.
          2   -1    0    0  502    0 -0.00000000000E+00 -0.00000000000E+00 -0.29435248727E+03  0.29435248727E+03  0.00000000000E+00 0.  1.
          2    1    1    2  501    0  0.26788517163E+01  0.43526507195E+02 -0.25752384515E+03  0.26119009149E+03  0.00000000000E+00 0.  1.
          2    1    1    2  502    0 -0.26788517163E+01 -0.43526507195E+02 -0.21409971916E+02  0.48581065988E+02  0.00000000000E+00 0. -1.
</event>
<event>
 4    1  0.6089441E+003  0.3225695E+02  0.7546771E-02  0.1400946E+00
          2   -1    0    0  502    0  0.00000000000E+00  0.00000000000E+00  0.20353212410E+04  0.20353212410E+04  0.00000000000E+00 0. -1.
          2   -1    0    0  501    0 -0.00000000000E+00 -0.00000000000E+00 -0.23145087852E+01  0.23145087852E+01  0.00000000000E+00 0. -1.
          2    1    1    2  501    0  0.31710906202E+02  0.59101217355E+01  0.19157916610E+04  0.19160632035E+04  0.00000000000E+00 0. -1.
          2    1    1    2  502    0 -0.31710906202E+02 -0.59101217355E+01  0.11721507112E+03  0.12157254628E+03  0.00000000000E+00 0. -1.
</event>
<event>
 4    1  0.6089441E+003  0.2345614E+02  0.7546771E-02  0.1486848E+00
          2   -1    0    0  502    0  0.00000000000E+00  0.00000000000E+00  0.75959323999E+00  0.75959323999E+00  0.00000000000E+00 0. -1.
          2   -1    0    0  501    0 -0.00000000000E+00 -0.00000000000E+00 -0.17443974074E+04  0.17443974074E+04  0.00000000000E+00 0. -1.
          2    1    1    2  501    0  0.20357455668E+02  0.11651804799E+02 -0.20455474325E+03  0.20589520039E+03  0.00000000000E+00 0. -1.
          2    1    1    2  502    0 -0.20357455668E+02 -0.11651804799E+02 -0.15390830709E+04  0.15392618003E+04  0.00000000000E+00 0. -1.
</event>
<event>
 4    1  0.6089441E+003  0.2350767E+02  0.7546771E-02  0.1486220E+00
          2   -1    0    0  501    0  0.00000000000E+00  0.00000000000E+00  0.17479942428E+04  0.17479942428E+04  0.00000000000E+00 0. -1.
          2   -1    0    0  502    0 -0.00000000000E+00 -0.00000000000E+00 -0.12944619129E+01  0.12944619129E+01  0.00000000000E+00 0.  1.
          2    1    1    2  501    0  0.19147567822E+02  0.13637493266E+02  0.11297496028E+03  0.11539476690E+03  0.00000000000E+00 0.  1.
          2    1    1    2  502    0 -0.19147567822E+02 -0.13637493266E+02  0.16337248206E+04  0.16338939379E+04  0.00000000000E+00 0. -1.
</event>
<event>
 4    1  0.6089441E+003  0.2586424E+02  0.7546771E-02  0.1459363E+00
          2   -1    0    0  501    0  0.00000000000E+00  0.00000000000E+00  0.16144689305E+04  0.16144689305E+04  0.00000000000E+00 0. -1.
          2   -1    0    0  502    0 -0.00000000000E+00 -0.00000000000E+00 -0.10070848790E+02  0.10070848790E+02  0.00000000000E+00 0. -1.
          2    1    1    2  501    0  0.18921493321E+02  0.17633381092E+02  0.68145679832E+01  0.26746913374E+02  0.00000000000E+00 0. -1.
          2    1    1    2  502    0 -0.18921493321E+02 -0.17633381092E+02  0.15975835138E+04  0.15977928660E+04  0.00000000000E+00 0. -1.
</event>
<event>
 4    1  0.6089441E+003  0.2998015E+02  0.7546771E-02  0.1419769E+00
          2   -1    0    0  501    0  0.00000000000E+00  0.00000000000E+00  0.11818530172E+03  0.11818530172E+03  0.00000000000E+00 0.  1.
          2   -1    0    0  502    0 -0.00000000000E+00 -0.00000000000E+00 -0.43546810027E+03  0.43546810027E+03  0.00000000000E+00 0.  1.
          2    1    1    2  501    0 -0.23208151557E+02 -0.18978705489E+02 -0.43304017935E+03  0.43407672880E+03  0.00000000000E+00 0.  1.
          2    1    1    2  502    0  0.23208151557E+02  0.18978705489E+02  0.11575738080E+03  0.11957667319E+03  0.00000000000E+00 0.  1.
</event>
<event>
 4    1  0.6089441E+003  0.2315378E+02  0.7546771E-02  0.1490576E+00
          2   -1    0    0  502    0  0.00000000000E+00  0.00000000000E+00  0.77135173178E+01  0.77135173178E+01  0.00000000000E+00 0. -1.
          2   -1    0    0  501    0 -0.00000000000E+00 -0.00000000000E+00 -0.19032059310E+03  0.19032059310E+03  0.00000000000E+00 0.  1.
          2    1    1    2  501    0  0.16070900912E+02  0.16668049751E+02 -0.12411047400E+02  0.26270360413E+02  0.00000000000E+00 0. -1.
          2    1    1    2  502    0 -0.16070900912E+02 -0.16668049751E+02 -0.17019602838E+03  0.17176375001E+03  0.00000000000E+00 0.  1.
</event>
<event>
 4    1  0.6089441E+003  0.3188895E+02  0.7546771E-02  0.1403862E+00
          2   -1    0    0  502    0  0.00000000000E+00  0.00000000000E+00  0.19150695377E+02  0.19150695377E+02  0.00000000000E+00 0. -1.
          2   -1    0    0  501    0 -0.00000000000E+00 -0.00000000000E+00 -0.54198183932E+03  0.54198183932E+03  0.00000000000E+00 0.  1.
          2    1    1    2  501    0 -0.31101344944E+02 -0.70435355011E+01  0.50523695235E+01  0.32286707598E+02  0.00000000000E+00 0. -1.
          2    1    1    2  502    0  0.31101344944E+02  0.70435355011E+01 -0.52788351346E+03  0.52884582710E+03  0.00000000000E+00 0.  1.
</event>
<event>
 4    1  0.6089441E+003  0.2065207E+02  0.7546771E-02  0.1524291E+00
          2   -1    0    0  502    0  0.00000000000E+00  0.00000000000E+00  0.13581515710E+02  0.13581515710E+02  0.00000000000E+00 0.  1.
          2   -1    0    0  501    0 -0.00000000000E+00 -0.00000000000E+00 -0.53049862263E+03  0.53049862263E+03  0.00000000000E+00 0. -1.
          2    1    1    2  501    0  0.20596507906E+02  0.15139231560E+01  0.54068052153E+01  0.21348106330E+02  0.00000000000E+00 0.  1.
          2    1    1    2  502    0 -0.20596507906E+02 -0.15139231560E+01 -0.52232391213E+03  0.52273203201E+03  0.00000000000E+00 0. -1.
</event>
<event>
 4    1  0.6089441E+003  0.2571100E+02  0.7546771E-02  0.1461004E+00
          2   -1    0    0  502    0  0.00000000000E+00  0.00000000000E+00  0.38747710975E+03  0.38747710975E+03  0.00000000000E+00 0. -1.
          2   -1    0    0  501    0 -0.00000000000E+00 -0.00000000000E+00 -0.28670327387E+01  0.28670327387E+01  0.00000000000E+00 0.  1.
          2    1    1    2  501    0  0.12632817553E+02  0.22393467199E+02  0.31650291312E+03  0.31754550771E+03  0.00000000000E+00 0. -1.
          2    1    1    2  502    0 -0.12632817553E+02 -0.22393467199E+02  0.68107163890E+02  0.72798634779E+02  0.00000000000E+00 0.  1.
</event>
<event>
 4    1  0.6089441E+003  0.2095362E+02  0.7546771E-02  0.1519928E+00
          2   -1    0    0  501    0  0.00000000000E+00  0.00000000000E+00  0.26606146330E+01  0.26606146330E+01  0.00000000000E+00 0. -1.
          2   -1    0    0  502    0 -0.00000000000E+00 -0.00000000000E+00 -0.15489978743E+04  0.15489978743E+04  0.00000000000E+00 0. -1.
          2    1    1    2  501    0  0.17543563434E+02 -0.11457641404E+02 -0.15065085653E+04  0.15066542774E+04  0.00000000000E+00 0. -1.
          2    1    1    2  502    0 -0.17543563434E+02  0.11457641404E+02 -0.39828694383E+02  0.45004211589E+02  0.00000000000E+00 0. -1.
</event>
<event>
 4    1  0.6089441E+003  0.2149903E+02  0.7546771E-02  0.1512258E+00
          2   -1    0    0  501    0  0.00000000000E+00  0.00000000000E+00  0.34243611862E+02  0.34243611862E+02  0.00000000000E+00 0.  1.
          2   -1    0    0  502    0 -0.00000000000E+00 -0.00000000000E+00 -0.26550869867E+03  0.26550869867E+03  0.00000000000E+00 0.  1.
          2    1    1    2  501    0  0.13677799340E+02  0.16586929977E+02 -0.26164938612E+03  0.26253115948E+03  0.00000000000E+00 0.  1.
          2    1    1    2  502    0 -0.13677799340E+02 -0.16586929977E+02  0.30384299312E+02  0.37221151051E+02  0.00000000000E+00 0.  1.
</event>
<event>
 4    1  0.6089441E+003  0.2940314E+02  0.7546771E-02  0.1424855E+00
          2   -1    0    0  502    0  0.00000000000E+00  0.00000000000E+00  0.15683091730E+04  0.15683091730E+04  0.00000000000E+00 0. -1.
          2   -1    0    0  501    0 -0.00000000000E+00 -0.00000000000E+00 -0.25783614436E+02  0.25783614436E+02  0.00000000000E+00 0. -1.
          2    1    1    2  501    0  0.81887593305E+01 -0.28239845663E+02  0.15597426276E+04  0.15600197464E+04  0.00000000000E+00 0. -1.
          2    1    1    2  502    0 -0.81887593305E+01  0.28239845663E+02 -0.17217069035E+02  0.34073041082E+02  0.00000000000E+00 0. -1.
</event>
<event>
 4    1  0.6089441E+003  0.2802200E+02  0.7546771E-02  0.1437603E+00
          2   -1    0    0  501    0  0.00000000000E+00  0.00000000000E+00  0.17301050145E+02  0.17301050145E+02  0.00000000000E+00 0. -1.
          2   -1    0    0  502    0 -0.00000000000E+00 -0.00000000000E+00 -0.83773703810E+02  0.83773703810E+02  0.00000000000E+00 0. -1.
          2    1    1    2  501    0 -0.23679376736E+02 -0.14983975614E+02 -0.67446292260E+02  0.73035845633E+02  0.00000000000E+00 0. -1.
          2    1    1    2  502    0  0.23679376736E+02  0.14983975614E+02  0.97363859514E+00  0.28038908322E+02  0.00000000000E+00 0. -1.
</event>
<event>
 4    1  0.6089441E+003  0.2053072E+02  0.7546771E-02  0.1526072E+00
          2   -1    0    0  501    0  0.00000000000E+00  0.00000000000E+00  0.21268219548E+03  0.21268219548E+03  0.00000000000E+00 0.  1.
          2   -1    0    0  502    0 -0.00000000000E+00 -0.00000000000E+00 -0.13348383821E+02  0.13348383821E+02  0.00000000000E+00 0.  1.
          2    1    1    2  501    0  0.23571946008E+01  0.20394956556E+02 -0.46215670288E+01  0.21044464857E+02  0.00000000000E+00 0.  1.
          2    1    1    2  502    0 -0.23571946008E+01 -0.20394956556E+02  0.20395537869E+03  0.20498611445E+03  0.00000000000E+00 0.  1.
</event>
<event>
 4    1  0.6089441E+003  0.2308332E+02  0.7546771E-02  0.1491455E+00
          2   -1    0    0  501    0  0.00000000000E+00  0.00000000000E+00  0.16581234454E+03  0.16581234454E+03  0.00000000000E+00 0. -1.
          2   -1    0    0  502    0 -0.00000000000E+00 -0.00000000000E+00 -0.57419319418E+03  0.57419319418E+03  0.00000000000E+00 0. -1.
          2    1    1    2  501    0 -0.10224307599E+02  0.20695487305E+02 -0.57315636899E+03  0.57362100988E+03  0.00000000000E+00 0. -1.
          2    1    1    2  502    0  0.10224307599E+02 -0.20695487305E+02  0.16477551935E+03  0.16638452885E+03  0.00000000000E+00 0. -1.
</event>
<event>
 4    1  0.6089441E+003  0.3021415E+02  0.7546771E-02  0.1417744E+00
          2   -1    0    0  501    0  0.00000000000E+00  0.00000000000E+00  0.74156123118E+03  0.74156123118E+03  0.00000000000E+00 0.  1.
          2   -1    0    0  502    0 -0.00000000000E+00 -0.00000000000E+00 -0.11074568459E+02  0.11074568459E+02  0.00000000000E+00 0. -1.
          2    1    1    2  501    0 -0.26600643187E+02  0.14328308739E+02  0.10457082801E+02  0.31972569962E+02  0.00000000000E+00 0. -1.
          2    1    1    2  502    0  0.26600643187E+02 -0.14328308739E+02  0.72002957992E+03  0.72066322968E+03  0.00000000000E+00 0.  1.
</event>
<event>
 4    1  0.6089441E+003  0.2111582E+02  0.7546771E-02  0.1517618E+00
          2   -1    0    0  502    0  0.00000000000E+00  0.00000000000E+00  0.11059421266E+03  0.11059421266E+03  0.00000000000E+00 0.  1.
          2   -1    0    0  501    0 -0.00000000000E+00 -0.00000000000E+00 -0.61416339771E+02  0.61416339771E+02  0.00000000000E+00 0.  1.
          2    1    1    2  501    0 -0.20447270154E+02 -0.52713306135E+01  0.10772340551E+03  0.10977344796E+03  0.00000000000E+00 0.  1.
          2    1    1    2  502    0  0.20447270154E+02  0.52713306135E+01 -0.58545532619E+02  0.62237104470E+02  0.00000000000E+00 0.  1.
</event>
<event>
 4    1  0.6089441E+003  0.2715246E+02  0.7546771E-02  0.1446083E+00
          2   -1    0    0  502    0  0.00000000000E+00  0.00000000000E+00  0.19250016850E+02  0.19250016850E+02  0.00000000000E+00 0.  1.
          2   -1    0    0  501    0 -0.00000000000E+00 -0.00000000000E+00 -0.48329963910E+03  0.48329963910E+03  0.00000000000E+00 0.  1.
          2    1    1    2  501    0 -0.27093640301E+02  0.17862520032E+01  0.90884379059E+01  0.28633123206E+02  0.00000000000E+00 0.  1.
          2    1    1    2  502    0  0.27093640301E+02 -0.17862520032E+01 -0.47313806015E+03  0.47391653274E+03  0.00000000000E+00 0.  1.
</event>
<event>
 4    1  0.6089441E+003  0.2837999E+02  0.7546771E-02  0.1434218E+00
          2   -1    0    0  502    0  0.00000000000E+00  0.00000000000E+00  0.26234209429E+02  0.26234209429E+02  0.00000000000E+00 0. -1.
          2   -1    0    0  501    0 -0.00000000000E+00 -0.00000000000E+00 -0.29205459121E+03  0.29205459121E+03  0.00000000000E+00 0. -1.
          2    1    1    2  501    0 -0.18492574602E+02 -0.21527851748E+02  0.17637240282E+02  0.33414008455E+02  0.00000000000E+00 0. -1.
          2    1    1    2  502    0  0.18492574602E+02  0.21527851748E+02 -0.28345762207E+03  0.28487479219E+03  0.00000000000E+00 0. -1.
</event>
<event>
 4    1  0.6089441E+003  0.2632707E+02  0.7546771E-02  0.1454487E+00
          2   -1    0    0  502    0  0.00000000000E+00  0.00000000000E+00  0.31046212389E+03  0.31046212389E+03  0.00000000000E+00 0.  1.
          2   -1    0    0  501    0 -0.00000000000E+00 -0.00000000000E+00 -0.25335778379E+02  0.25335778379E+02  0.00000000000E+00 0. -1.
          2    1    1    2  501    0  0.12659781254E+02 -0.23083431376E+02  0.30289414106E+03  0.30403614186E+03  0.00000000000E+00 0.  1.
          2    1    1    2  502    0 -0.12659781254E+02  0.23083431376E+02 -0.17767795553E+02  0.31761760410E+02  0.00000000000E+00 0. -1.
</event>
<event>
 4    1  0.6089441E+003  0.4593486E+02  0.7546771E-02  0.1316830E+00
          2   -1    0    0  502    0  0.00000000000E+00  0.00000000000E+00  0.62210526548E+03  0.62210526548E+03  0.00000000000E+00 0. -1.
          2   -1    0    0  501    0 -0.00000000000E+00 -0.00000000000E+00 -0.36865779209E+01  0.36865779209E+01  0.00000000000E+00 0. -1.
          2    1    1    2  501    0  0.36436111408E+02 -0.27971791873E+02  0.22072034428E+03  0.22544951039E+03  0.00000000000E+00 0. -1.
          2    1    1    2  502    0 -0.36436111408E+02  0.27971791873E+02  0.39769834328E+03  0.40034233302E+03  0.00000000000E+00 0. -1.
</event>
<event>
 4    1  0.6089441E+003  0.2103880E+02  0.7546771E-02  0.1518711E+00
          2   -1    0    0  501    0  0.00000000000E+00  0.00000000000E+00  0.15207442155E+04  0.15207442155E+04  0.00000000000E+00 0. -1.
          2   -1    0    0  502    0 -0.00000000000E+00 -0.00000000000E+00 -0.25977479167E+03  0.25977479167E+03  0.00000000000E+00 0. -1.
          2    1    1    2  501    0  0.98833064274E+01  0.18572871820E+02 -0.25927591031E+03  0.26012810110E+03  0.00000000000E+00 0. -1.
          2    1    1    2  502    0 -0.98833064274E+01 -0.18572871820E+02  0.15202453341E+04  0.15203909061E+04  0.00000000000E+00 0. -1.
</event>
<event>
 4    1  0.6089441E+003  0.2505560E+02  0.7546771E-02  0.1468182E+00
          2   -1    0    0  502    0  0.00000000000E+00  0.00000000000E+00  0.24295342478E+03  0.24295342478E+03  0.00000000000E+00 0. -1.
          2   -1    0    0  501    0 -0.00000000000E+00 -0.00000000000E+00 -0.26795338023E+01  0.26795338023E+01  0.00000000000E+00 0. -1.
          2    1    1    2  501    0 -0.42072728135E+01 -0.24699841617E+02  0.96942528200E+02  0.10012810342E+03  0.00000000000E+00 0. -1.
          2    1    1    2  502    0  0.42072728135E+01  0.24699841617E+02  0.14333136277E+03  0.14550485516E+03  0.00000000000E+00 0. -1.
</event>
<event>
 4    1  0.6089441E+003  0.4679007E+02  0.7546771E-02  0.1312723E+00
          2   -1    0    0  502    0  0.00000000000E+00  0.00000000000E+00  0.96687950704E+03  0.96687950704E+03  0.00000000000E+00 0.  1.
          2   -1    0    0  501    0 -0.00000000000E+00 -0.00000000000E+00 -0.16469793743E+02  0.16469793743E+02  0.00000000000E+00 0.  1.
          2    1    1    2  501    0  0.37502934024E+01  0.46639534687E+02  0.93183209601E+03  0.93300609111E+03  0.00000000000E+00 0.  1.
          2    1    1    2  502    0 -0.37502934024E+01 -0.46639534687E+02  0.18577617293E+02  0.50343209679E+02  0.00000000000E+00 0.  1.
</event>
<event>
 4    1  0.6089441E+003  0.3147487E+02  0.7546771E-02  0.1407199E+00
          2   -1    0    0  502    0  0.00000000000E+00  0.00000000000E+00  0.24115591990E+02  0.24115591990E+02  0.00000000000E+00 0. -1.
          2   -1    0    0  501    0 -0.00000000000E+00 -0.00000000000E+00 -0.90093400276E+03  0.90093400276E+03  0.00000000000E+00 0. -1.
          2    1    1    2  501    0  0.23520311177E+02  0.20915596349E+02  0.13447680406E+02  0.34227289066E+02  0.00000000000E+00 0. -1.
          2    1    1    2  502    0 -0.23520311177E+02 -0.20915596349E+02 -0.89026609118E+03  0.89082230569E+03  0.00000000000E+00 0. -1.
</event>
<event>
 4    1  0.6089441E+003  0.2017052E+02  0.7546771E-02  0.1531445E+00
          2   -1    0    0  501    0  0.00000000000E+00  0.00000000000E+00  0.15992022998E+03  0.15992022998E+03  0.00000000000E+00 0. -1.
          2   -1    0    0  502    0 -0.00000000000E+00 -0.00000000000E+00 -0.59050081899E+01  0.59050081899E+01  0.00000000000E+00 0.  1.
          2    1    1    2  501    0 -0.12395731395E+02 -0.15912123950E+02  0.14455783178E+02  0.24815711006E+02  0.00000000000E+00 0.  1.
          2    1    1    2  502    0  0.12395731395E+02  0.15912123950E+02  0.13955943861E+03  0.14100952716E+03  0.00000000000E+00 0. -1.
</event>
<event>
 4    1  0.6089441E+003  0.3563127E+02  0.7546771E-02  0.1376179E+00
          2   -1    0    0  502    0  0.00000000000E+00  0.00000000000E+00  0.17031272475E+04  0.17031272475E+04  0.00000000000E+00 0.  1.
          2   -1    0    0  501    0 -0.00000000000E+00 -0.00000000000E+00 -0.45271685206E+01  0.45271685206E+01  0.00000000000E+00 0.  1.
          2    1    1    2  501    0  0.24319854033E+02  0.26040966743E+02  0.16296718296E+04  0.16300613054E+04  0.00000000000E+00 0.  1.
          2    1    1    2  502    0 -0.24319854033E+02 -0.26040966743E+02  0.68928249354E+02  0.77593110572E+02  0.00000000000E+00 0.  1.
</event>
<event>
 4    1  0.6089441E+003  0.3584266E+02  0.7546771E-02  0.1374734E+00
          2   -1    0    0  502    0  0.00000000000E+00  0.00000000000E+00  0.64639163051E+03  0.64639163051E+03  0.00000000000E+00 0. -1.
          2   -1    0    0  501    0 -0.00000000000E+00 -0.00000000000E+00 -0.83470584741E+01  0.83470584741E+01  0.00000000000E+00 0.  1.
          2    1    1    2  501    0  0.22318668337E+02 -0.28045916461E+02  0.60477155758E+03  0.60583276012E+03  0.00000000000E+00 0. -1.
          2    1    1    2  502    0 -0.22318668337E+02  0.28045916461E+02  0.33273014462E+02  0.48905928862E+02  0.00000000000E+00 0.  1.
</event>
<event>
 4    1  0.6089441E+003  0.3535727E+02  0.7546771E-02  0.1378069E+00
          2   -1    0    0  502    0  0.00000000000E+00  0.00000000000E+00  0.66158320343E+02  0.66158320343E+02  0.00000000000E+00 0.  1.
          2   -1    0    0  501    0 -0.00000000000E+00 -0.00000000000E+00 -0.19322710504E+03  0.19322710504E+03  0.00000000000E+00 0. -1.
          2    1    1    2  501    0  0.12980657115E+02  0.32888278183E+02  0.59653728005E+02  0.69344816432E+02  0.00000000000E+00 0.  1.
          2    1    1    2  502    0 -0.12980657115E+02 -0.32888278183E+02 -0.18672251270E+03  0.19004060895E+03  0.00000000000E+00 0. -1.
</event>
<event>
 4    1  0.6089441E+003  0.2963944E+02  0.7546771E-02  0.1422756E+00
          2   -1    0    0  502    0  0.00000000000E+00  0.00000000000E+00  0.56074588375E+01  0.56074588375E+01  0.00000000000E+00 0.  1.
          2   -1    0    0  501    0 -0.00000000000E+00 -0.00000000000E+00 -0.61303521816E+03  0.61303521816E+03  0.00000000000E+00 0.  1.
          2    1    1    2  501    0  0.14843064045E+02 -0.25655010568E+02 -0.36828051904E+02  0.47273687444E+02  0.00000000000E+00 0.  1.
          2    1    1    2  502    0 -0.14843064045E+02  0.25655010568E+02 -0.57059970742E+03  0.57136898956E+03  0.00000000000E+00 0.  1.
</event>
<event>
 4    1  0.6089441E+003  0.2323213E+02  0.7546771E-02  0.1489604E+00
          2   -1    0    0  501    0  0.00000000000E+00  0.00000000000E+00  0.17170408385E+01  0.17170408385E+01  0.00000000000E+00 0. -1.
          2   -1    0    0  502    0 -0.00000000000E+00 -0.00000000000E+00 -0.39979043168E+03  0.39979043168E+03  0.00000000000E+00 0. -1.
          2    1    1    2  501    0 -0.23197652622E+02 -0.12652123163E+01 -0.29184966444E+03  0.29277287866E+03  0.00000000000E+00 0. -1.
          2    1    1    2  502    0  0.23197652622E+02  0.12652123163E+01 -0.10622372640E+03  0.10873459385E+03  0.00000000000E+00 0. -1.
</event>
<event>
 4    1  0.6089441E+003  0.2005268E+02  0.7546771E-02  0.1533232E+00
          2   -1    0    0  501    0  0.00000000000E+00  0.00000000000E+00  0.65641696145E+03  0.65641696145E+03  0.00000000000E+00 0. -1.
          2   -1    0    0  502    0 -0.00000000000E+00 -0.00000000000E+00 -0.18479471388E+01  0.18479471388E+01  0.00000000000E+00 0. -1.
          2    1    1    2  501    0  0.15881760126E+02  0.12242532823E+02  0.58178483059E+02  0.61537352930E+02  0.00000000000E+00 0. -1.
          2    1    1    2  502    0 -0.15881760126E+02 -0.12242532823E+02  0.59639053125E+03  0.59672755566E+03  0.00000000000E+00 0. -1.
</event>
<event>
 4    1  0.6089441E+003  0.2504830E+02  0.7546771E-02  0.1468264E+00
          2   -1    0    0  501    0  0.00000000000E+00  0.00000000000E+00  0.32591745322E+01  0.32591745322E+01  0.00000000000E+00 0. -1.
          2   -1    0    0  502    0 -0.00000000000E+00 -0.00000000000E+00 -0.40003544132E+03  0.40003544132E+03  0.00000000000E+00 0.  1.
          2    1    1    2  501    0  0.19013007965E+02  0.16307141576E+02 -0.34362634936E+03  0.34453807527E+03  0.00000000000E+00 0.  1.
          2    1    1    2  502    0 -0.19013007965E+02 -0.16307141576E+02 -0.53149917427E+02  0.58756540579E+02  0.00000000000E+00 0. -1.
</event>
<event>
 4    1  0.6089441E+003  0.4213521E+02  0.7546771E-02  0.1336408E+00
          2   -1    0    0  502    0  0.00000000000E+00  0.00000000000E+00  0.26319329868E+01  0.26319329868E+01  0.00000000000E+00 0.  1.
          2   -1    0    0  501    0 -0.00000000000E+00 -0.00000000000E+00 -0.12111390004E+04  0.12111390004E+04  0.00000000000E+00 0. -1.
          2    1    1    2  501    0  0.40323136045E+02  0.12223755833E+02 -0.20030146197E+03  0.20468524904E+03  0.00000000000E+00 0.  1.
          2    1    1    2  502    0 -0.40323136045E+02 -0.12223755833E+02 -0.10082056054E+04  0.10090856843E+04  0.00000000000E+00 0. -1.
</event>
<event>
 4    1  0.6089441E+003  0.2294348E+02  0.7546771E-02  0.1493209E+00
          2   -1    0    0  502    0  0.00000000000E+00  0.00000000000E+00  0.24314521690E+02  0.24314521690E+02  0.00000000000E+00 0.  1.
          2   -1    0    0  501    0 -0.00000000000E+00 -0.00000000000E+00 -0.90043359268E+02  0.90043359268E+02  0.00000000000E+00 0.  1.
          2    1    1    2  501    0  0.22694959451E+02  0.33678241150E+01  0.16968692928E+02  0.28536642470E+02  0.00000000000E+00 0.  1.
          2    1    1    2  502    0 -0.22694959451E+02 -0.33678241150E+01 -0.82697530506E+02  0.85821238488E+02  0.00000000000E+00 0.  1.
</event>
<event>
 4    1  0.6089441E+003  0.2540814E+02  0.7546771E-02  0.1464289E+00
          2   -1    0    0  502    0  0.00000000000E+00  0.00000000000E+00  0.55561457952E+02  0.55561457952E+02  0.00000000000E+00 0.  1.
          2   -1    0    0  501    0 -0.00000000000E+00 -0.00000000000E+00 -0.45270820493E+02  0.45270820493E+02  0.00000000000E+00 0. -1.
          2    1    1    2  501    0  0.17547607650E+02 -0.18375393334E+02  0.48612762337E+02  0.54852295088E+02  0.00000000000E+00 0.  1.
          2    1    1    2  502    0 -0.17547607650E+02  0.18375393334E+02 -0.38322124878E+02  0.45979983358E+02  0.00000000000E+00 0. -1.
</event>
<event>
 4    1  0.6089441E+003  0.2963628E+02  0.7546771E-02  0.1422784E+00
          2   -1    0    0  501    0  0.00000000000E+00  0.00000000000E+00  0.20427617700E+04  0.20427617700E+04  0.00000000000E+00 0.  1.
          2   -1    0    0  502    0 -0.00000000000E+00 -0.00000000000E+00 -0.78179215249E+02  0.78179215249E+02  0.00000000000E+00 0.  1.
          2    1    1    2  501    0 -0.28411993134E+02 -0.84301769509E+01 -0.75259063826E+02  0.80884089445E+02  0.00000000000E+00 0.  1.
          2    1    1    2  502    0  0.28411993134E+02  0.84301769509E+01  0.20398416186E+04  0.20400568958E+04  0.00000000000E+00 0.  1.
</event>
<event>
 4    1  0.6089441E+003  0.2279075E+02  0.7546771E-02  0.1495143E+00
          2   -1    0    0  502    0  0.00000000000E+00  0.00000000000E+00  0.28135492278E+01  0.28135492278E+01  0.00000000000E+00 0. -1.
          2   -1    0    0  501    0 -0.00000000000E+00 -0.00000000000E+00 -0.14592646242E+04  0.14592646242E+04  0.00000000000E+00 0. -1.
          2    1    1    2  501    0  0.96446063086E+01  0.20649455747E+02 -0.44991834983E+02  0.50434944916E+02  0.00000000000E+00 0. -1.
          2    1    1    2  502    0 -0.96446063086E+01 -0.20649455747E+02 -0.14114592400E+04  0.14116432285E+04  0.00000000000E+00 0. -1.
</event>
<event>
 4    1  0.6089441E+003  0.2836174E+02  0.7546771E-02  0.1434389E+00
          2   -1    0    0  501    0  0.00000000000E+00  0.00000000000E+00  0.59519842573E+02  0.59519842573E+02  0.00000000000E+00 0. -1.
          2   -1    0    0  502    0 -0.00000000000E+00 -0.00000000000E+00 -0.25427169400E+02  0.25427169400E+02  0.00000000000E+00 0.  1.
          2    1    1    2  501    0 -0.12292923388E+02 -0.25559197135E+02 -0.12025422896E+02  0.30805832556E+02  0.00000000000E+00 0.  1.
          2    1    1    2  502    0  0.12292923388E+02  0.25559197135E+02  0.46118096070E+02  0.54141179417E+02  0.00000000000E+00 0. -1.
</event>
<event>
 4    1  0.6089441E+003  0.6996712E+02  0.7546771E-02  0.1229275E+00
          2   -1    0    0  502    0  0.00000000000E+00  0.00000000000E+00  0.35616553402E+03  0.35616553402E+03  0.00000000000E+00 0.  1.
          2   -1    0    0  501    0 -0.00000000000E+00 -0.00000000000E+00 -0.13839419939E+02  0.13839419939E+02  0.00000000000E+00 0. -1.
          2    1    1    2  501    0 -0.35451207347E+02  0.60320890134E+02  0.18646611837E+03  0.19916076719E+03  0.00000000000E+00 0.  1.
          2    1    1    2  502    0  0.35451207347E+02 -0.60320890134E+02  0.15585999571E+03  0.17084418677E+03  0.00000000000E+00 0. -1.
</event>
<event>
 4    1  0.6089441E+003  0.1185255E+03  0.7546771E-02  0.1135091E+00
          2   -1    0    0  501    0  0.00000000000E+00  0.00000000000E+00  0.14742192664E+04  0.14742192664E+04  0.00000000000E+00 0. -1.
          2   -1    0    0  502    0 -0.00000000000E+00 -0.00000000000E+00 -0.14819329793E+04  0.14819329793E+04  0.00000000000E+00 0. -1.
          2    1    1    2  501    0 -0.10568209805E+03  0.53661809778E+02 -0.14771730593E+04  0.14819205589E+04  0.00000000000E+00 0. -1.
          2    1    1    2  502    0  0.10568209805E+03 -0.53661809778E+02  0.14694593464E+04  0.14742316868E+04  0.00000000000E+00 0. -1.
</event>
<event>
 4    1  0.6089441E+003  0.2312803E+02  0.7546771E-02  0.1490897E+00
          2   -1    0    0  502    0  0.00000000000E+00  0.00000000000E+00  0.48343879384E+00  0.48343879384E+00  0.00000000000E+00 0.  1.
          2   -1    0    0  501    0 -0.00000000000E+00 -0.00000000000E+00 -0.15947501242E+04  0.15947501242E+04  0.00000000000E+00 0.  1.
          2    1    1    2  501    0  0.14607095651E+02 -0.17931497555E+02 -0.35577963079E+03  0.35653057588E+03  0.00000000000E+00 0.  1.
          2    1    1    2  502    0 -0.14607095651E+02  0.17931497555E+02 -0.12384870546E+04  0.12387029871E+04  0.00000000000E+00 0.  1.
</event>
<event>
 4    1  0.6089441E+003  0.2062674E+02  0.7546771E-02  0.1524661E+00
          2   -1    0    0  501    0  0.00000000000E+00  0.00000000000E+00  0.33777191673E+03  0.33777191673E+03  0.00000000000E+00 0. -1.
          2   -1    0    0  502    0 -0.00000000000E+00 -0.00000000000E+00 -0.28836084281E+03  0.28836084281E+03  0.00000000000E+00 0. -1.
          2    1    1    2  501    0 -0.20261505778E+02 -0.38644326562E+01 -0.28767632791E+03  0.28841486109E+03  0.00000000000E+00 0. -1.
          2    1    1    2  502    0  0.20261505778E+02  0.38644326562E+01  0.33708740183E+03  0.33771789845E+03  0.00000000000E+00 0. -1.
</event>
<event>
 4    1  0.6089441E+003  0.4689844E+02  0.7546771E-02  0.1312210E+00
          2   -1    0    0  502    0  0.00000000000E+00  0.00000000000E+00  0.12769915998E+02  0.12769915998E+02  0.00000000000E+00 0. -1.
          2   -1    0    0  501    0 -0.00000000000E+00 -0.00000000000E+00 -0.11514656664E+04  0.11514656664E+04  0.00000000000E+00 0. -1.
          2    1    1    2  501    0  0.28576927025E+02  0.37186325084E+02 -0.32529669919E+02  0.57075765054E+02  0.00000000000E+00 0. -1.
          2    1    1    2  502    0 -0.28576927025E+02 -0.37186325084E+02 -0.11061660805E+04  0.11071598174E+04  0.00000000000E+00 0. -1.
</event>
<event>
 4    1  0.6089441E+003  0.3164358E+02  0.7546771E-02  0.1405832E+00
          2   -1    0    0  501    0  0.00000000000E+00  0.00000000000E+00  0.85031704849E+03  0.85031704849E+03  0.00000000000E+00 0.  1.
          2   -1    0    0  502    0 -0.00000000000E+00 -0.00000000000E+00 -0.11793858144E+01  0.11793858144E+01  0.00000000000E+00 0. -1.
          2    1    1    2  501    0  0.78118792102E+01  0.30664164572E+02  0.44122779215E+03  0.44236103017E+03  0.00000000000E+00 0.  1.
          2    1    1    2  502    0 -0.78118792102E+01 -0.30664164572E+02  0.40790987052E+03  0.40913540413E+03  0.00000000000E+00 0. -1.
</event>
<event>
 4    1  0.6089441E+003  0.2123260E+02  0.7546771E-02  0.1515970E+00
          2   -1    0    0  501    0  0.00000000000E+00  0.00000000000E+00  0.16537711389E+03  0.16537711389E+03  0.00000000000E+00 0.  1.
          2   -1    0    0  502    0 -0.00000000000E+00 -0.00000000000E+00 -0.17564084651E+02  0.17564084651E+02  0.00000000000E+00 0.  1.
          2    1    1    2  501    0 -0.11675763287E+02  0.17734147981E+02 -0.10166613075E+02  0.23541101808E+02  0.00000000000E+00 0.  1.
          2    1    1    2  502    0  0.11675763287E+02 -0.17734147981E+02  0.15797964232E+03  0.15940009674E+03  0.00000000000E+00 0.  1.
</event>
<event>
 4    1  0.6089441E+003  0.2981562E+02  0.7546771E-02  0.1421206E+00
          2   -1    0    0  501    0  0.00000000000E+00  0.00000000000E+00  0.58354014672E+03  0.58354014672E+03  0.00000000000E+00 0. -1.
          2   -1    0    0  502    0 -0.00000000000E+00 -0.00000000000E+00 -0.26316165677E+01  0.26316165677E+01  0.00000000000E+00 0.  1.
          2    1    1    2  501    0 -0.74620926557E+01  0.28866734272E+02  0.10026155866E+03  0.10460091452E+03  0.00000000000E+00 0.  1.
          2    1    1    2  502    0  0.74620926557E+01 -0.28866734272E+02  0.48064697149E+03  0.48157084876E+03  0.00000000000E+00 0. -1.
</event>
<event>
 4    1  0.6089441E+003  0.2619788E+02  0.7546771E-02  0.1455836E+00
          2   -1    0    0  502    0  0.00000000000E+00  0.00000000000E+00  0.17110249415E+04  0.17110249415E+04  0.00000000000E+00 0.  1.
          2   -1    0    0  501    0 -0.00000000000E+00 -0.00000000000E+00 -0.27030270036E+01  0.27030270036E+01  0.00000000000E+00 0.  1.
          2    1    1    2  501    0 -0.17221735804E+02  0.19741846298E+02  0.16448950320E+04  0.16451036426E+04  0.00000000000E+00 0.  1.
          2    1    1    2  502    0  0.17221735804E+02 -0.19741846298E+02  0.63426882518E+02  0.68624325901E+02  0.00000000000E+00 0.  1.
</event>
<event>
 4    1  0.6089441E+003  0.2610289E+02  0.7546771E-02  0.1456834E+00
          2   -1    0    0  501    0  0.00000000000E+00  0.00000000000E+00  0.36298590140E+02  0.36298590140E+02  0.00000000000E+00 0. -1.
          2   -1    0    0  502    0 -0.00000000000E+00 -0.00000000000E+00 -0.21096027428E+02  0.21096027428E+02  0.00000000000E+00 0. -1.
          2    1    1    2  501    0 -0.25426891577E+02  0.59020171080E+01 -0.19257023333E+01  0.26173821859E+02  0.00000000000E+00 0. -1.
          2    1    1    2  502    0  0.25426891577E+02 -0.59020171080E+01  0.17128265046E+02  0.31220795709E+02  0.00000000000E+00 0. -1.
</event>
<event>
 4    1  0.6089441E+003  0.2658468E+02  0.7546771E-02  0.1451825E+00
          2   -1    0    0  502    0  0.00000000000E+00  0.00000000000E+00  0.12155567045E+04  0.12155567045E+04  0.00000000000E+00 0.  1.
          2   -1    0    0  501    0 -0.00000000000E+00 -0.00000000000E+00 -0.25797360929E+02  0.25797360929E+02  0.00000000000E+00 0.  1.
          2    1    1    2  501    0 -0.25885287999E+02  0.60578077854E+01  0.12085224839E+04  0.12088148490E+04  0.00000000000E+00 0.  1.
          2    1    1    2  502    0  0.25885287999E+02 -0.60578077854E+01 -0.18763140311E+02  0.32539216406E+02  0.00000000000E+00 0.  1.
</event>
<event>
 4    1  0.6089441E+003  0.2408321E+02  0.7546771E-02  0.1479326E+00
          2   -1    0    0  502    0  0.00000000000E+00  0.00000000000E+00  0.46307351629E+03  0.46307351629E+03  0.00000000000E+00 0. -1.
          2   -1    0    0  501    0 -0.00000000000E+00 -0.00000000000E+00 -0.73547918888E+01  0.73547918888E+01  0.00000000000E+00 0. -1.
          2    1    1    2  501    0 -0.21942062460E+02 -0.99270879517E+01  0.44211123330E+03  0.44276669228E+03  0.00000000000E+00 0. -1.
          2    1    1    2  502    0  0.21942062460E+02  0.99270879517E+01  0.13607491101E+02  0.27661615901E+02  0.00000000000E+00 0. -1.
</event>
<event>
 4    1  0.6089441E+003  0.2691840E+02  0.7546771E-02  0.1448430E+00
          2   -1    0    0  501    0  0.00000000000E+00  0.00000000000E+00  0.29360450317E+01  0.29360450317E+01  0.00000000000E+00 0. -1.
          2   -1    0    0  502    0 -0.00000000000E+00 -0.00000000000E+00 -0.66780078712E+03  0.66780078712E+03  0.00000000000E+00 0.  1.
          2    1    1    2  501    0 -0.15260234973E+02  0.22174882505E+02 -0.59871504743E+03  0.59931987136E+03  0.00000000000E+00 0.  1.
          2    1    1    2  502    0  0.15260234973E+02 -0.22174882505E+02 -0.66149694653E+02  0.71416960788E+02  0.00000000000E+00 0. -1.
</event>
<event>
 4    1  0.6089441E+003  0.2331395E+02  0.7546771E-02  0.1488593E+00
          2   -1    0    0  501    0  0.00000000000E+00  0.00000000000E+00  0.80782844942E+01  0.80782844942E+01  0.00000000000E+00 0.  1.
          2   -1    0    0  502    0 -0.00000000000E+00 -0.00000000000E+00 -0.27618677210E+03  0.27618677210E+03  0.00000000000E+00 0. -1.
          2    1    1    2  501    0  0.84868338215E+01 -0.21714374065E+02 -0.25766720347E+03  0.25871978690E+03  0.00000000000E+00 0. -1.
          2    1    1    2  502    0 -0.84868338215E+01  0.21714374065E+02 -0.10441284135E+02  0.25545269694E+02  0.00000000000E+00 0.  1.
</event>
<event>
 4    1  0.6089441E+003  0.2503041E+02  0.7546771E-02  0.1468464E+00
          2   -1    0    0  501    0  0.00000000000E+00  0.00000000000E+00  0.85319727078E+02  0.85319727078E+02  0.00000000000E+00 0. -1.
          2   -1    0    0  502    0 -0.00000000000E+00 -0.00000000000E+00 -0.62351141910E+03  0.62351141910E+03  0.00000000000E+00 0.  1.
          2    1    1    2  501    0  0.23654164047E+02  0.81854566412E+01 -0.62141822710E+03  0.62192212869E+03  0.00000000000E+00 0.  1.
          2    1    1    2  502    0 -0.23654164047E+02 -0.81854566412E+01  0.83226535087E+02  0.86909017483E+02  0.00000000000E+00 0. -1.
</event>
<event>
 4    1  0.6089441E+003  0.2095444E+02  0.7546771E-02  0.1519916E+00
          2   -1    0    0  501    0  0.00000000000E+00  0.00000000000E+00  0.10538636695E+03  0.10538636695E+03  0.00000000000E+00 0.  1.
          2   -1    0    0  502    0 -0.00000000000E+00 -0.00000000000E+00 -0.22810302249E+02  0.22810302249E+02  0.00000000000E+00 0. -1.
          2    1    1    2  501    0  0.20075527266E+02  0.60051513619E+01 -0.16661358385E+02  0.26771057154E+02  0.00000000000E+00 0. -1.
          2    1    1    2  502    0 -0.20075527266E+02 -0.60051513619E+01  0.99237423088E+02  0.10142561205E+03  0.00000000000E+00 0.  1.
</event>
<event>
 4    1  0.6089441E+003  0.2284279E+02  0.7546771E-02  0.1494482E+00
          2   -1    0    0  501    0  0.00000000000E+00  0.00000000000E+00  0.24386627680E+02  0.24386627680E+02  0.00000000000E+00 0.  1.
          2   -1    0    0  502    0 -0.00000000000E+00 -0.00000000000E+00 -0.55907086778E+03  0.55907086778E+03  0.00000000000E+00 0. -1.
          2    1    1    2  501    0  0.20702866903E+02 -0.96531955443E+01 -0.55343390686E+03  0.55390512016E+03  0.00000000000E+00 0. -1.
          2    1    1    2  502    0 -0.20702866903E+02  0.96531955443E+01  0.18749666758E+02  0.29552375298E+02  0.00000000000E+00 0.  1.
</event>
<event>
 4    1  0.6089441E+003  0.2160964E+02  0.7546771E-02  0.1510736E+00
          2   -1    0    0  501    0  0.00000000000E+00  0.00000000000E+00  0.10108999298E+04  0.10108999298E+04  0.00000000000E+00 0.  1.
          2   -1    0    0  502    0 -0.00000000000E+00 -0.00000000000E+00 -0.10055851921E+03  0.10055851921E+03  0.00000000000E+00 0.  1.
          2    1    1    2  501    0  0.16615136521E+02 -0.13817153399E+02 -0.99280607523E+02  0.10160519435E+03  0.00000000000E+00 0.  1.
          2    1    1    2  502    0 -0.16615136521E+02  0.13817153399E+02  0.10096220181E+04  0.10098532547E+04  0.00000000000E+00 0.  1.
</event>
<event>
 4    1  0.6089441E+003  0.2037415E+02  0.7546771E-02  0.1528391E+00
          2   -1    0    0  502    0  0.00000000000E+00  0.00000000000E+00  0.24077879532E+01  0.24077879532E+01  0.00000000000E+00 0. -1.
          2   -1    0    0  501    0 -0.00000000000E+00 -0.00000000000E+00 -0.31099613338E+03  0.31099613338E+03  0.00000000000E+00 0.  1.
          2    1    1    2  501    0  0.18644107653E+02  0.82160426495E+01 -0.49684886472E+02  0.53700037716E+02  0.00000000000E+00 0. -1.
          2    1    1    2  502    0 -0.18644107653E+02 -0.82160426495E+01 -0.25890345896E+03  0.25970388362E+03  0.00000000000E+00 0.  1.
</event>
<event>
 4    1  0.6089441E+003  0.2342988E+02  0.7546771E-02  0.1487170E+00
          2   -1    0    0  501    0  0.00000000000E+00  0.00000000000E+00  0.27600396910E+03  0.27600396910E+03  0.00000000000E+00 0. -1.
          2   -1    0    0  502    0 -0.00000000000E+00 -0.00000000000E+00 -0.60637222444E+02  0.60637222444E+02  0.00000000000E+00 0. -1.
          2    1    1    2  501    0  0.22147743785E+02  0.76443829169E+01 -0.57853675234E+02  0.62418001274E+02  0.00000000000E+00 0. -1.
          2    1    1    2  502    0 -0.22147743785E+02 -0.76443829169E+01  0.27322042189E+03  0.27422319027E+03  0.00000000000E+00 0. -1.
</event>
<event>
 4    1  0.6089441E+003  0.2982150E+02  0.7546771E-02  0.1421154E+00
          2   -1    0    0  501    0  0.00000000000E+00  0.00000000000E+00  0.12179984852E+04  0.12179984852E+04  0.00000000000E+00 0. -1.
          2   -1    0    0  502    0 -0.00000000000E+00 -0.00000000000E+00 -0.16285331456E+02  0.16285331456E+02  0.00000000000E+00 0.  1.
          2    1    1    2  501    0  0.27198363275E+02  0.12229906414E+02 -0.22919605487E+01  0.29909440965E+02  0.00000000000E+00 0.  1.
          2    1    1    2  502    0 -0.27198363275E+02 -0.12229906414E+02  0.12040051143E+04  0.12043743757E+04  0.00000000000E+00 0. -1.
</event>
<event>
 4    1  0.6089441E+003  0.2900344E+02  0.7546771E-02  0.1428459E+00
          2   -1    0    0  501    0  0.00000000000E+00  0.00000000000E+00  0.69571125376E+01  0.69571125376E+01  0.00000000000E+00 0.  1.
          2   -1    0    0  502    0 -0.00000000000E+00 -0.00000000000E+00 -0.90749658279E+03  0.90749658279E+03  0.00000000000E+00 0.  1.
          2    1    1    2  501    0  0.48790577529E+01 -0.28590106573E+02 -0.87594841530E+03  0.87642844869E+03  0.00000000000E+00 0.  1.
          2    1    1    2  502    0 -0.48790577529E+01  0.28590106573E+02 -0.24591054948E+02  0.38025246638E+02  0.00000000000E+00 0.  1.
</event>
<event>
 4    1  0.6089441E+003  0.6036746E+02  0.7546771E-02  0.1258589E+00
          2   -1    0    0  501    0  0.00000000000E+00  0.00000000000E+00  0.15846039960E+02  0.15846039960E+02  0.00000000000E+00 0.  1.
          2   -1    0    0  502    0 -0.00000000000E+00 -0.00000000000E+00 -0.12313036672E+04  0.12313036672E+04  0.00000000000E+00 0.  1.
          2    1    1    2  501    0  0.43785195572E+02  0.41558229042E+02 -0.11700621489E+04  0.11716183944E+04  0.00000000000E+00 0.  1.
          2    1    1    2  502    0 -0.43785195572E+02 -0.41558229042E+02 -0.45395478260E+02  0.75531312704E+02  0.00000000000E+00 0.  1.
</event>
<event>
 4    1  0.6089441E+003  0.3085254E+02  0.7546771E-02  0.1412329E+00
          2   -1    0    0  502    0  0.00000000000E+00  0.00000000000E+00  0.95335589092E+02  0.95335589092E+02  0.00000000000E+00 0.  1.
          2   -1    0    0  501    0 -0.00000000000E+00 -0.00000000000E+00 -0.65985874954E+03  0.65985874954E+03  0.00000000000E+00 0.  1.
          2    1    1    2  501    0  0.14724753570E+02  0.27112010531E+02  0.92467933929E+02  0.97479219774E+02  0.00000000000E+00 0.  1.
          2    1    1    2  502    0 -0.14724753570E+02 -0.27112010531E+02 -0.65699109437E+03  0.65771511885E+03  0.00000000000E+00 0.  1.
</event>
<event>
 4    1  0.6089441E+003  0.2113883E+02  0.7546771E-02  0.1517292E+00
          2   -1    0    0  502    0  0.00000000000E+00  0.00000000000E+00  0.76534553973E+03  0.76534553973E+03  0.00000000000E+00 0. -1.
          2   -1    0    0  501    0 -0.00000000000E+00 -0.00000000000E+00 -0.14399408240E+03  0.14399408240E+03  0.00000000000E+00 0.  1.
          2    1    1    2  501    0  0.28218246441E+01  0.20949638547E+02  0.76442282673E+03  0.76471505025E+03  0.00000000000E+00 0. -1.
          2    1    1    2  502    0 -0.28218246441E+01 -0.20949638547E+02 -0.14307136940E+03  0.14462457188E+03  0.00000000000E+00 0.  1.
</event>
<event>
 4    1  0.6089441E+003  0.4998266E+02  0.7546771E-02  0.1298248E+00
          2   -1    0    0  502    0  0.00000000000E+00  0.00000000000E+00  0.18981262799E+04  0.18981262799E+04  0.00000000000E+00 0.  1.
          2   -1    0    0  501    0 -0.00000000000E+00 -0.00000000000E+00 -0.39313752835E+02  0.39313752835E+02  0.00000000000E+00 0. -1.
          2    1    1    2  501    0  0.37775342236E+02 -0.32730562726E+02  0.18817724755E+04  0.18824361651E+04  0.00000000000E+00 0.  1.
          2    1    1    2  502    0 -0.37775342236E+02  0.32730562726E+02 -0.22959948452E+02  0.55003867594E+02  0.00000000000E+00 0. -1.
</event>
<event>
 4    1  0.6089441E+003  0.2073954E+02  0.7546771E-02  0.1523016E+00
          2   -1    0    0  501    0  0.00000000000E+00  0.00000000000E+00  0.64311130002E+01  0.64311130002E+01  0.00000000000E+00 0. -1.
          2   -1    0    0  502    0 -0.00000000000E+00 -0.00000000000E+00 -0.34797154490E+03  0.34797154490E+03  0.00000000000E+00 0. -1.
          2    1    1    2  501    0  0.10008517990E+02  0.18164744124E+02 -0.33003403858E+03  0.33068503895E+03  0.00000000000E+00 0. -1.
          2    1    1    2  502    0 -0.10008517990E+02 -0.18164744124E+02 -0.11506393313E+02  0.23717618947E+02  0.00000000000E+00 0. -1.
</event>
<event>
 4    1  0.6089441E+003  0.2375115E+02  0.7546771E-02  0.1483275E+00
          2   -1    0    0  501    0  0.00000000000E+00  0.00000000000E+00  0.29218027361E+02  0.29218027361E+02  0.00000000000E+00 0.  1.
          2   -1    0    0  502    0 -0.00000000000E+00 -0.00000000000E+00 -0.19607435440E+03  0.19607435440E+03  0.00000000000E+00 0. -1.
          2    1    1    2  501    0  0.54707828400E+01  0.23112497724E+02 -0.19038460694E+03  0.19186040648E+03  0.00000000000E+00 0. -1.
          2    1    1    2  502    0 -0.54707828400E+01 -0.23112497724E+02  0.23528279900E+02  0.33431975278E+02  0.00000000000E+00 0.  1.
</event>
<event>
 4    1  0.6089441E+003  0.3056724E+02  0.7546771E-02  0.1414730E+00
          2   -1    0    0  502    0  0.00000000000E+00  0.00000000000E+00  0.16366715072E+01  0.16366715072E+01  0.00000000000E+00 0. -1.
          2   -1    0    0  501    0 -0.00000000000E+00 -0.00000000000E+00 -0.12619492973E+04  0.12619492973E+04  0.00000000000E+00 0.  1.
          2    1    1    2  501    0 -0.30268223445E+02  0.42650695979E+01 -0.16262347162E+03  0.16547129567E+03  0.00000000000E+00 0. -1.
          2    1    1    2  502    0  0.30268223445E+02 -0.42650695979E+01 -0.10976891542E+04  0.10981146731E+04  0.00000000000E+00 0.  1.
</event>
<event>
 4    1  0.6089441E+003  0.2270298E+02  0.7546771E-02  0.1496262E+00
          2   -1    0    0  502    0  0.00000000000E+00  0.00000000000E+00  0.42393890736E+01  0.42393890736E+01  0.00000000000E+00 0.  1.
          2   -1    0    0  501    0 -0.00000000000E+00 -0.00000000000E+00 -0.56128592723E+03  0.56128592723E+03  0.00000000000E+00 0. -1.
          2    1    1    2  501    0 -0.14273987822E+02  0.17654424338E+02 -0.28251951391E+02  0.36243595081E+02  0.00000000000E+00 0.  1.
          2    1    1    2  502    0  0.14273987822E+02 -0.17654424338E+02 -0.52879458676E+03  0.52928172122E+03  0.00000000000E+00 0. -1.
</event>
<event>
 4    1  0.6089441E+003  0.2129020E+02  0.7546771E-02  0.1515162E+00
          2   -1    0    0  502    0  0.00000000000E+00  0.00000000000E+00  0.85409151952E+03  0.85409151952E+03  0.00000000000E+00 0.  1.
          2   -1    0    0  501    0 -0.00000000000E+00 -0.00000000000E+00 -0.20079836902E+01  0.20079836902E+01  0.00000000000E+00 0. -1.
          2    1    1    2  501    0 -0.86123555632E+01 -0.19470485112E+02  0.79319306127E+03  0.79347873627E+03  0.00000000000E+00 0.  1.
          2    1    1    2  502    0  0.86123555632E+01  0.19470485112E+02  0.58890474556E+02  0.62620766941E+02  0.00000000000E+00 0. -1.
</event>
<event>
 4    1  0.6089441E+003  0.2290417E+02  0.7546771E-02  0.1493705E+00
          2   -1    0    0  501    0  0.00000000000E+00  0.00000000000E+00  0.78222300992E+01  0.78222300992E+01  0.00000000000E+00 0. -1.
          2   -1    0    0  502    0 -0.00000000000E+00 -0.00000000000E+00 -0.12058217701E+03  0.12058217701E+03  0.00000000000E+00 0. -1.
          2    1    1    2  501    0 -0.12484510081E+02 -0.19202553411E+02 -0.99151358961E+02  0.10176243429E+03  0.00000000000E+00 0. -1.
          2    1    1    2  502    0  0.12484510081E+02  0.19202553411E+02 -0.13608587947E+02  0.26641972813E+02  0.00000000000E+00 0. -1.
</event>
<event>
 4    1  0.6089441E+003  0.3552958E+02  0.7546771E-02  0.1376878E+00
          2   -1    0    0  501    0  0.00000000000E+00  0.00000000000E+00  0.45224686185E+02  0.45224686185E+02  0.00000000000E+00 0. -1.
          2   -1    0    0  502    0 -0.00000000000E+00 -0.00000000000E+00 -0.22280088473E+03  0.22280088473E+03  0.00000000000E+00 0. -1.
          2    1    1    2  501    0 -0.13961501998E+02 -0.32671505418E+02 -0.21412540186E+03  0.21705307767E+03  0.00000000000E+00 0. -1.
          2    1    1    2  502    0  0.13961501998E+02  0.32671505418E+02  0.36549203317E+02  0.50972493243E+02  0.00000000000E+00 0. -1.
</event>
<event>
 4    1  0.6089441E+003  0.2019725E+02  0.7546771E-02  0.1531042E+00
          2   -1    0    0  501    0  0.00000000000E+00  0.00000000000E+00  0.32469683436E+00  0.32469683436E+00  0.00000000000E+00 0. -1.
          2   -1    0    0  502    0 -0.00000000000E+00 -0.00000000000E+00 -0.18935084046E+04  0.18935084046E+04  0.00000000000E+00 0.  1.
          2    1    1    2  501    0 -0.18576903067E+02 -0.79263827684E+01 -0.14958872913E+04  0.14960236352E+04  0.00000000000E+00 0.  1.
          2    1    1    2  502    0  0.18576903067E+02  0.79263827684E+01 -0.39729641648E+03  0.39780946622E+03  0.00000000000E+00 0. -1.
</event>
<event>
 4    1  0.6089441E+003  0.2672889E+02  0.7546771E-02  0.1450351E+00
          2   -1    0    0  502    0  0.00000000000E+00  0.00000000000E+00  0.12848996092E+03  0.12848996092E+03  0.00000000000E+00 0. -1.
          2   -1    0    0  501    0 -0.00000000000E+00 -0.00000000000E+00 -0.26579867932E+03  0.26579867932E+03  0.00000000000E+00 0.  1.
          2    1    1    2  501    0 -0.62995683647E+01 -0.25975931794E+02  0.12641703683E+03  0.12921184464E+03  0.00000000000E+00 0. -1.
          2    1    1    2  502    0  0.62995683647E+01  0.25975931794E+02 -0.26372575523E+03  0.26507679560E+03  0.00000000000E+00 0.  1.
</event>
<event>
 4    1  0.6089441E+003  0.2692410E+02  0.7546771E-02  0.1448372E+00
          2   -1    0    0  502    0  0.00000000000E+00  0.00000000000E+00  0.83683543396E+03  0.83683543396E+03  0.00000000000E+00 0.  1.
          2   -1    0    0  501    0 -0.00000000000E+00 -0.00000000000E+00 -0.11064021724E+01  0.11064021724E+01  0.00000000000E+00 0.  1.
          2    1    1    2  501    0  0.16022961445E+02  0.21637274500E+02  0.61306123910E+03  0.61365217332E+03  0.00000000000E+00 0.  1.
          2    1    1    2  502    0 -0.16022961445E+02 -0.21637274500E+02  0.22266779269E+03  0.22428966281E+03  0.00000000000E+00 0.  1.
</event>
<event>
 4    1  0.6089441E+003  0.3889695E+02  0.7546771E-02  0.1355074E+00
          2   -1    0    0  502    0  0.00000000000E+00  0.00000000000E+00  0.15408736708E+03  0.15408736708E+03  0.00000000000E+00 0. -1.
          2   -1    0    0  501    0 -0.00000000000E+00 -0.00000000000E+00 -0.10234889502E+02  0.10234889502E+02  0.00000000000E+00 0. -1.
          2    1    1    2  501    0  0.20762832520E+02 -0.32891900650E+02  0.88489765357E+02  0.96661320680E+02  0.00000000000E+00 0. -1.
          2    1    1    2  502    0 -0.20762832520E+02  0.32891900650E+02  0.55362712222E+02  0.67660935902E+02  0.00000000000E+00 0. -1.
</event>
<event>
 4    1  0.6089441E+003  0.2481269E+02  0.7546771E-02  0.1470910E+00
          2   -1    0    0  501    0  0.00000000000E+00  0.00000000000E+00  0.53151088367E+02  0.53151088367E+02  0.00000000000E+00 0. -1.
          2   -1    0    0  502    0 -0.00000000000E+00 -0.00000000000E+00 -0.13360642603E+03  0.13360642603E+03  0.00000000000E+00 0. -1.
          2    1    1    2  501    0 -0.24770345223E+02 -0.14490386456E+01 -0.12946679965E+03  0.13182307055E+03  0.00000000000E+00 0. -1.
          2    1    1    2  502    0  0.24770345223E+02  0.14490386456E+01  0.49011461987E+02  0.54934443854E+02  0.00000000000E+00 0. -1.
</event>
<event>
 4    1  0.6089441E+003  0.2090053E+02  0.7546771E-02  0.1520690E+00
          2   -1    0    0  501    0  0.00000000000E+00  0.00000000000E+00  0.76038646895E+02  0.76038646895E+02  0.00000000000E+00 0.  1.
          2   -1    0    0  502    0 -0.00000000000E+00 -0.00000000000E+00 -0.73890444958E+01  0.73890444958E+01  0.00000000000E+00 0. -1.
          2    1    1    2  501    0  0.94783944996E+01 -0.18627722027E+02  0.14647736865E+02  0.25522307605E+02  0.00000000000E+00 0. -1.
          2    1    1    2  502    0 -0.94783944996E+01  0.18627722027E+02  0.54001865534E+02  0.57905383786E+02  0.00000000000E+00 0.  1.
</event>
<event>
 4    1  0.6089441E+003  0.2375539E+02  0.7546771E-02  0.1483224E+00
          2   -1    0    0  502    0  0.00000000000E+00  0.00000000000E+00  0.16392248457E+04  0.16392248457E+04  0.00000000000E+00 0.  1.
          2   -1    0    0  501    0 -0.00000000000E+00 -0.00000000000E+00 -0.12129312959E+03  0.12129312959E+03  0.00000000000E+00 0.  1.
          2    1    1    2  501    0  0.12212070052E+02  0.20376057358E+02  0.16379747639E+04  0.16381470159E+04  0.00000000000E+00 0.  1.
          2    1    1    2  502    0 -0.12212070052E+02 -0.20376057358E+02 -0.12004304784E+03  0.12237095939E+03  0.00000000000E+00 0.  1.
</event>
<event>
 4    1  0.6089441E+003  0.2156164E+02  0.7546771E-02  0.1511395E+00
          2   -1    0    0  501    0  0.00000000000E+00  0.00000000000E+00  0.10217448465E+01  0.10217448465E+01  0.00000000000E+00 0. -1.
          2   -1    0    0  502    0 -0.00000000000E+00 -0.00000000000E+00 -0.51593211493E+03  0.51593211493E+03  0.00000000000E+00 0. -1.
          2    1    1    2  501    0  0.18546298850E+02  0.10997229719E+02 -0.34627553979E+03  0.34694618275E+03  0.00000000000E+00 0. -1.
          2    1    1    2  502    0 -0.18546298850E+02 -0.10997229719E+02 -0.16863483029E+03  0.17000767704E+03  0.00000000000E+00 0. -1.
</event>
<event>
 4    1  0.6089441E+003  0.2547278E+02  0.7546771E-02  0.1463583E+00
          2   -1    0    0  501    0  0.00000000000E+00  0.00000000000E+00  0.13604304879E+04  0.13604304879E+04  0.00000000000E+00 0.  1.
          2   -1    0    0  502    0 -0.00000000000E+00 -0.00000000000E+00 -0.51122615664E+00  0.51122615664E+00  0.00000000000E+00 0.  1.
          2    1    1    2  501    0 -0.92272408155E+01 -0.23742797999E+02  0.50377206116E+03  0.50441565403E+03  0.00000000000E+00 0.  1.
          2    1    1    2  502    0  0.92272408155E+01  0.23742797999E+02  0.85614720061E+03  0.85652606005E+03  0.00000000000E+00 0.  1.
</event>
<event>
 4    1  0.6089441E+003  0.2139817E+02  0.7546771E-02  0.1513655E+00
          2   -1    0    0  501    0  0.00000000000E+00  0.00000000000E+00  0.86582156510E+03  0.86582156510E+03  0.00000000000E+00 0. -1.
          2   -1    0    0  502    0 -0.00000000000E+00 -0.00000000000E+00 -0.16487121731E+02  0.16487121731E+02  0.00000000000E+00 0.  1.
          2    1    1    2  501    0  0.96430539742E+01 -0.19102178576E+02 -0.93542258930E+01  0.23353442109E+02  0.00000000000E+00 0.  1.
          2    1    1    2  502    0 -0.96430539742E+01  0.19102178576E+02  0.85868866927E+03  0.85895524473E+03  0.00000000000E+00 0. -1.
</event>
<event>
 4    1  0.6089441E+003  0.2178488E+02  0.7546771E-02  0.1508347E+00
          2   -1    0    0  502    0  0.00000000000E+00  0.00000000000E+00  0.19700499973E+02  0.19700499973E+02  0.00000000000E+00 0.  1.
          2   -1    0    0  501    0 -0.00000000000E+00 -0.00000000000E+00 -0.91490921357E+02  0.91490921357E+02  0.00000000000E+00 0. -1.
          2    1    1    2  501    0  0.21403289337E+02 -0.40595581113E+01  0.11823191708E+02  0.24786461398E+02  0.00000000000E+00 0.  1.
          2    1    1    2  502    0 -0.21403289337E+02  0.40595581113E+01 -0.83613613092E+02  0.86404959931E+02  0.00000000000E+00 0. -1.
</event>
<event>
 4    1  0.6089441E+003  0.2002021E+02  0.7546771E-02  0.1533727E+00
          2   -1    0    0  502    0  0.00000000000E+00  0.00000000000E+00  0.10734695796E+02  0.10734695796E+02  0.00000000000E+00 0.  1.
          2   -1    0    0  501    0 -0.00000000000E+00 -0.00000000000E+00 -0.51399660355E+02  0.51399660355E+02  0.00000000000E+00 0. -1.
          2    1    1    2  501    0 -0.72487480584E+01 -0.18661842435E+02 -0.40828020981E+01  0.20432278004E+02  0.00000000000E+00 0.  1.
          2    1    1    2  502    0  0.72487480584E+01  0.18661842435E+02 -0.36582162461E+02  0.41702078147E+02  0.00000000000E+00 0. -1.
</event>
<event>
 4    1  0.6089441E+003  0.5261823E+02  0.7546771E-02  0.1287203E+00
          2   -1    0    0  502    0  0.00000000000E+00  0.00000000000E+00  0.22952944410E+04  0.22952944410E+04  0.00000000000E+00 0.  1.
          2   -1    0    0  501    0 -0.00000000000E+00 -0.00000000000E+00 -0.19195573954E+02  0.19195573954E+02  0.00000000000E+00 0.  1.
          2    1    1    2  501    0 -0.47874453507E+02 -0.21833788545E+02  0.22583441767E+04  0.22589570820E+04  0.00000000000E+00 0.  1.
          2    1    1    2  502    0  0.47874453507E+02  0.21833788545E+02  0.17754690360E+02  0.55532933027E+02  0.00000000000E+00 0.  1.
</event>
<event>
 4    1  0.6089441E+003  0.3608008E+02  0.7546771E-02  0.1373125E+00
          2   -1    0    0  501    0  0.00000000000E+00  0.00000000000E+00  0.43676415969E+01  0.43676415969E+01  0.00000000000E+00 0. -1.
          2   -1    0    0  502    0 -0.00000000000E+00 -0.00000000000E+00 -0.11619162290E+04  0.11619162290E+04  0.00000000000E+00 0. -1.
          2    1    1    2  501    0  0.24451051642E+02 -0.26531462017E+02 -0.10815916913E+04  0.10821933095E+04  0.00000000000E+00 0. -1.
          2    1    1    2  502    0 -0.24451051642E+02  0.26531462017E+02 -0.75956896135E+02  0.84090561145E+02  0.00000000000E+00 0. -1.
</event>
<event>
 4    1  0.6089441E+003  0.3401696E+02  0.7546771E-02  0.1387609E+00
          2   -1    0    0  501    0  0.00000000000E+00  0.00000000000E+00  0.35272037667E+03  0.35272037667E+03  0.00000000000E+00 0.  1.
          2   -1    0    0  502    0 -0.00000000000E+00 -0.00000000000E+00 -0.86889703307E+01  0.86889703307E+01  0.00000000000E+00 0. -1.
          2    1    1    2  501    0  0.20418440501E+02  0.27207364666E+02  0.29449598745E+02  0.44993691456E+02  0.00000000000E+00 0. -1.
          2    1    1    2  502    0 -0.20418440501E+02 -0.27207364666E+02  0.31458180759E+03  0.31641565554E+03  0.00000000000E+00 0.  1.
</event>
<event>
 4    1  0.6089441E+003  0.2110572E+02  0.7546771E-02  0.1517761E+00
          2   -1    0    0  501    0  0.00000000000E+00  0.00000000000E+00  0.10521182790E+04  0.10521182790E+04  0.00000000000E+00 0.  1.
          2   -1    0    0  502    0 -0.00000000000E+00 -0.00000000000E+00 -0.47196773046E+00  0.47196773046E+00  0.00000000000E+00 0.  1.
          2    1    1    2  501    0 -0.87833175541E+01 -0.19191271301E+02  0.35696883337E+03  0.35759222525E+03  0.00000000000E+00 0.  1.
          2    1    1    2  502    0  0.87833175541E+01  0.19191271301E+02  0.69467747788E+03  0.69499802146E+03  0.00000000000E+00 0.  1.
</event>
<event>
 4    1  0.6089441E+003  0.2076097E+02  0.7546771E-02  0.1522705E+00
          2   -1    0    0  501    0  0.00000000000E+00  0.00000000000E+00  0.78031193649E+01  0.78031193649E+01  0.00000000000E+00 0.  1.
          2   -1    0    0  502    0 -0.00000000000E+00 -0.00000000000E+00 -0.71463989881E+03  0.71463989881E+03  0.00000000000E+00 0.  1.
          2    1    1    2  501    0  0.20195077806E+02  0.48142283425E+01 -0.70039925292E+03  0.70070687984E+03  0.00000000000E+00 0.  1.
          2    1    1    2  502    0 -0.20195077806E+02 -0.48142283425E+01 -0.64375265286E+01  0.21736138340E+02  0.00000000000E+00 0.  1.
</event>
<event>
 4    1  0.6089441E+003  0.2020489E+02  0.7546771E-02  0.1530926E+00
          2   -1    0    0  501    0  0.00000000000E+00  0.00000000000E+00  0.42486081343E+02  0.42486081343E+02  0.00000000000E+00 0. -1.
          2   -1    0    0  502    0 -0.00000000000E+00 -0.00000000000E+00 -0.34211438879E+02  0.34211438879E+02  0.00000000000E+00 0.  1.
          2    1    1    2  501    0 -0.20121667471E+02  0.18320122363E+01 -0.28383164196E+02  0.34840232209E+02  0.00000000000E+00 0.  1.
          2    1    1    2  502    0  0.20121667471E+02 -0.18320122363E+01  0.36657806660E+02  0.41857288013E+02  0.00000000000E+00 0. -1.
</event>
<event>
 4    1  0.6089441E+003  0.2708709E+02  0.7546771E-02  0.1446735E+00
          2   -1    0    0  501    0  0.00000000000E+00  0.00000000000E+00  0.94907943407E+01  0.94907943407E+01  0.00000000000E+00 0.  1.
          2   -1    0    0  502    0 -0.00000000000E+00 -0.00000000000E+00 -0.34293818688E+03  0.34293818688E+03  0.00000000000E+00 0. -1.
          2    1    1    2  501    0 -0.16893246720E+02  0.21173776123E+02 -0.32180974525E+03  0.32294770896E+03  0.00000000000E+00 0. -1.
          2    1    1    2  502    0  0.16893246720E+02 -0.21173776123E+02 -0.11637647289E+02  0.29481272267E+02  0.00000000000E+00 0.  1.
</event>
<event>
 4    1  0.6089441E+003  0.3430606E+02  0.7546771E-02  0.1385508E+00
          2   -1    0    0  501    0  0.00000000000E+00  0.00000000000E+00  0.17157033869E+04  0.17157033869E+04  0.00000000000E+00 0.  1.
          2   -1    0    0  502    0 -0.00000000000E+00 -0.00000000000E+00 -0.51412613012E+02  0.51412613012E+02  0.00000000000E+00 0. -1.
          2    1    1    2  501    0 -0.16642490847E+02  0.29998892598E+02 -0.45498482531E+02  0.56982611131E+02  0.00000000000E+00 0. -1.
          2    1    1    2  502    0  0.16642490847E+02 -0.29998892598E+02  0.17097892565E+04  0.17101333888E+04  0.00000000000E+00 0.  1.
</event>
<event>
 4    1  0.6089441E+003  0.2036142E+02  0.7546771E-02  0.1528581E+00
          2   -1    0    0  501    0  0.00000000000E+00  0.00000000000E+00  0.33171915073E+03  0.33171915073E+03  0.00000000000E+00 0.  1.
          2   -1    0    0  502    0 -0.00000000000E+00 -0.00000000000E+00 -0.28958874359E+01  0.28958874359E+01  0.00000000000E+00 0.  1.
          2    1    1    2  501    0  0.39617553122E+01  0.19972277690E+02  0.38272694448E+02  0.43351891788E+02  0.00000000000E+00 0.  1.
          2    1    1    2  502    0 -0.39617553122E+01 -0.19972277690E+02  0.29055056884E+03  0.29126314638E+03  0.00000000000E+00 0.  1.
</event>
<event>
 4    1  0.6089441E+003  0.3620154E+02  0.7546771E-02  0.1372307E+00
          2   -1    0    0  501    0  0.00000000000E+00  0.00000000000E+00  0.18578299389E+01  0.18578299389E+01  0.00000000000E+00 0. -1.
          2   -1    0    0  502    0 -0.00000000000E+00 -0.00000000000E+00 -0.12433470278E+04  0.12433470278E+04  0.00000000000E+00 0.  1.
          2    1    1    2  501    0  0.32442727358E+02 -0.16063023229E+02 -0.10302655474E+04  0.10309013772E+04  0.00000000000E+00 0.  1.
          2    1    1    2  502    0 -0.32442727358E+02  0.16063023229E+02 -0.21122365048E+03  0.21430348059E+03  0.00000000000E+00 0. -1.
</event>
<event>
 4    1  0.6089441E+003  0.3156806E+02  0.7546771E-02  0.1406442E+00
          2   -1    0    0  501    0  0.00000000000E+00  0.00000000000E+00  0.33718007224E+01  0.33718007224E+01  0.00000000000E+00 0. -1.
          2   -1    0    0  502    0 -0.00000000000E+00 -0.00000000000E+00 -0.33938267759E+03  0.33938267759E+03  0.00000000000E+00 0. -1.
          2    1    1    2  501    0 -0.19463062696E+02 -0.24854202992E+02 -0.22959367061E+03  0.23175373956E+03  0.00000000000E+00 0. -1.
          2    1    1    2  502    0  0.19463062696E+02  0.24854202992E+02 -0.10641720626E+03  0.11100073875E+03  0.00000000000E+00 0. -1.
</event>
<event>
 4    1  0.6089441E+003  0.2693957E+02  0.7546771E-02  0.1448216E+00
          2   -1    0    0  502    0  0.00000000000E+00  0.00000000000E+00  0.85414906611E+02  0.85414906611E+02  0.00000000000E+00 0. -1.
          2   -1    0    0  501    0 -0.00000000000E+00 -0.00000000000E+00 -0.13626958930E+02  0.13626958930E+02  0.00000000000E+00 0.  1.
          2    1    1    2  501    0 -0.91744116350E+01 -0.25329244260E+02  0.66279108300E+02  0.71544815610E+02  0.00000000000E+00 0. -1.
          2    1    1    2  502    0  0.91744116350E+01  0.25329244260E+02  0.55088393812E+01  0.27497049932E+02  0.00000000000E+00 0.  1.
</event>
<event>
 4    1  0.6089441E+003  0.2031969E+02  0.7546771E-02  0.1529203E+00
          2   -1    0    0  501    0  0.00000000000E+00  0.00000000000E+00  0.12793633215E+02  0.12793633215E+02  0.00000000000E+00 0.  1.
          2   -1    0    0  502    0 -0.00000000000E+00 -0.00000000000E+00 -0.40675036644E+02  0.40675036644E+02  0.00000000000E+00 0.  1.
          2    1    1    2  501    0  0.12723502344E+02 -0.15843055298E+02 -0.26091245013E+02  0.33070273349E+02  0.00000000000E+00 0.  1.
          2    1    1    2  502    0 -0.12723502344E+02  0.15843055298E+02 -0.17901584165E+01  0.20398396511E+02  0.00000000000E+00 0.  1.
</event>
<event>
 4    1  0.6089441E+003  0.2057640E+02  0.7546771E-02  0.1525400E+00
          2   -1    0    0  501    0  0.00000000000E+00  0.00000000000E+00  0.20150580695E+01  0.20150580695E+01  0.00000000000E+00 0. -1.
          2   -1    0    0  502    0 -0.00000000000E+00 -0.00000000000E+00 -0.15616448920E+04  0.15616448920E+04  0.00000000000E+00 0. -1.
          2    1    1    2  501    0 -0.19550882481E+02  0.64149259351E+01 -0.15071498596E+04  0.15072903130E+04  0.00000000000E+00 0. -1.
          2    1    1    2  502    0  0.19550882481E+02 -0.64149259351E+01 -0.52479974270E+02  0.56369637039E+02  0.00000000000E+00 0. -1.
</event>
<event>
 4    1  0.6089441E+003  0.5571816E+02  0.7546771E-02  0.1275118E+00
          2   -1    0    0  502    0  0.00000000000E+00  0.00000000000E+00  0.53305386019E+01  0.53305386019E+01  0.00000000000E+00 0.  1.
          2   -1    0    0  501    0 -0.00000000000E+00 -0.00000000000E+00 -0.88319966359E+03  0.88319966359E+03  0.00000000000E+00 0. -1.
          2    1    1    2  501    0  0.41930016620E+02  0.36693142702E+02 -0.17966565874E+03  0.18810704917E+03  0.00000000000E+00 0.  1.
          2    1    1    2  502    0 -0.41930016620E+02 -0.36693142702E+02 -0.69820346625E+03  0.70042315303E+03  0.00000000000E+00 0. -1.
</event>
<event>
 4    1  0.6089441E+003  0.2630701E+02  0.7546771E-02  0.1454696E+00
          2   -1    0    0  501    0  0.00000000000E+00  0.00000000000E+00  0.12680314271E+04  0.12680314271E+04  0.00000000000E+00 0.  1.
          2   -1    0    0  502    0 -0.00000000000E+00 -0.00000000000E+00 -0.97464050366E+00  0.97464050366E+00  0.00000000000E+00 0.  1.
          2    1    1    2  501    0 -0.69037790802E+01 -0.25384968475E+02  0.21263466293E+03  0.21425582529E+03  0.00000000000E+00 0.  1.
          2    1    1    2  502    0  0.69037790802E+01  0.25384968475E+02  0.10544221236E+04  0.10547502423E+04  0.00000000000E+00 0.  1.
</event>
<event>
 4    1  0.6089441E+003  0.3471848E+02  0.7546771E-02  0.1382553E+00
          2   -1    0    0  501    0  0.00000000000E+00  0.00000000000E+00  0.50614537426E+01  0.50614537426E+01  0.00000000000E+00 0. -1.
          2   -1    0    0  502    0 -0.00000000000E+00 -0.00000000000E+00 -0.10423732065E+04  0.10423732065E+04  0.00000000000E+00 0.  1.
          2    1    1    2  501    0 -0.34713347121E+02 -0.59707519458E+00 -0.97867329735E+03  0.97928892362E+03  0.00000000000E+00 0.  1.
          2    1    1    2  502    0  0.34713347121E+02  0.59707519458E+00 -0.58638455356E+02  0.68145736577E+02  0.00000000000E+00 0. -1.
</event>
<event>
 4    1  0.6089441E+003  0.2108570E+02  0.7546771E-02  0.1518045E+00
          2   -1    0    0  501    0  0.00000000000E+00  0.00000000000E+00  0.98782557718E+02  0.98782557718E+02  0.00000000000E+00 0.  1.
          2   -1    0    0  502    0 -0.00000000000E+00 -0.00000000000E+00 -0.14161278895E+02  0.14161278895E+02  0.00000000000E+00 0.  1.
          2    1    1    2  501    0  0.15722898094E+00 -0.21085117212E+02 -0.43315775774E+01  0.21526018051E+02  0.00000000000E+00 0.  1.
          2    1    1    2  502    0 -0.15722898094E+00  0.21085117212E+02  0.88952856401E+02  0.91417818562E+02  0.00000000000E+00 0.  1.
</event>
<event>
 4    1  0.6089441E+003  0.2026867E+02  0.7546771E-02  0.1529967E+00
          2   -1    0    0  501    0  0.00000000000E+00  0.00000000000E+00  0.56016520123E+03  0.56016520123E+03  0.00000000000E+00 0. -1.
          2   -1    0    0  502    0 -0.00000000000E+00 -0.00000000000E+00 -0.56183868504E+03  0.56183868504E+03  0.00000000000E+00 0. -1.
          2    1    1    2  501    0  0.17198424287E+02  0.10725355685E+02 -0.56147241704E+03  0.56183813875E+03  0.00000000000E+00 0. -1.
          2    1    1    2  502    0 -0.17198424287E+02 -0.10725355685E+02  0.55979893323E+03  0.56016574752E+03  0.00000000000E+00 0. -1.
</event>
<event>
 4    1  0.6089441E+003  0.2072704E+02  0.7546771E-02  0.1523198E+00
          2   -1    0    0  501    0  0.00000000000E+00  0.00000000000E+00  0.24068028875E+02  0.24068028875E+02  0.00000000000E+00 0.  1.
          2   -1    0    0  502    0 -0.00000000000E+00 -0.00000000000E+00 -0.37487314201E+03  0.37487314201E+03  0.00000000000E+00 0. -1.
          2    1    1    2  501    0  0.16029838623E+02 -0.13139809010E+02 -0.37006626128E+03  0.37064625729E+03  0.00000000000E+00 0. -1.
          2    1    1    2  502    0 -0.16029838623E+02  0.13139809010E+02  0.19261148147E+02  0.28294913590E+02  0.00000000000E+00 0.  1.
</event>
<event>
 4    1  0.6089441E+003  0.2324238E+02  0.7546771E-02  0.1489477E+00
          2   -1    0    0  501    0  0.00000000000E+00  0.00000000000E+00  0.47755646615E+02  0.47755646615E+02  0.00000000000E+00 0.  1.
          2   -1    0    0  502    0 -0.00000000000E+00 -0.00000000000E+00 -0.14444676899E+02  0.14444676899E+02  0.00000000000E+00 0.  1.
          2    1    1    2  501    0  0.50596004050E+00  0.23236870244E+02  0.31138932809E+02  0.38856676013E+02  0.00000000000E+00 0.  1.
          2    1    1    2  502    0 -0.50596004050E+00 -0.23236870244E+02  0.21720369071E+01  0.23343647501E+02  0.00000000000E+00 0.  1.
</event>
<event>
 4    1  0.6089441E+003  0.3670590E+02  0.7546771E-02  0.1368951E+00
          2   -1    0    0  502    0  0.00000000000E+00  0.00000000000E+00  0.35443698863E+02  0.35443698863E+02  0.00000000000E+00 0. -1.
          2   -1    0    0  501    0 -0.00000000000E+00 -0.00000000000E+00 -0.10790733844E+03  0.10790733844E+03  0.00000000000E+00 0.  1.
          2    1    1    2  501    0 -0.30139473055E+02 -0.20950789488E+02  0.21453614934E+02  0.42515656057E+02  0.00000000000E+00 0. -1.
          2    1    1    2  502    0  0.30139473055E+02  0.20950789488E+02 -0.93917254514E+02  0.10083538125E+03  0.00000000000E+00 0.  1.
</event>
<event>
 4    1  0.6089441E+003  0.2801134E+02  0.7546771E-02  0.1437705E+00
          2   -1    0    0  502    0  0.00000000000E+00  0.00000000000E+00  0.35702027786E+01  0.35702027786E+01  0.00000000000E+00 0. -1.
          2   -1    0    0  501    0 -0.00000000000E+00 -0.00000000000E+00 -0.88729587929E+03  0.88729587929E+03  0.00000000000E+00 0.  1.
          2    1    1    2  501    0  0.22241397948E+02  0.17028073219E+02 -0.55512591809E+02  0.62179441213E+02  0.00000000000E+00 0. -1.
          2    1    1    2  502    0 -0.22241397948E+02 -0.17028073219E+02 -0.82821308470E+03  0.82868664085E+03  0.00000000000E+00 0.  1.
</event>
<event>
 4    1  0.6089441E+003  0.2171332E+02  0.7546771E-02  0.1509319E+00
          2   -1    0    0  502    0  0.00000000000E+00  0.00000000000E+00  0.24626046959E+01  0.24626046959E+01  0.00000000000E+00 0. -1.
          2   -1    0    0  501    0 -0.00000000000E+00 -0.00000000000E+00 -0.27660901724E+03  0.27660901724E+03  0.00000000000E+00 0. -1.
          2    1    1    2  501    0 -0.14306107347E+02 -0.16334125326E+02 -0.59651087807E+02  0.63480080609E+02  0.00000000000E+00 0. -1.
          2    1    1    2  502    0  0.14306107347E+02  0.16334125326E+02 -0.21449532474E+03  0.21559154133E+03  0.00000000000E+00 0. -1.
</event>
<event>
 4    1  0.6089441E+003  0.3348860E+02  0.7546771E-02  0.1391512E+00
          2   -1    0    0  502    0  0.00000000000E+00  0.00000000000E+00  0.45950778243E+02  0.45950778243E+02  0.00000000000E+00 0.  1.
          2   -1    0    0  501    0 -0.00000000000E+00 -0.00000000000E+00 -0.63395689558E+02  0.63395689558E+02  0.00000000000E+00 0. -1.
          2    1    1    2  501    0 -0.14316258502E+02 -0.30274268507E+02  0.34153947380E+02  0.47832820456E+02  0.00000000000E+00 0.  1.
          2    1    1    2  502    0  0.14316258502E+02  0.30274268507E+02 -0.51598858695E+02  0.61513647346E+02  0.00000000000E+00 0. -1.
</event>
<event>
 4    1  0.6089441E+003  0.2750307E+02  0.7546771E-02  0.1442619E+00
          2   -1    0    0  502    0  0.00000000000E+00  0.00000000000E+00  0.25098266248E+02  0.25098266248E+02  0.00000000000E+00 0. -1.
          2   -1    0    0  501    0 -0.00000000000E+00 -0.00000000000E+00 -0.82585654594E+02  0.82585654594E+02  0.00000000000E+00 0. -1.
          2    1    1    2  501    0 -0.59416621927E+01 -0.26853596918E+02  0.14163524189E+02  0.30935811522E+02  0.00000000000E+00 0. -1.
          2    1    1    2  502    0  0.59416621927E+01  0.26853596918E+02 -0.71650912535E+02  0.76748109320E+02  0.00000000000E+00 0. -1.
</event>
<event>
 4    1  0.6089441E+003  0.2140166E+02  0.7546771E-02  0.1513607E+00
          2   -1    0    0  501    0  0.00000000000E+00  0.00000000000E+00  0.16683997282E+01  0.16683997282E+01  0.00000000000E+00 0. -1.
          2   -1    0    0  502    0 -0.00000000000E+00 -0.00000000000E+00 -0.65673167804E+03  0.65673167804E+03  0.00000000000E+00 0. -1.
          2    1    1    2  501    0  0.15644210374E+02  0.14604449148E+02 -0.57866842125E+03  0.57906404914E+03  0.00000000000E+00 0. -1.
          2    1    1    2  502    0 -0.15644210374E+02 -0.14604449148E+02 -0.76394857055E+02  0.79336028623E+02  0.00000000000E+00 0. -1.
</event>
<event>
 4    1  0.6089441E+003  0.3391385E+02  0.7546771E-02  0.1388364E+00
          2   -1    0    0  501    0  0.00000000000E+00  0.00000000000E+00  0.18339102107E+03  0.18339102107E+03  0.00000000000E+00 0. -1.
          2   -1    0    0  502    0 -0.00000000000E+00 -0.00000000000E+00 -0.52263328365E+03  0.52263328365E+03  0.00000000000E+00 0.  1.
          2    1    1    2  501    0  0.15444164557E+02  0.30193162814E+02 -0.52050882870E+03  0.52161249032E+03  0.00000000000E+00 0.  1.
          2    1    1    2  502    0 -0.15444164557E+02 -0.30193162814E+02  0.18126656612E+03  0.18441181440E+03  0.00000000000E+00 0. -1.
</event>
<event>
 4    1  0.6089441E+003  0.2073760E+02  0.7546771E-02  0.1523045E+00
          2   -1    0    0  502    0  0.00000000000E+00  0.00000000000E+00  0.16265224511E+01  0.16265224511E+01  0.00000000000E+00 0.  1.
          2   -1    0    0  501    0 -0.00000000000E+00 -0.00000000000E+00 -0.11112939359E+04  0.11112939359E+04  0.00000000000E+00 0.  1.
          2    1    1    2  501    0  0.89689076538E+01 -0.18697768541E+02 -0.69058989256E+02  0.72105421779E+02  0.00000000000E+00 0.  1.
          2    1    1    2  502    0 -0.89689076538E+01  0.18697768541E+02 -0.10406084242E+04  0.10408150366E+04  0.00000000000E+00 0.  1.
</event>
<event>
 4    1  0.6089441E+003  0.2199403E+02  0.7546771E-02  0.1505532E+00
          2   -1    0    0  502    0  0.00000000000E+00  0.00000000000E+00  0.83777680335E+01  0.83777680335E+01  0.00000000000E+00 0.  1.
          2   -1    0    0  501    0 -0.00000000000E+00 -0.00000000000E+00 -0.30276647653E+03  0.30276647653E+03  0.00000000000E+00 0.  1.
          2    1    1    2  501    0  0.58363125765E+01  0.21205539174E+02 -0.72408265468E+01  0.23155280288E+02  0.00000000000E+00 0.  1.
          2    1    1    2  502    0 -0.58363125765E+01 -0.21205539174E+02 -0.28714788195E+03  0.28798896428E+03  0.00000000000E+00 0.  1.
</event>
<event>
 4    1  0.6089441E+003  0.2459763E+02  0.7546771E-02  0.1473355E+00
          2   -1    0    0  502    0  0.00000000000E+00  0.00000000000E+00  0.24172040204E+02  0.24172040204E+02  0.00000000000E+00 0.  1.
          2   -1    0    0  501    0 -0.00000000000E+00 -0.00000000000E+00 -0.30087856562E+03  0.30087856562E+03  0.00000000000E+00 0.  1.
          2    1    1    2  501    0  0.13669382972E+02  0.20449726244E+02  0.17264857538E+02  0.30051932385E+02  0.00000000000E+00 0.  1.
          2    1    1    2  502    0 -0.13669382972E+02 -0.20449726244E+02 -0.29397138295E+03  0.29499867344E+03  0.00000000000E+00 0.  1.
</event>
<event>
 4    1  0.6089441E+003  0.2199592E+02  0.7546771E-02  0.1505507E+00
          2   -1    0    0  501    0  0.00000000000E+00  0.00000000000E+00  0.33093458773E+03  0.33093458773E+03  0.00000000000E+00 0. -1.
          2   -1    0    0  502    0 -0.00000000000E+00 -0.00000000000E+00 -0.32202955746E+01  0.32202955746E+01  0.00000000000E+00 0.  1.
          2    1    1    2  501    0 -0.21299159106E+02 -0.54923741216E+01  0.40399459338E+02  0.45999311592E+02  0.00000000000E+00 0.  1.
          2    1    1    2  502    0  0.21299159106E+02  0.54923741216E+01  0.28731483282E+03  0.28815557171E+03  0.00000000000E+00 0. -1.
</event>
<event>
 4    1  0.6089441E+003  0.2907018E+02  0.7546771E-02  0.1427852E+00
          2   -1    0    0  501    0  0.00000000000E+00  0.00000000000E+00  0.43695413498E+01  0.43695413498E+01  0.00000000000E+00 0.  1.
          2   -1    0    0  502    0 -0.00000000000E+00 -0.00000000000E+00 -0.10405982569E+04  0.10405982569E+04  0.00000000000E+00 0.  1.
          2    1    1    2  501    0  0.24885564143E+02 -0.15026105540E+02 -0.98955123147E+03  0.98997813858E+03  0.00000000000E+00 0.  1.
          2    1    1    2  502    0 -0.24885564143E+02  0.15026105540E+02 -0.46677484032E+02  0.54989659628E+02  0.00000000000E+00 0.  1.
</event>
<event>
 4    1  0.6089441E+003  0.4185099E+02  0.7546771E-02  0.1337968E+00
          2   -1    0    0  502    0  0.00000000000E+00  0.00000000000E+00  0.34760804023E+02  0.34760804023E+02  0.00000000000E+00 0. -1.
          2   -1    0    0  501    0 -0.00000000000E+00 -0.00000000000E+00 -0.40419280418E+03  0.40419280418E+03  0.00000000000E+00 0.  1.
          2    1    1    2  501    0  0.41848847721E+02 -0.42353307987E+00  0.20625433362E+02  0.46657410314E+02  0.00000000000E+00 0. -1.
          2    1    1    2  502    0 -0.41848847721E+02  0.42353307987E+00 -0.39005743352E+03  0.39229619789E+03  0.00000000000E+00 0.  1.
</event>
<event>
 4    1  0.6089441E+003  0.2209901E+02  0.7546771E-02  0.1504133E+00
          2   -1    0    0  501    0  0.00000000000E+00  0.00000000000E+00  0.12668100542E+01  0.12668100542E+01  0.00000000000E+00 0.  1.
          2   -1    0    0  502    0 -0.00000000000E+00 -0.00000000000E+00 -0.59854665818E+03  0.59854665818E+03  0.00000000000E+00 0. -1.
          2    1    1    2  501    0 -0.11607319454E+02 -0.18805223082E+02 -0.47756273876E+03  0.47807377646E+03  0.00000000000E+00 0. -1.
          2    1    1    2  502    0  0.11607319454E+02  0.18805223082E+02 -0.11971710936E+03  0.12173969178E+03  0.00000000000E+00 0.  1.
</event>
<event>
 4    1  0.6089441E+003  0.2526344E+02  0.7546771E-02  0.1465878E+00
          2   -1    0    0  501    0  0.00000000000E+00  0.00000000000E+00  0.14463138401E+03  0.14463138401E+03  0.00000000000E+00 0.  1.
          2   -1    0    0  502    0 -0.00000000000E+00 -0.00000000000E+00 -0.53658894418E+01  0.53658894418E+01  0.00000000000E+00 0. -1.
          2    1    1    2  501    0 -0.23649801138E+02  0.88841571764E+01  0.38025950846E+02  0.45653195730E+02  0.00000000000E+00 0. -1.
          2    1    1    2  502    0  0.23649801138E+02 -0.88841571764E+01  0.10123954372E+03  0.10434407772E+03  0.00000000000E+00 0.  1.
</event>
<event>
 4    1  0.6089441E+003  0.3045053E+02  0.7546771E-02  0.1415721E+00
          2   -1    0    0  502    0  0.00000000000E+00  0.00000000000E+00  0.72592837031E+03  0.72592837031E+03  0.00000000000E+00 0. -1.
          2   -1    0    0  501    0 -0.00000000000E+00 -0.00000000000E+00 -0.13069538326E+01  0.13069538326E+01  0.00000000000E+00 0. -1.
          2    1    1    2  501    0 -0.10634941424E+02  0.28533007381E+02  0.41707442228E+03  0.41818453846E+03  0.00000000000E+00 0. -1.
          2    1    1    2  502    0  0.10634941424E+02 -0.28533007381E+02  0.30754699420E+03  0.30905078568E+03  0.00000000000E+00 0. -1.
</event>
<event>
 4    1  0.6089441E+003  0.2799063E+02  0.7546771E-02  0.1437903E+00
          2   -1    0    0  502    0  0.00000000000E+00  0.00000000000E+00  0.39922940238E+02  0.39922940238E+02  0.00000000000E+00 0.  1.
          2   -1    0    0  501    0 -0.00000000000E+00 -0.00000000000E+00 -0.84620520630E+02  0.84620520630E+02  0.00000000000E+00 0. -1.
          2    1    1    2  501    0  0.10261179809E+02 -0.26041961407E+02  0.32226470246E+02  0.42685137337E+02  0.00000000000E+00 0.  1.
          2    1    1    2  502    0 -0.10261179809E+02  0.26041961407E+02 -0.76924050638E+02  0.81858323532E+02  0.00000000000E+00 0. -1.
</event>
<event>
 4    1  0.6089441E+003  0.2037824E+02  0.7546771E-02  0.1528330E+00
          2   -1    0    0  501    0  0.00000000000E+00  0.00000000000E+00  0.10100687477E+03  0.10100687477E+03  0.00000000000E+00 0.  1.
          2   -1    0    0  502    0 -0.00000000000E+00 -0.00000000000E+00 -0.66621759309E+02  0.66621759309E+02  0.00000000000E+00 0.  1.
          2    1    1    2  501    0 -0.43681951594E+01 -0.19904557893E+02 -0.63994425514E+02  0.67160695729E+02  0.00000000000E+00 0.  1.
          2    1    1    2  502    0  0.43681951594E+01  0.19904557893E+02  0.98379540979E+02  0.10046793835E+03  0.00000000000E+00 0.  1.
</event>
<event>
 4    1  0.6089441E+003  0.2547065E+02  0.7546771E-02  0.1463607E+00
          2   -1    0    0  501    0  0.00000000000E+00  0.00000000000E+00  0.81029472623E+02  0.81029472623E+02  0.00000000000E+00 0. -1.
          2   -1    0    0  502    0 -0.00000000000E+00 -0.00000000000E+00 -0.10197960018E+03  0.10197960018E+03  0.00000000000E+00 0. -1.
          2    1    1    2  501    0  0.10828555129E+02 -0.23054206480E+02 -0.98314186609E+02  0.10155999868E+03  0.00000000000E+00 0. -1.
          2    1    1    2  502    0 -0.10828555129E+02  0.23054206480E+02  0.77364059053E+02  0.81449074125E+02  0.00000000000E+00 0. -1.
</event>
<event>
 4    1  0.6089441E+003  0.5079651E+02  0.7546771E-02  0.1294756E+00
          2   -1    0    0  502    0  0.00000000000E+00  0.00000000000E+00  0.21083782874E+03  0.21083782874E+03  0.00000000000E+00 0.  1.
          2   -1    0    0  501    0 -0.00000000000E+00 -0.00000000000E+00 -0.22959425586E+02  0.22959425586E+02  0.00000000000E+00 0.  1.
          2    1    1    2  501    0 -0.59157347037E+01  0.50450859142E+02  0.17382143478E+03  0.18109162403E+03  0.00000000000E+00 0.  1.
          2    1    1    2  502    0  0.59157347037E+01 -0.50450859142E+02  0.14056968379E+02  0.52705630299E+02  0.00000000000E+00 0.  1.
</event>
<event>
 4    1  0.6089441E+003  0.2784012E+02  0.7546771E-02  0.1439347E+00
          2   -1    0    0  501    0  0.00000000000E+00  0.00000000000E+00  0.14503134457E+04  0.14503134457E+04  0.00000000000E+00 0.  1.
          2   -1    0    0  502    0 -0.00000000000E+00 -0.00000000000E+00 -0.18555873268E+02  0.18555873268E+02  0.00000000000E+00 0.  1.
          2    1    1    2  501    0 -0.24059789891E+02 -0.14007098503E+02 -0.79025918019E+01  0.28939994044E+02  0.00000000000E+00 0.  1.
          2    1    1    2  502    0  0.24059789891E+02  0.14007098503E+02  0.14396601643E+04  0.14399293250E+04  0.00000000000E+00 0.  1.
</event>
<event>
 4    1  0.6089441E+003  0.2212896E+02  0.7546771E-02  0.1503735E+00
          2   -1    0    0  502    0  0.00000000000E+00  0.00000000000E+00  0.39724941185E+03  0.39724941185E+03  0.00000000000E+00 0.  1.
          2   -1    0    0  501    0 -0.00000000000E+00 -0.00000000000E+00 -0.20134993817E+01  0.20134993817E+01  0.00000000000E+00 0.  1.
          2    1    1    2  501    0  0.16296876533E+02  0.14970053481E+02  0.32193252226E+03  0.32269217465E+03  0.00000000000E+00 0.  1.
          2    1    1    2  502    0 -0.16296876533E+02 -0.14970053481E+02  0.73303390205E+02  0.76570736587E+02  0.00000000000E+00 0.  1.
</event>
<event>
 4    1  0.6089441E+003  0.3118541E+02  0.7546771E-02  0.1409567E+00
          2   -1    0    0  501    0  0.00000000000E+00  0.00000000000E+00  0.23944675804E+02  0.23944675804E+02  0.00000000000E+00 0. -1.
          2   -1    0    0  502    0 -0.00000000000E+00 -0.00000000000E+00 -0.50573189012E+03  0.50573189012E+03  0.00000000000E+00 0. -1.
          2    1    1    2  501    0 -0.15390962332E+02 -0.27122835143E+02 -0.49487466012E+03  0.49585628879E+03  0.00000000000E+00 0. -1.
          2    1    1    2  502    0  0.15390962332E+02  0.27122835143E+02  0.13087445802E+02  0.33820277132E+02  0.00000000000E+00 0. -1.
</event>
<event>
 4    1  0.6089441E+003  0.2275988E+02  0.7546771E-02  0.1495536E+00
          2   -1    0    0  501    0  0.00000000000E+00  0.00000000000E+00  0.17844632553E+03  0.17844632553E+03  0.00000000000E+00 0.  1.
          2   -1    0    0  502    0 -0.00000000000E+00 -0.00000000000E+00 -0.57269274628E+01  0.57269274628E+01  0.00000000000E+00 0. -1.
          2    1    1    2  501    0 -0.68735875327E+00  0.22749495096E+02  0.21694574985E+02  0.31443068759E+02  0.00000000000E+00 0. -1.
          2    1    1    2  502    0  0.68735875327E+00 -0.22749495096E+02  0.15102482308E+03  0.15273018424E+03  0.00000000000E+00 0.  1.
</event>
<event>
 4    1  0.6089441E+003  0.4356786E+02  0.7546771E-02  0.1328758E+00
          2   -1    0    0  501    0  0.00000000000E+00  0.00000000000E+00  0.13861057902E+03  0.13861057902E+03  0.00000000000E+00 0.  1.
          2   -1    0    0  502    0 -0.00000000000E+00 -0.00000000000E+00 -0.35798618773E+03  0.35798618773E+03  0.00000000000E+00 0. -1.
          2    1    1    2  501    0 -0.24363070221E+02 -0.36119240777E+02 -0.35319075321E+03  0.35586776603E+03  0.00000000000E+00 0. -1.
          2    1    1    2  502    0  0.24363070221E+02  0.36119240777E+02  0.13381514450E+03  0.14072900072E+03  0.00000000000E+00 0.  1.
</event>
<event>
 4    1  0.6089441E+003  0.2866264E+02  0.7546771E-02  0.1431585E+00
          2   -1    0    0  501    0  0.00000000000E+00  0.00000000000E+00  0.16033628287E+04  0.16033628287E+04  0.00000000000E+00 0. -1.
          2   -1    0    0  502    0 -0.00000000000E+00 -0.00000000000E+00 -0.88404060845E+00  0.88404060845E+00  0.00000000000E+00 0. -1.
          2    1    1    2  501    0 -0.10588715242E+01  0.28643072888E+02  0.28115645027E+03  0.28261368750E+03  0.00000000000E+00 0. -1.
          2    1    1    2  502    0  0.10588715242E+01 -0.28643072888E+02  0.13213223378E+04  0.13216331818E+04  0.00000000000E+00 0. -1.
</event>
<event>
 4    1  0.6089441E+003  0.2428090E+02  0.7546771E-02  0.1477011E+00
          2   -1    0    0  501    0  0.00000000000E+00  0.00000000000E+00  0.12295529070E+02  0.12295529070E+02  0.00000000000E+00 0. -1.
          2   -1    0    0  502    0 -0.00000000000E+00 -0.00000000000E+00 -0.16230683393E+03  0.16230683393E+03  0.00000000000E+00 0.  1.
          2    1    1    2  501    0 -0.23222283372E+02  0.70913800633E+01 -0.14828542163E+03  0.15026020227E+03  0.00000000000E+00 0.  1.
          2    1    1    2  502    0  0.23222283372E+02 -0.70913800633E+01 -0.17258832244E+01  0.24342160732E+02  0.00000000000E+00 0. -1.
</event>
<event>
 4    1  0.6089441E+003  0.4602715E+02  0.7546771E-02  0.1316382E+00
          2   -1    0    0  501    0  0.00000000000E+00  0.00000000000E+00  0.25426697964E+02  0.25426697964E+02  0.00000000000E+00 0.  1.
          2   -1    0    0  502    0 -0.00000000000E+00 -0.00000000000E+00 -0.19438088296E+03  0.19438088296E+03  0.00000000000E+00 0.  1.
          2    1    1    2  501    0  0.31682625777E+02  0.33387272995E+02 -0.16755213765E+03  0.17375907920E+03  0.00000000000E+00 0.  1.
          2    1    1    2  502    0 -0.31682625777E+02 -0.33387272995E+02 -0.14020473470E+01  0.46048501723E+02  0.00000000000E+00 0.  1.
</event>
<event>
 4    1  0.6089441E+003  0.4599668E+02  0.7546771E-02  0.1316530E+00
          2   -1    0    0  502    0  0.00000000000E+00  0.00000000000E+00  0.25192343096E+03  0.25192343096E+03  0.00000000000E+00 0. -1.
          2   -1    0    0  501    0 -0.00000000000E+00 -0.00000000000E+00 -0.33965663803E+03  0.33965663803E+03  0.00000000000E+00 0. -1.
          2    1    1    2  501    0  0.18471873402E+01  0.45959576110E+02  0.24824377131E+03  0.25246913620E+03  0.00000000000E+00 0. -1.
          2    1    1    2  502    0 -0.18471873402E+01 -0.45959576110E+02 -0.33597697838E+03  0.33911093279E+03  0.00000000000E+00 0. -1.
</event>
<event>
 4    1  0.6089441E+003  0.2127530E+02  0.7546771E-02  0.1515370E+00
          2   -1    0    0  501    0  0.00000000000E+00  0.00000000000E+00  0.53206306081E+03  0.53206306081E+03  0.00000000000E+00 0.  1.
          2   -1    0    0  502    0 -0.00000000000E+00 -0.00000000000E+00 -0.96961429266E+00  0.96961429266E+00  0.00000000000E+00 0.  1.
          2    1    1    2  501    0  0.28934967293E+01  0.21077623682E+02  0.17222162328E+03  0.17353076405E+03  0.00000000000E+00 0.  1.
          2    1    1    2  502    0 -0.28934967293E+01 -0.21077623682E+02  0.35887182324E+03  0.35950191106E+03  0.00000000000E+00 0.  1.
</event>
<event>
 4    1  0.6089441E+003  0.2508190E+02  0.7546771E-02  0.1467889E+00
          2   -1    0    0  501    0  0.00000000000E+00  0.00000000000E+00  0.75590145033E+01  0.75590145033E+01  0.00000000000E+00 0.  1.
          2   -1    0    0  502    0 -0.00000000000E+00 -0.00000000000E+00 -0.31115310796E+03  0.31115310796E+03  0.00000000000E+00 0.  1.
          2    1    1    2  501    0 -0.58953533448E+01 -0.24379227054E+02 -0.28818628058E+03  0.28927570623E+03  0.00000000000E+00 0.  1.
          2    1    1    2  502    0  0.58953533448E+01  0.24379227054E+02 -0.15407812878E+02  0.29436416231E+02  0.00000000000E+00 0.  1.
</event>
<event>
 4    1  0.6089441E+003  0.2588385E+02  0.7546771E-02  0.1459154E+00
          2   -1    0    0  501    0  0.00000000000E+00  0.00000000000E+00  0.17502013569E+03  0.17502013569E+03  0.00000000000E+00 0. -1.
          2   -1    0    0  502    0 -0.00000000000E+00 -0.00000000000E+00 -0.47861776171E+01  0.47861776171E+01  0.00000000000E+00 0.  1.
          2    1    1    2  501    0  0.20561059585E+02 -0.15723125073E+02  0.44890895695E+02  0.51818590772E+02  0.00000000000E+00 0.  1.
          2    1    1    2  502    0 -0.20561059585E+02  0.15723125073E+02  0.12534306238E+03  0.12798772254E+03  0.00000000000E+00 0. -1.
</event>
<event>
 4    1  0.6089441E+003  0.2435841E+02  0.7546771E-02  0.1476110E+00
          2   -1    0    0  502    0  0.00000000000E+00  0.00000000000E+00  0.11612474352E+01  0.11612474352E+01  0.00000000000E+00 0. -1.
          2   -1    0    0  501    0 -0.00000000000E+00 -0.00000000000E+00 -0.92091915958E+03  0.92091915958E+03  0.00000000000E+00 0.  1.
          2    1    1    2  501    0 -0.23506287509E+02 -0.63864318419E+01 -0.15226433534E+03  0.15420038872E+03  0.00000000000E+00 0. -1.
          2    1    1    2  502    0  0.23506287509E+02  0.63864318419E+01 -0.76749357680E+03  0.76788001829E+03  0.00000000000E+00 0.  1.
</event>
<event>
 4    1  0.6089441E+003  0.2651268E+02  0.7546771E-02  0.1452566E+00
          2   -1    0    0  501    0  0.00000000000E+00  0.00000000000E+00  0.17135953228E+03  0.17135953228E+03  0.00000000000E+00 0. -1.
          2   -1    0    0  502    0 -0.00000000000E+00 -0.00000000000E+00 -0.11471376323E+03  0.11471376323E+03  0.00000000000E+00 0.  1.
          2    1    1    2  501    0  0.26497104860E+02 -0.90855362179E+00 -0.11213307062E+03  0.11522476975E+03  0.00000000000E+00 0.  1.
          2    1    1    2  502    0 -0.26497104860E+02  0.90855362179E+00  0.16877883967E+03  0.17084852576E+03  0.00000000000E+00 0. -1.
</event>
<event>
 4    1  0.6089441E+003  0.2621481E+02  0.7546771E-02  0.1455659E+00
          2   -1    0    0  501    0  0.00000000000E+00  0.00000000000E+00  0.46617183585E+01  0.46617183585E+01  0.00000000000E+00 0. -1.
          2   -1    0    0  502    0 -0.00000000000E+00 -0.00000000000E+00 -0.29713528796E+03  0.29713528796E+03  0.00000000000E+00 0.  1.
          2    1    1    2  501    0 -0.23309848512E+02  0.11994457548E+02 -0.25335057651E+03  0.25470322076E+03  0.00000000000E+00 0.  1.
          2    1    1    2  502    0  0.23309848512E+02 -0.11994457548E+02 -0.39122993098E+02  0.47093785561E+02  0.00000000000E+00 0. -1.
</event>
<event>
 4    1  0.6089441E+003  0.2418375E+02  0.7546771E-02  0.1478146E+00
          2   -1    0    0  502    0  0.00000000000E+00  0.00000000000E+00  0.16678599162E+03  0.16678599162E+03  0.00000000000E+00 0.  1.
          2   -1    0    0  501    0 -0.00000000000E+00 -0.00000000000E+00 -0.26105048579E+02  0.26105048579E+02  0.00000000000E+00 0. -1.
          2    1    1    2  501    0 -0.19835775358E+02  0.13834584409E+02  0.16007488049E+03  0.16189138666E+03  0.00000000000E+00 0.  1.
          2    1    1    2  502    0  0.19835775358E+02 -0.13834584409E+02 -0.19393937450E+02  0.30999653541E+02  0.00000000000E+00 0. -1.
</event>
<event>
 4    1  0.6089441E+003  0.2185084E+02  0.7546771E-02  0.1507455E+00
          2   -1    0    0  502    0  0.00000000000E+00  0.00000000000E+00  0.35516775726E+01  0.35516775726E+01  0.00000000000E+00 0.  1.
          2   -1    0    0  501    0 -0.00000000000E+00 -0.00000000000E+00 -0.17424791836E+03  0.17424791836E+03  0.00000000000E+00 0.  1.
          2    1    1    2  501    0  0.18288859711E+02  0.11957283349E+02 -0.42852369820E+02  0.48101815078E+02  0.00000000000E+00 0.  1.
          2    1    1    2  502    0 -0.18288859711E+02 -0.11957283349E+02 -0.12784387097E+03  0.12969778085E+03  0.00000000000E+00 0.  1.
</event>
<event>
 4    1  0.6089441E+003  0.2118292E+02  0.7546771E-02  0.1516669E+00
          2   -1    0    0  501    0  0.00000000000E+00  0.00000000000E+00  0.28953070456E+00  0.28953070456E+00  0.00000000000E+00 0.  1.
          2   -1    0    0  502    0 -0.00000000000E+00 -0.00000000000E+00 -0.18798689792E+04  0.18798689792E+04  0.00000000000E+00 0.  1.
          2    1    1    2  501    0  0.17499095933E+02  0.11937250452E+02 -0.13337018504E+04  0.13338700619E+04  0.00000000000E+00 0.  1.
          2    1    1    2  502    0 -0.17499095933E+02 -0.11937250452E+02 -0.54587759809E+03  0.54628844799E+03  0.00000000000E+00 0.  1.
</event>
<event>
 4    1  0.6089441E+003  0.2605669E+02  0.7546771E-02  0.1457321E+00
          2   -1    0    0  502    0  0.00000000000E+00  0.00000000000E+00  0.24509595735E+02  0.24509595735E+02  0.00000000000E+00 0. -1.
          2   -1    0    0  501    0 -0.00000000000E+00 -0.00000000000E+00 -0.57323664944E+03  0.57323664944E+03  0.00000000000E+00 0.  1.
          2    1    1    2  501    0  0.31333332707E+01 -0.25867612511E+02  0.17198713377E+02  0.31220936825E+02  0.00000000000E+00 0. -1.
          2    1    1    2  502    0 -0.31333332707E+01  0.25867612511E+02 -0.56592576708E+03  0.56652530835E+03  0.00000000000E+00 0.  1.
</event>
<event>
 4    1  0.6089441E+003  0.3014307E+02  0.7546771E-02  0.1418357E+00
          2   -1    0    0  502    0  0.00000000000E+00  0.00000000000E+00  0.78064099599E+00  0.78064099599E+00  0.00000000000E+00 0. -1.
          2   -1    0    0  501    0 -0.00000000000E+00 -0.00000000000E+00 -0.17701224461E+04  0.17701224461E+04  0.00000000000E+00 0.  1.
          2    1    1    2  501    0  0.30039407007E+02  0.24976821332E+01 -0.36650162968E+03  0.36773910446E+03  0.00000000000E+00 0. -1.
          2    1    1    2  502    0 -0.30039407007E+02 -0.24976821332E+01 -0.14028401754E+04  0.14031639826E+04  0.00000000000E+00 0.  1.
</event>
<event>
 4    1  0.6089441E+003  0.3295195E+02  0.7546771E-02  0.1395563E+00
          2   -1    0    0  501    0  0.00000000000E+00  0.00000000000E+00  0.71721098104E+01  0.71721098104E+01  0.00000000000E+00 0.  1.
          2   -1    0    0  502    0 -0.00000000000E+00 -0.00000000000E+00 -0.10644000281E+04  0.10644000281E+04  0.00000000000E+00 0.  1.
          2    1    1    2  501    0 -0.25369093488E+02 -0.21029510876E+02 -0.10248350769E+04  0.10253646990E+04  0.00000000000E+00 0.  1.
          2    1    1    2  502    0  0.25369093488E+02  0.21029510876E+02 -0.32392841396E+02  0.46207438858E+02  0.00000000000E+00 0.  1.
</event>
<event>
 4    1  0.6089441E+003  0.2077884E+02  0.7546771E-02  0.1522446E+00
          2   -1    0    0  501    0  0.00000000000E+00  0.00000000000E+00  0.28121993685E+01  0.28121993685E+01  0.00000000000E+00 0.  1.
          2   -1    0    0  502    0 -0.00000000000E+00 -0.00000000000E+00 -0.11460867292E+04  0.11460867292E+04  0.00000000000E+00 0. -1.
          2    1    1    2  501    0 -0.20691223523E+02  0.19061850842E+01 -0.11062268567E+04  0.11064219894E+04  0.00000000000E+00 0. -1.
          2    1    1    2  502    0  0.20691223523E+02 -0.19061850842E+01 -0.37047673199E+02  0.42476939177E+02  0.00000000000E+00 0.  1.
</event>
<event>
 4    1  0.6089441E+003  0.2149575E+02  0.7546771E-02  0.1512303E+00
          2   -1    0    0  502    0  0.00000000000E+00  0.00000000000E+00  0.45124005303E+01  0.45124005303E+01  0.00000000000E+00 0.  1.
          2   -1    0    0  501    0 -0.00000000000E+00 -0.00000000000E+00 -0.10346401673E+04  0.10346401673E+04  0.00000000000E+00 0. -1.
          2    1    1    2  501    0  0.14383227081E+02 -0.15974668520E+02 -0.21868855266E+02  0.30664541188E+02  0.00000000000E+00 0.  1.
          2    1    1    2  502    0 -0.14383227081E+02  0.15974668520E+02 -0.10082589115E+04  0.10084880266E+04  0.00000000000E+00 0. -1.
</event>
<event>
 4    1  0.6089441E+003  0.2515244E+02  0.7546771E-02  0.1467105E+00
          2   -1    0    0  502    0  0.00000000000E+00  0.00000000000E+00  0.10757234305E+04  0.10757234305E+04  0.00000000000E+00 0. -1.
          2   -1    0    0  501    0 -0.00000000000E+00 -0.00000000000E+00 -0.11270521533E+03  0.11270521533E+03  0.00000000000E+00 0. -1.
          2    1    1    2  501    0 -0.15998057853E+02  0.19408949415E+02  0.10741710566E+04  0.10744654969E+04  0.00000000000E+00 0. -1.
          2    1    1    2  502    0  0.15998057853E+02 -0.19408949415E+02 -0.11115284140E+03  0.11396314897E+03  0.00000000000E+00 0. -1.
</event>
<event>
 4    1  0.6089441E+003  0.2178052E+02  0.7546771E-02  0.1508406E+00
          2   -1    0    0  501    0  0.00000000000E+00  0.00000000000E+00  0.34881364687E+03  0.34881364687E+03  0.00000000000E+00 0. -1.
          2   -1    0    0  502    0 -0.00000000000E+00 -0.00000000000E+00 -0.20104937388E+02  0.20104937388E+02  0.00000000000E+00 0.  1.
          2    1    1    2  501    0 -0.65662044843E+01 -0.20767185424E+02 -0.13756760817E+02  0.25761201446E+02  0.00000000000E+00 0.  1.
          2    1    1    2  502    0  0.65662044843E+01  0.20767185424E+02  0.34246547030E+03  0.34315738282E+03  0.00000000000E+00 0. -1.
</event>
<event>
 4    1  0.6089441E+003  0.2220814E+02  0.7546771E-02  0.1502688E+00
          2   -1    0    0  501    0  0.00000000000E+00  0.00000000000E+00  0.59914245999E+03  0.59914245999E+03  0.00000000000E+00 0.  1.
          2   -1    0    0  502    0 -0.00000000000E+00 -0.00000000000E+00 -0.40976323433E+01  0.40976323433E+01  0.00000000000E+00 0.  1.
          2    1    1    2  501    0  0.16328068547E+02 -0.15053100342E+02  0.27895591722E+02  0.35656215306E+02  0.00000000000E+00 0.  1.
          2    1    1    2  502    0 -0.16328068547E+02  0.15053100342E+02  0.56714923592E+03  0.56758387703E+03  0.00000000000E+00 0.  1.
</event>
<event>
 4    1  0.6089441E+003  0.3043679E+02  0.7546771E-02  0.1415838E+00
          2   -1    0    0  502    0  0.00000000000E+00  0.00000000000E+00  0.24444981786E+03  0.24444981786E+03  0.00000000000E+00 0.  1.
          2   -1    0    0  501    0 -0.00000000000E+00 -0.00000000000E+00 -0.11924799661E+03  0.11924799661E+03  0.00000000000E+00 0.  1.
          2    1    1    2  501    0 -0.27348527872E+02 -0.13358757903E+02  0.24153688792E+03  0.24344705095E+03  0.00000000000E+00 0.  1.
          2    1    1    2  502    0  0.27348527872E+02  0.13358757903E+02 -0.11633506667E+03  0.12025076352E+03  0.00000000000E+00 0.  1.
</event>
<event>
 4    1  0.6089441E+003  0.4822373E+02  0.7546771E-02  0.1306063E+00
          2   -1    0    0  502    0  0.00000000000E+00  0.00000000000E+00  0.11129296180E+02  0.11129296180E+02  0.00000000000E+00 0. -1.
          2   -1    0    0  501    0 -0.00000000000E+00 -0.00000000000E+00 -0.69355740655E+03  0.69355740655E+03  0.00000000000E+00 0.  1.
          2    1    1    2  501    0 -0.43146993967E+02 -0.21537523307E+02 -0.46692273527E+02  0.67124484398E+02  0.00000000000E+00 0. -1.
          2    1    1    2  502    0  0.43146993967E+02  0.21537523307E+02 -0.63573583684E+03  0.63756221833E+03  0.00000000000E+00 0.  1.
</event>
<event>
 4    1  0.6089441E+003  0.3061309E+02  0.7546771E-02  0.1414342E+00
          2   -1    0    0  501    0  0.00000000000E+00  0.00000000000E+00  0.59123369983E+00  0.59123369983E+00  0.00000000000E+00 0. -1.
          2   -1    0    0  502    0 -0.00000000000E+00 -0.00000000000E+00 -0.15851016306E+04  0.15851016306E+04  0.00000000000E+00 0. -1.
          2    1    1    2  501    0 -0.28458709532E+02  0.11281091332E+02 -0.79395977576E+03  0.79454973834E+03  0.00000000000E+00 0. -1.
          2    1    1    2  502    0  0.28458709532E+02 -0.11281091332E+02 -0.79055062115E+03  0.79114312597E+03  0.00000000000E+00 0. -1.
</event>
<event>
 4    1  0.6089441E+003  0.2433698E+02  0.7546771E-02  0.1476359E+00
          2   -1    0    0  501    0  0.00000000000E+00  0.00000000000E+00  0.67681753605E+03  0.67681753605E+03  0.00000000000E+00 0.  1.
          2   -1    0    0  502    0 -0.00000000000E+00 -0.00000000000E+00 -0.19210818372E+01  0.19210818372E+01  0.00000000000E+00 0.  1.
          2    1    1    2  501    0 -0.21566232705E+02  0.11277685075E+02  0.87033422441E+02  0.90372037686E+02  0.00000000000E+00 0.  1.
          2    1    1    2  502    0  0.21566232705E+02 -0.11277685075E+02  0.58786303177E+03  0.58836658020E+03  0.00000000000E+00 0.  1.
</event>
<event>
 4    1  0.6089441E+003  0.4764299E+02  0.7546771E-02  0.1308728E+00
          2   -1    0    0  502    0  0.00000000000E+00  0.00000000000E+00  0.17178198688E+01  0.17178198688E+01  0.00000000000E+00 0.  1.
          2   -1    0    0  501    0 -0.00000000000E+00 -0.00000000000E+00 -0.19182546331E+04  0.19182546331E+04  0.00000000000E+00 0.  1.
          2    1    1    2  501    0  0.31464338566E+02 -0.35774993612E+02 -0.42276591846E+03  0.42544197792E+03  0.00000000000E+00 0.  1.
          2    1    1    2  502    0 -0.31464338566E+02  0.35774993612E+02 -0.14937708948E+04  0.14945304751E+04  0.00000000000E+00 0.  1.
</event>
<event>
 4    1  0.6089441E+003  0.2249033E+02  0.7546771E-02  0.1498999E+00
          2   -1    0    0  501    0  0.00000000000E+00  0.00000000000E+00  0.22726704997E+03  0.22726704997E+03  0.00000000000E+00 0.  1.
          2   -1    0    0  502    0 -0.00000000000E+00 -0.00000000000E+00 -0.81184955818E+01  0.81184955818E+01  0.00000000000E+00 0.  1.
          2    1    1    2  501    0 -0.19457433234E+02 -0.11279320733E+02  0.93033824180E+01  0.24338605315E+02  0.00000000000E+00 0.  1.
          2    1    1    2  502    0  0.19457433234E+02  0.11279320733E+02  0.20984517197E+03  0.21104694024E+03  0.00000000000E+00 0.  1.
</event>
<event>
 4    1  0.6089441E+003  0.3598886E+02  0.7546771E-02  0.1373741E+00
          2   -1    0    0  502    0  0.00000000000E+00  0.00000000000E+00  0.38801724286E+03  0.38801724286E+03  0.00000000000E+00 0. -1.
          2   -1    0    0  501    0 -0.00000000000E+00 -0.00000000000E+00 -0.90224005110E+02  0.90224005110E+02  0.00000000000E+00 0.  1.
          2    1    1    2  501    0 -0.35978215139E+02  0.87525614629E+00  0.38355221822E+03  0.38523694286E+03  0.00000000000E+00 0. -1.
          2    1    1    2  502    0  0.35978215139E+02 -0.87525614629E+00 -0.85758980473E+02  0.93004305114E+02  0.00000000000E+00 0.  1.
</event>
<event>
 4    1  0.6089441E+003  0.2001020E+02  0.7546771E-02  0.1533880E+00
          2   -1    0    0  501    0  0.00000000000E+00  0.00000000000E+00  0.35700960193E+02  0.35700960193E+02  0.00000000000E+00 0. -1.
          2   -1    0    0  502    0 -0.00000000000E+00 -0.00000000000E+00 -0.21325926158E+02  0.21325926158E+02  0.00000000000E+00 0. -1.
          2    1    1    2  501    0  0.19554285442E+02  0.42470990053E+01 -0.12445098086E+02  0.23564558037E+02  0.00000000000E+00 0. -1.
          2    1    1    2  502    0 -0.19554285442E+02 -0.42470990053E+01  0.26820132121E+02  0.33462328313E+02  0.00000000000E+00 0. -1.
</event>
<event>
 4    1  0.6089441E+003  0.2526060E+02  0.7546771E-02  0.1465909E+00
          2   -1    0    0  502    0  0.00000000000E+00  0.00000000000E+00  0.47691804218E+02  0.47691804218E+02  0.00000000000E+00 0.  1.
          2   -1    0    0  501    0 -0.00000000000E+00 -0.00000000000E+00 -0.15465487388E+03  0.15465487388E+03  0.00000000000E+00 0.  1.
          2    1    1    2  501    0  0.15584138183E+02  0.19880457382E+02  0.43216430208E+02  0.50057544771E+02  0.00000000000E+00 0.  1.
          2    1    1    2  502    0 -0.15584138183E+02 -0.19880457382E+02 -0.15017949987E+03  0.15228913333E+03  0.00000000000E+00 0.  1.
</event>
<event>
 4    1  0.6089441E+003  0.3581777E+02  0.7546771E-02  0.1374903E+00
          2   -1    0    0  502    0  0.00000000000E+00  0.00000000000E+00  0.83271730544E+03  0.83271730544E+03  0.00000000000E+00 0. -1.
          2   -1    0    0  501    0 -0.00000000000E+00 -0.00000000000E+00 -0.25273444066E+03  0.25273444066E+03  0.00000000000E+00 0.  1.
          2    1    1    2  501    0  0.19224716860E+02 -0.30221238637E+02  0.83106058554E+03  0.83183208032E+03  0.00000000000E+00 0. -1.
          2    1    1    2  502    0 -0.19224716860E+02  0.30221238637E+02 -0.25107772076E+03  0.25361966577E+03  0.00000000000E+00 0.  1.
</event>
<event>
 4    1  0.6089441E+003  0.3886920E+02  0.7546771E-02  0.1355243E+00
          2   -1    0    0  502    0  0.00000000000E+00  0.00000000000E+00  0.11936376003E+02  0.11936376003E+02  0.00000000000E+00 0. -1.
          2   -1    0    0  501    0 -0.00000000000E+00 -0.00000000000E+00 -0.13598899020E+03  0.13598899020E+03  0.00000000000E+00 0. -1.
          2    1    1    2  501    0 -0.10960487053E+02 -0.37291853819E+02 -0.42563307103E+02  0.57640695253E+02  0.00000000000E+00 0. -1.
          2    1    1    2  502    0  0.10960487053E+02  0.37291853819E+02 -0.81489307091E+02  0.90284670946E+02  0.00000000000E+00 0. -1.
</event>
<event>
 4    1  0.6089441E+003  0.4321153E+02  0.7546771E-02  0.1330629E+00
          2   -1    0    0  501    0  0.00000000000E+00  0.00000000000E+00  0.93043343529E+03  0.93043343529E+03  0.00000000000E+00 0.  1.
          2   -1    0    0  502    0 -0.00000000000E+00 -0.00000000000E+00 -0.93770998577E+01  0.93770998577E+01  0.00000000000E+00 0. -1.
          2    1    1    2  501    0 -0.39422683930E+02 -0.17694310753E+02  0.43930086207E+02  0.61620525115E+02  0.00000000000E+00 0. -1.
          2    1    1    2  502    0  0.39422683930E+02  0.17694310753E+02  0.87712624923E+03  0.87819001004E+03  0.00000000000E+00 0.  1.
</event>
<event>
 4    1  0.6089441E+003  0.2601818E+02  0.7546771E-02  0.1457728E+00
          2   -1    0    0  502    0  0.00000000000E+00  0.00000000000E+00  0.28457000896E+02  0.28457000896E+02  0.00000000000E+00 0. -1.
          2   -1    0    0  501    0 -0.00000000000E+00 -0.00000000000E+00 -0.36680714470E+02  0.36680714470E+02  0.00000000000E+00 0.  1.
          2    1    1    2  501    0 -0.23493778099E+02 -0.11179818104E+02  0.15196682515E+02  0.30131131769E+02  0.00000000000E+00 0. -1.
          2    1    1    2  502    0  0.23493778099E+02  0.11179818104E+02 -0.23420396089E+02  0.35006583597E+02  0.00000000000E+00 0.  1.
</event>
<event>
 4    1  0.6089441E+003  0.2376850E+02  0.7546771E-02  0.1483067E+00
          2   -1    0    0  501    0  0.00000000000E+00  0.00000000000E+00  0.14405644714E+03  0.14405644714E+03  0.00000000000E+00 0.  1.
          2   -1    0    0  502    0 -0.00000000000E+00 -0.00000000000E+00 -0.13811876356E+03  0.13811876356E+03  0.00000000000E+00 0.  1.
          2    1    1    2  501    0 -0.16992909608E+02  0.16618743543E+02 -0.13610135814E+03  0.13816121490E+03  0.00000000000E+00 0.  1.
          2    1    1    2  502    0  0.16992909608E+02 -0.16618743543E+02  0.14203904172E+03  0.14401399580E+03  0.00000000000E+00 0.  1.
</event>
<event>
 4    1  0.6089441E+003  0.3037241E+02  0.7546771E-02  0.1416387E+00
          2   -1    0    0  502    0  0.00000000000E+00  0.00000000000E+00  0.14830745750E+04  0.14830745750E+04  0.00000000000E+00 0.  1.
          2   -1    0    0  501    0 -0.00000000000E+00 -0.00000000000E+00 -0.17095310427E+01  0.17095310427E+01  0.00000000000E+00 0. -1.
          2    1    1    2  501    0 -0.96082730380E+01 -0.28812577724E+02  0.13328085439E+04  0.13331545665E+04  0.00000000000E+00 0.  1.
          2    1    1    2  502    0  0.96082730380E+01  0.28812577724E+02  0.14855650005E+03  0.15162953951E+03  0.00000000000E+00 0. -1.
</event>
<event>
 4    1  0.6089441E+003  0.2090817E+02  0.7546771E-02  0.1520580E+00
          2   -1    0    0  502    0  0.00000000000E+00  0.00000000000E+00  0.31464612135E+01  0.31464612135E+01  0.00000000000E+00 0. -1.
          2   -1    0    0  501    0 -0.00000000000E+00 -0.00000000000E+00 -0.31850751367E+03  0.31850751367E+03  0.00000000000E+00 0.  1.
          2    1    1    2  501    0 -0.16763020061E+02 -0.12496102123E+02 -0.36921429915E+02  0.42430453649E+02  0.00000000000E+00 0. -1.
          2    1    1    2  502    0  0.16763020061E+02  0.12496102123E+02 -0.27843962254E+03  0.27922352123E+03  0.00000000000E+00 0.  1.
</event>
<event>
 4    1  0.6089441E+003  0.2057645E+02  0.7546771E-02  0.1525399E+00
          2   -1    0    0  502    0  0.00000000000E+00  0.00000000000E+00  0.16718048260E+03  0.16718048260E+03  0.00000000000E+00 0.  1.
          2   -1    0    0  501    0 -0.00000000000E+00 -0.00000000000E+00 -0.73321916621E+02  0.73321916621E+02  0.00000000000E+00 0.  1.
          2    1    1    2  501    0 -0.88863572241E+01 -0.18558635167E+02  0.16508549924E+03  0.16636289353E+03  0.00000000000E+00 0.  1.
          2    1    1    2  502    0  0.88863572241E+01  0.18558635167E+02 -0.71226933256E+02  0.74139505698E+02  0.00000000000E+00 0.  1.
</event>
<event>
 4    1  0.6089441E+003  0.2090585E+02  0.7546771E-02  0.1520613E+00
          2   -1    0    0  501    0  0.00000000000E+00  0.00000000000E+00  0.16680371189E+02  0.16680371189E+02  0.00000000000E+00 0. -1.
          2   -1    0    0  502    0 -0.00000000000E+00 -0.00000000000E+00 -0.13896448295E+04  0.13896448295E+04  0.00000000000E+00 0.  1.
          2    1    1    2  501    0 -0.19298705728E+02 -0.80383220133E+01 -0.13829842229E+04  0.13831422253E+04  0.00000000000E+00 0.  1.
          2    1    1    2  502    0  0.19298705728E+02  0.80383220133E+01  0.10019764606E+02  0.23182975355E+02  0.00000000000E+00 0. -1.
</event>
<event>
 4    1  0.6089441E+003  0.3148076E+02  0.7546771E-02  0.1407151E+00
          2   -1    0    0  502    0  0.00000000000E+00  0.00000000000E+00  0.80079894815E+01  0.80079894815E+01  0.00000000000E+00 0.  1.
          2   -1    0    0  501    0 -0.00000000000E+00 -0.00000000000E+00 -0.36006216058E+03  0.36006216058E+03  0.00000000000E+00 0.  1.
          2    1    1    2  501    0  0.16168442311E+02  0.27011472912E+02 -0.26936844585E+02  0.41432255452E+02  0.00000000000E+00 0.  1.
          2    1    1    2  502    0 -0.16168442311E+02 -0.27011472912E+02 -0.32511732651E+03  0.32663789461E+03  0.00000000000E+00 0.  1.
</event>
<event>
 4    1  0.6089441E+003  0.2823826E+02  0.7546771E-02  0.1435551E+00
          2   -1    0    0  501    0  0.00000000000E+00  0.00000000000E+00  0.12046403389E+02  0.12046403389E+02  0.00000000000E+00 0.  1.
          2   -1    0    0  502    0 -0.00000000000E+00 -0.00000000000E+00 -0.52045095575E+03  0.52045095575E+03  0.00000000000E+00 0. -1.
          2    1    1    2  501    0 -0.22507987955E+02 -0.17052552740E+02 -0.50294384680E+03  0.50373595476E+03  0.00000000000E+00 0. -1.
          2    1    1    2  502    0  0.22507987955E+02  0.17052552740E+02 -0.54607055537E+01  0.28761404379E+02  0.00000000000E+00 0.  1.
</event>
<event>
 4    1  0.6089441E+003  0.2352712E+02  0.7546771E-02  0.1485983E+00
          2   -1    0    0  502    0  0.00000000000E+00  0.00000000000E+00  0.91473848295E+01  0.91473848295E+01  0.00000000000E+00 0. -1.
          2   -1    0    0  501    0 -0.00000000000E+00 -0.00000000000E+00 -0.96187880580E+02  0.96187880580E+02  0.00000000000E+00 0. -1.
          2    1    1    2  501    0  0.47467449772E+01 -0.23043303882E+02 -0.11444875333E+02  0.26163153729E+02  0.00000000000E+00 0. -1.
          2    1    1    2  502    0 -0.47467449772E+01  0.23043303882E+02 -0.75595620417E+02  0.79172111680E+02  0.00000000000E+00 0. -1.
</event>
<event>
 4    1  0.6089441E+003  0.2186966E+02  0.7546771E-02  0.1507201E+00
          2   -1    0    0  501    0  0.00000000000E+00  0.00000000000E+00  0.51506767402E+03  0.51506767402E+03  0.00000000000E+00 0.  1.
          2   -1    0    0  502    0 -0.00000000000E+00 -0.00000000000E+00 -0.23414097494E+01  0.23414097494E+01  0.00000000000E+00 0.  1.
          2    1    1    2  501    0 -0.20295089944E+02  0.81480854446E+01  0.55402897576E+02  0.59563101263E+02  0.00000000000E+00 0.  1.
          2    1    1    2  502    0  0.20295089944E+02 -0.81480854446E+01  0.45732336670E+03  0.45784598251E+03  0.00000000000E+00 0.  1.
</event>
<event>
 4    1  0.6089441E+003  0.4468327E+02  0.7546771E-02  0.1323031E+00
          2   -1    0    0  501    0  0.00000000000E+00  0.00000000000E+00  0.30854488854E+03  0.30854488854E+03  0.00000000000E+00 0.  1.
          2   -1    0    0  502    0 -0.00000000000E+00 -0.00000000000E+00 -0.50081650244E+03  0.50081650244E+03  0.00000000000E+00 0.  1.
          2    1    1    2  501    0 -0.35378881373E+02 -0.27293391623E+02 -0.49819358220E+03  0.50019340241E+03  0.00000000000E+00 0.  1.
          2    1    1    2  502    0  0.35378881373E+02  0.27293391623E+02  0.30592196829E+03  0.30916798857E+03  0.00000000000E+00 0.  1.
</event>
<event>
 4    1  0.6089441E+003  0.3064958E+02  0.7546771E-02  0.1414034E+00
          2   -1    0    0  501    0  0.00000000000E+00  0.00000000000E+00  0.74996708241E+03  0.74996708241E+03  0.00000000000E+00 0. -1.
          2   -1    0    0  502    0 -0.00000000000E+00 -0.00000000000E+00 -0.99186792933E+02  0.99186792933E+02  0.00000000000E+00 0.  1.
          2    1    1    2  501    0 -0.12956583137E+02 -0.27776310567E+02 -0.96497383364E+02  0.10124792083E+03  0.00000000000E+00 0.  1.
          2    1    1    2  502    0  0.12956583137E+02  0.27776310567E+02  0.74727767284E+03  0.74790595451E+03  0.00000000000E+00 0. -1.
</event>
<event>
 4    1  0.6089441E+003  0.3340306E+02  0.7546771E-02  0.1392152E+00
          2   -1    0    0  501    0  0.00000000000E+00  0.00000000000E+00  0.29714678232E+03  0.29714678232E+03  0.00000000000E+00 0.  1.
          2   -1    0    0  502    0 -0.00000000000E+00 -0.00000000000E+00 -0.37760050120E+01  0.37760050120E+01  0.00000000000E+00 0. -1.
          2    1    1    2  501    0 -0.19756449219E+02 -0.26934129044E+02  0.15792676682E+03  0.16142065627E+03  0.00000000000E+00 0.  1.
          2    1    1    2  502    0  0.19756449219E+02  0.26934129044E+02  0.13544401048E+03  0.13950213106E+03  0.00000000000E+00 0. -1.
</event>
<event>
 4    1  0.6089441E+003  0.2355202E+02  0.7546771E-02  0.1485680E+00
          2   -1    0    0  501    0  0.00000000000E+00  0.00000000000E+00  0.29034264485E+00  0.29034264485E+00  0.00000000000E+00 0. -1.
          2   -1    0    0  502    0 -0.00000000000E+00 -0.00000000000E+00 -0.19750911675E+04  0.19750911675E+04  0.00000000000E+00 0.  1.
          2    1    1    2  501    0 -0.19300154419E+01  0.23472807756E+02 -0.11660231206E+04  0.11662609551E+04  0.00000000000E+00 0.  1.
          2    1    1    2  502    0  0.19300154419E+01 -0.23472807756E+02 -0.80877770434E+03  0.80912055511E+03  0.00000000000E+00 0. -1.
</event>
<event>
 4    1  0.6089441E+003  0.2097918E+02  0.7546771E-02  0.1519562E+00
          2   -1    0    0  501    0  0.00000000000E+00  0.00000000000E+00  0.69816608052E+02  0.69816608052E+02  0.00000000000E+00 0.  1.
          2   -1    0    0  502    0 -0.00000000000E+00 -0.00000000000E+00 -0.12699730948E+04  0.12699730948E+04  0.00000000000E+00 0. -1.
          2    1    1    2  501    0  0.17390764437E+02  0.11734014800E+02 -0.12683083788E+04  0.12684818759E+04  0.00000000000E+00 0. -1.
          2    1    1    2  502    0 -0.17390764437E+02 -0.11734014800E+02  0.68151892057E+02  0.71307826933E+02  0.00000000000E+00 0.  1.
</event>
<event>
 4    1  0.6089441E+003  0.2242579E+02  0.7546771E-02  0.1499837E+00
          2   -1    0    0  502    0  0.00000000000E+00  0.00000000000E+00  0.28532728082E+01  0.28532728082E+01  0.00000000000E+00 0.  1.
          2   -1    0    0  501    0 -0.00000000000E+00 -0.00000000000E+00 -0.43891836442E+03  0.43891836442E+03  0.00000000000E+00 0. -1.
          2    1    1    2  501    0 -0.15754029859E+02 -0.15960155589E+02 -0.47160071026E+02  0.52220573746E+02  0.00000000000E+00 0.  1.
          2    1    1    2  502    0  0.15754029859E+02  0.15960155589E+02 -0.38890502058E+03  0.38955106348E+03  0.00000000000E+00 0. -1.
</event>
<event>
 4    1  0.6089441E+003  0.2633188E+02  0.7546771E-02  0.1454437E+00
          2   -1    0    0  502    0  0.00000000000E+00  0.00000000000E+00  0.78214858319E+02  0.78214858319E+02  0.00000000000E+00 0. -1.
          2   -1    0    0  501    0 -0.00000000000E+00 -0.00000000000E+00 -0.11194489983E+04  0.11194489983E+04  0.00000000000E+00 0. -1.
          2    1    1    2  501    0  0.52536463776E+01  0.25802459757E+02  0.75839072089E+02  0.80280337475E+02  0.00000000000E+00 0. -1.
          2    1    1    2  502    0 -0.52536463776E+01 -0.25802459757E+02 -0.11170732121E+04  0.11173835191E+04  0.00000000000E+00 0. -1.
</event>
<event>
 4    1  0.6089441E+003  0.2850794E+02  0.7546771E-02  0.1433022E+00
          2   -1    0    0  502    0  0.00000000000E+00  0.00000000000E+00  0.57256857986E+02  0.57256857986E+02  0.00000000000E+00 0. -1.
          2   -1    0    0  501    0 -0.00000000000E+00 -0.00000000000E+00 -0.22584796807E+03  0.22584796807E+03  0.00000000000E+00 0.  1.
          2    1    1    2  501    0 -0.67054777737E+01  0.27708103540E+02  0.52736577386E+02  0.59948719989E+02  0.00000000000E+00 0. -1.
          2    1    1    2  502    0  0.67054777737E+01 -0.27708103540E+02 -0.22132768747E+03  0.22315610606E+03  0.00000000000E+00 0.  1.
</event>
<event>
 4    1  0.6089441E+003  0.4268033E+02  0.7546771E-02  0.1333457E+00
          2   -1    0    0  502    0  0.00000000000E+00  0.00000000000E+00  0.49212670349E+01  0.49212670349E+01  0.00000000000E+00 0. -1.
          2   -1    0    0  501    0 -0.00000000000E+00 -0.00000000000E+00 -0.11848507288E+04  0.11848507288E+04  0.00000000000E+00 0.  1.
          2    1    1    2  501    0 -0.36412819701E+02 -0.22264698540E+02 -0.96676443822E+02  0.10567849843E+03  0.00000000000E+00 0. -1.
          2    1    1    2  502    0  0.36412819701E+02  0.22264698540E+02 -0.10832530179E+04  0.10840934974E+04  0.00000000000E+00 0.  1.
</event>
<event>
 4    1  0.6089441E+003  0.2434088E+02  0.7546771E-02  0.1476314E+00
          2   -1    0    0  501    0  0.00000000000E+00  0.00000000000E+00  0.12804223744E+03  0.12804223744E+03  0.00000000000E+00 0.  1.
          2   -1    0    0  502    0 -0.00000000000E+00 -0.00000000000E+00 -0.12417702625E+03  0.12417702625E+03  0.00000000000E+00 0. -1.
          2    1    1    2  501    0  0.12371883719E+02 -0.20962227081E+02 -0.12180510731E+03  0.12421337544E+03  0.00000000000E+00 0. -1.
          2    1    1    2  502    0 -0.12371883719E+02  0.20962227081E+02  0.12567031851E+03  0.12800588825E+03  0.00000000000E+00 0.  1.
</event>
<event>
 4    1  0.6089441E+003  0.2420632E+02  0.7546771E-02  0.1477881E+00
          2   -1    0    0  502    0  0.00000000000E+00  0.00000000000E+00  0.93835093101E+03  0.93835093101E+03  0.00000000000E+00 0. -1.
          2   -1    0    0  501    0 -0.00000000000E+00 -0.00000000000E+00 -0.12738330286E+03  0.12738330286E+03  0.00000000000E+00 0.  1.
          2    1    1    2  501    0  0.16024234408E+02  0.18143042379E+02  0.93704324946E+03  0.93735585421E+03  0.00000000000E+00 0. -1.
          2    1    1    2  502    0 -0.16024234408E+02 -0.18143042379E+02 -0.12607562131E+03  0.12837837966E+03  0.00000000000E+00 0.  1.
</event>
<event>
 4    1  0.6089441E+003  0.3822944E+02  0.7546771E-02  0.1359186E+00
          2   -1    0    0  501    0  0.00000000000E+00  0.00000000000E+00  0.54005387619E+02  0.54005387619E+02  0.00000000000E+00 0. -1.
          2   -1    0    0  502    0 -0.00000000000E+00 -0.00000000000E+00 -0.12555249418E+04  0.12555249418E+04  0.00000000000E+00 0. -1.
          2    1    1    2  501    0 -0.74878961236E+01  0.37488952960E+02 -0.12484300070E+04  0.12490152011E+04  0.00000000000E+00 0. -1.
          2    1    1    2  502    0  0.74878961236E+01 -0.37488952960E+02  0.46910452774E+02  0.60515128372E+02  0.00000000000E+00 0. -1.
</event>
<event>
 4    1  0.6089441E+003  0.2090246E+02  0.7546771E-02  0.1520662E+00
          2   -1    0    0  502    0  0.00000000000E+00  0.00000000000E+00  0.42925056058E+03  0.42925056058E+03  0.00000000000E+00 0. -1.
          2   -1    0    0  501    0 -0.00000000000E+00 -0.00000000000E+00 -0.41471797303E+02  0.41471797303E+02  0.00000000000E+00 0.  1.
          2    1    1    2  501    0 -0.15294079735E+02  0.14247945567E+02  0.42634436050E+03  0.42685644725E+03  0.00000000000E+00 0. -1.
          2    1    1    2  502    0  0.15294079735E+02 -0.14247945567E+02 -0.38565597215E+02  0.43865910641E+02  0.00000000000E+00 0.  1.
</event>
<event>
 4    1  0.6089441E+003  0.3034877E+02  0.7546771E-02  0.1416589E+00
          2   -1    0    0  501    0  0.00000000000E+00  0.00000000000E+00  0.32392710747E+02  0.32392710747E+02  0.00000000000E+00 0. -1.
          2   -1    0    0  502    0 -0.00000000000E+00 -0.00000000000E+00 -0.61941488035E+02  0.61941488035E+02  0.00000000000E+00 0. -1.
          2    1    1    2  501    0  0.88256252507E+01 -0.29037156452E+02 -0.49465685288E+02  0.58033629362E+02  0.00000000000E+00 0. -1.
          2    1    1    2  502    0 -0.88256252507E+01  0.29037156452E+02  0.19916908000E+02  0.36300569420E+02  0.00000000000E+00 0. -1.
</event>
<event>
 4    1  0.6138595E+003  0.3524820E+02  0.7546771E-02  0.1378827E+00
          2   -1    0    0  501    0  0.00000000000E+00  0.00000000000E+00  0.18687372549E+04  0.18687372549E+04  0.00000000000E+00 0.  1.
          2   -1    0    0  502    0 -0.00000000000E+00 -0.00000000000E+00 -0.45965139809E+03  0.45965139809E+03  0.00000000000E+00 0.  1.
          2    1    1    2  501    0  0.19321979761E+02  0.29480442548E+02 -0.45880913145E+03  0.46016111798E+03  0.00000000000E+00 0.  1.
          2    1    1    2  502    0 -0.19321979761E+02 -0.29480442548E+02  0.18678949882E+04  0.18682275350E+04  0.00000000000E+00 0.  1.
</event>
<event>
 4    1  0.6089441E+003  0.2597522E+02  0.7546771E-02  0.1458183E+00
          2   -1    0    0  502    0  0.00000000000E+00  0.00000000000E+00  0.98185477459E+00  0.98185477459E+00  0.00000000000E+00 0. -1.
          2   -1    0    0  501    0 -0.00000000000E+00 -0.00000000000E+00 -0.15933541168E+04  0.15933541168E+04  0.00000000000E+00 0. -1.
          2    1    1    2  501    0  0.22308484685E+02 -0.13305781587E+02 -0.19501351034E+03  0.19673581659E+03  0.00000000000E+00 0. -1.
          2    1    1    2  502    0 -0.22308484685E+02  0.13305781587E+02 -0.13973587517E+04  0.13976001550E+04  0.00000000000E+00 0. -1.
</event>
<event>
 4    1  0.6089441E+003  0.2740117E+02  0.7546771E-02  0.1443619E+00
          2   -1    0    0  501    0  0.00000000000E+00  0.00000000000E+00  0.98502649374E+02  0.98502649374E+02  0.00000000000E+00 0. -1.
          2   -1    0    0  502    0 -0.00000000000E+00 -0.00000000000E+00 -0.49067448748E+03  0.49067448748E+03  0.00000000000E+00 0. -1.
          2    1    1    2  501    0  0.24062421419E+02 -0.13108175497E+02 -0.48837739001E+03  0.48914547883E+03  0.00000000000E+00 0. -1.
          2    1    1    2  502    0 -0.24062421419E+02  0.13108175497E+02  0.96205551904E+02  0.10003165802E+03  0.00000000000E+00 0. -1.
</event>
<event>
 4    1  0.6089441E+003  0.2957038E+02  0.7546771E-02  0.1423367E+00
          2   -1    0    0  501    0  0.00000000000E+00  0.00000000000E+00  0.37561555630E+02  0.37561555630E+02  0.00000000000E+00 0. -1.
          2   -1    0    0  502    0 -0.00000000000E+00 -0.00000000000E+00 -0.19860134348E+03  0.19860134348E+03  0.00000000000E+00 0. -1.
          2    1    1    2  501    0 -0.23078977446E+02  0.18486973365E+02 -0.19146517250E+03  0.19373517921E+03  0.00000000000E+00 0. -1.
          2    1    1    2  502    0  0.23078977446E+02 -0.18486973365E+02  0.30425384652E+02  0.42427719894E+02  0.00000000000E+00 0. -1.
</event>
<event>
 4    1  0.6089441E+003  0.2839972E+02  0.7546771E-02  0.1434033E+00
          2   -1    0    0  502    0  0.00000000000E+00  0.00000000000E+00  0.10735038230E+01  0.10735038230E+01  0.00000000000E+00 0.  1.
          2   -1    0    0  501    0 -0.00000000000E+00 -0.00000000000E+00 -0.11421415537E+04  0.11421415537E+04  0.00000000000E+00 0.  1.
          2    1    1    2  501    0  0.24131325429E+01  0.28297010233E+02 -0.23616372784E+03  0.23786519364E+03  0.00000000000E+00 0.  1.
          2    1    1    2  502    0 -0.24131325429E+01 -0.28297010233E+02 -0.90490432203E+03  0.90534986388E+03  0.00000000000E+00 0.  1.
</event>
<event>
 4    1  0.6089441E+003  0.3217492E+02  0.7546771E-02  0.1401592E+00
          2   -1    0    0  502    0  0.00000000000E+00  0.00000000000E+00  0.76717906770E+03  0.76717906770E+03  0.00000000000E+00 0. -1.
          2   -1    0    0  501    0 -0.00000000000E+00 -0.00000000000E+00 -0.45420236472E+01  0.45420236472E+01  0.00000000000E+00 0. -1.
          2    1    1    2  501    0  0.30027051818E+02  0.11558610188E+02  0.70482284208E+03  0.70555684677E+03  0.00000000000E+00 0. -1.
          2    1    1    2  502    0 -0.30027051818E+02 -0.11558610188E+02  0.57814201973E+02  0.66164244575E+02  0.00000000000E+00 0. -1.
</event>
<event>
 4    1  0.6089441E+003  0.3441575E+02  0.7546771E-02  0.1384718E+00
          2   -1    0    0  502    0  0.00000000000E+00  0.00000000000E+00  0.28204531261E+01  0.28204531261E+01  0.00000000000E+00 0.  1.
          2   -1    0    0  501    0 -0.00000000000E+00 -0.00000000000E+00 -0.20969708363E+04  0.20969708363E+04  0.00000000000E+00 0. -1.
          2    1    1    2  501    0  0.20201472185E+02 -0.27862961327E+02 -0.10817504517E+03  0.11351777169E+03  0.00000000000E+00 0.  1.
          2    1    1    2  502    0 -0.20201472185E+02  0.27862961327E+02 -0.19859753380E+04  0.19862735177E+04  0.00000000000E+00 0. -1.
</event>
<event>
 4    1  0.6089441E+003  0.4301764E+02  0.7546771E-02  0.1331655E+00
          2   -1    0    0  501    0  0.00000000000E+00  0.00000000000E+00  0.21268049667E+01  0.21268049667E+01  0.00000000000E+00 0. -1.
          2   -1    0    0  502    0 -0.00000000000E+00 -0.00000000000E+00 -0.17640427664E+04  0.17640427664E+04  0.00000000000E+00 0. -1.
          2    1    1    2  501    0 -0.41433960929E+02  0.11564799609E+02 -0.15096015128E+04  0.15102143044E+04  0.00000000000E+00 0. -1.
          2    1    1    2  502    0  0.41433960929E+02 -0.11564799609E+02 -0.25231444857E+03  0.25595526692E+03  0.00000000000E+00 0. -1.
</event>
<event>
 4    1  0.6089441E+003  0.2413652E+02  0.7546771E-02  0.1478699E+00
          2   -1    0    0  501    0  0.00000000000E+00  0.00000000000E+00  0.81249182605E+01  0.81249182605E+01  0.00000000000E+00 0. -1.
          2   -1    0    0  502    0 -0.00000000000E+00 -0.00000000000E+00 -0.55601642228E+03  0.55601642228E+03  0.00000000000E+00 0. -1.
          2    1    1    2  501    0  0.23688386188E+02  0.46294698347E+01 -0.53720151759E+03  0.53774347243E+03  0.00000000000E+00 0. -1.
          2    1    1    2  502    0 -0.23688386188E+02 -0.46294698347E+01 -0.10689986423E+02  0.26397868112E+02  0.00000000000E+00 0. -1.
</event>
<event>
 4    1  0.6089441E+003  0.2590339E+02  0.7546771E-02  0.1458946E+00
          2   -1    0    0  501    0  0.00000000000E+00  0.00000000000E+00  0.32979242312E+03  0.32979242312E+03  0.00000000000E+00 0.  1.
          2   -1    0    0  502    0 -0.00000000000E+00 -0.00000000000E+00 -0.23410934860E+01  0.23410934860E+01  0.00000000000E+00 0.  1.
          2    1    1    2  501    0  0.33985515089E+01 -0.25679479155E+02  0.10363525863E+03  0.10682346480E+03  0.00000000000E+00 0.  1.
          2    1    1    2  502    0 -0.33985515089E+01  0.25679479155E+02  0.22381607101E+03  0.22531005180E+03  0.00000000000E+00 0.  1.
</event>
<event>
 4    1  0.6089441E+003  0.2898129E+02  0.7546771E-02  0.1428660E+00
          2   -1    0    0  502    0  0.00000000000E+00  0.00000000000E+00  0.24305436705E+03  0.24305436705E+03  0.00000000000E+00 0.  1.
          2   -1    0    0  501    0 -0.00000000000E+00 -0.00000000000E+00 -0.80902821202E+01  0.80902821202E+01  0.00000000000E+00 0. -1.
          2    1    1    2  501    0 -0.13585038012E+02  0.25600037694E+02  0.21252477041E+03  0.21449170899E+03  0.00000000000E+00 0.  1.
          2    1    1    2  502    0  0.13585038012E+02 -0.25600037694E+02  0.22439314519E+02  0.36652940180E+02  0.00000000000E+00 0. -1.
</event>
<event>
 4    1  0.6089441E+003  0.2908706E+02  0.7546771E-02  0.1427699E+00
          2   -1    0    0  502    0  0.00000000000E+00  0.00000000000E+00  0.43664254346E+03  0.43664254346E+03  0.00000000000E+00 0.  1.
          2   -1    0    0  501    0 -0.00000000000E+00 -0.00000000000E+00 -0.23447864890E+03  0.23447864890E+03  0.00000000000E+00 0. -1.
          2    1    1    2  501    0  0.17974752940E+02 -0.22868432577E+02  0.43525319491E+03  0.43622402574E+03  0.00000000000E+00 0.  1.
          2    1    1    2  502    0 -0.17974752940E+02  0.22868432577E+02 -0.23308930034E+03  0.23489716662E+03  0.00000000000E+00 0. -1.
</event>
<event>
 4    1  0.6089441E+003  0.2070992E+02  0.7546771E-02  0.1523447E+00
          2   -1    0    0  502    0  0.00000000000E+00  0.00000000000E+00  0.20626059142E+03  0.20626059142E+03  0.00000000000E+00 0. -1.
          2   -1    0    0  501    0 -0.00000000000E+00 -0.00000000000E+00 -0.60835078762E+02  0.60835078762E+02  0.00000000000E+00 0. -1.
          2    1    1    2  501    0  0.12606633270E+02  0.16430873873E+02  0.20395833834E+03  0.20500708426E+03  0.00000000000E+00 0. -1.
          2    1    1    2  502    0 -0.12606633270E+02 -0.16430873873E+02 -0.58532825685E+02  0.62088585918E+02  0.00000000000E+00 0. -1.
</event>
<event>
 4    1  0.6089441E+003  0.8908548E+02  0.7546771E-02  0.1184195E+00
          2   -1    0    0  501    0  0.00000000000E+00  0.00000000000E+00  0.14468425392E+03  0.14468425392E+03  0.00000000000E+00 0.  1.
          2   -1    0    0  502    0 -0.00000000000E+00 -0.00000000000E+00 -0.45872047125E+03  0.45872047125E+03  0.00000000000E+00 0.  1.
          2    1    1    2  501    0 -0.62168360979E+02 -0.63806878520E+02 -0.44010816668E+03  0.44903387537E+03  0.00000000000E+00 0.  1.
          2    1    1    2  502    0  0.62168360979E+02  0.63806878520E+02  0.12607194935E+03  0.15437084979E+03  0.00000000000E+00 0.  1.
</event>
<event>
 4    1  0.6089441E+003  0.5080393E+02  0.7546771E-02  0.1294724E+00
          2   -1    0    0  501    0  0.00000000000E+00  0.00000000000E+00  0.20737756376E+03  0.20737756376E+03  0.00000000000E+00 0. -1.
          2   -1    0    0  502    0 -0.00000000000E+00 -0.00000000000E+00 -0.35162471054E+04  0.35162471054E+04  0.00000000000E+00 0. -1.
          2    1    1    2  501    0  0.13988372460E+02  0.48840192503E+02 -0.35129491549E+04  0.35133164964E+04  0.00000000000E+00 0. -1.
          2    1    1    2  502    0 -0.13988372460E+02 -0.48840192503E+02  0.20407961328E+03  0.21030817274E+03  0.00000000000E+00 0. -1.
</event>
<event>
 4    1  0.6089441E+003  0.3708631E+02  0.7546771E-02  0.1366461E+00
          2   -1    0    0  502    0  0.00000000000E+00  0.00000000000E+00  0.24256569203E+02  0.24256569203E+02  0.00000000000E+00 0. -1.
          2   -1    0    0  501    0 -0.00000000000E+00 -0.00000000000E+00 -0.64601960248E+03  0.64601960248E+03  0.00000000000E+00 0. -1.
          2    1    1    2  501    0  0.34758144532E+02  0.12933130311E+02  0.92111071905E+01  0.38213073243E+02  0.00000000000E+00 0. -1.
          2    1    1    2  502    0 -0.34758144532E+02 -0.12933130311E+02 -0.63097414047E+03  0.63206309844E+03  0.00000000000E+00 0. -1.
</event>
<event>
 4    1  0.6089441E+003  0.2070671E+02  0.7546771E-02  0.1523494E+00
          2   -1    0    0  502    0  0.00000000000E+00  0.00000000000E+00  0.54419929530E+03  0.54419929530E+03  0.00000000000E+00 0. -1.
          2   -1    0    0  501    0 -0.00000000000E+00 -0.00000000000E+00 -0.10472466873E+03  0.10472466873E+03  0.00000000000E+00 0. -1.
          2    1    1    2  501    0 -0.19968776315E+02  0.54786591577E+01  0.54297645961E+03  0.54337114703E+03  0.00000000000E+00 0. -1.
          2    1    1    2  502    0  0.19968776315E+02 -0.54786591577E+01 -0.10350183304E+03  0.10555281700E+03  0.00000000000E+00 0. -1.
</event>
<event>
 4    1  0.6089441E+003  0.7500575E+02  0.7546771E-02  0.1215942E+00
          2   -1    0    0  501    0  0.00000000000E+00  0.00000000000E+00  0.91851347345E+03  0.91851347345E+03  0.00000000000E+00 0.  1.
          2   -1    0    0  502    0 -0.00000000000E+00 -0.00000000000E+00 -0.63492194195E+03  0.63492194195E+03  0.00000000000E+00 0.  1.
          2    1    1    2  501    0 -0.69009281652E+02  0.29386763260E+02 -0.63116644271E+03  0.63560753710E+03  0.00000000000E+00 0.  1.
          2    1    1    2  502    0  0.69009281652E+02 -0.29386763260E+02  0.91475797421E+03  0.91782787830E+03  0.00000000000E+00 0.  1.
</event>
<event>
 4    1  0.6089441E+003  0.4556680E+02  0.7546771E-02  0.1318629E+00
          2   -1    0    0  501    0  0.00000000000E+00  0.00000000000E+00  0.90996119056E+03  0.90996119056E+03  0.00000000000E+00 0.  1.
          2   -1    0    0  502    0 -0.00000000000E+00 -0.00000000000E+00 -0.90209997596E+01  0.90209997596E+01  0.00000000000E+00 0.  1.
          2    1    1    2  501    0 -0.74152323357E+01 -0.44959395413E+02  0.53320143677E+02  0.70138225158E+02  0.00000000000E+00 0.  1.
          2    1    1    2  502    0  0.74152323357E+01  0.44959395413E+02  0.84762004712E+03  0.84884396516E+03  0.00000000000E+00 0.  1.
</event>
<event>
 4    1  0.6089441E+003  0.2183262E+02  0.7546771E-02  0.1507701E+00
          2   -1    0    0  501    0  0.00000000000E+00  0.00000000000E+00  0.75339249127E+02  0.75339249127E+02  0.00000000000E+00 0.  1.
          2   -1    0    0  502    0 -0.00000000000E+00 -0.00000000000E+00 -0.46335479079E+03  0.46335479079E+03  0.00000000000E+00 0. -1.
          2    1    1    2  501    0 -0.63027424661E+01  0.20903078066E+02 -0.46150956693E+03  0.46202569582E+03  0.00000000000E+00 0. -1.
          2    1    1    2  502    0  0.63027424661E+01 -0.20903078066E+02  0.73494025269E+02  0.76668344090E+02  0.00000000000E+00 0.  1.
</event>
<event>
 4    1  0.6089441E+003  0.2730743E+02  0.7546771E-02  0.1444544E+00
          2   -1    0    0  502    0  0.00000000000E+00  0.00000000000E+00  0.13962402988E+03  0.13962402988E+03  0.00000000000E+00 0. -1.
          2   -1    0    0  501    0 -0.00000000000E+00 -0.00000000000E+00 -0.39496217885E+03  0.39496217885E+03  0.00000000000E+00 0.  1.
          2    1    1    2  501    0 -0.27307176036E+02  0.11689905956E+00  0.13781068976E+03  0.14049014820E+03  0.00000000000E+00 0. -1.
          2    1    1    2  502    0  0.27307176036E+02 -0.11689905956E+00 -0.39314883873E+03  0.39409606053E+03  0.00000000000E+00 0.  1.
</event>
<event>
 4    1  0.6089441E+003  0.2133074E+02  0.7546771E-02  0.1514595E+00
          2   -1    0    0  502    0  0.00000000000E+00  0.00000000000E+00  0.64440980088E+02  0.64440980088E+02  0.00000000000E+00 0.  1.
          2   -1    0    0  501    0 -0.00000000000E+00 -0.00000000000E+00 -0.10591452877E+04  0.10591452877E+04  0.00000000000E+00 0. -1.
          2    1    1    2  501    0 -0.17084988128E+02  0.12771197574E+02  0.62565268501E+02  0.66101536513E+02  0.00000000000E+00 0.  1.
          2    1    1    2  502    0  0.17084988128E+02 -0.12771197574E+02 -0.10572695761E+04  0.10574847312E+04  0.00000000000E+00 0. -1.
</event>
<event>
 4    1  0.6089441E+003  0.3348616E+02  0.7546771E-02  0.1391530E+00
          2   -1    0    0  502    0  0.00000000000E+00  0.00000000000E+00  0.15345435050E+02  0.15345435050E+02  0.00000000000E+00 0.  1.
          2   -1    0    0  501    0 -0.00000000000E+00 -0.00000000000E+00 -0.39785496060E+03  0.39785496060E+03  0.00000000000E+00 0.  1.
          2    1    1    2  501    0 -0.98379781949E+01 -0.32008394186E+02 -0.45889017499E+01  0.33799129169E+02  0.00000000000E+00 0.  1.
          2    1    1    2  502    0  0.98379781949E+01  0.32008394186E+02 -0.37792062380E+03  0.37940126648E+03  0.00000000000E+00 0.  1.
</event>
<event>
 4    1  0.6089441E+003  0.2169861E+02  0.7546771E-02  0.1509520E+00
          2   -1    0    0  502    0  0.00000000000E+00  0.00000000000E+00  0.15592454123E+03  0.15592454123E+03  0.00000000000E+00 0. -1.
          2   -1    0    0  501    0 -0.00000000000E+00 -0.00000000000E+00 -0.41618873824E+02  0.41618873824E+02  0.00000000000E+00 0.  1.
          2    1    1    2  501    0  0.18885669583E+01 -0.21616262990E+02  0.15227395807E+03  0.15381218358E+03  0.00000000000E+00 0. -1.
          2    1    1    2  502    0 -0.18885669583E+01  0.21616262990E+02 -0.37968290662E+02  0.43731231478E+02  0.00000000000E+00 0.  1.
</event>
<event>
 4    1  0.6089441E+003  0.2538790E+02  0.7546771E-02  0.1464510E+00
          2   -1    0    0  502    0  0.00000000000E+00  0.00000000000E+00  0.63530004854E+03  0.63530004854E+03  0.00000000000E+00 0.  1.
          2   -1    0    0  501    0 -0.00000000000E+00 -0.00000000000E+00 -0.35244408477E+03  0.35244408477E+03  0.00000000000E+00 0. -1.
          2    1    1    2  501    0  0.17998348753E+02  0.17905442196E+02  0.63458870112E+03  0.63509634309E+03  0.00000000000E+00 0.  1.
          2    1    1    2  502    0 -0.17998348753E+02 -0.17905442196E+02 -0.35173273736E+03  0.35264779022E+03  0.00000000000E+00 0. -1.
</event>
<event>
 4    1  0.6089441E+003  0.2295659E+02  0.7546771E-02  0.1493044E+00
          2   -1    0    0  501    0  0.00000000000E+00  0.00000000000E+00  0.80052710379E+01  0.80052710379E+01  0.00000000000E+00 0. -1.
          2   -1    0    0  502    0 -0.00000000000E+00 -0.00000000000E+00 -0.82583522027E+02  0.82583522027E+02  0.00000000000E+00 0. -1.
          2    1    1    2  501    0  0.15231952494E+02 -0.17175352897E+02 -0.57688717398E+02  0.62088591859E+02  0.00000000000E+00 0. -1.
          2    1    1    2  502    0 -0.15231952494E+02  0.17175352897E+02 -0.16889533591E+02  0.28500201207E+02  0.00000000000E+00 0. -1.
</event>
<event>
 4    1  0.6089441E+003  0.4305502E+02  0.7546771E-02  0.1331457E+00
          2   -1    0    0  502    0  0.00000000000E+00  0.00000000000E+00  0.67122523309E+02  0.67122523309E+02  0.00000000000E+00 0.  1.
          2   -1    0    0  501    0 -0.00000000000E+00 -0.00000000000E+00 -0.43376895956E+02  0.43376895956E+02  0.00000000000E+00 0. -1.
          2    1    1    2  501    0 -0.13211708648E+01 -0.43034746150E+02  0.45175168599E+02  0.62406175388E+02  0.00000000000E+00 0.  1.
          2    1    1    2  502    0  0.13211708648E+01  0.43034746150E+02 -0.21429541246E+02  0.48093243877E+02  0.00000000000E+00 0. -1.
</event>
<event>
 4    1  0.6089441E+003  0.2106937E+02  0.7546771E-02  0.1518277E+00
          2   -1    0    0  502    0  0.00000000000E+00  0.00000000000E+00  0.10333364325E+04  0.10333364325E+04  0.00000000000E+00 0. -1.
          2   -1    0    0  501    0 -0.00000000000E+00 -0.00000000000E+00 -0.56300771089E+01  0.56300771089E+01  0.00000000000E+00 0.  1.
          2    1    1    2  501    0 -0.12151986197E+02  0.17211848564E+02  0.10131238897E+04  0.10133429500E+04  0.00000000000E+00 0. -1.
          2    1    1    2  502    0  0.12151986197E+02 -0.17211848564E+02  0.14582465681E+02  0.25623559566E+02  0.00000000000E+00 0.  1.
</event>
<event>
 4    1  0.6089441E+003  0.2123477E+02  0.7546771E-02  0.1515939E+00
          2   -1    0    0  501    0  0.00000000000E+00  0.00000000000E+00  0.85485691422E+03  0.85485691422E+03  0.00000000000E+00 0. -1.
          2   -1    0    0  502    0 -0.00000000000E+00 -0.00000000000E+00 -0.55636037000E+00  0.55636037000E+00  0.00000000000E+00 0. -1.
          2    1    1    2  501    0  0.65523785079E+01  0.20198560473E+02  0.52460617056E+03  0.52503576040E+03  0.00000000000E+00 0. -1.
          2    1    1    2  502    0 -0.65523785079E+01 -0.20198560473E+02  0.32969438329E+03  0.33037751419E+03  0.00000000000E+00 0. -1.
</event>
<event>
 4    1  0.6089441E+003  0.3026191E+02  0.7546771E-02  0.1417334E+00
          2   -1    0    0  502    0  0.00000000000E+00  0.00000000000E+00  0.34853865270E+03  0.34853865270E+03  0.00000000000E+00 0. -1.
          2   -1    0    0  501    0 -0.00000000000E+00 -0.00000000000E+00 -0.47838649497E+01  0.47838649497E+01  0.00000000000E+00 0. -1.
          2    1    1    2  501    0 -0.43423692872E+01  0.29948744275E+02  0.29048527114E+03  0.29205731664E+03  0.00000000000E+00 0. -1.
          2    1    1    2  502    0  0.43423692872E+01 -0.29948744275E+02  0.53269516612E+02  0.61265201010E+02  0.00000000000E+00 0. -1.
</event>
<event>
 4    1  0.6089441E+003  0.2210525E+02  0.7546771E-02  0.1504050E+00
          2   -1    0    0  502    0  0.00000000000E+00  0.00000000000E+00  0.68554489558E+03  0.68554489558E+03  0.00000000000E+00 0. -1.
          2   -1    0    0  501    0 -0.00000000000E+00 -0.00000000000E+00 -0.19140880167E+02  0.19140880167E+02  0.00000000000E+00 0. -1.
          2    1    1    2  501    0  0.17006369868E+02  0.14121807617E+02  0.67892228308E+03  0.67928205373E+03  0.00000000000E+00 0. -1.
          2    1    1    2  502    0 -0.17006369868E+02 -0.14121807617E+02 -0.12518267669E+02  0.25403722008E+02  0.00000000000E+00 0. -1.
</event>
<event>
 4    1  0.6089441E+003  0.2141322E+02  0.7546771E-02  0.1513446E+00
          2   -1    0    0  501    0  0.00000000000E+00  0.00000000000E+00  0.21860534505E+03  0.21860534505E+03  0.00000000000E+00 0. -1.
          2   -1    0    0  502    0 -0.00000000000E+00 -0.00000000000E+00 -0.11328777436E+02  0.11328777436E+02  0.00000000000E+00 0.  1.
          2    1    1    2  501    0 -0.20866604768E+02 -0.48073637373E+01 -0.14147982512E+00  0.21413686212E+02  0.00000000000E+00 0.  1.
          2    1    1    2  502    0  0.20866604768E+02  0.48073637373E+01  0.20741804744E+03  0.20852043627E+03  0.00000000000E+00 0. -1.
</event>
<event>
 4    1  0.6089441E+003  0.3970111E+02  0.7546771E-02  0.1350246E+00
          2   -1    0    0  502    0  0.00000000000E+00  0.00000000000E+00  0.26520402214E+02  0.26520402214E+02  0.00000000000E+00 0.  1.
          2   -1    0    0  501    0 -0.00000000000E+00 -0.00000000000E+00 -0.62704643277E+03  0.62704643277E+03  0.00000000000E+00 0.  1.
          2    1    1    2  501    0 -0.15883479751E+02  0.36385341026E+02  0.10648368041E+02  0.41104327175E+02  0.00000000000E+00 0.  1.
          2    1    1    2  502    0  0.15883479751E+02 -0.36385341026E+02 -0.61117439860E+03  0.61246250781E+03  0.00000000000E+00 0.  1.
</event>
<event>
 4    1  0.6089441E+003  0.2517837E+02  0.7546771E-02  0.1466818E+00
          2   -1    0    0  502    0  0.00000000000E+00  0.00000000000E+00  0.21061424782E+03  0.21061424782E+03  0.00000000000E+00 0.  1.
          2   -1    0    0  501    0 -0.00000000000E+00 -0.00000000000E+00 -0.10396038274E+02  0.10396038274E+02  0.00000000000E+00 0.  1.
          2    1    1    2  501    0 -0.23242825701E+02  0.96809741186E+01  0.19325294700E+03  0.19488625332E+03  0.00000000000E+00 0.  1.
          2    1    1    2  502    0  0.23242825701E+02 -0.96809741186E+01  0.69652625465E+01  0.26124032782E+02  0.00000000000E+00 0.  1.
</event>
<event>
 4    1  0.6089441E+003  0.2722491E+02  0.7546771E-02  0.1445362E+00
          2   -1    0    0  502    0  0.00000000000E+00  0.00000000000E+00  0.31932225007E+01  0.31932225007E+01  0.00000000000E+00 0. -1.
          2   -1    0    0  501    0 -0.00000000000E+00 -0.00000000000E+00 -0.11383162014E+04  0.11383162014E+04  0.00000000000E+00 0.  1.
          2    1    1    2  501    0  0.12449367524E+02  0.24211748352E+02 -0.58312338502E+02  0.64354676066E+02  0.00000000000E+00 0. -1.
          2    1    1    2  502    0 -0.12449367524E+02 -0.24211748352E+02 -0.10768106404E+04  0.10771547479E+04  0.00000000000E+00 0.  1.
</event>
<event>
 4    1  0.6089441E+003  0.2453243E+02  0.7546771E-02  0.1474103E+00
          2   -1    0    0  502    0  0.00000000000E+00  0.00000000000E+00  0.34894944209E+01  0.34894944209E+01  0.00000000000E+00 0. -1.
          2   -1    0    0  501    0 -0.00000000000E+00 -0.00000000000E+00 -0.11726070878E+04  0.11726070878E+04  0.00000000000E+00 0.  1.
          2    1    1    2  501    0 -0.14503986001E+02  0.19785713892E+02 -0.41475974021E+02  0.48188136560E+02  0.00000000000E+00 0. -1.
          2    1    1    2  502    0  0.14503986001E+02 -0.19785713892E+02 -0.11276416194E+04  0.11279084457E+04  0.00000000000E+00 0.  1.
</event>
<event>
 4    1  0.6089441E+003  0.2560195E+02  0.7546771E-02  0.1462181E+00
          2   -1    0    0  501    0  0.00000000000E+00  0.00000000000E+00  0.33863648437E+02  0.33863648437E+02  0.00000000000E+00 0.  1.
          2   -1    0    0  502    0 -0.00000000000E+00 -0.00000000000E+00 -0.17679136465E+03  0.17679136465E+03  0.00000000000E+00 0.  1.
          2    1    1    2  501    0  0.14394190306E+02  0.21172322200E+02 -0.17085841988E+03  0.17276590979E+03  0.00000000000E+00 0.  1.
          2    1    1    2  502    0 -0.14394190306E+02 -0.21172322200E+02  0.27930703662E+02  0.37889103301E+02  0.00000000000E+00 0.  1.
</event>
<event>
 4    1  0.6089441E+003  0.2751037E+02  0.7546771E-02  0.1442548E+00
          2   -1    0    0  501    0  0.00000000000E+00  0.00000000000E+00  0.14119745645E+03  0.14119745645E+03  0.00000000000E+00 0. -1.
          2   -1    0    0  502    0 -0.00000000000E+00 -0.00000000000E+00 -0.19425312165E+03  0.19425312165E+03  0.00000000000E+00 0.  1.
          2    1    1    2  501    0  0.85550843900E+01 -0.26146333800E+02 -0.19192291864E+03  0.19388457117E+03  0.00000000000E+00 0.  1.
          2    1    1    2  502    0 -0.85550843900E+01  0.26146333800E+02  0.13886725344E+03  0.14156600693E+03  0.00000000000E+00 0. -1.
</event>
<event>
 4    1  0.6089441E+003  0.2224811E+02  0.7546771E-02  0.1502162E+00
          2   -1    0    0  502    0  0.00000000000E+00  0.00000000000E+00  0.12810843665E+04  0.12810843665E+04  0.00000000000E+00 0. -1.
          2   -1    0    0  501    0 -0.00000000000E+00 -0.00000000000E+00 -0.17567973507E+01  0.17567973507E+01  0.00000000000E+00 0. -1.
          2    1    1    2  501    0  0.54694955239E+01 -0.21565317231E+02  0.12061761041E+04  0.12063812716E+04  0.00000000000E+00 0. -1.
          2    1    1    2  502    0 -0.54694955239E+01  0.21565317231E+02  0.73151464987E+02  0.76459892221E+02  0.00000000000E+00 0. -1.
</event>
<event>
 4    1  0.6089441E+003  0.6587424E+02  0.7546771E-02  0.1241082E+00
          2   -1    0    0  502    0  0.00000000000E+00  0.00000000000E+00  0.58771393962E+02  0.58771393962E+02  0.00000000000E+00 0. -1.
          2   -1    0    0  501    0 -0.00000000000E+00 -0.00000000000E+00 -0.74106860249E+02  0.74106860249E+02  0.00000000000E+00 0.  1.
          2    1    1    2  501    0  0.61102612654E+02  0.24614768818E+02 -0.36474546413E+01  0.65975147158E+02  0.00000000000E+00 0.  1.
          2    1    1    2  502    0 -0.61102612654E+02 -0.24614768818E+02 -0.11688011646E+02  0.66903107053E+02  0.00000000000E+00 0. -1.
</event>
<event>
 4    1  0.6089441E+003  0.3422299E+02  0.7546771E-02  0.1386110E+00
          2   -1    0    0  502    0  0.00000000000E+00  0.00000000000E+00  0.34462349157E+01  0.34462349157E+01  0.00000000000E+00 0. -1.
          2   -1    0    0  501    0 -0.00000000000E+00 -0.00000000000E+00 -0.65776932644E+03  0.65776932644E+03  0.00000000000E+00 0.  1.
          2    1    1    2  501    0 -0.29513173596E+02 -0.17325870722E+02 -0.97317800500E+02  0.10315991230E+03  0.00000000000E+00 0. -1.
          2    1    1    2  502    0  0.29513173596E+02  0.17325870722E+02 -0.55700529102E+03  0.55805564905E+03  0.00000000000E+00 0.  1.
</event>
<event>
 4    1  0.6089441E+003  0.2053533E+02  0.7546771E-02  0.1526004E+00
          2   -1    0    0  502    0  0.00000000000E+00  0.00000000000E+00  0.10351956084E+01  0.10351956084E+01  0.00000000000E+00 0.  1.
          2   -1    0    0  501    0 -0.00000000000E+00 -0.00000000000E+00 -0.55221515867E+03  0.55221515867E+03  0.00000000000E+00 0. -1.
          2    1    1    2  501    0  0.98240695046E+01 -0.18032953398E+02 -0.13391245904E+03  0.13547784481E+03  0.00000000000E+00 0.  1.
          2    1    1    2  502    0 -0.98240695046E+01  0.18032953398E+02 -0.41726750403E+03  0.41777250947E+03  0.00000000000E+00 0. -1.
</event>
<event>
 4    1  0.6089441E+003  0.4246554E+02  0.7546771E-02  0.1334613E+00
          2   -1    0    0  501    0  0.00000000000E+00  0.00000000000E+00  0.95058123979E+02  0.95058123979E+02  0.00000000000E+00 0. -1.
          2   -1    0    0  502    0 -0.00000000000E+00 -0.00000000000E+00 -0.69747141740E+03  0.69747141740E+03  0.00000000000E+00 0. -1.
          2    1    1    2  501    0 -0.70874147677E+01  0.41869930158E+02 -0.69204520329E+03  0.69334687271E+03  0.00000000000E+00 0. -1.
          2    1    1    2  502    0  0.70874147677E+01 -0.41869930158E+02  0.89631909864E+02  0.99182668675E+02  0.00000000000E+00 0. -1.
</event>
<event>
 4    1  0.6089441E+003  0.3036696E+02  0.7546771E-02  0.1416434E+00
          2   -1    0    0  501    0  0.00000000000E+00  0.00000000000E+00  0.10579042564E+04  0.10579042564E+04  0.00000000000E+00 0. -1.
          2   -1    0    0  502    0 -0.00000000000E+00 -0.00000000000E+00 -0.25519103614E+01  0.25519103614E+01  0.00000000000E+00 0.  1.
          2    1    1    2  501    0 -0.30366432003E+02 -0.17856131890E+00  0.97432328640E+02  0.10205493982E+03  0.00000000000E+00 0.  1.
          2    1    1    2  502    0  0.30366432003E+02  0.17856131890E+00  0.95792001743E+03  0.95840122698E+03  0.00000000000E+00 0. -1.
</event>
<event>
 4    1  0.6089441E+003  0.2491807E+02  0.7546771E-02  0.1469722E+00
          2   -1    0    0  501    0  0.00000000000E+00  0.00000000000E+00  0.99247955685E+02  0.99247955685E+02  0.00000000000E+00 0. -1.
          2   -1    0    0  502    0 -0.00000000000E+00 -0.00000000000E+00 -0.69457748203E+01  0.69457748203E+01  0.00000000000E+00 0. -1.
          2    1    1    2  501    0  0.12653088931E+02  0.21466476673E+02  0.29420379500E+02  0.38554753406E+02  0.00000000000E+00 0. -1.
          2    1    1    2  502    0 -0.12653088931E+02 -0.21466476673E+02  0.62881801364E+02  0.67638977099E+02  0.00000000000E+00 0. -1.
</event>
<event>
 4    1  0.6089441E+003  0.2047866E+02  0.7546771E-02  0.1526840E+00
          2   -1    0    0  502    0  0.00000000000E+00  0.00000000000E+00  0.11724994478E+03  0.11724994478E+03  0.00000000000E+00 0. -1.
          2   -1    0    0  501    0 -0.00000000000E+00 -0.00000000000E+00 -0.19336938016E+02  0.19336938016E+02  0.00000000000E+00 0. -1.
          2    1    1    2  501    0  0.93895246015E+01  0.18199242800E+02  0.11061112300E+03  0.11249087137E+03  0.00000000000E+00 0. -1.
          2    1    1    2  502    0 -0.93895246015E+01 -0.18199242800E+02 -0.12698116234E+02  0.24096011426E+02  0.00000000000E+00 0. -1.
</event>
<event>
 4    1  0.6089441E+003  0.2671823E+02  0.7546771E-02  0.1450459E+00
          2   -1    0    0  502    0  0.00000000000E+00  0.00000000000E+00  0.14343633689E+04  0.14343633689E+04  0.00000000000E+00 0. -1.
          2   -1    0    0  501    0 -0.00000000000E+00 -0.00000000000E+00 -0.22090422522E+01  0.22090422522E+01  0.00000000000E+00 0. -1.
          2    1    1    2  501    0  0.21903478446E+02  0.15300381821E+02  0.13482933288E+04  0.13485580315E+04  0.00000000000E+00 0. -1.
          2    1    1    2  502    0 -0.21903478446E+02 -0.15300381821E+02  0.83860997897E+02  0.88014379622E+02  0.00000000000E+00 0. -1.
</event>
<event>
 4    1  0.6089441E+003  0.2250376E+02  0.7546771E-02  0.1498825E+00
          2   -1    0    0  501    0  0.00000000000E+00  0.00000000000E+00  0.13774886185E+03  0.13774886185E+03  0.00000000000E+00 0.  1.
          2   -1    0    0  502    0 -0.00000000000E+00 -0.00000000000E+00 -0.50853011032E+03  0.50853011032E+03  0.00000000000E+00 0. -1.
          2    1    1    2  501    0  0.90823690684E+01 -0.20589549902E+02 -0.50735993107E+03  0.50785875857E+03  0.00000000000E+00 0. -1.
          2    1    1    2  502    0 -0.90823690684E+01  0.20589549902E+02  0.13657868261E+03  0.13842021361E+03  0.00000000000E+00 0.  1.
</event>
<event>
 4    1  0.6089441E+003  0.6074447E+02  0.7546771E-02  0.1257324E+00
          2   -1    0    0  502    0  0.00000000000E+00  0.00000000000E+00  0.66789210977E+02  0.66789210977E+02  0.00000000000E+00 0. -1.
          2   -1    0    0  501    0 -0.00000000000E+00 -0.00000000000E+00 -0.63094693503E+03  0.63094693503E+03  0.00000000000E+00 0.  1.
          2    1    1    2  501    0  0.60716454278E+02  0.18445160138E+01  0.51165626353E+02  0.79421731154E+02  0.00000000000E+00 0. -1.
          2    1    1    2  502    0 -0.60716454278E+02 -0.18445160138E+01 -0.61532335040E+03  0.61831441485E+03  0.00000000000E+00 0.  1.
</event>
<event>
 4    1  0.6089441E+003  0.2939362E+02  0.7546771E-02  0.1424940E+00
          2   -1    0    0  501    0  0.00000000000E+00  0.00000000000E+00  0.62422161863E+02  0.62422161863E+02  0.00000000000E+00 0.  1.
          2   -1    0    0  502    0 -0.00000000000E+00 -0.00000000000E+00 -0.42710242310E+03  0.42710242310E+03  0.00000000000E+00 0. -1.
          2    1    1    2  501    0 -0.27700495959E+02 -0.98319572978E+01 -0.42310378711E+03  0.42412356634E+03  0.00000000000E+00 0. -1.
          2    1    1    2  502    0  0.27700495959E+02  0.98319572978E+01  0.58423525874E+02  0.65401018618E+02  0.00000000000E+00 0.  1.
</event>
<event>
 4    1  0.6089441E+003  0.3531329E+02  0.7546771E-02  0.1378374E+00
          2   -1    0    0  501    0  0.00000000000E+00  0.00000000000E+00  0.16882196711E+03  0.16882196711E+03  0.00000000000E+00 0.  1.
          2   -1    0    0  502    0 -0.00000000000E+00 -0.00000000000E+00 -0.30303984504E+02  0.30303984504E+02  0.00000000000E+00 0.  1.
          2    1    1    2  501    0  0.32939503916E+02 -0.12728610069E+02 -0.17323498935E+02  0.39333599478E+02  0.00000000000E+00 0.  1.
          2    1    1    2  502    0 -0.32939503916E+02  0.12728610069E+02  0.15584148154E+03  0.15979235213E+03  0.00000000000E+00 0.  1.
</event>
<event>
 4    1  0.6089441E+003  0.2528174E+02  0.7546771E-02  0.1465676E+00
          2   -1    0    0  502    0  0.00000000000E+00  0.00000000000E+00  0.10965584678E+04  0.10965584678E+04  0.00000000000E+00 0.  1.
          2   -1    0    0  501    0 -0.00000000000E+00 -0.00000000000E+00 -0.85597085416E+00  0.85597085416E+00  0.00000000000E+00 0.  1.
          2    1    1    2  501    0 -0.84017914638E+01 -0.23844838723E+02  0.85777977282E+03  0.85815226219E+03  0.00000000000E+00 0.  1.
          2    1    1    2  502    0  0.84017914638E+01  0.23844838723E+02  0.23792272416E+03  0.23926217650E+03  0.00000000000E+00 0.  1.
</event>
<event>
 4    1  0.6089441E+003  0.6706134E+02  0.7546771E-02  0.1237560E+00
          2   -1    0    0  501    0  0.00000000000E+00  0.00000000000E+00  0.41758940174E+04  0.41758940174E+04  0.00000000000E+00 0.  1.
          2   -1    0    0  502    0 -0.00000000000E+00 -0.00000000000E+00 -0.94247384710E+03  0.94247384710E+03  0.00000000000E+00 0. -1.
          2    1    1    2  501    0 -0.21078927552E+02  0.63662404167E+02 -0.94101126161E+03  0.94339780441E+03  0.00000000000E+00 0. -1.
          2    1    1    2  502    0  0.21078927552E+02 -0.63662404167E+02  0.41744314319E+04  0.41749700601E+04  0.00000000000E+00 0.  1.
</event>
<event>
 4    1  0.6089441E+003  0.7581430E+02  0.7546771E-02  0.1213913E+00
          2   -1    0    0  501    0  0.00000000000E+00  0.00000000000E+00  0.53233251382E+02  0.53233251382E+02  0.00000000000E+00 0.  1.
          2   -1    0    0  502    0 -0.00000000000E+00 -0.00000000000E+00 -0.92656828728E+03  0.92656828728E+03  0.00000000000E+00 0.  1.
          2    1    1    2  501    0  0.46761463429E+02 -0.59675563993E+02 -0.89714008154E+03  0.90033778844E+03  0.00000000000E+00 0.  1.
          2    1    1    2  502    0 -0.46761463429E+02  0.59675563993E+02  0.23805045643E+02  0.79463750214E+02  0.00000000000E+00 0.  1.
</event>
<event>
 4    1  0.6089441E+003  0.2059966E+02  0.7546771E-02  0.1525058E+00
          2   -1    0    0  502    0  0.00000000000E+00  0.00000000000E+00  0.59007765730E+01  0.59007765730E+01  0.00000000000E+00 0. -1.
          2   -1    0    0  501    0 -0.00000000000E+00 -0.00000000000E+00 -0.49869105128E+03  0.49869105128E+03  0.00000000000E+00 0. -1.
          2    1    1    2  501    0 -0.17490525030E+01  0.20525267538E+02 -0.12998181434E+02  0.24357719777E+02  0.00000000000E+00 0. -1.
          2    1    1    2  502    0  0.17490525030E+01 -0.20525267538E+02 -0.47979209327E+03  0.48023410808E+03  0.00000000000E+00 0. -1.
</event>
<event>
 4    1  0.6089441E+003  0.4009764E+02  0.7546771E-02  0.1347915E+00
          2   -1    0    0  501    0  0.00000000000E+00  0.00000000000E+00  0.32844455651E+04  0.32844455651E+04  0.00000000000E+00 0.  1.
          2   -1    0    0  502    0 -0.00000000000E+00 -0.00000000000E+00 -0.61943247744E+00  0.61943247744E+00  0.00000000000E+00 0.  1.
          2    1    1    2  501    0 -0.24474430853E+02  0.31761975870E+02  0.88971414646E+03  0.89061724848E+03  0.00000000000E+00 0.  1.
          2    1    1    2  502    0  0.24474430853E+02 -0.31761975870E+02  0.23941119862E+04  0.23944477491E+04  0.00000000000E+00 0.  1.
</event>
<event>
 4    1  0.6089441E+003  0.2642904E+02  0.7546771E-02  0.1453429E+00
          2   -1    0    0  502    0  0.00000000000E+00  0.00000000000E+00  0.93144743308E+02  0.93144743308E+02  0.00000000000E+00 0. -1.
          2   -1    0    0  501    0 -0.00000000000E+00 -0.00000000000E+00 -0.95789892280E+03  0.95789892280E+03  0.00000000000E+00 0.  1.
          2    1    1    2  501    0 -0.21763706794E+02 -0.14994501035E+02  0.91083648846E+02  0.94840524470E+02  0.00000000000E+00 0. -1.
          2    1    1    2  502    0  0.21763706794E+02  0.14994501035E+02 -0.95583782833E+03  0.95620314163E+03  0.00000000000E+00 0.  1.
</event>
<event>
 4    1  0.6089441E+003  0.3079970E+02  0.7546771E-02  0.1412772E+00
          2   -1    0    0  502    0  0.00000000000E+00  0.00000000000E+00  0.11191220108E+03  0.11191220108E+03  0.00000000000E+00 0. -1.
          2   -1    0    0  501    0 -0.00000000000E+00 -0.00000000000E+00 -0.98379530024E+01  0.98379530024E+01  0.00000000000E+00 0. -1.
          2    1    1    2  501    0 -0.20719108447E+02 -0.22789035856E+02  0.73683127058E+02  0.79861284883E+02  0.00000000000E+00 0. -1.
          2    1    1    2  502    0  0.20719108447E+02  0.22789035856E+02  0.28391121021E+02  0.41888869201E+02  0.00000000000E+00 0. -1.
</event>
<event>
 4    1  0.6089441E+003  0.2007205E+02  0.7546771E-02  0.1532937E+00
          2   -1    0    0  502    0  0.00000000000E+00  0.00000000000E+00  0.44054946948E+02  0.44054946948E+02  0.00000000000E+00 0.  1.
          2   -1    0    0  501    0 -0.00000000000E+00 -0.00000000000E+00 -0.12056447982E+03  0.12056447982E+03  0.00000000000E+00 0. -1.
          2    1    1    2  501    0 -0.18906697604E+02 -0.67397428001E+01  0.40871695927E+02  0.45534414186E+02  0.00000000000E+00 0.  1.
          2    1    1    2  502    0  0.18906697604E+02  0.67397428001E+01 -0.11738122880E+03  0.11908501259E+03  0.00000000000E+00 0. -1.
</event>
<event>
 4    1  0.6089441E+003  0.3287243E+02  0.7546771E-02  0.1396171E+00
          2   -1    0    0  502    0  0.00000000000E+00  0.00000000000E+00  0.45099425754E+02  0.45099425754E+02  0.00000000000E+00 0.  1.
          2   -1    0    0  501    0 -0.00000000000E+00 -0.00000000000E+00 -0.10934816312E+03  0.10934816312E+03  0.00000000000E+00 0.  1.
          2    1    1    2  501    0  0.18745655652E+02  0.27003653998E+02  0.36116319536E+02  0.48836313046E+02  0.00000000000E+00 0.  1.
          2    1    1    2  502    0 -0.18745655652E+02 -0.27003653998E+02 -0.10036505690E+03  0.10561127583E+03  0.00000000000E+00 0.  1.
</event>
<event>
 4    1  0.6089441E+003  0.2872792E+02  0.7546771E-02  0.1430983E+00
          2   -1    0    0  501    0  0.00000000000E+00  0.00000000000E+00  0.13109682042E+04  0.13109682042E+04  0.00000000000E+00 0. -1.
          2   -1    0    0  502    0 -0.00000000000E+00 -0.00000000000E+00 -0.24595273887E+01  0.24595273887E+01  0.00000000000E+00 0. -1.
          2    1    1    2  501    0 -0.28530703567E+02  0.33603791753E+01  0.87785993903E+02  0.92367060794E+02  0.00000000000E+00 0. -1.
          2    1    1    2  502    0  0.28530703567E+02 -0.33603791753E+01  0.12207226829E+04  0.12210606708E+04  0.00000000000E+00 0. -1.
</event>
<event>
 4    1  0.6089441E+003  0.2568366E+02  0.7546771E-02  0.1461299E+00
          2   -1    0    0  502    0  0.00000000000E+00  0.00000000000E+00  0.11364485544E+03  0.11364485544E+03  0.00000000000E+00 0. -1.
          2   -1    0    0  501    0 -0.00000000000E+00 -0.00000000000E+00 -0.14188912314E+04  0.14188912314E+04  0.00000000000E+00 0.  1.
          2    1    1    2  501    0 -0.24912000152E+02  0.62484081538E+01  0.11207590048E+03  0.11498111943E+03  0.00000000000E+00 0. -1.
          2    1    1    2  502    0  0.24912000152E+02 -0.62484081538E+01 -0.14173222764E+04  0.14175549674E+04  0.00000000000E+00 0.  1.
</event>
<event>
 4    1  0.6089441E+003  0.5037428E+02  0.7546771E-02  0.1296558E+00
          2   -1    0    0  502    0  0.00000000000E+00  0.00000000000E+00  0.35539608450E+02  0.35539608450E+02  0.00000000000E+00 0. -1.
          2   -1    0    0  501    0 -0.00000000000E+00 -0.00000000000E+00 -0.13773885543E+04  0.13773885543E+04  0.00000000000E+00 0.  1.
          2    1    1    2  501    0  0.36058369587E+02 -0.35176154833E+02  0.16985095194E+02  0.53160712418E+02  0.00000000000E+00 0. -1.
          2    1    1    2  502    0 -0.36058369587E+02  0.35176154833E+02 -0.13588340410E+04  0.13597674503E+04  0.00000000000E+00 0.  1.
</event>
<event>
 4    1  0.6089441E+003  0.2552140E+02  0.7546771E-02  0.1463054E+00
          2   -1    0    0  502    0  0.00000000000E+00  0.00000000000E+00  0.48572098509E+02  0.48572098509E+02  0.00000000000E+00 0. -1.
          2   -1    0    0  501    0 -0.00000000000E+00 -0.00000000000E+00 -0.91431935349E+02  0.91431935349E+02  0.00000000000E+00 0.  1.
          2    1    1    2  501    0  0.17515575418E+02 -0.18561956604E+02  0.43235269253E+02  0.50205877371E+02  0.00000000000E+00 0. -1.
          2    1    1    2  502    0 -0.17515575418E+02  0.18561956604E+02 -0.86095106094E+02  0.89798156487E+02  0.00000000000E+00 0.  1.
</event>
<event>
 4    1  0.6089441E+003  0.2312902E+02  0.7546771E-02  0.1490884E+00
          2   -1    0    0  502    0  0.00000000000E+00  0.00000000000E+00  0.79074524171E+00  0.79074524171E+00  0.00000000000E+00 0.  1.
          2   -1    0    0  501    0 -0.00000000000E+00 -0.00000000000E+00 -0.18775421441E+04  0.18775421441E+04  0.00000000000E+00 0.  1.
          2    1    1    2  501    0  0.13340586015E+02 -0.18893919631E+02 -0.18723025726E+03  0.18865344065E+03  0.00000000000E+00 0.  1.
          2    1    1    2  502    0 -0.13340586015E+02  0.18893919631E+02 -0.16895211416E+04  0.16896794487E+04  0.00000000000E+00 0.  1.
</event>
<event>
 4    1  0.6089441E+003  0.3574221E+02  0.7546771E-02  0.1375419E+00
          2   -1    0    0  502    0  0.00000000000E+00  0.00000000000E+00  0.28595460485E+04  0.28595460485E+04  0.00000000000E+00 0.  1.
          2   -1    0    0  501    0 -0.00000000000E+00 -0.00000000000E+00 -0.44914448477E+00  0.44914448477E+00  0.00000000000E+00 0. -1.
          2    1    1    2  501    0  0.27631922718E+02  0.22671185418E+02  0.15339324630E+04  0.15343488218E+04  0.00000000000E+00 0.  1.
          2    1    1    2  502    0 -0.27631922718E+02 -0.22671185418E+02  0.13251644410E+04  0.13256463712E+04  0.00000000000E+00 0. -1.
</event>
<event>
 4    1  0.6089441E+003  0.2134037E+02  0.7546771E-02  0.1514460E+00
          2   -1    0    0  501    0  0.00000000000E+00  0.00000000000E+00  0.23729508398E+02  0.23729508398E+02  0.00000000000E+00 0.  1.
          2   -1    0    0  502    0 -0.00000000000E+00 -0.00000000000E+00 -0.25267017001E+03  0.25267017001E+03  0.00000000000E+00 0. -1.
          2    1    1    2  501    0  0.16158481870E+02 -0.13939680980E+02 -0.24731799008E+03  0.24823698246E+03  0.00000000000E+00 0. -1.
          2    1    1    2  502    0 -0.16158481870E+02  0.13939680980E+02  0.18377328463E+02  0.28162695957E+02  0.00000000000E+00 0.  1.
</event>
<event>
 4    1  0.6089441E+003  0.2466464E+02  0.7546771E-02  0.1472590E+00
          2   -1    0    0  501    0  0.00000000000E+00  0.00000000000E+00  0.19703627955E+02  0.19703627955E+02  0.00000000000E+00 0. -1.
          2   -1    0    0  502    0 -0.00000000000E+00 -0.00000000000E+00 -0.49014294393E+02  0.49014294393E+02  0.00000000000E+00 0.  1.
          2    1    1    2  501    0  0.22434844807E+02 -0.10248028807E+02 -0.35557532074E+02  0.43274501073E+02  0.00000000000E+00 0.  1.
          2    1    1    2  502    0 -0.22434844807E+02  0.10248028807E+02  0.62468656358E+01  0.25443421276E+02  0.00000000000E+00 0. -1.
</event>
<event>
 4    1  0.6089441E+003  0.2526250E+02  0.7546771E-02  0.1465888E+00
          2   -1    0    0  502    0  0.00000000000E+00  0.00000000000E+00  0.61031071829E+00  0.61031071829E+00  0.00000000000E+00 0. -1.
          2   -1    0    0  501    0 -0.00000000000E+00 -0.00000000000E+00 -0.17848120900E+04  0.17848120900E+04  0.00000000000E+00 0.  1.
          2    1    1    2  501    0  0.97619055900E+01  0.23300196587E+02 -0.31762247225E+03  0.31862553075E+03  0.00000000000E+00 0. -1.
          2    1    1    2  502    0 -0.97619055900E+01 -0.23300196587E+02 -0.14665793071E+04  0.14667968700E+04  0.00000000000E+00 0.  1.
</event>
<event>
 4    1  0.6089441E+003  0.2074354E+02  0.7546771E-02  0.1522958E+00
          2   -1    0    0  501    0  0.00000000000E+00  0.00000000000E+00  0.24066257076E+02  0.24066257076E+02  0.00000000000E+00 0.  1.
          2   -1    0    0  502    0 -0.00000000000E+00 -0.00000000000E+00 -0.70958961173E+02  0.70958961173E+02  0.00000000000E+00 0.  1.
          2    1    1    2  501    0 -0.18564325466E+02  0.92552756035E+01 -0.64539387773E+02  0.67791053102E+02  0.00000000000E+00 0.  1.
          2    1    1    2  502    0  0.18564325466E+02 -0.92552756035E+01  0.17646683677E+02  0.27234165147E+02  0.00000000000E+00 0.  1.
</event>
<event>
 4    1  0.6089441E+003  0.3691182E+02  0.7546771E-02  0.1367599E+00
          2   -1    0    0  502    0  0.00000000000E+00  0.00000000000E+00  0.40425783021E+03  0.40425783021E+03  0.00000000000E+00 0.  1.
          2   -1    0    0  501    0 -0.00000000000E+00 -0.00000000000E+00 -0.86548448392E+01  0.86548448392E+01  0.00000000000E+00 0.  1.
          2    1    1    2  501    0 -0.21287017768E+02  0.30155357153E+02  0.35912627809E+03  0.36101823542E+03  0.00000000000E+00 0.  1.
          2    1    1    2  502    0  0.21287017768E+02 -0.30155357153E+02  0.36476707280E+02  0.51894439629E+02  0.00000000000E+00 0.  1.
</event>
<event>
 4    1  0.6089441E+003  0.2031176E+02  0.7546771E-02  0.1529322E+00
          2   -1    0    0  502    0  0.00000000000E+00  0.00000000000E+00  0.64685599705E+03  0.64685599705E+03  0.00000000000E+00 0. -1.
          2   -1    0    0  501    0 -0.00000000000E+00 -0.00000000000E+00 -0.21937314671E+01  0.21937314671E+01  0.00000000000E+00 0. -1.
          2    1    1    2  501    0  0.17558505399E+02  0.10211086718E+02  0.59563822715E+03  0.59598445034E+03  0.00000000000E+00 0. -1.
          2    1    1    2  502    0 -0.17558505399E+02 -0.10211086718E+02  0.49024038431E+02  0.53065278175E+02  0.00000000000E+00 0. -1.
</event>
<event>
 4    1  0.6089441E+003  0.2206940E+02  0.7546771E-02  0.1504526E+00
          2   -1    0    0  501    0  0.00000000000E+00  0.00000000000E+00  0.85808690866E+03  0.85808690866E+03  0.00000000000E+00 0.  1.
          2   -1    0    0  502    0 -0.00000000000E+00 -0.00000000000E+00 -0.29899911872E+02  0.29899911872E+02  0.00000000000E+00 0. -1.
          2    1    1    2  501    0  0.20518623354E+02 -0.81267695928E+01 -0.25665410911E+02  0.33849248228E+02  0.00000000000E+00 0. -1.
          2    1    1    2  502    0 -0.20518623354E+02  0.81267695928E+01  0.85385240770E+03  0.85413757231E+03  0.00000000000E+00 0.  1.
</event>
<event>
 4    1  0.6089441E+003  0.3607668E+02  0.7546771E-02  0.1373148E+00
          2   -1    0    0  502    0  0.00000000000E+00  0.00000000000E+00  0.77297333987E+03  0.77297333987E+03  0.00000000000E+00 0. -1.
          2   -1    0    0  501    0 -0.00000000000E+00 -0.00000000000E+00 -0.37767477054E+02  0.37767477054E+02  0.00000000000E+00 0. -1.
          2    1    1    2  501    0  0.35258869165E+02  0.76380176879E+01  0.76383396812E+03  0.76468546346E+03  0.00000000000E+00 0. -1.
          2    1    1    2  502    0 -0.35258869165E+02 -0.76380176879E+01 -0.28628105309E+02  0.46055353462E+02  0.00000000000E+00 0. -1.
</event>
<event>
 4    1  0.6089441E+003  0.2481182E+02  0.7546771E-02  0.1470920E+00
          2   -1    0    0  502    0  0.00000000000E+00  0.00000000000E+00  0.22764424765E+02  0.22764424765E+02  0.00000000000E+00 0. -1.
          2   -1    0    0  501    0 -0.00000000000E+00 -0.00000000000E+00 -0.33874329826E+02  0.33874329826E+02  0.00000000000E+00 0. -1.
          2    1    1    2  501    0 -0.23747125170E+02 -0.71902893905E+01  0.71622026937E+01  0.25824859395E+02  0.00000000000E+00 0. -1.
          2    1    1    2  502    0  0.23747125170E+02  0.71902893905E+01 -0.18272107755E+02  0.30813895196E+02  0.00000000000E+00 0. -1.
</event>
<event>
 4    1  0.6089441E+003  0.2211485E+02  0.7546771E-02  0.1503923E+00
          2   -1    0    0  501    0  0.00000000000E+00  0.00000000000E+00  0.53508142842E+03  0.53508142842E+03  0.00000000000E+00 0. -1.
          2   -1    0    0  502    0 -0.00000000000E+00 -0.00000000000E+00 -0.81747555883E+01  0.81747555883E+01  0.00000000000E+00 0. -1.
          2    1    1    2  501    0 -0.51065309609E+01 -0.21517196465E+02  0.74603345818E+01  0.23339301494E+02  0.00000000000E+00 0. -1.
          2    1    1    2  502    0  0.51065309609E+01  0.21517196465E+02  0.51944633825E+03  0.51991688252E+03  0.00000000000E+00 0. -1.
</event>
<event>
 4    1  0.6089441E+003  0.4406586E+02  0.7546771E-02  0.1326177E+00
          2   -1    0    0  502    0  0.00000000000E+00  0.00000000000E+00  0.21939456834E+02  0.21939456834E+02  0.00000000000E+00 0.  1.
          2   -1    0    0  501    0 -0.00000000000E+00 -0.00000000000E+00 -0.13783812439E+03  0.13783812439E+03  0.00000000000E+00 0.  1.
          2    1    1    2  501    0  0.15117787475E+02  0.41391456001E+02 -0.10574194385E+03  0.11455635651E+03  0.00000000000E+00 0.  1.
          2    1    1    2  502    0 -0.15117787475E+02 -0.41391456001E+02 -0.10156723707E+02  0.45221224712E+02  0.00000000000E+00 0.  1.
</event>
<event>
 4    1  0.6089441E+003  0.6720121E+02  0.7546771E-02  0.1237151E+00
          2   -1    0    0  502    0  0.00000000000E+00  0.00000000000E+00  0.52027533027E+03  0.52027533027E+03  0.00000000000E+00 0.  1.
          2   -1    0    0  501    0 -0.00000000000E+00 -0.00000000000E+00 -0.44317969984E+02  0.44317969984E+02  0.00000000000E+00 0. -1.
          2    1    1    2  501    0  0.36177865658E+01  0.67103757563E+02  0.49112529494E+03  0.49570158159E+03  0.00000000000E+00 0.  1.
          2    1    1    2  502    0 -0.36177865658E+01 -0.67103757563E+02 -0.15167934657E+02  0.68891718664E+02  0.00000000000E+00 0. -1.
</event>
<event>
 4    1  0.6089441E+003  0.2633524E+02  0.7546771E-02  0.1454402E+00
          2   -1    0    0  501    0  0.00000000000E+00  0.00000000000E+00  0.41629275491E+03  0.41629275491E+03  0.00000000000E+00 0. -1.
          2   -1    0    0  502    0 -0.00000000000E+00 -0.00000000000E+00 -0.28331314209E+01  0.28331314209E+01  0.00000000000E+00 0. -1.
          2    1    1    2  501    0 -0.25170674761E+02  0.77448040091E+01  0.72224168569E+02  0.76875713867E+02  0.00000000000E+00 0. -1.
          2    1    1    2  502    0  0.25170674761E+02 -0.77448040091E+01  0.34123545492E+03  0.34225017246E+03  0.00000000000E+00 0. -1.
</event>
<event>
 4    1  0.6089441E+003  0.2061010E+02  0.7546771E-02  0.1524905E+00
          2   -1    0    0  501    0  0.00000000000E+00  0.00000000000E+00  0.20265791865E+03  0.20265791865E+03  0.00000000000E+00 0. -1.
          2   -1    0    0  502    0 -0.00000000000E+00 -0.00000000000E+00 -0.48087463514E+02  0.48087463514E+02  0.00000000000E+00 0. -1.
          2    1    1    2  501    0 -0.11815537853E+02  0.16886950889E+02 -0.45324664543E+02  0.49790574018E+02  0.00000000000E+00 0. -1.
          2    1    1    2  502    0  0.11815537853E+02 -0.16886950889E+02  0.19989511968E+03  0.20095480814E+03  0.00000000000E+00 0. -1.
</event>
<event>
 4    1  0.6089441E+003  0.2041892E+02  0.7546771E-02  0.1527725E+00
          2   -1    0    0  501    0  0.00000000000E+00  0.00000000000E+00  0.93567584266E+02  0.93567584266E+02  0.00000000000E+00 0. -1.
          2   -1    0    0  502    0 -0.00000000000E+00 -0.00000000000E+00 -0.11058854424E+04  0.11058854424E+04  0.00000000000E+00 0. -1.
          2    1    1    2  501    0  0.19567927140E+02 -0.58333871375E+01 -0.11046759832E+04  0.11048646795E+04  0.00000000000E+00 0. -1.
          2    1    1    2  502    0 -0.19567927140E+02  0.58333871375E+01  0.92358124994E+02  0.94588347224E+02  0.00000000000E+00 0. -1.
</event>
<event>
 4    1  0.6089441E+003  0.2496909E+02  0.7546771E-02  0.1469150E+00
          2   -1    0    0  501    0  0.00000000000E+00  0.00000000000E+00  0.95476604846E+01  0.95476604846E+01  0.00000000000E+00 0. -1.
          2   -1    0    0  502    0 -0.00000000000E+00 -0.00000000000E+00 -0.14408763954E+04  0.14408763954E+04  0.00000000000E+00 0. -1.
          2    1    1    2  501    0 -0.16752829692E+02 -0.18514805501E+02 -0.14242528787E+04  0.14244717329E+04  0.00000000000E+00 0. -1.
          2    1    1    2  502    0  0.16752829692E+02  0.18514805501E+02 -0.70758561611E+01  0.25952322937E+02  0.00000000000E+00 0. -1.
</event>
<event>
 4    1  0.6089441E+003  0.2420019E+02  0.7546771E-02  0.1477953E+00
          2   -1    0    0  502    0  0.00000000000E+00  0.00000000000E+00  0.10075226553E+03  0.10075226553E+03  0.00000000000E+00 0. -1.
          2   -1    0    0  501    0 -0.00000000000E+00 -0.00000000000E+00 -0.14793627149E+02  0.14793627149E+02  0.00000000000E+00 0. -1.
          2    1    1    2  501    0 -0.24182654500E+02  0.92115947222E+00  0.87993171357E+02  0.91260328286E+02  0.00000000000E+00 0. -1.
          2    1    1    2  502    0  0.24182654500E+02 -0.92115947222E+00 -0.20345329750E+01  0.24285564393E+02  0.00000000000E+00 0. -1.
</event>
<event>
 4    1  0.6089441E+003  0.5077932E+02  0.7546771E-02  0.1294828E+00
          2   -1    0    0  501    0  0.00000000000E+00  0.00000000000E+00  0.13359492390E+03  0.13359492390E+03  0.00000000000E+00 0. -1.
          2   -1    0    0  502    0 -0.00000000000E+00 -0.00000000000E+00 -0.26661225144E+03  0.26661225144E+03  0.00000000000E+00 0. -1.
          2    1    1    2  501    0 -0.11536937466E+02 -0.49451377789E+02 -0.25923301988E+03  0.26415960760E+03  0.00000000000E+00 0. -1.
          2    1    1    2  502    0  0.11536937466E+02  0.49451377789E+02  0.12621569234E+03  0.13604756773E+03  0.00000000000E+00 0. -1.
</event>
<event>
 4    1  0.6089441E+003  0.2640029E+02  0.7546771E-02  0.1453727E+00
          2   -1    0    0  502    0  0.00000000000E+00  0.00000000000E+00  0.29063954165E+01  0.29063954165E+01  0.00000000000E+00 0.  1.
          2   -1    0    0  501    0 -0.00000000000E+00 -0.00000000000E+00 -0.61619465745E+03  0.61619465745E+03  0.00000000000E+00 0.  1.
          2    1    1    2  501    0  0.18305199786E+02  0.19023536011E+02 -0.64713971286E+02  0.69891868921E+02  0.00000000000E+00 0.  1.
          2    1    1    2  502    0 -0.18305199786E+02 -0.19023536011E+02 -0.54857429075E+03  0.54920918394E+03  0.00000000000E+00 0.  1.
</event>
<event>
 4    1  0.6089441E+003  0.3193708E+02  0.7546771E-02  0.1403478E+00
          2   -1    0    0  502    0  0.00000000000E+00  0.00000000000E+00  0.34326584868E+03  0.34326584868E+03  0.00000000000E+00 0.  1.
          2   -1    0    0  501    0 -0.00000000000E+00 -0.00000000000E+00 -0.66559958149E+01  0.66559958149E+01  0.00000000000E+00 0.  1.
          2    1    1    2  501    0  0.17839651899E+02  0.26490073495E+02  0.29848064276E+03  0.30018439545E+03  0.00000000000E+00 0.  1.
          2    1    1    2  502    0 -0.17839651899E+02 -0.26490073495E+02  0.38129210109E+02  0.49737449042E+02  0.00000000000E+00 0.  1.
</event>
<event>
 4    1  0.6089441E+003  0.7097674E+02  0.7546771E-02  0.1226503E+00
          2   -1    0    0  501    0  0.00000000000E+00  0.00000000000E+00  0.21317209266E+04  0.21317209266E+04  0.00000000000E+00 0.  1.
          2   -1    0    0  502    0 -0.00000000000E+00 -0.00000000000E+00 -0.53803419552E+01  0.53803419552E+01  0.00000000000E+00 0.  1.
          2    1    1    2  501    0 -0.68142762998E+02  0.19856003202E+02  0.26299053155E+03  0.27239992052E+03  0.00000000000E+00 0.  1.
          2    1    1    2  502    0  0.68142762998E+02 -0.19856003202E+02  0.18633500531E+04  0.18647013481E+04  0.00000000000E+00 0.  1.
</event>
<event>
 4    1  0.6089441E+003  0.2362338E+02  0.7546771E-02  0.1484815E+00
          2   -1    0    0  501    0  0.00000000000E+00  0.00000000000E+00  0.44092449594E+02  0.44092449594E+02  0.00000000000E+00 0. -1.
          2   -1    0    0  502    0 -0.00000000000E+00 -0.00000000000E+00 -0.37284007304E+03  0.37284007304E+03  0.00000000000E+00 0.  1.
          2    1    1    2  501    0  0.33978757879E+01 -0.23377731368E+02 -0.36927115624E+03  0.37002601356E+03  0.00000000000E+00 0.  1.
          2    1    1    2  502    0 -0.33978757879E+01  0.23377731368E+02  0.40523532789E+02  0.46906509074E+02  0.00000000000E+00 0. -1.
</event>
<event>
 4    1  0.6089441E+003  0.4119095E+02  0.7546771E-02  0.1341645E+00
          2   -1    0    0  502    0  0.00000000000E+00  0.00000000000E+00  0.46870425554E+03  0.46870425554E+03  0.00000000000E+00 0. -1.
          2   -1    0    0  501    0 -0.00000000000E+00 -0.00000000000E+00 -0.23444144689E+03  0.23444144689E+03  0.00000000000E+00 0.  1.
          2    1    1    2  501    0  0.41070699938E+02 -0.31451532882E+01  0.46597940978E+03  0.46779643513E+03  0.00000000000E+00 0. -1.
          2    1    1    2  502    0 -0.41070699938E+02  0.31451532882E+01 -0.23171660113E+03  0.23534926730E+03  0.00000000000E+00 0.  1.
</event>
<event>
 4    1  0.6089441E+003  0.5275589E+02  0.7546771E-02  0.1286646E+00
          2   -1    0    0  502    0  0.00000000000E+00  0.00000000000E+00  0.29602357574E+03  0.29602357574E+03  0.00000000000E+00 0. -1.
          2   -1    0    0  501    0 -0.00000000000E+00 -0.00000000000E+00 -0.16517948905E+02  0.16517948905E+02  0.00000000000E+00 0.  1.
          2    1    1    2  501    0  0.34342772404E+02 -0.40046948308E+02  0.24232252414E+03  0.24799876974E+03  0.00000000000E+00 0. -1.
          2    1    1    2  502    0 -0.34342772404E+02  0.40046948308E+02  0.37183102694E+02  0.64542754908E+02  0.00000000000E+00 0.  1.
</event>
<event>
 4    1  0.6089441E+003  0.2315621E+02  0.7546771E-02  0.1490546E+00
          2   -1    0    0  501    0  0.00000000000E+00  0.00000000000E+00  0.82890063379E+01  0.82890063379E+01  0.00000000000E+00 0. -1.
          2   -1    0    0  502    0 -0.00000000000E+00 -0.00000000000E+00 -0.69907434347E+03  0.69907434347E+03  0.00000000000E+00 0. -1.
          2    1    1    2  501    0 -0.20755582440E+02 -0.10267223031E+02 -0.68231309544E+03  0.68270591785E+03  0.00000000000E+00 0. -1.
          2    1    1    2  502    0  0.20755582440E+02  0.10267223031E+02 -0.84722416975E+01  0.24657431954E+02  0.00000000000E+00 0. -1.
</event>
<event>
 4    1  0.6089441E+003  0.2269151E+02  0.7546771E-02  0.1496409E+00
          2   -1    0    0  502    0  0.00000000000E+00  0.00000000000E+00  0.15186860809E+02  0.15186860809E+02  0.00000000000E+00 0.  1.
          2   -1    0    0  501    0 -0.00000000000E+00 -0.00000000000E+00 -0.27930544222E+03  0.27930544222E+03  0.00000000000E+00 0.  1.
          2    1    1    2  501    0  0.20807969190E+02 -0.90516809911E+01  0.59607890843E+01  0.23461362217E+02  0.00000000000E+00 0.  1.
          2    1    1    2  502    0 -0.20807969190E+02  0.90516809911E+01 -0.27007937049E+03  0.27103094081E+03  0.00000000000E+00 0.  1.
</event>
<event>
 4    1  0.7686862E+003  0.3127734E+02  0.7546771E-02  0.1408812E+00
          2   -1    0    0  501    0  0.00000000000E+00  0.00000000000E+00  0.61451670489E+03  0.61451670489E+03  0.00000000000E+00 0. -1.
          2   -1    0    0  502    0 -0.00000000000E+00 -0.00000000000E+00 -0.63308880981E+03  0.63308880981E+03  0.00000000000E+00 0. -1.
          2    1    1    2  501    0  0.31117099302E+02  0.31619450565E+01 -0.63230402289E+03  0.63307712731E+03  0.00000000000E+00 0. -1.
          2    1    1    2  502    0 -0.31117099302E+02 -0.31619450565E+01  0.61373191798E+03  0.61452838739E+03  0.00000000000E+00 0. -1.
</event>
<event>
 4    1  0.6089441E+003  0.2574887E+02  0.7546771E-02  0.1460598E+00
          2   -1    0    0  501    0  0.00000000000E+00  0.00000000000E+00  0.84349916396E+02  0.84349916396E+02  0.00000000000E+00 0.  1.
          2   -1    0    0  502    0 -0.00000000000E+00 -0.00000000000E+00 -0.99002934629E+03  0.99002934629E+03  0.00000000000E+00 0.  1.
          2    1    1    2  501    0 -0.23508332741E+02  0.10505356194E+02 -0.98789263536E+03  0.98822814331E+03  0.00000000000E+00 0.  1.
          2    1    1    2  502    0  0.23508332741E+02 -0.10505356194E+02  0.82213205469E+02  0.86151119380E+02  0.00000000000E+00 0.  1.
</event>
<event>
 4    1  0.6089441E+003  0.2111427E+02  0.7546771E-02  0.1517639E+00
          2   -1    0    0  502    0  0.00000000000E+00  0.00000000000E+00  0.23493989541E+01  0.23493989541E+01  0.00000000000E+00 0. -1.
          2   -1    0    0  501    0 -0.00000000000E+00 -0.00000000000E+00 -0.19424388545E+03  0.19424388545E+03  0.00000000000E+00 0. -1.
          2    1    1    2  501    0  0.63201304040E+01 -0.20146177704E+02 -0.11088847392E+03  0.11288076087E+03  0.00000000000E+00 0. -1.
          2    1    1    2  502    0 -0.63201304040E+01  0.20146177704E+02 -0.81006012574E+02  0.83712523540E+02  0.00000000000E+00 0. -1.
</event>
<event>
 4    1  0.6089441E+003  0.3391523E+02  0.7546771E-02  0.1388354E+00
          2   -1    0    0  502    0  0.00000000000E+00  0.00000000000E+00  0.56022070770E+02  0.56022070770E+02  0.00000000000E+00 0.  1.
          2   -1    0    0  501    0 -0.00000000000E+00 -0.00000000000E+00 -0.34821871022E+03  0.34821871022E+03  0.00000000000E+00 0.  1.
          2    1    1    2  501    0 -0.13587781000E+02  0.31074351621E+02  0.49972748785E+02  0.60394691342E+02  0.00000000000E+00 0.  1.
          2    1    1    2  502    0  0.13587781000E+02 -0.31074351621E+02 -0.34216938824E+03  0.34384608965E+03  0.00000000000E+00 0.  1.
</event>
<event>
 4    1  0.6089441E+003  0.2151721E+02  0.7546771E-02  0.1512007E+00
          2   -1    0    0  502    0  0.00000000000E+00  0.00000000000E+00  0.28508003632E+02  0.28508003632E+02  0.00000000000E+00 0. -1.
          2   -1    0    0  501    0 -0.00000000000E+00 -0.00000000000E+00 -0.25403580129E+03  0.25403580129E+03  0.00000000000E+00 0. -1.
          2    1    1    2  501    0  0.13513785132E+02 -0.16744195962E+02  0.23917610143E+02  0.32172077365E+02  0.00000000000E+00 0. -1.
          2    1    1    2  502    0 -0.13513785132E+02  0.16744195962E+02 -0.24944540780E+03  0.25037172756E+03  0.00000000000E+00 0. -1.
</event>
<event>
 4    1  0.6089441E+003  0.2738890E+02  0.7546771E-02  0.1443740E+00
          2   -1    0    0  501    0  0.00000000000E+00  0.00000000000E+00  0.24253624427E+02  0.24253624427E+02  0.00000000000E+00 0.  1.
          2   -1    0    0  502    0 -0.00000000000E+00 -0.00000000000E+00 -0.92564874993E+03  0.92564874993E+03  0.00000000000E+00 0.  1.
          2    1    1    2  501    0  0.89911812550E+01  0.25871032118E+02 -0.91764636644E+03  0.91805501223E+03  0.00000000000E+00 0.  1.
          2    1    1    2  502    0 -0.89911812550E+01 -0.25871032118E+02  0.16251240929E+02  0.31847362135E+02  0.00000000000E+00 0.  1.
</event>
<event>
 4    1  0.6089441E+003  0.3569291E+02  0.7546771E-02  0.1375756E+00
          2   -1    0    0  501    0  0.00000000000E+00  0.00000000000E+00  0.97295654204E+03  0.97295654204E+03  0.00000000000E+00 0. -1.
          2   -1    0    0  502    0 -0.00000000000E+00 -0.00000000000E+00 -0.33888187640E+01  0.33888187640E+01  0.00000000000E+00 0. -1.
          2    1    1    2  501    0  0.21741689674E+02  0.28306936746E+02  0.10238122711E+03  0.10842462544E+03  0.00000000000E+00 0. -1.
          2    1    1    2  502    0 -0.21741689674E+02 -0.28306936746E+02  0.86718649617E+03  0.86792073537E+03  0.00000000000E+00 0. -1.
</event>
<event>
 4    1  0.6089441E+003  0.3500024E+02  0.7546771E-02  0.1380562E+00
          2   -1    0    0  502    0  0.00000000000E+00  0.00000000000E+00  0.36844646454E+02  0.36844646454E+02  0.00000000000E+00 0. -1.
          2   -1    0    0  501    0 -0.00000000000E+00 -0.00000000000E+00 -0.34540553798E+02  0.34540553798E+02  0.00000000000E+00 0. -1.
          2    1    1    2  501    0  0.25440521720E+02 -0.24037397495E+02  0.80562138575E+01  0.35915445221E+02  0.00000000000E+00 0. -1.
          2    1    1    2  502    0 -0.25440521720E+02  0.24037397495E+02 -0.57521212009E+01  0.35469755032E+02  0.00000000000E+00 0. -1.
</event>
<event>
 4    1  0.6089441E+003  0.2335746E+02  0.7546771E-02  0.1488058E+00
          2   -1    0    0  501    0  0.00000000000E+00  0.00000000000E+00  0.13574184353E+02  0.13574184353E+02  0.00000000000E+00 0. -1.
          2   -1    0    0  502    0 -0.00000000000E+00 -0.00000000000E+00 -0.86413233910E+02  0.86413233910E+02  0.00000000000E+00 0. -1.
          2    1    1    2  501    0  0.18936709806E+02  0.13673775439E+02 -0.72982949248E+02  0.76629511247E+02  0.00000000000E+00 0. -1.
          2    1    1    2  502    0 -0.18936709806E+02 -0.13673775439E+02  0.14389969069E+00  0.23357907016E+02  0.00000000000E+00 0. -1.
</event>
<event>
 4    1  0.6089441E+003  0.2575414E+02  0.7546771E-02  0.1460541E+00
          2   -1    0    0  502    0  0.00000000000E+00  0.00000000000E+00  0.33882063658E+02  0.33882063658E+02  0.00000000000E+00 0.  1.
          2   -1    0    0  501    0 -0.00000000000E+00 -0.00000000000E+00 -0.24612641087E+03  0.24612641087E+03  0.00000000000E+00 0. -1.
          2    1    1    2  501    0 -0.13755154718E+02 -0.21773177432E+02  0.28199003905E+02  0.38189780806E+02  0.00000000000E+00 0.  1.
          2    1    1    2  502    0  0.13755154718E+02  0.21773177432E+02 -0.24044335112E+03  0.24181869372E+03  0.00000000000E+00 0. -1.
</event>
<event>
 4    1  0.6089441E+003  0.3137255E+02  0.7546771E-02  0.1408032E+00
          2   -1    0    0  501    0  0.00000000000E+00  0.00000000000E+00  0.49656353741E+03  0.49656353741E+03  0.00000000000E+00 0. -1.
          2   -1    0    0  502    0 -0.00000000000E+00 -0.00000000000E+00 -0.10557603868E+03  0.10557603868E+03  0.00000000000E+00 0.  1.
          2    1    1    2  501    0 -0.31372410799E+02  0.93094433709E-01 -0.10273648895E+03  0.10741984448E+03  0.00000000000E+00 0.  1.
          2    1    1    2  502    0  0.31372410799E+02 -0.93094433709E-01  0.49372398768E+03  0.49471973161E+03  0.00000000000E+00 0. -1.
</event>
<event>
 4    1  0.6089441E+003  0.2358977E+02  0.7546771E-02  0.1485222E+00
          2   -1    0    0  502    0  0.00000000000E+00  0.00000000000E+00  0.41620855427E+03  0.41620855427E+03  0.00000000000E+00 0.  1.
          2   -1    0    0  501    0 -0.00000000000E+00 -0.00000000000E+00 -0.61778309088E+03  0.61778309088E+03  0.00000000000E+00 0. -1.
          2    1    1    2  501    0  0.22591301571E+02 -0.67904561882E+01  0.41564880625E+03  0.41631767599E+03  0.00000000000E+00 0.  1.
          2    1    1    2  502    0 -0.22591301571E+02  0.67904561882E+01 -0.61722334287E+03  0.61767396916E+03  0.00000000000E+00 0. -1.
</event>
<event>
 4    1  0.6089441E+003  0.2227173E+02  0.7546771E-02  0.1501851E+00
          2   -1    0    0  501    0  0.00000000000E+00  0.00000000000E+00  0.25876507685E+01  0.25876507685E+01  0.00000000000E+00 0.  1.
          2   -1    0    0  502    0 -0.00000000000E+00 -0.00000000000E+00 -0.33286640671E+03  0.33286640671E+03  0.00000000000E+00 0.  1.
          2    1    1    2  501    0 -0.86868848785E+01  0.20507757763E+02 -0.27437069176E+03  0.27527314906E+03  0.00000000000E+00 0.  1.
          2    1    1    2  502    0  0.86868848785E+01 -0.20507757763E+02 -0.55908064183E+02  0.60180908419E+02  0.00000000000E+00 0.  1.
</event>
<event>
 4    1  0.6089441E+003  0.2031026E+02  0.7546771E-02  0.1529345E+00
          2   -1    0    0  501    0  0.00000000000E+00  0.00000000000E+00  0.13283834836E+04  0.13283834836E+04  0.00000000000E+00 0. -1.
          2   -1    0    0  502    0 -0.00000000000E+00 -0.00000000000E+00 -0.42461910404E+02  0.42461910404E+02  0.00000000000E+00 0.  1.
          2    1    1    2  501    0 -0.19919143626E+02 -0.39666491991E+01 -0.39950992077E+02  0.44817277434E+02  0.00000000000E+00 0.  1.
          2    1    1    2  502    0  0.19919143626E+02  0.39666491991E+01  0.13258725653E+04  0.13260281166E+04  0.00000000000E+00 0. -1.
</event>
<event>
 4    1  0.6089441E+003  0.2879207E+02  0.7546771E-02  0.1430392E+00
          2   -1    0    0  501    0  0.00000000000E+00  0.00000000000E+00  0.75986202777E+01  0.75986202777E+01  0.00000000000E+00 0. -1.
          2   -1    0    0  502    0 -0.00000000000E+00 -0.00000000000E+00 -0.22754240276E+03  0.22754240276E+03  0.00000000000E+00 0.  1.
          2    1    1    2  501    0  0.46164645905E+01  0.28419560381E+02 -0.19479754029E+03  0.19691385137E+03  0.00000000000E+00 0.  1.
          2    1    1    2  502    0 -0.46164645905E+01 -0.28419560381E+02 -0.25146242195E+02  0.38227171673E+02  0.00000000000E+00 0. -1.
</event>
<event>
 4    1  0.6089441E+003  0.3030589E+02  0.7546771E-02  0.1416956E+00
          2   -1    0    0  501    0  0.00000000000E+00  0.00000000000E+00  0.45283142339E+02  0.45283142339E+02  0.00000000000E+00 0.  1.
          2   -1    0    0  502    0 -0.00000000000E+00 -0.00000000000E+00 -0.71683213999E+03  0.71683213999E+03  0.00000000000E+00 0.  1.
          2    1    1    2  501    0  0.27769399658E+02 -0.12137026714E+02 -0.71140256442E+03  0.71204779028E+03  0.00000000000E+00 0.  1.
          2    1    1    2  502    0 -0.27769399658E+02  0.12137026714E+02  0.39853566776E+02  0.50067492044E+02  0.00000000000E+00 0.  1.
</event>
<event>
 4    1  0.6089441E+003  0.2133354E+02  0.7546771E-02  0.1514556E+00
          2   -1    0    0  501    0  0.00000000000E+00  0.00000000000E+00  0.12548015483E+04  0.12548015483E+04  0.00000000000E+00 0.  1.
          2   -1    0    0  502    0 -0.00000000000E+00 -0.00000000000E+00 -0.31504182439E+01  0.31504182439E+01  0.00000000000E+00 0.  1.
          2    1    1    2  501    0 -0.24547818174E+01  0.21191832718E+02  0.34162859042E+02  0.40276800588E+02  0.00000000000E+00 0.  1.
          2    1    1    2  502    0  0.24547818174E+01 -0.21191832718E+02  0.12174882710E+04  0.12176751660E+04  0.00000000000E+00 0.  1.
</event>
<event>
 4    1  0.6089441E+003  0.2015171E+02  0.7546771E-02  0.1531729E+00
          2   -1    0    0  502    0  0.00000000000E+00  0.00000000000E+00  0.23172251414E+02  0.23172251414E+02  0.00000000000E+00 0.  1.
          2   -1    0    0  501    0 -0.00000000000E+00 -0.00000000000E+00 -0.90149880847E+03  0.90149880847E+03  0.00000000000E+00 0. -1.
          2    1    1    2  501    0  0.19599701506E+02 -0.46843500867E+01  0.18656355615E+02  0.27461810568E+02  0.00000000000E+00 0.  1.
          2    1    1    2  502    0 -0.19599701506E+02  0.46843500867E+01 -0.89698291267E+03  0.89720924932E+03  0.00000000000E+00 0. -1.
</event>
<event>
 4    1  0.6089441E+003  0.2122706E+02  0.7546771E-02  0.1516048E+00
          2   -1    0    0  501    0  0.00000000000E+00  0.00000000000E+00  0.43232157762E+03  0.43232157762E+03  0.00000000000E+00 0. -1.
          2   -1    0    0  502    0 -0.00000000000E+00 -0.00000000000E+00 -0.30368112441E+01  0.30368112441E+01  0.00000000000E+00 0. -1.
          2    1    1    2  501    0 -0.19324091355E+02  0.87845122623E+01  0.38229028390E+02  0.43726957063E+02  0.00000000000E+00 0. -1.
          2    1    1    2  502    0  0.19324091355E+02 -0.87845122623E+01  0.39105573798E+03  0.39163143180E+03  0.00000000000E+00 0. -1.
</event>
<event>
 4    1  0.6089441E+003  0.2209727E+02  0.7546771E-02  0.1504156E+00
          2   -1    0    0  502    0  0.00000000000E+00  0.00000000000E+00  0.56363169566E+03  0.56363169566E+03  0.00000000000E+00 0. -1.
          2   -1    0    0  501    0 -0.00000000000E+00 -0.00000000000E+00 -0.22754550189E+01  0.22754550189E+01  0.00000000000E+00 0. -1.
          2    1    1    2  501    0  0.15855090572E+02 -0.15391733384E+02  0.50334533901E+03  0.50383014961E+03  0.00000000000E+00 0. -1.
          2    1    1    2  502    0 -0.15855090572E+02  0.15391733384E+02  0.58010901637E+02  0.62077001074E+02  0.00000000000E+00 0. -1.
</event>
<event>
 4    1  0.6089441E+003  0.2403639E+02  0.7546771E-02  0.1479879E+00
          2   -1    0    0  501    0  0.00000000000E+00  0.00000000000E+00  0.79007438171E+01  0.79007438171E+01  0.00000000000E+00 0. -1.
          2   -1    0    0  502    0 -0.00000000000E+00 -0.00000000000E+00 -0.14774367399E+03  0.14774367399E+03  0.00000000000E+00 0. -1.
          2    1    1    2  501    0  0.51895995675E+00 -0.24030785316E+02 -0.12522725937E+03  0.12751319325E+03  0.00000000000E+00 0. -1.
          2    1    1    2  502    0 -0.51895995675E+00  0.24030785316E+02 -0.14615670804E+02  0.28131224563E+02  0.00000000000E+00 0. -1.
</event>
<event>
 4    1  0.9444444E+003  0.2489222E+02  0.7546771E-02  0.1470013E+00
          2   -1    0    0  502    0  0.00000000000E+00  0.00000000000E+00  0.30644214254E+03  0.30644214254E+03  0.00000000000E+00 0.  1.
          2   -1    0    0  501    0 -0.00000000000E+00 -0.00000000000E+00 -0.13576095662E+04  0.13576095662E+04  0.00000000000E+00 0. -1.
          2    1    1    2  501    0 -0.67836774239E+01 -0.23950042722E+02  0.30582231245E+03  0.30683368397E+03  0.00000000000E+00 0.  1.
          2    1    1    2  502    0  0.67836774239E+01  0.23950042722E+02 -0.13569897361E+04  0.13572180248E+04  0.00000000000E+00 0. -1.
</event>
<event>
 4    1  0.6089441E+003  0.3643713E+02  0.7546771E-02  0.1370732E+00
          2   -1    0    0  501    0  0.00000000000E+00  0.00000000000E+00  0.83904411981E+03  0.83904411981E+03  0.00000000000E+00 0. -1.
          2   -1    0    0  502    0 -0.00000000000E+00 -0.00000000000E+00 -0.30644990181E+02  0.30644990181E+02  0.00000000000E+00 0.  1.
          2    1    1    2  501    0 -0.24173654273E+02  0.27263503772E+02 -0.19269608607E+02  0.41218709523E+02  0.00000000000E+00 0.  1.
          2    1    1    2  502    0  0.24173654273E+02 -0.27263503772E+02  0.82766873823E+03  0.82847040046E+03  0.00000000000E+00 0. -1.
</event>
<event>
 4    1  0.6089441E+003  0.3182881E+02  0.7546771E-02  0.1404343E+00
          2   -1    0    0  502    0  0.00000000000E+00  0.00000000000E+00  0.45485688744E+02  0.45485688744E+02  0.00000000000E+00 0.  1.
          2   -1    0    0  501    0 -0.00000000000E+00 -0.00000000000E+00 -0.50724054246E+03  0.50724054246E+03  0.00000000000E+00 0.  1.
          2    1    1    2  501    0  0.26557028029E+02 -0.17544155945E+02  0.39350188650E+02  0.50611367225E+02  0.00000000000E+00 0.  1.
          2    1    1    2  502    0 -0.26557028029E+02  0.17544155945E+02 -0.50110504237E+03  0.50211486398E+03  0.00000000000E+00 0.  1.
</event>
<event>
 4    1  0.6089441E+003  0.3414015E+02  0.7546771E-02  0.1386711E+00
          2   -1    0    0  501    0  0.00000000000E+00  0.00000000000E+00  0.15452668089E+03  0.15452668089E+03  0.00000000000E+00 0. -1.
          2   -1    0    0  502    0 -0.00000000000E+00 -0.00000000000E+00 -0.49954316442E+02  0.49954316442E+02  0.00000000000E+00 0.  1.
          2    1    1    2  501    0  0.29774578051E+02 -0.16704025609E+02 -0.41919870959E+02  0.54063162605E+02  0.00000000000E+00 0.  1.
          2    1    1    2  502    0 -0.29774578051E+02  0.16704025609E+02  0.14649223540E+03  0.15041783473E+03  0.00000000000E+00 0. -1.
</event>
<event>
 4    1  0.6089441E+003  0.4268306E+02  0.7546771E-02  0.1333442E+00
          2   -1    0    0  501    0  0.00000000000E+00  0.00000000000E+00  0.33045489494E+03  0.33045489494E+03  0.00000000000E+00 0. -1.
          2   -1    0    0  502    0 -0.00000000000E+00 -0.00000000000E+00 -0.22043735188E+02  0.22043735188E+02  0.00000000000E+00 0.  1.
          2    1    1    2  501    0 -0.42071801339E+02  0.71977408165E+01  0.15793779568E+01  0.42712274295E+02  0.00000000000E+00 0.  1.
          2    1    1    2  502    0  0.42071801339E+02 -0.71977408165E+01  0.30683178180E+03  0.30978635584E+03  0.00000000000E+00 0. -1.
</event>
<event>
 4    1  0.6089441E+003  0.2495740E+02  0.7546771E-02  0.1469281E+00
          2   -1    0    0  502    0  0.00000000000E+00  0.00000000000E+00  0.25718239243E+03  0.25718239243E+03  0.00000000000E+00 0.  1.
          2   -1    0    0  501    0 -0.00000000000E+00 -0.00000000000E+00 -0.23730353419E+02  0.23730353419E+02  0.00000000000E+00 0. -1.
          2    1    1    2  501    0 -0.21848257858E+02  0.12063385615E+02  0.24982209414E+03  0.25106562960E+03  0.00000000000E+00 0.  1.
          2    1    1    2  502    0  0.21848257858E+02 -0.12063385615E+02 -0.16370055126E+02  0.29847116255E+02  0.00000000000E+00 0. -1.
</event>
<event>
 4    1  0.1327991E+004  0.2619132E+02  0.7546771E-02  0.1455905E+00
          2   -1    0    0  502    0  0.00000000000E+00  0.00000000000E+00  0.14941553146E+04  0.14941553146E+04  0.00000000000E+00 0. -1.
          2   -1    0    0  501    0 -0.00000000000E+00 -0.00000000000E+00 -0.11691194146E+04  0.11691194146E+04  0.00000000000E+00 0.  1.
          2    1    1    2  501    0  0.19209799443E+02  0.17803624822E+02  0.14938938223E+04  0.14941234011E+04  0.00000000000E+00 0. -1.
          2    1    1    2  502    0 -0.19209799443E+02 -0.17803624822E+02 -0.11688579223E+04  0.11691513281E+04  0.00000000000E+00 0.  1.
</event>
<event>
 4    1  0.6089441E+003  0.2048320E+02  0.7546771E-02  0.1526773E+00
          2   -1    0    0  501    0  0.00000000000E+00  0.00000000000E+00  0.55500840519E+03  0.55500840519E+03  0.00000000000E+00 0.  1.
          2   -1    0    0  502    0 -0.00000000000E+00 -0.00000000000E+00 -0.15607441114E+03  0.15607441114E+03  0.00000000000E+00 0.  1.
          2    1    1    2  501    0 -0.85409019373E+01  0.18617590572E+02 -0.15521232316E+03  0.15655806254E+03  0.00000000000E+00 0.  1.
          2    1    1    2  502    0  0.85409019373E+01 -0.18617590572E+02  0.55414631721E+03  0.55452475379E+03  0.00000000000E+00 0.  1.
</event>
<event>
 4    1  0.6089441E+003  0.2113901E+02  0.7546771E-02  0.1517289E+00
          2   -1    0    0  502    0  0.00000000000E+00  0.00000000000E+00  0.97830039513E+01  0.97830039513E+01  0.00000000000E+00 0. -1.
          2   -1    0    0  501    0 -0.00000000000E+00 -0.00000000000E+00 -0.10039729847E+03  0.10039729847E+03  0.00000000000E+00 0. -1.
          2    1    1    2  501    0  0.12188718748E+02 -0.17271159543E+02 -0.46359118723E+01  0.21641383865E+02  0.00000000000E+00 0. -1.
          2    1    1    2  502    0 -0.12188718748E+02  0.17271159543E+02 -0.85978382649E+02  0.88538918559E+02  0.00000000000E+00 0. -1.
</event>
<event>
 4    1  0.6089441E+003  0.2094310E+02  0.7546771E-02  0.1520079E+00
          2   -1    0    0  502    0  0.00000000000E+00  0.00000000000E+00  0.10188630120E+02  0.10188630120E+02  0.00000000000E+00 0.  1.
          2   -1    0    0  501    0 -0.00000000000E+00 -0.00000000000E+00 -0.21550080874E+03  0.21550080874E+03  0.00000000000E+00 0. -1.
          2    1    1    2  501    0 -0.13788704401E+02 -0.15763412307E+02 -0.17098206470E+01  0.21012782378E+02  0.00000000000E+00 0.  1.
          2    1    1    2  502    0  0.13788704401E+02  0.15763412307E+02 -0.20360235797E+03  0.20467665648E+03  0.00000000000E+00 0. -1.
</event>
<event>
 4    1  0.6089441E+003  0.2302264E+02  0.7546771E-02  0.1492214E+00
          2   -1    0    0  501    0  0.00000000000E+00  0.00000000000E+00  0.49454207453E+03  0.49454207453E+03  0.00000000000E+00 0. -1.
          2   -1    0    0  502    0 -0.00000000000E+00 -0.00000000000E+00 -0.76045361651E+01  0.76045361651E+01  0.00000000000E+00 0. -1.
          2    1    1    2  501    0  0.19726888435E+02  0.11869784227E+02  0.10760245004E+02  0.25413082802E+02  0.00000000000E+00 0. -1.
          2    1    1    2  502    0 -0.19726888435E+02 -0.11869784227E+02  0.47617729336E+03  0.47673352789E+03  0.00000000000E+00 0. -1.
</event>
<event>
 4    1  0.6089441E+003  0.3811304E+02  0.7546771E-02  0.1359913E+00
          2   -1    0    0  502    0  0.00000000000E+00  0.00000000000E+00  0.21874464126E+02  0.21874464126E+02  0.00000000000E+00 0.  1.
          2   -1    0    0  501    0 -0.00000000000E+00 -0.00000000000E+00 -0.68358325938E+03  0.68358325938E+03  0.00000000000E+00 0. -1.
          2    1    1    2  501    0  0.21472565268E+02  0.31488616530E+02  0.43040042330E+01  0.38355292758E+02  0.00000000000E+00 0.  1.
          2    1    1    2  502    0 -0.21472565268E+02 -0.31488616530E+02 -0.66601279949E+03  0.66710243075E+03  0.00000000000E+00 0. -1.
</event>
<event>
 4    1  0.6089441E+003  0.4823747E+02  0.7546771E-02  0.1306000E+00
          2   -1    0    0  501    0  0.00000000000E+00  0.00000000000E+00  0.40501685831E+02  0.40501685831E+02  0.00000000000E+00 0.  1.
          2   -1    0    0  502    0 -0.00000000000E+00 -0.00000000000E+00 -0.38136747468E+03  0.38136747468E+03  0.00000000000E+00 0.  1.
          2    1    1    2  501    0  0.47554599103E+02 -0.80878551825E+01 -0.36483126752E+03  0.36800639540E+03  0.00000000000E+00 0.  1.
          2    1    1    2  502    0 -0.47554599103E+02  0.80878551825E+01  0.23965478671E+02  0.53862765109E+02  0.00000000000E+00 0.  1.
</event>
<event>
 4    1  0.6089441E+003  0.2482092E+02  0.7546771E-02  0.1470817E+00
          2   -1    0    0  501    0  0.00000000000E+00  0.00000000000E+00  0.16781319077E+02  0.16781319077E+02  0.00000000000E+00 0. -1.
          2   -1    0    0  502    0 -0.00000000000E+00 -0.00000000000E+00 -0.89540545580E+02  0.89540545580E+02  0.00000000000E+00 0. -1.
          2    1    1    2  501    0  0.18637764988E+02  0.16392429722E+02 -0.77213102931E+02  0.81104508507E+02  0.00000000000E+00 0. -1.
          2    1    1    2  502    0 -0.18637764988E+02 -0.16392429722E+02  0.44538764288E+01  0.25217356150E+02  0.00000000000E+00 0. -1.
</event>
<event>
 4    1  0.6089441E+003  0.2138303E+02  0.7546771E-02  0.1513866E+00
          2   -1    0    0  501    0  0.00000000000E+00  0.00000000000E+00  0.20201916731E+03  0.20201916731E+03  0.00000000000E+00 0.  1.
          2   -1    0    0  502    0 -0.00000000000E+00 -0.00000000000E+00 -0.21063133695E+02  0.21063133695E+02  0.00000000000E+00 0.  1.
          2    1    1    2  501    0 -0.88189685580E+01 -0.19479731480E+02 -0.14900090327E+02  0.26062364373E+02  0.00000000000E+00 0.  1.
          2    1    1    2  502    0  0.88189685580E+01  0.19479731480E+02  0.19585612395E+03  0.19701993664E+03  0.00000000000E+00 0.  1.
</event>
<event>
 4    1  0.6089441E+003  0.2767438E+02  0.7546771E-02  0.1440949E+00
          2   -1    0    0  502    0  0.00000000000E+00  0.00000000000E+00  0.70153850791E+03  0.70153850791E+03  0.00000000000E+00 0. -1.
          2   -1    0    0  501    0 -0.00000000000E+00 -0.00000000000E+00 -0.13103657995E+01  0.13103657995E+01  0.00000000000E+00 0. -1.
          2    1    1    2  501    0  0.93891891678E+01  0.26032946650E+02  0.49367089970E+03  0.49444598127E+03  0.00000000000E+00 0. -1.
          2    1    1    2  502    0 -0.93891891678E+01 -0.26032946650E+02  0.20655724242E+03  0.20840289245E+03  0.00000000000E+00 0. -1.
</event>
<event>
 4    1  0.6089441E+003  0.4367341E+02  0.7546771E-02  0.1328207E+00
          2   -1    0    0  502    0  0.00000000000E+00  0.00000000000E+00  0.19914044706E+04  0.19914044706E+04  0.00000000000E+00 0. -1.
          2   -1    0    0  501    0 -0.00000000000E+00 -0.00000000000E+00 -0.66055705335E+02  0.66055705335E+02  0.00000000000E+00 0. -1.
          2    1    1    2  501    0  0.11926754957E+02 -0.42013324601E+02  0.19839190051E+04  0.19843996537E+04  0.00000000000E+00 0. -1.
          2    1    1    2  502    0 -0.11926754957E+02  0.42013324601E+02 -0.58570239770E+02  0.73060522271E+02  0.00000000000E+00 0. -1.
</event>
<event>
 4    1  0.6089441E+003  0.2309380E+02  0.7546771E-02  0.1491324E+00
          2   -1    0    0  501    0  0.00000000000E+00  0.00000000000E+00  0.13013753606E+03  0.13013753606E+03  0.00000000000E+00 0. -1.
          2   -1    0    0  502    0 -0.00000000000E+00 -0.00000000000E+00 -0.70232714888E+03  0.70232714888E+03  0.00000000000E+00 0.  1.
          2    1    1    2  501    0  0.49198564578E+00 -0.23088556311E+02 -0.70111099249E+03  0.70149123107E+03  0.00000000000E+00 0.  1.
          2    1    1    2  502    0 -0.49198564578E+00  0.23088556311E+02  0.12892137967E+03  0.13097345387E+03  0.00000000000E+00 0. -1.
</event>
<event>
 4    1  0.6089441E+003  0.2662130E+02  0.7546771E-02  0.1451450E+00
          2   -1    0    0  501    0  0.00000000000E+00  0.00000000000E+00  0.85407768748E+01  0.85407768748E+01  0.00000000000E+00 0. -1.
          2   -1    0    0  502    0 -0.00000000000E+00 -0.00000000000E+00 -0.21695260938E+03  0.21695260938E+03  0.00000000000E+00 0.  1.
          2    1    1    2  501    0 -0.22982126427E+02  0.13435597643E+02 -0.19280581470E+03  0.19463498042E+03  0.00000000000E+00 0.  1.
          2    1    1    2  502    0  0.22982126427E+02 -0.13435597643E+02 -0.15606017802E+02  0.30858405836E+02  0.00000000000E+00 0. -1.
</event>
<event>
 4    1  0.6089441E+003  0.2426927E+02  0.7546771E-02  0.1477147E+00
          2   -1    0    0  501    0  0.00000000000E+00  0.00000000000E+00  0.87734534698E+02  0.87734534698E+02  0.00000000000E+00 0. -1.
          2   -1    0    0  502    0 -0.00000000000E+00 -0.00000000000E+00 -0.94727934376E+02  0.94727934376E+02  0.00000000000E+00 0. -1.
          2    1    1    2  501    0 -0.21907182935E+02 -0.10443798846E+02 -0.91435735715E+02  0.94601751380E+02  0.00000000000E+00 0. -1.
          2    1    1    2  502    0  0.21907182935E+02  0.10443798846E+02  0.84442336037E+02  0.87860717695E+02  0.00000000000E+00 0. -1.
</event>
<event>
 4    1  0.6089441E+003  0.3485007E+02  0.7546771E-02  0.1381620E+00
          2   -1    0    0  502    0  0.00000000000E+00  0.00000000000E+00  0.41356361320E+03  0.41356361320E+03  0.00000000000E+00 0. -1.
          2   -1    0    0  501    0 -0.00000000000E+00 -0.00000000000E+00 -0.12869949812E+02  0.12869949812E+02  0.00000000000E+00 0.  1.
          2    1    1    2  501    0 -0.18066714897E+02  0.29801366059E+02  0.38766410382E+03  0.38922742066E+03  0.00000000000E+00 0. -1.
          2    1    1    2  502    0  0.18066714897E+02 -0.29801366059E+02  0.13029559572E+02  0.37206142353E+02  0.00000000000E+00 0.  1.
</event>
<event>
 4    1  0.6089441E+003  0.2624580E+02  0.7546771E-02  0.1455335E+00
          2   -1    0    0  502    0  0.00000000000E+00  0.00000000000E+00  0.81149973545E+03  0.81149973545E+03  0.00000000000E+00 0.  1.
          2   -1    0    0  501    0 -0.00000000000E+00 -0.00000000000E+00 -0.21824067234E+02  0.21824067234E+02  0.00000000000E+00 0. -1.
          2    1    1    2  501    0  0.18616428346E+02  0.18500560637E+02  0.80331630521E+03  0.80374493986E+03  0.00000000000E+00 0.  1.
          2    1    1    2  502    0 -0.18616428346E+02 -0.18500560637E+02 -0.13640636989E+02  0.29578862820E+02  0.00000000000E+00 0. -1.
</event>
<event>
 4    1  0.6089441E+003  0.3389797E+02  0.7546771E-02  0.1388481E+00
          2   -1    0    0  502    0  0.00000000000E+00  0.00000000000E+00  0.24303124662E+01  0.24303124662E+01  0.00000000000E+00 0. -1.
          2   -1    0    0  501    0 -0.00000000000E+00 -0.00000000000E+00 -0.16480684497E+04  0.16480684497E+04  0.00000000000E+00 0. -1.
          2    1    1    2  501    0  0.33802767660E+02 -0.25387812892E+01 -0.12592856945E+03  0.13041118478E+03  0.00000000000E+00 0. -1.
          2    1    1    2  502    0 -0.33802767660E+02  0.25387812892E+01 -0.15197095678E+04  0.15200875774E+04  0.00000000000E+00 0. -1.
</event>
<event>
 4    1  0.6089441E+003  0.2384097E+02  0.7546771E-02  0.1482200E+00
          2   -1    0    0  501    0  0.00000000000E+00  0.00000000000E+00  0.56531445218E+03  0.56531445218E+03  0.00000000000E+00 0.  1.
          2   -1    0    0  502    0 -0.00000000000E+00 -0.00000000000E+00 -0.13654923386E+01  0.13654923386E+01  0.00000000000E+00 0. -1.
          2    1    1    2  501    0 -0.10452866907E+02  0.21427304721E+02  0.13648089574E+03  0.13854756120E+03  0.00000000000E+00 0. -1.
          2    1    1    2  502    0  0.10452866907E+02 -0.21427304721E+02  0.42746806410E+03  0.42813238331E+03  0.00000000000E+00 0.  1.
</event>
<event>
 4    1  0.6089441E+003  0.2480044E+02  0.7546771E-02  0.1471048E+00
          2   -1    0    0  501    0  0.00000000000E+00  0.00000000000E+00  0.82898214817E+03  0.82898214817E+03  0.00000000000E+00 0. -1.
          2   -1    0    0  502    0 -0.00000000000E+00 -0.00000000000E+00 -0.74194867777E+00  0.74194867777E+00  0.00000000000E+00 0. -1.
          2    1    1    2  501    0  0.17004845843E+02  0.18052620863E+02  0.41382720046E+03  0.41456967297E+03  0.00000000000E+00 0. -1.
          2    1    1    2  502    0 -0.17004845843E+02 -0.18052620863E+02  0.41441299904E+03  0.41515442389E+03  0.00000000000E+00 0. -1.
</event>
<event>
 4    1  0.6089441E+003  0.4803539E+02  0.7546771E-02  0.1306923E+00
          2   -1    0    0  501    0  0.00000000000E+00  0.00000000000E+00  0.56958128697E+02  0.56958128697E+02  0.00000000000E+00 0.  1.
          2   -1    0    0  502    0 -0.00000000000E+00 -0.00000000000E+00 -0.97905485313E+03  0.97905485313E+03  0.00000000000E+00 0. -1.
          2    1    1    2  501    0 -0.97969024146E+01 -0.47025734263E+02 -0.96822484008E+03  0.96941566932E+03  0.00000000000E+00 0. -1.
          2    1    1    2  502    0  0.97969024146E+01  0.47025734263E+02  0.46128115647E+02  0.66597312506E+02  0.00000000000E+00 0.  1.
</event>
<event>
 4    1  0.6089441E+003  0.2253266E+02  0.7546771E-02  0.1498451E+00
          2   -1    0    0  501    0  0.00000000000E+00  0.00000000000E+00  0.72324686271E+01  0.72324686271E+01  0.00000000000E+00 0. -1.
          2   -1    0    0  502    0 -0.00000000000E+00 -0.00000000000E+00 -0.16930842204E+03  0.16930842204E+03  0.00000000000E+00 0.  1.
          2    1    1    2  501    0 -0.20703604625E+02 -0.88927730393E+01 -0.14857328794E+03  0.15027222813E+03  0.00000000000E+00 0.  1.
          2    1    1    2  502    0  0.20703604625E+02  0.88927730393E+01 -0.13502665472E+02  0.26268662540E+02  0.00000000000E+00 0. -1.
</event>
<event>
 4    1  0.6089441E+003  0.3279917E+02  0.7546771E-02  0.1396733E+00
          2   -1    0    0  502    0  0.00000000000E+00  0.00000000000E+00  0.77699926756E+02  0.77699926756E+02  0.00000000000E+00 0. -1.
          2   -1    0    0  501    0 -0.00000000000E+00 -0.00000000000E+00 -0.15173052392E+02  0.15173052392E+02  0.00000000000E+00 0. -1.
          2    1    1    2  501    0  0.78601944944E+01 -0.31843413700E+02  0.17527224261E+02  0.37188563348E+02  0.00000000000E+00 0. -1.
          2    1    1    2  502    0 -0.78601944944E+01  0.31843413700E+02  0.44999650103E+02  0.55684415800E+02  0.00000000000E+00 0. -1.
</event>
<event>
 4    1  0.6089441E+003  0.2923835E+02  0.7546771E-02  0.1426333E+00
          2   -1    0    0  501    0  0.00000000000E+00  0.00000000000E+00  0.13339074665E+04  0.13339074665E+04  0.00000000000E+00 0.  1.
          2   -1    0    0  502    0 -0.00000000000E+00 -0.00000000000E+00 -0.11611297630E+02  0.11611297630E+02  0.00000000000E+00 0.  1.
          2    1    1    2  501    0 -0.28113766956E+02 -0.80310291648E+01  0.72186813660E+01  0.30116286002E+02  0.00000000000E+00 0.  1.
          2    1    1    2  502    0  0.28113766956E+02  0.80310291648E+01  0.13150774875E+04  0.13154024781E+04  0.00000000000E+00 0.  1.
</event>
<event>
 4    1  0.6089441E+003  0.2799468E+02  0.7546771E-02  0.1437864E+00
          2   -1    0    0  501    0  0.00000000000E+00  0.00000000000E+00  0.12727331682E+04  0.12727331682E+04  0.00000000000E+00 0. -1.
          2   -1    0    0  502    0 -0.00000000000E+00 -0.00000000000E+00 -0.14011261951E+03  0.14011261951E+03  0.00000000000E+00 0. -1.
          2    1    1    2  501    0  0.39701428974E+01  0.27711730681E+02 -0.13855862642E+03  0.14135839206E+03  0.00000000000E+00 0. -1.
          2    1    1    2  502    0 -0.39701428974E+01 -0.27711730681E+02  0.12711791751E+04  0.12714873957E+04  0.00000000000E+00 0. -1.
</event>
<event>
 4    1  0.6089441E+003  0.4662636E+02  0.7546771E-02  0.1313502E+00
          2   -1    0    0  501    0  0.00000000000E+00  0.00000000000E+00  0.47262304827E+02  0.47262304827E+02  0.00000000000E+00 0.  1.
          2   -1    0    0  502    0 -0.00000000000E+00 -0.00000000000E+00 -0.18129668359E+04  0.18129668359E+04  0.00000000000E+00 0.  1.
          2    1    1    2  501    0 -0.28765741766E+02 -0.36695362394E+02 -0.18010914954E+04  0.18016949221E+04  0.00000000000E+00 0.  1.
          2    1    1    2  502    0  0.28765741766E+02  0.36695362394E+02  0.35386964249E+02  0.58534218705E+02  0.00000000000E+00 0.  1.
</event>
<event>
 4    1  0.6089441E+003  0.2674930E+02  0.7546771E-02  0.1450143E+00
          2   -1    0    0  501    0  0.00000000000E+00  0.00000000000E+00  0.33966517174E+03  0.33966517174E+03  0.00000000000E+00 0.  1.
          2   -1    0    0  502    0 -0.00000000000E+00 -0.00000000000E+00 -0.22476773691E+01  0.22476773691E+01  0.00000000000E+00 0. -1.
          2    1    1    2  501    0 -0.25503536539E+02  0.80681356348E+01  0.12587282592E+03  0.12868369552E+03  0.00000000000E+00 0. -1.
          2    1    1    2  502    0  0.25503536539E+02 -0.80681356348E+01  0.21154466845E+03  0.21322915359E+03  0.00000000000E+00 0.  1.
</event>
<event>
 4    1  0.6089441E+003  0.2959560E+02  0.7546771E-02  0.1423144E+00
          2   -1    0    0  502    0  0.00000000000E+00  0.00000000000E+00  0.48356648798E+03  0.48356648798E+03  0.00000000000E+00 0.  1.
          2   -1    0    0  501    0 -0.00000000000E+00 -0.00000000000E+00 -0.82562876251E+01  0.82562876251E+01  0.00000000000E+00 0. -1.
          2    1    1    2  501    0  0.29592760103E+02  0.40968188407E+00  0.45492332244E+03  0.45588499492E+03  0.00000000000E+00 0.  1.
          2    1    1    2  502    0 -0.29592760103E+02 -0.40968188407E+00  0.20386877915E+02  0.35937780690E+02  0.00000000000E+00 0. -1.
</event>
<event>
 4    1  0.7052142E+003  0.2179629E+02  0.7546771E-02  0.1508193E+00
          2   -1    0    0  502    0  0.00000000000E+00  0.00000000000E+00  0.94648385018E+03  0.94648385018E+03  0.00000000000E+00 0.  1.
          2   -1    0    0  501    0 -0.00000000000E+00 -0.00000000000E+00 -0.68174433266E+03  0.68174433266E+03  0.00000000000E+00 0.  1.
          2    1    1    2  501    0 -0.19873230580E+02 -0.89516906554E+01  0.94618409585E+03  0.94643511204E+03  0.00000000000E+00 0.  1.
          2    1    1    2  502    0  0.19873230580E+02  0.89516906554E+01 -0.68144457833E+03  0.68179307081E+03  0.00000000000E+00 0.  1.
</event>
<event>
 4    1  0.6089441E+003  0.2152922E+02  0.7546771E-02  0.1511841E+00
          2   -1    0    0  501    0  0.00000000000E+00  0.00000000000E+00  0.80199935673E+02  0.80199935673E+02  0.00000000000E+00 0. -1.
          2   -1    0    0  502    0 -0.00000000000E+00 -0.00000000000E+00 -0.71294643790E+02  0.71294643790E+02  0.00000000000E+00 0.  1.
          2    1    1    2  501    0 -0.20706514940E+02  0.58946875712E+01 -0.68159595652E+02  0.71478931035E+02  0.00000000000E+00 0.  1.
          2    1    1    2  502    0  0.20706514940E+02 -0.58946875712E+01  0.77064887535E+02  0.80015648428E+02  0.00000000000E+00 0. -1.
</event>
<event>
 4    1  0.6089441E+003  0.2319155E+02  0.7546771E-02  0.1490107E+00
          2   -1    0    0  501    0  0.00000000000E+00  0.00000000000E+00  0.42178002176E+02  0.42178002176E+02  0.00000000000E+00 0. -1.
          2   -1    0    0  502    0 -0.00000000000E+00 -0.00000000000E+00 -0.61993705271E+03  0.61993705271E+03  0.00000000000E+00 0.  1.
          2    1    1    2  501    0  0.12083981005E+02 -0.19794578661E+02 -0.61651450015E+03  0.61695054651E+03  0.00000000000E+00 0.  1.
          2    1    1    2  502    0 -0.12083981005E+02  0.19794578661E+02  0.38755449620E+02  0.45164508373E+02  0.00000000000E+00 0. -1.
</event>
<event>
 4    1  0.6089441E+003  0.2740015E+02  0.7546771E-02  0.1443629E+00
          2   -1    0    0  502    0  0.00000000000E+00  0.00000000000E+00  0.13909265849E+01  0.13909265849E+01  0.00000000000E+00 0. -1.
          2   -1    0    0  501    0 -0.00000000000E+00 -0.00000000000E+00 -0.60670778820E+03  0.60670778820E+03  0.00000000000E+00 0. -1.
          2    1    1    2  501    0  0.25829690323E+02 -0.91430427390E+01 -0.20165905440E+03  0.20351202018E+03  0.00000000000E+00 0. -1.
          2    1    1    2  502    0 -0.25829690323E+02  0.91430427390E+01 -0.40365780721E+03  0.40458669461E+03  0.00000000000E+00 0. -1.
</event>
<event>
 4    1  0.6089441E+003  0.2812791E+02  0.7546771E-02  0.1436596E+00
          2   -1    0    0  501    0  0.00000000000E+00  0.00000000000E+00  0.27005146783E+03  0.27005146783E+03  0.00000000000E+00 0.  1.
          2   -1    0    0  502    0 -0.00000000000E+00 -0.00000000000E+00 -0.17549635545E+02  0.17549635545E+02  0.00000000000E+00 0.  1.
          2    1    1    2  501    0  0.10408074623E+02  0.26131427984E+02 -0.49988968921E+01  0.28568663182E+02  0.00000000000E+00 0.  1.
          2    1    1    2  502    0 -0.10408074623E+02 -0.26131427984E+02  0.25750072917E+03  0.25903244019E+03  0.00000000000E+00 0.  1.
</event>
<event>
 4    1  0.6089441E+003  0.2012972E+02  0.7546771E-02  0.1532062E+00
          2   -1    0    0  502    0  0.00000000000E+00  0.00000000000E+00  0.50657844961E+02  0.50657844961E+02  0.00000000000E+00 0.  1.
          2   -1    0    0  501    0 -0.00000000000E+00 -0.00000000000E+00 -0.79547959738E+03  0.79547959738E+03  0.00000000000E+00 0. -1.
          2    1    1    2  501    0 -0.13333417245E+02  0.15080634894E+02  0.48525406737E+02  0.52534947066E+02  0.00000000000E+00 0.  1.
          2    1    1    2  502    0  0.13333417245E+02 -0.15080634894E+02 -0.79334715916E+03  0.79360249527E+03  0.00000000000E+00 0. -1.
</event>
<event>
 4    1  0.6089441E+003  0.3168780E+02  0.7546771E-02  0.1405475E+00
          2   -1    0    0  501    0  0.00000000000E+00  0.00000000000E+00  0.11587026484E+02  0.11587026484E+02  0.00000000000E+00 0.  1.
          2   -1    0    0  502    0 -0.00000000000E+00 -0.00000000000E+00 -0.63850102571E+03  0.63850102571E+03  0.00000000000E+00 0. -1.
          2    1    1    2  501    0  0.28770200631E+02  0.13281267446E+02 -0.61563921272E+03  0.61645418058E+03  0.00000000000E+00 0. -1.
          2    1    1    2  502    0 -0.28770200631E+02 -0.13281267446E+02 -0.11274786506E+02  0.33633871619E+02  0.00000000000E+00 0.  1.
</event>
<event>
 4    1  0.6089441E+003  0.6823306E+02  0.7546771E-02  0.1234163E+00
          2   -1    0    0  502    0  0.00000000000E+00  0.00000000000E+00  0.22226914504E+03  0.22226914504E+03  0.00000000000E+00 0.  1.
          2   -1    0    0  501    0 -0.00000000000E+00 -0.00000000000E+00 -0.23857533467E+02  0.23857533467E+02  0.00000000000E+00 0.  1.
          2    1    1    2  501    0  0.46400372169E+02  0.50027547094E+02  0.14219339544E+03  0.15771718902E+03  0.00000000000E+00 0.  1.
          2    1    1    2  502    0 -0.46400372169E+02 -0.50027547094E+02  0.56218216127E+02  0.88409489480E+02  0.00000000000E+00 0.  1.
</event>
<event>
 4    1  0.6089441E+003  0.2312392E+02  0.7546771E-02  0.1490948E+00
          2   -1    0    0  501    0  0.00000000000E+00  0.00000000000E+00  0.28646665536E+03  0.28646665536E+03  0.00000000000E+00 0.  1.
          2   -1    0    0  502    0 -0.00000000000E+00 -0.00000000000E+00 -0.72222055499E+01  0.72222055499E+01  0.00000000000E+00 0. -1.
          2    1    1    2  501    0 -0.17388210406E+02  0.15243555961E+02  0.13169775962E+02  0.26611254355E+02  0.00000000000E+00 0. -1.
          2    1    1    2  502    0  0.17388210406E+02 -0.15243555961E+02  0.26607467385E+03  0.26707760655E+03  0.00000000000E+00 0.  1.
</event>
<event>
 4    1  0.6089441E+003  0.3055144E+02  0.7546771E-02  0.1414864E+00
          2   -1    0    0  501    0  0.00000000000E+00  0.00000000000E+00  0.43123320354E+01  0.43123320354E+01  0.00000000000E+00 0. -1.
          2   -1    0    0  502    0 -0.00000000000E+00 -0.00000000000E+00 -0.12232608916E+04  0.12232608916E+04  0.00000000000E+00 0.  1.
          2    1    1    2  501    0  0.25431947468E+02 -0.16929464775E+02 -0.11663169344E+04  0.11667170103E+04  0.00000000000E+00 0.  1.
          2    1    1    2  502    0 -0.25431947468E+02  0.16929464775E+02 -0.52631625129E+02  0.60856213268E+02  0.00000000000E+00 0. -1.
</event>
<event>
 4    1  0.6089441E+003  0.3415269E+02  0.7546771E-02  0.1386620E+00
          2   -1    0    0  501    0  0.00000000000E+00  0.00000000000E+00  0.12994220179E+02  0.12994220179E+02  0.00000000000E+00 0. -1.
          2   -1    0    0  502    0 -0.00000000000E+00 -0.00000000000E+00 -0.15781151178E+03  0.15781151178E+03  0.00000000000E+00 0. -1.
          2    1    1    2  501    0 -0.25331762514E+02 -0.22906513953E+02 -0.12848901346E+03  0.13295049136E+03  0.00000000000E+00 0. -1.
          2    1    1    2  502    0  0.25331762514E+02  0.22906513953E+02 -0.16328278137E+02  0.37855240594E+02  0.00000000000E+00 0. -1.
</event>
<event>
 4    1  0.6089441E+003  0.2517029E+02  0.7546771E-02  0.1466907E+00
          2   -1    0    0  502    0  0.00000000000E+00  0.00000000000E+00  0.53719877215E+01  0.53719877215E+01  0.00000000000E+00 0. -1.
          2   -1    0    0  501    0 -0.00000000000E+00 -0.00000000000E+00 -0.11814375133E+03  0.11814375133E+03  0.00000000000E+00 0. -1.
          2    1    1    2  501    0  0.21188720429E+02  0.13586084615E+02 -0.53787814075E+02  0.59385793853E+02  0.00000000000E+00 0. -1.
          2    1    1    2  502    0 -0.21188720429E+02 -0.13586084615E+02 -0.58983949536E+02  0.64129945201E+02  0.00000000000E+00 0. -1.
</event>
<event>
 4    1  0.6089441E+003  0.2802415E+02  0.7546771E-02  0.1437583E+00
          2   -1    0    0  502    0  0.00000000000E+00  0.00000000000E+00  0.19832538259E+04  0.19832538259E+04  0.00000000000E+00 0.  1.
          2   -1    0    0  501    0 -0.00000000000E+00 -0.00000000000E+00 -0.86679182560E+00  0.86679182560E+00  0.00000000000E+00 0.  1.
          2    1    1    2  501    0  0.27611260906E+01 -0.27887799601E+02  0.17223304004E+04  0.17225583768E+04  0.00000000000E+00 0.  1.
          2    1    1    2  502    0 -0.27611260906E+01  0.27887799601E+02  0.26005663364E+03  0.26156224094E+03  0.00000000000E+00 0.  1.
</event>
<event>
 4    1  0.6089441E+003  0.2471351E+02  0.7546771E-02  0.1472034E+00
          2   -1    0    0  502    0  0.00000000000E+00  0.00000000000E+00  0.64218637087E+03  0.64218637087E+03  0.00000000000E+00 0.  1.
          2   -1    0    0  501    0 -0.00000000000E+00 -0.00000000000E+00 -0.51359567836E+01  0.51359567836E+01  0.00000000000E+00 0.  1.
          2    1    1    2  501    0  0.23460807929E+02  0.77684042250E+01  0.61068624534E+03  0.61118609920E+03  0.00000000000E+00 0.  1.
          2    1    1    2  502    0 -0.23460807929E+02 -0.77684042250E+01  0.26364168747E+02  0.36136228450E+02  0.00000000000E+00 0.  1.
</event>
<event>
 4    1  0.6089441E+003  0.3283611E+02  0.7546771E-02  0.1396449E+00
          2   -1    0    0  501    0  0.00000000000E+00  0.00000000000E+00  0.31720395237E+03  0.31720395237E+03  0.00000000000E+00 0. -1.
          2   -1    0    0  502    0 -0.00000000000E+00 -0.00000000000E+00 -0.51421892679E+03  0.51421892679E+03  0.00000000000E+00 0.  1.
          2    1    1    2  501    0  0.25429296632E+02  0.20774038701E+02 -0.51284267437E+03  0.51389280835E+03  0.00000000000E+00 0.  1.
          2    1    1    2  502    0 -0.25429296632E+02 -0.20774038701E+02  0.31582769995E+03  0.31753007081E+03  0.00000000000E+00 0. -1.
</event>
<event>
 4    1  0.6089441E+003  0.3651942E+02  0.7546771E-02  0.1370185E+00
          2   -1    0    0  502    0  0.00000000000E+00  0.00000000000E+00  0.54895671321E+01  0.54895671321E+01  0.00000000000E+00 0. -1.
          2   -1    0    0  501    0 -0.00000000000E+00 -0.00000000000E+00 -0.23229761715E+04  0.23229761715E+04  0.00000000000E+00 0. -1.
          2    1    1    2  501    0  0.16904889467E+02  0.32371174199E+02 -0.57071333007E+02  0.67755481388E+02  0.00000000000E+00 0. -1.
          2    1    1    2  502    0 -0.16904889467E+02 -0.32371174199E+02 -0.22604152714E+04  0.22607102573E+04  0.00000000000E+00 0. -1.
</event>
<event>
 4    1  0.9102167E+003  0.2382989E+02  0.7546771E-02  0.1482332E+00
          2   -1    0    0  502    0  0.00000000000E+00  0.00000000000E+00  0.35414327386E+03  0.35414327386E+03  0.00000000000E+00 0.  1.
          2   -1    0    0  501    0 -0.00000000000E+00 -0.00000000000E+00 -0.93525166551E+03  0.93525166551E+03  0.00000000000E+00 0.  1.
          2    1    1    2  501    0  0.78407596010E+01 -0.22503022589E+02  0.35359037113E+03  0.35439245773E+03  0.00000000000E+00 0.  1.
          2    1    1    2  502    0 -0.78407596010E+01  0.22503022589E+02 -0.93469876278E+03  0.93500248164E+03  0.00000000000E+00 0.  1.
</event>
<event>
 4    1  0.6089441E+003  0.2768003E+02  0.7546771E-02  0.1440894E+00
          2   -1    0    0  502    0  0.00000000000E+00  0.00000000000E+00  0.70433174944E+03  0.70433174944E+03  0.00000000000E+00 0. -1.
          2   -1    0    0  501    0 -0.00000000000E+00 -0.00000000000E+00 -0.41253845959E+01  0.41253845959E+01  0.00000000000E+00 0.  1.
          2    1    1    2  501    0 -0.61978989825E+01 -0.26977213620E+02  0.65406171629E+03  0.65464716659E+03  0.00000000000E+00 0. -1.
          2    1    1    2  502    0  0.61978989825E+01  0.26977213620E+02  0.46144648555E+02  0.53809967448E+02  0.00000000000E+00 0.  1.
</event>
<event>
 4    1  0.6089441E+003  0.2374211E+02  0.7546771E-02  0.1483384E+00
          2   -1    0    0  502    0  0.00000000000E+00  0.00000000000E+00  0.18741311647E+02  0.18741311647E+02  0.00000000000E+00 0.  1.
          2   -1    0    0  501    0 -0.00000000000E+00 -0.00000000000E+00 -0.74565535023E+03  0.74565535023E+03  0.00000000000E+00 0.  1.
          2    1    1    2  501    0  0.11546884445E+02 -0.20745057208E+02  0.10953656950E+02  0.26147094284E+02  0.00000000000E+00 0.  1.
          2    1    1    2  502    0 -0.11546884445E+02  0.20745057208E+02 -0.73786769553E+03  0.73824956759E+03  0.00000000000E+00 0.  1.
</event>
<event>
 4    1  0.6089441E+003  0.2060102E+02  0.7546771E-02  0.1525038E+00
          2   -1    0    0  501    0  0.00000000000E+00  0.00000000000E+00  0.20656668408E+03  0.20656668408E+03  0.00000000000E+00 0. -1.
          2   -1    0    0  502    0 -0.00000000000E+00 -0.00000000000E+00 -0.20549729769E+01  0.20549729769E+01  0.00000000000E+00 0. -1.
          2    1    1    2  501    0 -0.61943256102E+01 -0.19647705285E+02  0.10076286030E+03  0.10284724599E+03  0.00000000000E+00 0. -1.
          2    1    1    2  502    0  0.61943256102E+01  0.19647705285E+02  0.10374885081E+03  0.10577441107E+03  0.00000000000E+00 0. -1.
</event>
<event>
 4    1  0.6089441E+003  0.2154268E+02  0.7546771E-02  0.1511656E+00
          2   -1    0    0  502    0  0.00000000000E+00  0.00000000000E+00  0.96902074848E+03  0.96902074848E+03  0.00000000000E+00 0. -1.
          2   -1    0    0  501    0 -0.00000000000E+00 -0.00000000000E+00 -0.14992922839E+01  0.14992922839E+01  0.00000000000E+00 0.  1.
          2    1    1    2  501    0 -0.13281325352E+02  0.16961533534E+02  0.88408308971E+03  0.88434551886E+03  0.00000000000E+00 0. -1.
          2    1    1    2  502    0  0.13281325352E+02 -0.16961533534E+02  0.83438366494E+02  0.86174521908E+02  0.00000000000E+00 0.  1.
</event>
<event>
 4    1  0.6089441E+003  0.2311017E+02  0.7546771E-02  0.1491119E+00
          2   -1    0    0  501    0  0.00000000000E+00  0.00000000000E+00  0.77233886154E+02  0.77233886154E+02  0.00000000000E+00 0. -1.
          2   -1    0    0  502    0 -0.00000000000E+00 -0.00000000000E+00 -0.14963570306E+03  0.14963570306E+03  0.00000000000E+00 0. -1.
          2    1    1    2  501    0 -0.93954515655E+01  0.21114100861E+02 -0.14698362651E+03  0.14878933506E+03  0.00000000000E+00 0. -1.
          2    1    1    2  502    0  0.93954515655E+01 -0.21114100861E+02  0.74581809604E+02  0.78080254156E+02  0.00000000000E+00 0. -1.
</event>
<event>
 4    1  0.6089441E+003  0.7160201E+02  0.7546771E-02  0.1224812E+00
          2   -1    0    0  502    0  0.00000000000E+00  0.00000000000E+00  0.27663157710E+04  0.27663157710E+04  0.00000000000E+00 0. -1.
          2   -1    0    0  501    0 -0.00000000000E+00 -0.00000000000E+00 -0.86194177481E+01  0.86194177481E+01  0.00000000000E+00 0. -1.
          2    1    1    2  501    0  0.17044281598E+02 -0.69543805446E+02  0.26081350631E+04  0.26091177351E+04  0.00000000000E+00 0. -1.
          2    1    1    2  502    0 -0.17044281598E+02  0.69543805446E+02  0.14956129013E+03  0.16581745360E+03  0.00000000000E+00 0. -1.
</event>
<event>
 4    1  0.6089441E+003  0.2001167E+02  0.7546771E-02  0.1533857E+00
          2   -1    0    0  501    0  0.00000000000E+00  0.00000000000E+00  0.11175023519E+04  0.11175023519E+04  0.00000000000E+00 0. -1.
          2   -1    0    0  502    0 -0.00000000000E+00 -0.00000000000E+00 -0.30198333300E+01  0.30198333300E+01  0.00000000000E+00 0.  1.
          2    1    1    2  501    0  0.11921072544E+02  0.16073421836E+02  0.31272281487E+02  0.37127112055E+02  0.00000000000E+00 0.  1.
          2    1    1    2  502    0 -0.11921072544E+02 -0.16073421836E+02  0.10832102371E+04  0.10833950732E+04  0.00000000000E+00 0. -1.
</event>
<event>
 4    1  0.6089441E+003  0.2003668E+02  0.7546771E-02  0.1533476E+00
          2   -1    0    0  501    0  0.00000000000E+00  0.00000000000E+00  0.74727710255E+03  0.74727710255E+03  0.00000000000E+00 0.  1.
          2   -1    0    0  502    0 -0.00000000000E+00 -0.00000000000E+00 -0.16659523747E+02  0.16659523747E+02  0.00000000000E+00 0. -1.
          2    1    1    2  501    0  0.17268221254E+02  0.10162540932E+02 -0.10450129770E+02  0.22598095400E+02  0.00000000000E+00 0. -1.
          2    1    1    2  502    0 -0.17268221254E+02 -0.10162540932E+02  0.74106770857E+03  0.74133853089E+03  0.00000000000E+00 0.  1.
</event>
<event>
 4    1  0.6089441E+003  0.3052734E+02  0.7546771E-02  0.1415068E+00
          2   -1    0    0  502    0  0.00000000000E+00  0.00000000000E+00  0.64499433681E+02  0.64499433681E+02  0.00000000000E+00 0. -1.
          2   -1    0    0  501    0 -0.00000000000E+00 -0.00000000000E+00 -0.42584862574E+02  0.42584862574E+02  0.00000000000E+00 0.  1.
          2    1    1    2  501    0 -0.71769124032E+01 -0.29671707418E+02  0.54478635160E+02  0.62448698798E+02  0.00000000000E+00 0. -1.
          2    1    1    2  502    0  0.71769124032E+01  0.29671707418E+02 -0.32564064052E+02  0.44635597457E+02  0.00000000000E+00 0.  1.
</event>
<event>
 4    1  0.6089441E+003  0.2103011E+02  0.7546771E-02  0.1518835E+00
          2   -1    0    0  501    0  0.00000000000E+00  0.00000000000E+00  0.21109955268E+02  0.21109955268E+02  0.00000000000E+00 0.  1.
          2   -1    0    0  502    0 -0.00000000000E+00 -0.00000000000E+00 -0.28052751528E+02  0.28052751528E+02  0.00000000000E+00 0. -1.
          2    1    1    2  501    0  0.16980338627E+02 -0.12406998011E+02 -0.15839814056E+02  0.26328030858E+02  0.00000000000E+00 0. -1.
          2    1    1    2  502    0 -0.16980338627E+02  0.12406998011E+02  0.88970177969E+01  0.22834675938E+02  0.00000000000E+00 0.  1.
</event>
<event>
 4    1  0.6089441E+003  0.2722549E+02  0.7546771E-02  0.1445356E+00
          2   -1    0    0  502    0  0.00000000000E+00  0.00000000000E+00  0.55007308987E+03  0.55007308987E+03  0.00000000000E+00 0. -1.
          2   -1    0    0  501    0 -0.00000000000E+00 -0.00000000000E+00 -0.93174646083E+01  0.93174646083E+01  0.00000000000E+00 0. -1.
          2    1    1    2  501    0 -0.22271918091E+02  0.15658518395E+02  0.52905864717E+03  0.52975869949E+03  0.00000000000E+00 0. -1.
          2    1    1    2  502    0  0.22271918091E+02 -0.15658518395E+02  0.11696978088E+02  0.29631854991E+02  0.00000000000E+00 0. -1.
</event>
<event>
 4    1  0.6089441E+003  0.2636975E+02  0.7546771E-02  0.1454044E+00
          2   -1    0    0  502    0  0.00000000000E+00  0.00000000000E+00  0.31757994668E+02  0.31757994668E+02  0.00000000000E+00 0.  1.
          2   -1    0    0  501    0 -0.00000000000E+00 -0.00000000000E+00 -0.28327838067E+02  0.28327838067E+02  0.00000000000E+00 0.  1.
          2    1    1    2  501    0 -0.10370458909E+02 -0.24244943295E+02  0.16030787640E+02  0.30860166003E+02  0.00000000000E+00 0.  1.
          2    1    1    2  502    0  0.10370458909E+02  0.24244943295E+02 -0.12600631040E+02  0.29225666732E+02  0.00000000000E+00 0.  1.
</event>
<event>
 4    1  0.6089441E+003  0.4266596E+02  0.7546771E-02  0.1333534E+00
          2   -1    0    0  502    0  0.00000000000E+00  0.00000000000E+00  0.14694683134E+03  0.14694683134E+03  0.00000000000E+00 0. -1.
          2   -1    0    0  501    0 -0.00000000000E+00 -0.00000000000E+00 -0.10160962030E+03  0.10160962030E+03  0.00000000000E+00 0. -1.
          2    1    1    2  501    0 -0.16828609783E+02 -0.39206910780E+02  0.13912479454E+03  0.14552007564E+03  0.00000000000E+00 0. -1.
          2    1    1    2  502    0  0.16828609783E+02  0.39206910780E+02 -0.93787583496E+02  0.10303637600E+03  0.00000000000E+00 0. -1.
</event>
<event>
 4    1  0.6089441E+003  0.4141392E+02  0.7546771E-02  0.1340394E+00
          2   -1    0    0  502    0  0.00000000000E+00  0.00000000000E+00  0.29464295838E+03  0.29464295838E+03  0.00000000000E+00 0.  1.
          2   -1    0    0  501    0 -0.00000000000E+00 -0.00000000000E+00 -0.96968639071E+02  0.96968639071E+02  0.00000000000E+00 0.  1.
          2    1    1    2  501    0  0.20903979079E+02  0.35751039215E+02  0.28867493651E+03  0.29163047185E+03  0.00000000000E+00 0.  1.
          2    1    1    2  502    0 -0.20903979079E+02 -0.35751039215E+02 -0.91000617196E+02  0.99981125600E+02  0.00000000000E+00 0.  1.
</event>
<event>
 4    1  0.6089441E+003  0.2015170E+02  0.7546771E-02  0.1531729E+00
          2   -1    0    0  501    0  0.00000000000E+00  0.00000000000E+00  0.75724891682E+00  0.75724891682E+00  0.00000000000E+00 0.  1.
          2   -1    0    0  502    0 -0.00000000000E+00 -0.00000000000E+00 -0.79715187353E+03  0.79715187353E+03  0.00000000000E+00 0. -1.
          2    1    1    2  501    0  0.10168355912E+02 -0.17398146189E+02 -0.62642780541E+03  0.62675185388E+03  0.00000000000E+00 0. -1.
          2    1    1    2  502    0 -0.10168355912E+02  0.17398146189E+02 -0.16996681920E+03  0.17115726857E+03  0.00000000000E+00 0.  1.
</event>
<event>
 4    1  0.6089441E+003  0.2258180E+02  0.7546771E-02  0.1497817E+00
          2   -1    0    0  501    0  0.00000000000E+00  0.00000000000E+00  0.25262556479E+03  0.25262556479E+03  0.00000000000E+00 0. -1.
          2   -1    0    0  502    0 -0.00000000000E+00 -0.00000000000E+00 -0.98196004021E+03  0.98196004021E+03  0.00000000000E+00 0. -1.
          2    1    1    2  501    0 -0.20035164918E+02  0.10417764751E+02 -0.98132524953E+03  0.98158503606E+03  0.00000000000E+00 0. -1.
          2    1    1    2  502    0  0.20035164918E+02 -0.10417764751E+02  0.25199077410E+03  0.25300056895E+03  0.00000000000E+00 0. -1.
</event>
<event>
 4    1  0.6089441E+003  0.2138190E+02  0.7546771E-02  0.1513882E+00
          2   -1    0    0  502    0  0.00000000000E+00  0.00000000000E+00  0.89349528036E+03  0.89349528036E+03  0.00000000000E+00 0.  1.
          2   -1    0    0  501    0 -0.00000000000E+00 -0.00000000000E+00 -0.15958980194E+02  0.15958980194E+02  0.00000000000E+00 0. -1.
          2    1    1    2  501    0  0.17824280550E+02  0.11810196845E+02  0.88614608357E+03  0.88640400899E+03  0.00000000000E+00 0.  1.
          2    1    1    2  502    0 -0.17824280550E+02 -0.11810196845E+02 -0.86097834081E+01  0.23050251560E+02  0.00000000000E+00 0. -1.
</event>
<event>
 4    1  0.6089441E+003  0.3204870E+02  0.7546771E-02  0.1402591E+00
          2   -1    0    0  501    0  0.00000000000E+00  0.00000000000E+00  0.12701269258E+02  0.12701269258E+02  0.00000000000E+00 0. -1.
          2   -1    0    0  502    0 -0.00000000000E+00 -0.00000000000E+00 -0.14737526154E+03  0.14737526154E+03  0.00000000000E+00 0. -1.
          2    1    1    2  501    0  0.17278719277E+02  0.26991945654E+02 -0.12110472581E+03  0.12527359612E+03  0.00000000000E+00 0. -1.
          2    1    1    2  502    0 -0.17278719277E+02 -0.26991945654E+02 -0.13569266473E+02  0.34802934684E+02  0.00000000000E+00 0. -1.
</event>
<event>
 4    1  0.6089441E+003  0.2113274E+02  0.7546771E-02  0.1517378E+00
          2   -1    0    0  501    0  0.00000000000E+00  0.00000000000E+00  0.37478409243E+01  0.37478409243E+01  0.00000000000E+00 0. -1.
          2   -1    0    0  502    0 -0.00000000000E+00 -0.00000000000E+00 -0.11985688072E+03  0.11985688072E+03  0.00000000000E+00 0. -1.
          2    1    1    2  501    0 -0.18895943036E+02  0.94623515770E+01 -0.53342036791E+02  0.57375653805E+02  0.00000000000E+00 0. -1.
          2    1    1    2  502    0  0.18895943036E+02 -0.94623515770E+01 -0.62767003006E+02  0.66229067840E+02  0.00000000000E+00 0. -1.
</event>
<event>
 4    1  0.6089441E+003  0.2565708E+02  0.7546771E-02  0.1461585E+00
          2   -1    0    0  502    0  0.00000000000E+00  0.00000000000E+00  0.20954779497E+03  0.20954779497E+03  0.00000000000E+00 0. -1.
          2   -1    0    0  501    0 -0.00000000000E+00 -0.00000000000E+00 -0.41245137603E+01  0.41245137603E+01  0.00000000000E+00 0. -1.
          2    1    1    2  501    0 -0.24760670929E+02 -0.67227259959E+01  0.50553673381E+02  0.56691796250E+02  0.00000000000E+00 0. -1.
          2    1    1    2  502    0  0.24760670929E+02  0.67227259959E+01  0.15486960783E+03  0.15698051248E+03  0.00000000000E+00 0. -1.
</event>
<event>
 4    1  0.6089441E+003  0.2160789E+02  0.7546771E-02  0.1510760E+00
          2   -1    0    0  502    0  0.00000000000E+00  0.00000000000E+00  0.35873019015E+00  0.35873019015E+00  0.00000000000E+00 0. -1.
          2   -1    0    0  501    0 -0.00000000000E+00 -0.00000000000E+00 -0.14206489857E+04  0.14206489857E+04  0.00000000000E+00 0. -1.
          2    1    1    2  501    0 -0.13474724903E+02 -0.16891795130E+02 -0.50441444842E+03  0.50487705110E+03  0.00000000000E+00 0. -1.
          2    1    1    2  502    0  0.13474724903E+02  0.16891795130E+02 -0.91587580707E+03  0.91613066477E+03  0.00000000000E+00 0. -1.
</event>
<event>
 4    1  0.6089441E+003  0.2421041E+02  0.7546771E-02  0.1477834E+00
          2   -1    0    0  501    0  0.00000000000E+00  0.00000000000E+00  0.77684452948E+02  0.77684452948E+02  0.00000000000E+00 0.  1.
          2   -1    0    0  502    0 -0.00000000000E+00 -0.00000000000E+00 -0.36187523928E+03  0.36187523928E+03  0.00000000000E+00 0.  1.
          2    1    1    2  501    0  0.11516251891E+02  0.21296002710E+02 -0.35957193799E+03  0.36038607406E+03  0.00000000000E+00 0.  1.
          2    1    1    2  502    0 -0.11516251891E+02 -0.21296002710E+02  0.75381151655E+02  0.79173618168E+02  0.00000000000E+00 0.  1.
</event>
<event>
 4    1  0.6089441E+003  0.4767232E+02  0.7546771E-02  0.1308593E+00
          2   -1    0    0  502    0  0.00000000000E+00  0.00000000000E+00  0.44078346958E+02  0.44078346958E+02  0.00000000000E+00 0.  1.
          2   -1    0    0  501    0 -0.00000000000E+00 -0.00000000000E+00 -0.11828338517E+04  0.11828338517E+04  0.00000000000E+00 0. -1.
          2    1    1    2  501    0 -0.42953528984E+02 -0.20679557849E+02  0.30559210923E+02  0.56626099435E+02  0.00000000000E+00 0.  1.
          2    1    1    2  502    0  0.42953528984E+02  0.20679557849E+02 -0.11693147157E+04  0.11702860992E+04  0.00000000000E+00 0. -1.
</event>
<event>
 4    1  0.6089441E+003  0.2334240E+02  0.7546771E-02  0.1488243E+00
          2   -1    0    0  502    0  0.00000000000E+00  0.00000000000E+00  0.17446381219E+04  0.17446381219E+04  0.00000000000E+00 0. -1.
          2   -1    0    0  501    0 -0.00000000000E+00 -0.00000000000E+00 -0.18526652930E+01  0.18526652930E+01  0.00000000000E+00 0.  1.
          2    1    1    2  501    0 -0.18352634534E+02  0.14423884213E+02  0.16676406239E+04  0.16678039807E+04  0.00000000000E+00 0. -1.
          2    1    1    2  502    0  0.18352634534E+02 -0.14423884213E+02  0.75144832718E+02  0.78686806482E+02  0.00000000000E+00 0.  1.
</event>
<event>
 4    1  0.6089441E+003  0.2143505E+02  0.7546771E-02  0.1513143E+00
          2   -1    0    0  501    0  0.00000000000E+00  0.00000000000E+00  0.20054304994E+02  0.20054304994E+02  0.00000000000E+00 0.  1.
          2   -1    0    0  502    0 -0.00000000000E+00 -0.00000000000E+00 -0.59988996589E+02  0.59988996589E+02  0.00000000000E+00 0. -1.
          2    1    1    2  501    0  0.19779549034E+02  0.82602012965E+01 -0.51431648881E+02  0.55719619454E+02  0.00000000000E+00 0. -1.
          2    1    1    2  502    0 -0.19779549034E+02 -0.82602012965E+01  0.11496957287E+02  0.24323682129E+02  0.00000000000E+00 0.  1.
</event>
<event>
 4    1  0.6089441E+003  0.2434059E+02  0.7546771E-02  0.1476317E+00
          2   -1    0    0  502    0  0.00000000000E+00  0.00000000000E+00  0.33376528199E+02  0.33376528199E+02  0.00000000000E+00 0.  1.
          2   -1    0    0  501    0 -0.00000000000E+00 -0.00000000000E+00 -0.86165215441E+02  0.86165215441E+02  0.00000000000E+00 0. -1.
          2    1    1    2  501    0  0.16802334731E+02  0.17610959794E+02  0.26865146524E+02  0.36251902778E+02  0.00000000000E+00 0.  1.
          2    1    1    2  502    0 -0.16802334731E+02 -0.17610959794E+02 -0.79653833766E+02  0.83289840862E+02  0.00000000000E+00 0. -1.
</event>
<event>
 4    1  0.6089441E+003  0.2008129E+02  0.7546771E-02  0.1532797E+00
          2   -1    0    0  501    0  0.00000000000E+00  0.00000000000E+00  0.47451725570E+03  0.47451725570E+03  0.00000000000E+00 0.  1.
          2   -1    0    0  502    0 -0.00000000000E+00 -0.00000000000E+00 -0.54639041368E+01  0.54639041368E+01  0.00000000000E+00 0.  1.
          2    1    1    2  501    0 -0.18798217975E+01 -0.19993112284E+02  0.13987871182E+02  0.24472817758E+02  0.00000000000E+00 0.  1.
          2    1    1    2  502    0  0.18798217975E+01  0.19993112284E+02  0.45506548038E+03  0.45550834208E+03  0.00000000000E+00 0.  1.
</event>
<event>
 4    1  0.6089441E+003  0.2092811E+02  0.7546771E-02  0.1520294E+00
          2   -1    0    0  501    0  0.00000000000E+00  0.00000000000E+00  0.64800481743E+02  0.64800481743E+02  0.00000000000E+00 0.  1.
          2   -1    0    0  502    0 -0.00000000000E+00 -0.00000000000E+00 -0.10466874861E+02  0.10466874861E+02  0.00000000000E+00 0. -1.
          2    1    1    2  501    0 -0.56980837784E+01  0.20137466501E+02  0.49565944024E+02  0.53803053099E+02  0.00000000000E+00 0.  1.
          2    1    1    2  502    0  0.56980837784E+01 -0.20137466501E+02  0.47676628589E+01  0.21464303505E+02  0.00000000000E+00 0. -1.
</event>
<event>
 4    1  0.6089441E+003  0.2006895E+02  0.7546771E-02  0.1532984E+00
          2   -1    0    0  501    0  0.00000000000E+00  0.00000000000E+00  0.57872114329E+02  0.57872114329E+02  0.00000000000E+00 0.  1.
          2   -1    0    0  502    0 -0.00000000000E+00 -0.00000000000E+00 -0.38472400069E+03  0.38472400069E+03  0.00000000000E+00 0.  1.
          2    1    1    2  501    0 -0.30697076805E+01  0.19832797157E+02 -0.38271326027E+03  0.38323909317E+03  0.00000000000E+00 0.  1.
          2    1    1    2  502    0  0.30697076805E+01 -0.19832797157E+02  0.55861373906E+02  0.59357021851E+02  0.00000000000E+00 0.  1.
</event>
<event>
 4    1  0.6089441E+003  0.2388399E+02  0.7546771E-02  0.1481686E+00
          2   -1    0    0  502    0  0.00000000000E+00  0.00000000000E+00  0.41781486415E+03  0.41781486415E+03  0.00000000000E+00 0.  1.
          2   -1    0    0  501    0 -0.00000000000E+00 -0.00000000000E+00 -0.14690150660E+01  0.14690150660E+01  0.00000000000E+00 0.  1.
          2    1    1    2  501    0 -0.23056766453E+02 -0.62314231740E+01  0.26387527743E+03  0.26495397177E+03  0.00000000000E+00 0.  1.
          2    1    1    2  502    0  0.23056766453E+02  0.62314231740E+01  0.15247057165E+03  0.15432990745E+03  0.00000000000E+00 0.  1.
</event>
<event>
 4    1  0.6089441E+003  0.2693496E+02  0.7546771E-02  0.1448263E+00
          2   -1    0    0  502    0  0.00000000000E+00  0.00000000000E+00  0.78603153179E+03  0.78603153179E+03  0.00000000000E+00 0.  1.
          2   -1    0    0  501    0 -0.00000000000E+00 -0.00000000000E+00 -0.13715562041E+03  0.13715562041E+03  0.00000000000E+00 0. -1.
          2    1    1    2  501    0 -0.17278963548E+01 -0.26879477300E+02  0.78447577660E+03  0.78493804596E+03  0.00000000000E+00 0.  1.
          2    1    1    2  502    0  0.17278963548E+01  0.26879477300E+02 -0.13559986522E+03  0.13824910623E+03  0.00000000000E+00 0. -1.
</event>
<event>
 4    1  0.6089441E+003  0.2693787E+02  0.7546771E-02  0.1448233E+00
          2   -1    0    0  502    0  0.00000000000E+00  0.00000000000E+00  0.36406607085E+03  0.36406607085E+03  0.00000000000E+00 0. -1.
          2   -1    0    0  501    0 -0.00000000000E+00 -0.00000000000E+00 -0.83155149352E+01  0.83155149352E+01  0.00000000000E+00 0.  1.
          2    1    1    2  501    0  0.23273352635E+02 -0.13564652292E+02  0.34022532624E+03  0.34129008387E+03  0.00000000000E+00 0. -1.
          2    1    1    2  502    0 -0.23273352635E+02  0.13564652292E+02  0.15525229674E+02  0.31091501912E+02  0.00000000000E+00 0.  1.
</event>
<event>
 4    1  0.6089441E+003  0.4456656E+02  0.7546771E-02  0.1323621E+00
          2   -1    0    0  501    0  0.00000000000E+00  0.00000000000E+00  0.25226864765E+03  0.25226864765E+03  0.00000000000E+00 0. -1.
          2   -1    0    0  502    0 -0.00000000000E+00 -0.00000000000E+00 -0.12675611014E+03  0.12675611014E+03  0.00000000000E+00 0. -1.
          2    1    1    2  501    0  0.39901398699E+02  0.19850855024E+02 -0.12077612358E+03  0.12873635885E+03  0.00000000000E+00 0. -1.
          2    1    1    2  502    0 -0.39901398699E+02 -0.19850855024E+02  0.24628866109E+03  0.25028839894E+03  0.00000000000E+00 0. -1.
</event>
<event>
 4    1  0.6089441E+003  0.4616836E+02  0.7546771E-02  0.1315698E+00
          2   -1    0    0  502    0  0.00000000000E+00  0.00000000000E+00  0.38183491782E+01  0.38183491782E+01  0.00000000000E+00 0.  1.
          2   -1    0    0  501    0 -0.00000000000E+00 -0.00000000000E+00 -0.28104707833E+04  0.28104707833E+04  0.00000000000E+00 0.  1.
          2    1    1    2  501    0 -0.34917123963E+02 -0.30204501380E+02 -0.14365681602E+03  0.15089333398E+03  0.00000000000E+00 0.  1.
          2    1    1    2  502    0  0.34917123963E+02  0.30204501380E+02 -0.26629956181E+04  0.26633957985E+04  0.00000000000E+00 0.  1.
</event>
<event>
 4    1  0.6089441E+003  0.2312628E+02  0.7546771E-02  0.1490919E+00
          2   -1    0    0  502    0  0.00000000000E+00  0.00000000000E+00  0.18158333777E+03  0.18158333777E+03  0.00000000000E+00 0.  1.
          2   -1    0    0  501    0 -0.00000000000E+00 -0.00000000000E+00 -0.14245579396E+02  0.14245579396E+02  0.00000000000E+00 0. -1.
          2    1    1    2  501    0  0.10912616892E+02 -0.20389691233E+02  0.17087572626E+03  0.17243357718E+03  0.00000000000E+00 0.  1.
          2    1    1    2  502    0 -0.10912616892E+02  0.20389691233E+02 -0.35379678862E+01  0.23395339980E+02  0.00000000000E+00 0. -1.
</event>
<event>
 4    1  0.6089441E+003  0.3193843E+02  0.7546771E-02  0.1403467E+00
          2   -1    0    0  502    0  0.00000000000E+00  0.00000000000E+00  0.51537421120E+02  0.51537421120E+02  0.00000000000E+00 0. -1.
          2   -1    0    0  501    0 -0.00000000000E+00 -0.00000000000E+00 -0.49536727466E+02  0.49536727466E+02  0.00000000000E+00 0.  1.
          2    1    1    2  501    0 -0.16916188571E+01 -0.31893600778E+02  0.40160692846E+02  0.51312226563E+02  0.00000000000E+00 0. -1.
          2    1    1    2  502    0  0.16916188571E+01  0.31893600778E+02 -0.38159999193E+02  0.49761922022E+02  0.00000000000E+00 0.  1.
</event>
<event>
 4    1  0.6089441E+003  0.2168510E+02  0.7546771E-02  0.1509704E+00
          2   -1    0    0  502    0  0.00000000000E+00  0.00000000000E+00  0.32462098454E+02  0.32462098454E+02  0.00000000000E+00 0. -1.
          2   -1    0    0  501    0 -0.00000000000E+00 -0.00000000000E+00 -0.17042823934E+03  0.17042823934E+03  0.00000000000E+00 0. -1.
          2    1    1    2  501    0  0.24760736542E+01 -0.21543278101E+02  0.28055092866E+02  0.35458877701E+02  0.00000000000E+00 0. -1.
          2    1    1    2  502    0 -0.24760736542E+01  0.21543278101E+02 -0.16602123375E+03  0.16743146009E+03  0.00000000000E+00 0. -1.
</event>
<event>
 4    1  0.6089441E+003  0.2158603E+02  0.7546771E-02  0.1511060E+00
          2   -1    0    0  502    0  0.00000000000E+00  0.00000000000E+00  0.62750984394E+03  0.62750984394E+03  0.00000000000E+00 0.  1.
          2   -1    0    0  501    0 -0.00000000000E+00 -0.00000000000E+00 -0.10148477947E+03  0.10148477947E+03  0.00000000000E+00 0.  1.
          2    1    1    2  501    0 -0.18925289066E+01  0.21502903012E+02  0.62617391037E+03  0.62654586627E+03  0.00000000000E+00 0.  1.
          2    1    1    2  502    0  0.18925289066E+01 -0.21502903012E+02 -0.10014884591E+03  0.10244875714E+03  0.00000000000E+00 0.  1.
</event>
<event>
 4    1  0.6089441E+003  0.5455827E+02  0.7546771E-02  0.1279533E+00
          2   -1    0    0  501    0  0.00000000000E+00  0.00000000000E+00  0.34029212971E+03  0.34029212971E+03  0.00000000000E+00 0. -1.
          2   -1    0    0  502    0 -0.00000000000E+00 -0.00000000000E+00 -0.43199468982E+02  0.43199468982E+02  0.00000000000E+00 0. -1.
          2    1    1    2  501    0  0.29684624518E+02 -0.45775846168E+02 -0.22689852153E+02  0.59088361086E+02  0.00000000000E+00 0. -1.
          2    1    1    2  502    0 -0.29684624518E+02  0.45775846168E+02  0.31978251288E+03  0.32440323761E+03  0.00000000000E+00 0. -1.
</event>
<event>
 4    1  0.6089441E+003  0.2143636E+02  0.7546771E-02  0.1513125E+00
          2   -1    0    0  501    0  0.00000000000E+00  0.00000000000E+00  0.86495965842E+02  0.86495965842E+02  0.00000000000E+00 0. -1.
          2   -1    0    0  502    0 -0.00000000000E+00 -0.00000000000E+00 -0.83693766519E+02  0.83693766519E+02  0.00000000000E+00 0.  1.
          2    1    1    2  501    0 -0.17883936045E+02  0.11818721220E+02 -0.80948729125E+02  0.83738963969E+02  0.00000000000E+00 0.  1.
          2    1    1    2  502    0  0.17883936045E+02 -0.11818721220E+02  0.83750928448E+02  0.86450768392E+02  0.00000000000E+00 0. -1.
</event>
<event>
 4    1  0.6089441E+003  0.2193617E+02  0.7546771E-02  0.1506307E+00
          2   -1    0    0  502    0  0.00000000000E+00  0.00000000000E+00  0.22458779079E+02  0.22458779079E+02  0.00000000000E+00 0. -1.
          2   -1    0    0  501    0 -0.00000000000E+00 -0.00000000000E+00 -0.47920423522E+03  0.47920423522E+03  0.00000000000E+00 0. -1.
          2    1    1    2  501    0  0.21532202953E+02 -0.41904159418E+01  0.16787191582E+02  0.27622547873E+02  0.00000000000E+00 0. -1.
          2    1    1    2  502    0 -0.21532202953E+02  0.41904159418E+01 -0.47353264773E+03  0.47404046643E+03  0.00000000000E+00 0. -1.
</event>
<event>
 4    1  0.6089441E+003  0.2328430E+02  0.7546771E-02  0.1488959E+00
          2   -1    0    0  502    0  0.00000000000E+00  0.00000000000E+00  0.48007056350E+03  0.48007056350E+03  0.00000000000E+00 0.  1.
          2   -1    0    0  501    0 -0.00000000000E+00 -0.00000000000E+00 -0.35050664219E+03  0.35050664219E+03  0.00000000000E+00 0.  1.
          2    1    1    2  501    0 -0.58077822728E+01 -0.22548354585E+02  0.47940099454E+03  0.47996611568E+03  0.00000000000E+00 0.  1.
          2    1    1    2  502    0  0.58077822728E+01  0.22548354585E+02 -0.34983707324E+03  0.35061109001E+03  0.00000000000E+00 0.  1.
</event>
<event>
 4    1  0.6089441E+003  0.3238396E+02  0.7546771E-02  0.1399951E+00
          2   -1    0    0  501    0  0.00000000000E+00  0.00000000000E+00  0.91367738697E+02  0.91367738697E+02  0.00000000000E+00 0. -1.
          2   -1    0    0  502    0 -0.00000000000E+00 -0.00000000000E+00 -0.77362478492E+02  0.77362478492E+02  0.00000000000E+00 0.  1.
          2    1    1    2  501    0 -0.31638136571E+02 -0.69100832536E+01 -0.70852846104E+02  0.77902803141E+02  0.00000000000E+00 0.  1.
          2    1    1    2  502    0  0.31638136571E+02  0.69100832536E+01  0.84858106309E+02  0.90827414047E+02  0.00000000000E+00 0. -1.
</event>
<event>
 4    1  0.6089441E+003  0.2077324E+02  0.7546771E-02  0.1522527E+00
          2   -1    0    0  502    0  0.00000000000E+00  0.00000000000E+00  0.12967565358E+04  0.12967565358E+04  0.00000000000E+00 0.  1.
          2   -1    0    0  501    0 -0.00000000000E+00 -0.00000000000E+00 -0.47746827847E+01  0.47746827847E+01  0.00000000000E+00 0. -1.
          2    1    1    2  501    0 -0.12518708719E+02  0.16577375070E+02  0.12736692467E+04  0.12738386387E+04  0.00000000000E+00 0.  1.
          2    1    1    2  502    0  0.12518708719E+02 -0.16577375070E+02  0.18312606372E+02  0.27692579951E+02  0.00000000000E+00 0. -1.
</event>
<event>
 4    1  0.6089441E+003  0.4454051E+02  0.7546771E-02  0.1323753E+00
          2   -1    0    0  501    0  0.00000000000E+00  0.00000000000E+00  0.12073256982E+03  0.12073256982E+03  0.00000000000E+00 0.  1.
          2   -1    0    0  502    0 -0.00000000000E+00 -0.00000000000E+00 -0.25948931320E+02  0.25948931320E+02  0.00000000000E+00 0.  1.
          2    1    1    2  501    0  0.40765479095E+02  0.17945279724E+02  0.29759767883E+01  0.44639822895E+02  0.00000000000E+00 0.  1.
          2    1    1    2  502    0 -0.40765479095E+02 -0.17945279724E+02  0.91807661712E+02  0.10204167825E+03  0.00000000000E+00 0.  1.
</event>
<event>
 4    1  0.6089441E+003  0.3004226E+02  0.7546771E-02  0.1419230E+00
          2   -1    0    0  501    0  0.00000000000E+00  0.00000000000E+00  0.70191432353E+03  0.70191432353E+03  0.00000000000E+00 0. -1.
          2   -1    0    0  502    0 -0.00000000000E+00 -0.00000000000E+00 -0.26880158486E+01  0.26880158486E+01  0.00000000000E+00 0.  1.
          2    1    1    2  501    0  0.29751112420E+02  0.41723809743E+01  0.95163376750E+02  0.99792814008E+02  0.00000000000E+00 0.  1.
          2    1    1    2  502    0 -0.29751112420E+02 -0.41723809743E+01  0.60406293093E+03  0.60480952537E+03  0.00000000000E+00 0. -1.
</event>
<event>
 4    1  0.6089441E+003  0.2583883E+02  0.7546771E-02  0.1459634E+00
          2   -1    0    0  502    0  0.00000000000E+00  0.00000000000E+00  0.14204051287E+04  0.14204051287E+04  0.00000000000E+00 0. -1.
          2   -1    0    0  501    0 -0.00000000000E+00 -0.00000000000E+00 -0.20017510835E+02  0.20017510835E+02  0.00000000000E+00 0.  1.
          2    1    1    2  501    0 -0.23499441958E+02 -0.10743433405E+02  0.14118991256E+04  0.14121355410E+04  0.00000000000E+00 0. -1.
          2    1    1    2  502    0  0.23499441958E+02  0.10743433405E+02 -0.11511507767E+02  0.28287098556E+02  0.00000000000E+00 0.  1.
</event>
<event>
 4    1  0.6089441E+003  0.2505360E+02  0.7546771E-02  0.1468205E+00
          2   -1    0    0  501    0  0.00000000000E+00  0.00000000000E+00  0.17425310586E+01  0.17425310586E+01  0.00000000000E+00 0. -1.
          2   -1    0    0  502    0 -0.00000000000E+00 -0.00000000000E+00 -0.16584978778E+04  0.16584978778E+04  0.00000000000E+00 0.  1.
          2    1    1    2  501    0 -0.21165532057E+02 -0.13405345367E+02 -0.15628381957E+04  0.15630389979E+04  0.00000000000E+00 0.  1.
          2    1    1    2  502    0  0.21165532057E+02  0.13405345367E+02 -0.93917151035E+02  0.97201410948E+02  0.00000000000E+00 0. -1.
</event>
<event>
 4    1  0.6089441E+003  0.4207112E+02  0.7546771E-02  0.1336759E+00
          2   -1    0    0  501    0  0.00000000000E+00  0.00000000000E+00  0.15334155820E+03  0.15334155820E+03  0.00000000000E+00 0. -1.
          2   -1    0    0  502    0 -0.00000000000E+00 -0.00000000000E+00 -0.14198150390E+04  0.14198150390E+04  0.00000000000E+00 0.  1.
          2    1    1    2  501    0  0.41037125106E+02  0.92700404210E+01 -0.14166111764E+04  0.14172357618E+04  0.00000000000E+00 0.  1.
          2    1    1    2  502    0 -0.41037125106E+02 -0.92700404210E+01  0.15013769560E+03  0.15592083545E+03  0.00000000000E+00 0. -1.
</event>
<event>
 4    1  0.6089441E+003  0.2392887E+02  0.7546771E-02  0.1481152E+00
          2   -1    0    0  502    0  0.00000000000E+00  0.00000000000E+00  0.65280513053E+01  0.65280513053E+01  0.00000000000E+00 0. -1.
          2   -1    0    0  501    0 -0.00000000000E+00 -0.00000000000E+00 -0.79538967885E+03  0.79538967885E+03  0.00000000000E+00 0.  1.
          2    1    1    2  501    0  0.10977082888E+02  0.21262513435E+02 -0.16225626710E+02  0.28911274417E+02  0.00000000000E+00 0. -1.
          2    1    1    2  502    0 -0.10977082888E+02 -0.21262513435E+02 -0.77263600084E+03  0.77300645574E+03  0.00000000000E+00 0.  1.
</event>
<event>
 4    1  0.6089441E+003  0.4998984E+02  0.7546771E-02  0.1298217E+00
          2   -1    0    0  502    0  0.00000000000E+00  0.00000000000E+00  0.48987677877E+02  0.48987677877E+02  0.00000000000E+00 0. -1.
          2   -1    0    0  501    0 -0.00000000000E+00 -0.00000000000E+00 -0.12082383798E+04  0.12082383798E+04  0.00000000000E+00 0. -1.
          2    1    1    2  501    0  0.15209260704E+02  0.47619977493E+02  0.35574375280E+02  0.61355684693E+02  0.00000000000E+00 0. -1.
          2    1    1    2  502    0 -0.15209260704E+02 -0.47619977493E+02 -0.11948250772E+04  0.11958703729E+04  0.00000000000E+00 0. -1.
</event>
<event>
 4    1  0.6089441E+003  0.2904903E+02  0.7546771E-02  0.1428044E+00
          2   -1    0    0  502    0  0.00000000000E+00  0.00000000000E+00  0.33884239771E+03  0.33884239771E+03  0.00000000000E+00 0.  1.
          2   -1    0    0  501    0 -0.00000000000E+00 -0.00000000000E+00 -0.92842022561E+02  0.92842022561E+02  0.00000000000E+00 0.  1.
          2    1    1    2  501    0 -0.25125096123E+02 -0.14579980303E+02  0.33592786129E+03  0.33718151532E+03  0.00000000000E+00 0.  1.
          2    1    1    2  502    0  0.25125096123E+02  0.14579980303E+02 -0.89927486141E+02  0.94502904953E+02  0.00000000000E+00 0.  1.
</event>
<event>
 4    1  0.6089441E+003  0.7937742E+02  0.7546771E-02  0.1205300E+00
          2   -1    0    0  502    0  0.00000000000E+00  0.00000000000E+00  0.12324269461E+04  0.12324269461E+04  0.00000000000E+00 0.  1.
          2   -1    0    0  501    0 -0.00000000000E+00 -0.00000000000E+00 -0.10168719623E+04  0.10168719623E+04  0.00000000000E+00 0. -1.
          2    1    1    2  501    0  0.71394863540E+02  0.34692186565E+02  0.12295962024E+04  0.12321556701E+04  0.00000000000E+00 0.  1.
          2    1    1    2  502    0 -0.71394863540E+02 -0.34692186565E+02 -0.10140412185E+04  0.10171432383E+04  0.00000000000E+00 0. -1.
</event>
<event>
 4    1  0.6089441E+003  0.2445409E+02  0.7546771E-02  0.1475004E+00
          2   -1    0    0  502    0  0.00000000000E+00  0.00000000000E+00  0.41590900626E+03  0.41590900626E+03  0.00000000000E+00 0.  1.
          2   -1    0    0  501    0 -0.00000000000E+00 -0.00000000000E+00 -0.21614027469E+03  0.21614027469E+03  0.00000000000E+00 0.  1.
          2    1    1    2  501    0  0.37238537208E+00 -0.24451259136E+02  0.41485611342E+03  0.41557622356E+03  0.00000000000E+00 0.  1.
          2    1    1    2  502    0 -0.37238537208E+00  0.24451259136E+02 -0.21508738185E+03  0.21647305739E+03  0.00000000000E+00 0.  1.
</event>
<event>
 4    1  0.6089441E+003  0.2785247E+02  0.7546771E-02  0.1439228E+00
          2   -1    0    0  502    0  0.00000000000E+00  0.00000000000E+00  0.17149972322E+03  0.17149972322E+03  0.00000000000E+00 0.  1.
          2   -1    0    0  501    0 -0.00000000000E+00 -0.00000000000E+00 -0.58410648941E+03  0.58410648941E+03  0.00000000000E+00 0.  1.
          2    1    1    2  501    0  0.26615551863E+02 -0.82080721979E+01  0.17003400414E+03  0.17230009464E+03  0.00000000000E+00 0.  1.
          2    1    1    2  502    0 -0.26615551863E+02  0.82080721979E+01 -0.58264077032E+03  0.58330611800E+03  0.00000000000E+00 0.  1.
</event>
<event>
 4    1  0.6089441E+003  0.3058824E+02  0.7546771E-02  0.1414552E+00
          2   -1    0    0  501    0  0.00000000000E+00  0.00000000000E+00  0.72292837526E+02  0.72292837526E+02  0.00000000000E+00 0.  1.
          2   -1    0    0  502    0 -0.00000000000E+00 -0.00000000000E+00 -0.15268150754E+02  0.15268150754E+02  0.00000000000E+00 0.  1.
          2    1    1    2  501    0 -0.26122118285E+02  0.15914633562E+02  0.11425105732E+02  0.32652314865E+02  0.00000000000E+00 0.  1.
          2    1    1    2  502    0  0.26122118285E+02 -0.15914633562E+02  0.45599581040E+02  0.54908673414E+02  0.00000000000E+00 0.  1.
</event>
<event>
 4    1  0.1356423E+004  0.2978747E+02  0.7546771E-02  0.1421453E+00
          2   -1    0    0  502    0  0.00000000000E+00  0.00000000000E+00  0.80036093000E+03  0.80036093000E+03  0.00000000000E+00 0. -1.
          2   -1    0    0  501    0 -0.00000000000E+00 -0.00000000000E+00 -0.10114421358E+04  0.10114421358E+04  0.00000000000E+00 0.  1.
          2    1    1    2  501    0  0.20201092783E+02  0.21890845203E+02  0.79986432589E+03  0.80041878606E+03  0.00000000000E+00 0. -1.
          2    1    1    2  502    0 -0.20201092783E+02 -0.21890845203E+02 -0.10109455317E+04  0.10113842797E+04  0.00000000000E+00 0.  1.
</event>
<event>
 4    1  0.6089441E+003  0.2126420E+02  0.7546771E-02  0.1515526E+00
          2   -1    0    0  501    0  0.00000000000E+00  0.00000000000E+00  0.13085077325E+02  0.13085077325E+02  0.00000000000E+00 0.  1.
          2   -1    0    0  502    0 -0.00000000000E+00 -0.00000000000E+00 -0.44099277512E+03  0.44099277512E+03  0.00000000000E+00 0. -1.
          2    1    1    2  501    0  0.10702771452E+02  0.18374355479E+02 -0.43191603432E+03  0.43243915983E+03  0.00000000000E+00 0. -1.
          2    1    1    2  502    0 -0.10702771452E+02 -0.18374355479E+02  0.40083365281E+01  0.21638692607E+02  0.00000000000E+00 0.  1.
</event>
<event>
 4    1  0.6089441E+003  0.2810435E+02  0.7546771E-02  0.1436819E+00
          2   -1    0    0  502    0  0.00000000000E+00  0.00000000000E+00  0.45347352905E+01  0.45347352905E+01  0.00000000000E+00 0. -1.
          2   -1    0    0  501    0 -0.00000000000E+00 -0.00000000000E+00 -0.23269954065E+03  0.23269954065E+03  0.00000000000E+00 0.  1.
          2    1    1    2  501    0  0.24140218802E+02  0.14391122275E+02 -0.54597776304E+02  0.61406609917E+02  0.00000000000E+00 0. -1.
          2    1    1    2  502    0 -0.24140218802E+02 -0.14391122275E+02 -0.17356702906E+03  0.17582766603E+03  0.00000000000E+00 0.  1.
</event>
<event>
 4    1  0.6089441E+003  0.2499104E+02  0.7546771E-02  0.1468904E+00
          2   -1    0    0  502    0  0.00000000000E+00  0.00000000000E+00  0.41298237978E+03  0.41298237978E+03  0.00000000000E+00 0.  1.
          2   -1    0    0  501    0 -0.00000000000E+00 -0.00000000000E+00 -0.93581880819E+01  0.93581880819E+01  0.00000000000E+00 0.  1.
          2    1    1    2  501    0 -0.20023368846E+02  0.14953821315E+02  0.39516827374E+03  0.39595772077E+03  0.00000000000E+00 0.  1.
          2    1    1    2  502    0  0.20023368846E+02 -0.14953821315E+02  0.84559179587E+01  0.26382847086E+02  0.00000000000E+00 0.  1.
</event>
<event>
 4    1  0.6089441E+003  0.2481597E+02  0.7546771E-02  0.1470873E+00
          2   -1    0    0  501    0  0.00000000000E+00  0.00000000000E+00  0.10873995768E+02  0.10873995768E+02  0.00000000000E+00 0. -1.
          2   -1    0    0  502    0 -0.00000000000E+00 -0.00000000000E+00 -0.68355208795E+03  0.68355208795E+03  0.00000000000E+00 0.  1.
          2    1    1    2  501    0  0.21199635512E+02  0.12899907779E+02 -0.66885753982E+03  0.66931774274E+03  0.00000000000E+00 0.  1.
          2    1    1    2  502    0 -0.21199635512E+02 -0.12899907779E+02 -0.38205523617E+01  0.25108340982E+02  0.00000000000E+00 0. -1.
</event>
<event>
 4    1  0.6089441E+003  0.5000541E+02  0.7546771E-02  0.1298149E+00
          2   -1    0    0  502    0  0.00000000000E+00  0.00000000000E+00  0.52049906406E+02  0.52049906406E+02  0.00000000000E+00 0. -1.
          2   -1    0    0  501    0 -0.00000000000E+00 -0.00000000000E+00 -0.28517729052E+04  0.28517729052E+04  0.00000000000E+00 0. -1.
          2    1    1    2  501    0  0.47138353393E+02 -0.16688827519E+02  0.39768447168E+02  0.63891084782E+02  0.00000000000E+00 0. -1.
          2    1    1    2  502    0 -0.47138353393E+02  0.16688827519E+02 -0.28394914460E+04  0.28399317268E+04  0.00000000000E+00 0. -1.
</event>
<event>
 4    1  0.6883649E+003  0.2242001E+02  0.7546771E-02  0.1499912E+00
          2   -1    0    0  502    0  0.00000000000E+00  0.00000000000E+00  0.11594963205E+04  0.11594963205E+04  0.00000000000E+00 0. -1.
          2   -1    0    0  501    0 -0.00000000000E+00 -0.00000000000E+00 -0.67623155685E+03  0.67623155685E+03  0.00000000000E+00 0. -1.
          2    1    1    2  501    0  0.21589699395E+02 -0.60449605063E+01  0.11592020650E+04  0.11594188562E+04  0.00000000000E+00 0. -1.
          2    1    1    2  502    0 -0.21589699395E+02  0.60449605063E+01 -0.67593730136E+03  0.67630902111E+03  0.00000000000E+00 0. -1.
</event>
<event>
 4    1  0.6089441E+003  0.3893548E+02  0.7546771E-02  0.1354839E+00
          2   -1    0    0  502    0  0.00000000000E+00  0.00000000000E+00  0.68051879904E+02  0.68051879904E+02  0.00000000000E+00 0. -1.
          2   -1    0    0  501    0 -0.00000000000E+00 -0.00000000000E+00 -0.41600181367E+03  0.41600181367E+03  0.00000000000E+00 0.  1.
          2    1    1    2  501    0  0.33301282723E+02 -0.20174148857E+02  0.61482510032E+02  0.72774107710E+02  0.00000000000E+00 0. -1.
          2    1    1    2  502    0 -0.33301282723E+02  0.20174148857E+02 -0.40943244380E+03  0.41127958587E+03  0.00000000000E+00 0.  1.
</event>
<event>
 4    1  0.6089441E+003  0.2624007E+02  0.7546771E-02  0.1455395E+00
          2   -1    0    0  501    0  0.00000000000E+00  0.00000000000E+00  0.13535160504E+04  0.13535160504E+04  0.00000000000E+00 0. -1.
          2   -1    0    0  502    0 -0.00000000000E+00 -0.00000000000E+00 -0.64593399913E+01  0.64593399913E+01  0.00000000000E+00 0. -1.
          2    1    1    2  501    0  0.12695055223E+02 -0.22964684398E+02  0.20865920581E+02  0.33525032413E+02  0.00000000000E+00 0. -1.
          2    1    1    2  502    0 -0.12695055223E+02  0.22964684398E+02  0.13261907898E+04  0.13264503580E+04  0.00000000000E+00 0. -1.
</event>
<event>
 4    1  0.6089441E+003  0.3146128E+02  0.7546771E-02  0.1407309E+00
          2   -1    0    0  501    0  0.00000000000E+00  0.00000000000E+00  0.70133487283E+03  0.70133487283E+03  0.00000000000E+00 0. -1.
          2   -1    0    0  502    0 -0.00000000000E+00 -0.00000000000E+00 -0.22544670535E+03  0.22544670535E+03  0.00000000000E+00 0. -1.
          2    1    1    2  501    0 -0.11188045659E+02  0.29404762270E+02 -0.22399398421E+03  0.22619265544E+03  0.00000000000E+00 0. -1.
          2    1    1    2  502    0  0.11188045659E+02 -0.29404762270E+02  0.69988215169E+03  0.70058892274E+03  0.00000000000E+00 0. -1.
</event>
<event>
 4    1  0.6089441E+003  0.2861795E+02  0.7546771E-02  0.1431999E+00
          2   -1    0    0  502    0  0.00000000000E+00  0.00000000000E+00  0.49778905090E+03  0.49778905090E+03  0.00000000000E+00 0.  1.
          2   -1    0    0  501    0 -0.00000000000E+00 -0.00000000000E+00 -0.31611397862E+01  0.31611397862E+01  0.00000000000E+00 0. -1.
          2    1    1    2  501    0  0.28382906118E+02  0.36602651133E+01  0.42076489950E+03  0.42173698860E+03  0.00000000000E+00 0.  1.
          2    1    1    2  502    0 -0.28382906118E+02 -0.36602651133E+01  0.73863011614E+02  0.79213202089E+02  0.00000000000E+00 0. -1.
</event>
<event>
 4    1  0.6089441E+003  0.2085427E+02  0.7546771E-02  0.1521356E+00
          2   -1    0    0  501    0  0.00000000000E+00  0.00000000000E+00  0.11835073555E+04  0.11835073555E+04  0.00000000000E+00 0. -1.
          2   -1    0    0  502    0 -0.00000000000E+00 -0.00000000000E+00 -0.23736516868E+01  0.23736516868E+01  0.00000000000E+00 0.  1.
          2    1    1    2  501    0  0.13257064403E+02 -0.16098156293E+02  0.45451977059E+02  0.50007825499E+02  0.00000000000E+00 0.  1.
          2    1    1    2  502    0 -0.13257064403E+02  0.16098156293E+02  0.11356817268E+04  0.11358731817E+04  0.00000000000E+00 0. -1.
</event>
<event>
 4    1  0.6089441E+003  0.4254684E+02  0.7546771E-02  0.1334175E+00
          2   -1    0    0  501    0  0.00000000000E+00  0.00000000000E+00  0.25097875576E+04  0.25097875576E+04  0.00000000000E+00 0.  1.
          2   -1    0    0  502    0 -0.00000000000E+00 -0.00000000000E+00 -0.20694961146E+03  0.20694961146E+03  0.00000000000E+00 0.  1.
          2    1    1    2  501    0  0.35803940214E+02  0.22985027767E+02 -0.20458042311E+03  0.20895785019E+03  0.00000000000E+00 0.  1.
          2    1    1    2  502    0 -0.35803940214E+02 -0.22985027767E+02  0.25074183692E+04  0.25077793189E+04  0.00000000000E+00 0.  1.
</event>
<event>
 4    1  0.6089441E+003  0.2614338E+02  0.7546771E-02  0.1456408E+00
          2   -1    0    0  502    0  0.00000000000E+00  0.00000000000E+00  0.28885281226E+02  0.28885281226E+02  0.00000000000E+00 0. -1.
          2   -1    0    0  501    0 -0.00000000000E+00 -0.00000000000E+00 -0.79667791312E+03  0.79667791312E+03  0.00000000000E+00 0.  1.
          2    1    1    2  501    0  0.24502329230E+01 -0.26028300481E+02  0.22709164744E+02  0.34629210656E+02  0.00000000000E+00 0. -1.
          2    1    1    2  502    0 -0.24502329230E+01  0.26028300481E+02 -0.79050179664E+03  0.79093398369E+03  0.00000000000E+00 0.  1.
</event>
<event>
 4    1  0.6089441E+003  0.2312579E+02  0.7546771E-02  0.1490925E+00
          2   -1    0    0  502    0  0.00000000000E+00  0.00000000000E+00  0.40432631030E+03  0.40432631030E+03  0.00000000000E+00 0.  1.
          2   -1    0    0  501    0 -0.00000000000E+00 -0.00000000000E+00 -0.72214114826E+01  0.72214114826E+01  0.00000000000E+00 0. -1.
          2    1    1    2  501    0  0.19271522221E+02  0.12783216585E+02  0.38452881529E+03  0.38522358700E+03  0.00000000000E+00 0.  1.
          2    1    1    2  502    0 -0.19271522221E+02 -0.12783216585E+02  0.12576083525E+02  0.26324134778E+02  0.00000000000E+00 0. -1.
</event>
<event>
 4    1  0.6089441E+003  0.2103373E+02  0.7546771E-02  0.1518784E+00
          2   -1    0    0  501    0  0.00000000000E+00  0.00000000000E+00  0.98830028672E+03  0.98830028672E+03  0.00000000000E+00 0. -1.
          2   -1    0    0  502    0 -0.00000000000E+00 -0.00000000000E+00 -0.41884531101E+03  0.41884531101E+03  0.00000000000E+00 0.  1.
          2    1    1    2  501    0  0.33040922889E+01  0.20772595256E+02 -0.41846922681E+03  0.41899750778E+03  0.00000000000E+00 0.  1.
          2    1    1    2  502    0 -0.33040922889E+01 -0.20772595256E+02  0.98792420252E+03  0.98814808994E+03  0.00000000000E+00 0. -1.
</event>
<event>
 4    1  0.6089441E+003  0.2106049E+02  0.7546771E-02  0.1518403E+00
          2   -1    0    0  501    0  0.00000000000E+00  0.00000000000E+00  0.40452566063E+01  0.40452566063E+01  0.00000000000E+00 0. -1.
          2   -1    0    0  502    0 -0.00000000000E+00 -0.00000000000E+00 -0.19733424883E+03  0.19733424883E+03  0.00000000000E+00 0. -1.
          2    1    1    2  501    0 -0.61996036858E+01 -0.20127323678E+02 -0.16376511314E+03  0.16511376843E+03  0.00000000000E+00 0. -1.
          2    1    1    2  502    0  0.61996036858E+01  0.20127323678E+02 -0.29523879087E+02  0.36265737007E+02  0.00000000000E+00 0. -1.
</event>
<event>
 4    1  0.6089441E+003  0.2140772E+02  0.7546771E-02  0.1513523E+00
          2   -1    0    0  502    0  0.00000000000E+00  0.00000000000E+00  0.57707981680E+03  0.57707981680E+03  0.00000000000E+00 0.  1.
          2   -1    0    0  501    0 -0.00000000000E+00 -0.00000000000E+00 -0.45160402977E+02  0.45160402977E+02  0.00000000000E+00 0.  1.
          2    1    1    2  501    0 -0.13793578203E+02  0.16371546455E+02  0.57433213085E+03  0.57473096911E+03  0.00000000000E+00 0.  1.
          2    1    1    2  502    0  0.13793578203E+02 -0.16371546455E+02 -0.42412717026E+02  0.47509250663E+02  0.00000000000E+00 0.  1.
</event>
<event>
 4    1  0.6089441E+003  0.2190201E+02  0.7546771E-02  0.1506766E+00
          2   -1    0    0  501    0  0.00000000000E+00  0.00000000000E+00  0.11767362084E+03  0.11767362084E+03  0.00000000000E+00 0. -1.
          2   -1    0    0  502    0 -0.00000000000E+00 -0.00000000000E+00 -0.22588944093E+02  0.22588944093E+02  0.00000000000E+00 0. -1.
          2    1    1    2  501    0  0.21855137695E+02 -0.14321190850E+01 -0.15946231826E+02  0.27092071132E+02  0.00000000000E+00 0. -1.
          2    1    1    2  502    0 -0.21855137695E+02  0.14321190850E+01  0.11103090857E+03  0.11317049380E+03  0.00000000000E+00 0. -1.
</event>
<event>
 4    1  0.6089441E+003  0.4977768E+02  0.7546771E-02  0.1299139E+00
          2   -1    0    0  502    0  0.00000000000E+00  0.00000000000E+00  0.16517031033E+04  0.16517031033E+04  0.00000000000E+00 0. -1.
          2   -1    0    0  501    0 -0.00000000000E+00 -0.00000000000E+00 -0.95927620074E+02  0.95927620074E+02  0.00000000000E+00 0. -1.
          2    1    1    2  501    0  0.48203449606E+02 -0.12419546558E+02  0.16448436210E+04  0.16455966563E+04  0.00000000000E+00 0. -1.
          2    1    1    2  502    0 -0.48203449606E+02  0.12419546558E+02 -0.89068137737E+02  0.10203406711E+03  0.00000000000E+00 0. -1.
</event>
<event>
 4    1  0.6089441E+003  0.2942831E+02  0.7546771E-02  0.1424630E+00
          2   -1    0    0  502    0  0.00000000000E+00  0.00000000000E+00  0.15821488926E+04  0.15821488926E+04  0.00000000000E+00 0. -1.
          2   -1    0    0  501    0 -0.00000000000E+00 -0.00000000000E+00 -0.59365661276E+01  0.59365661276E+01  0.00000000000E+00 0.  1.
          2    1    1    2  501    0  0.20621842447E+02  0.20994398979E+02  0.15446569770E+04  0.15449372808E+04  0.00000000000E+00 0. -1.
          2    1    1    2  502    0 -0.20621842447E+02 -0.20994398979E+02  0.31555349509E+02  0.43148177911E+02  0.00000000000E+00 0.  1.
</event>
<event>
 4    1  0.6089441E+003  0.6344659E+02  0.7546771E-02  0.1248551E+00
          2   -1    0    0  502    0  0.00000000000E+00  0.00000000000E+00  0.15652024601E+02  0.15652024601E+02  0.00000000000E+00 0.  1.
          2   -1    0    0  501    0 -0.00000000000E+00 -0.00000000000E+00 -0.90320897871E+03  0.90320897871E+03  0.00000000000E+00 0.  1.
          2    1    1    2  501    0 -0.11797133140E+02  0.62340179402E+02 -0.55225780961E+02  0.84115142519E+02  0.00000000000E+00 0.  1.
          2    1    1    2  502    0  0.11797133140E+02 -0.62340179402E+02 -0.83233117315E+03  0.83474586080E+03  0.00000000000E+00 0.  1.
</event>
<event>
 4    1  0.6089441E+003  0.7710330E+02  0.7546771E-02  0.1210737E+00
          2   -1    0    0  501    0  0.00000000000E+00  0.00000000000E+00  0.20978313659E+04  0.20978313659E+04  0.00000000000E+00 0.  1.
          2   -1    0    0  502    0 -0.00000000000E+00 -0.00000000000E+00 -0.17605012157E+02  0.17605012157E+02  0.00000000000E+00 0.  1.
          2    1    1    2  501    0 -0.61094821062E+02  0.47035534005E+02  0.71257057270E+02  0.10498803184E+03  0.00000000000E+00 0.  1.
          2    1    1    2  502    0  0.61094821062E+02 -0.47035534005E+02  0.20089692965E+04  0.20104483462E+04  0.00000000000E+00 0.  1.
</event>
<event>
 4    1  0.6089441E+003  0.2553474E+02  0.7546771E-02  0.1462909E+00
          2   -1    0    0  501    0  0.00000000000E+00  0.00000000000E+00  0.75845434075E+00  0.75845434075E+00  0.00000000000E+00 0. -1.
          2   -1    0    0  502    0 -0.00000000000E+00 -0.00000000000E+00 -0.10758764732E+04  0.10758764732E+04  0.00000000000E+00 0. -1.
          2    1    1    2  501    0  0.63866069359E+01  0.24723149991E+02 -0.77887625801E+03  0.77929471202E+03  0.00000000000E+00 0. -1.
          2    1    1    2  502    0 -0.63866069359E+01 -0.24723149991E+02 -0.29624176080E+03  0.29734021547E+03  0.00000000000E+00 0. -1.
</event>
<event>
 4    1  0.6089441E+003  0.2317976E+02  0.7546771E-02  0.1490253E+00
          2   -1    0    0  501    0  0.00000000000E+00  0.00000000000E+00  0.11582671486E+04  0.11582671486E+04  0.00000000000E+00 0. -1.
          2   -1    0    0  502    0 -0.00000000000E+00 -0.00000000000E+00 -0.20667886704E+01  0.20667886704E+01  0.00000000000E+00 0. -1.
          2    1    1    2  501    0 -0.32331687594E+01  0.22953168411E+02  0.67173193087E+02  0.71060109694E+02  0.00000000000E+00 0. -1.
          2    1    1    2  502    0  0.32331687594E+01 -0.22953168411E+02  0.10890271669E+04  0.10892738276E+04  0.00000000000E+00 0. -1.
</event>
<event>
 4    1  0.6089441E+003  0.2332858E+02  0.7546771E-02  0.1488413E+00
          2   -1    0    0  501    0  0.00000000000E+00  0.00000000000E+00  0.31097858610E+03  0.31097858610E+03  0.00000000000E+00 0. -1.
          2   -1    0    0  502    0 -0.00000000000E+00 -0.00000000000E+00 -0.47409509078E+01  0.47409509078E+01  0.00000000000E+00 0. -1.
          2    1    1    2  501    0 -0.27362501969E+01 -0.23167551212E+02  0.27735127389E+02  0.36241685744E+02  0.00000000000E+00 0. -1.
          2    1    1    2  502    0  0.27362501969E+01  0.23167551212E+02  0.27850250780E+03  0.27947785126E+03  0.00000000000E+00 0. -1.
</event>
<event>
 4    1  0.6089441E+003  0.2350715E+02  0.7546771E-02  0.1486226E+00
          2   -1    0    0  501    0  0.00000000000E+00  0.00000000000E+00  0.22979774817E+03  0.22979774817E+03  0.00000000000E+00 0.  1.
          2   -1    0    0  502    0 -0.00000000000E+00 -0.00000000000E+00 -0.36845282489E+03  0.36845282489E+03  0.00000000000E+00 0.  1.
          2    1    1    2  501    0 -0.23443796524E+02  0.17246801140E+01 -0.36747512453E+03  0.36822622566E+03  0.00000000000E+00 0.  1.
          2    1    1    2  502    0  0.23443796524E+02 -0.17246801140E+01  0.22882004781E+03  0.23002434740E+03  0.00000000000E+00 0.  1.
</event>
<event>
 4    1  0.6089441E+003  0.4025520E+02  0.7546771E-02  0.1346997E+00
          2   -1    0    0  502    0  0.00000000000E+00  0.00000000000E+00  0.95403280824E+03  0.95403280824E+03  0.00000000000E+00 0.  1.
          2   -1    0    0  501    0 -0.00000000000E+00 -0.00000000000E+00 -0.17544719118E+02  0.17544719118E+02  0.00000000000E+00 0.  1.
          2    1    1    2  501    0  0.13059075811E+02  0.38078096456E+02  0.92991895879E+03  0.93078985319E+03  0.00000000000E+00 0.  1.
          2    1    1    2  502    0 -0.13059075811E+02 -0.38078096456E+02  0.65691303359E+01  0.40787674169E+02  0.00000000000E+00 0.  1.
</event>
<event>
 4    1  0.6089441E+003  0.2084441E+02  0.7546771E-02  0.1521498E+00
          2   -1    0    0  501    0  0.00000000000E+00  0.00000000000E+00  0.21016532695E+01  0.21016532695E+01  0.00000000000E+00 0.  1.
          2   -1    0    0  502    0 -0.00000000000E+00 -0.00000000000E+00 -0.52668893073E+03  0.52668893073E+03  0.00000000000E+00 0. -1.
          2    1    1    2  501    0  0.20738714969E+02  0.20965009307E+01 -0.46836562161E+03  0.46882922810E+03  0.00000000000E+00 0. -1.
          2    1    1    2  502    0 -0.20738714969E+02 -0.20965009307E+01 -0.56221655849E+02  0.59961355898E+02  0.00000000000E+00 0.  1.
</event>
<event>
 4    1  0.6089441E+003  0.2519268E+02  0.7546771E-02  0.1466659E+00
          2   -1    0    0  502    0  0.00000000000E+00  0.00000000000E+00  0.95837697850E+03  0.95837697850E+03  0.00000000000E+00 0.  1.
          2   -1    0    0  501    0 -0.00000000000E+00 -0.00000000000E+00 -0.65287244315E+01  0.65287244315E+01  0.00000000000E+00 0.  1.
          2    1    1    2  501    0 -0.19843052817E+02 -0.15521738692E+02  0.93325428559E+03  0.93359425485E+03  0.00000000000E+00 0.  1.
          2    1    1    2  502    0  0.19843052817E+02  0.15521738692E+02  0.18593968478E+02  0.31311448080E+02  0.00000000000E+00 0.  1.
</event>
<event>
 4    1  0.6089441E+003  0.2853222E+02  0.7546771E-02  0.1432795E+00
          2   -1    0    0  502    0  0.00000000000E+00  0.00000000000E+00  0.39496935046E+01  0.39496935046E+01  0.00000000000E+00 0. -1.
          2   -1    0    0  501    0 -0.00000000000E+00 -0.00000000000E+00 -0.11927490746E+04  0.11927490746E+04  0.00000000000E+00 0. -1.
          2    1    1    2  501    0  0.51177273682E+01  0.28069488764E+02 -0.50199652371E+02  0.57741600524E+02  0.00000000000E+00 0. -1.
          2    1    1    2  502    0 -0.51177273682E+01 -0.28069488764E+02 -0.11385997287E+04  0.11389571676E+04  0.00000000000E+00 0. -1.
</event>
<event>
 4    1  0.6089441E+003  0.6205664E+02  0.7546771E-02  0.1253000E+00
          2   -1    0    0  501    0  0.00000000000E+00  0.00000000000E+00  0.17569355989E+02  0.17569355989E+02  0.00000000000E+00 0.  1.
          2   -1    0    0  502    0 -0.00000000000E+00 -0.00000000000E+00 -0.12819833453E+04  0.12819833453E+04  0.00000000000E+00 0. -1.
          2    1    1    2  501    0 -0.48640657433E+02 -0.38537170607E+02 -0.12238328196E+04  0.12254051564E+04  0.00000000000E+00 0. -1.
          2    1    1    2  502    0  0.48640657433E+02  0.38537170607E+02 -0.40581169715E+02  0.74147544864E+02  0.00000000000E+00 0.  1.
</event>
<event>
 4    1  0.6089441E+003  0.2078094E+02  0.7546771E-02  0.1522416E+00
          2   -1    0    0  501    0  0.00000000000E+00  0.00000000000E+00  0.15954714869E+02  0.15954714869E+02  0.00000000000E+00 0.  1.
          2   -1    0    0  502    0 -0.00000000000E+00 -0.00000000000E+00 -0.35797768585E+02  0.35797768585E+02  0.00000000000E+00 0.  1.
          2    1    1    2  501    0 -0.19633981061E+02  0.68083965706E+01 -0.22700547615E+02  0.30776002635E+02  0.00000000000E+00 0.  1.
          2    1    1    2  502    0  0.19633981061E+02 -0.68083965706E+01  0.28574938995E+01  0.20976480819E+02  0.00000000000E+00 0.  1.
</event>
<event>
 4    1  0.6089441E+003  0.2991591E+02  0.7546771E-02  0.1420329E+00
          2   -1    0    0  501    0  0.00000000000E+00  0.00000000000E+00  0.10400603938E+02  0.10400603938E+02  0.00000000000E+00 0.  1.
          2   -1    0    0  502    0 -0.00000000000E+00 -0.00000000000E+00 -0.28643594980E+03  0.28643594980E+03  0.00000000000E+00 0. -1.
          2    1    1    2  501    0 -0.19404608282E+02 -0.22768906560E+02 -0.26215669015E+03  0.26385809087E+03  0.00000000000E+00 0. -1.
          2    1    1    2  502    0  0.19404608282E+02  0.22768906560E+02 -0.13878655711E+02  0.32978462864E+02  0.00000000000E+00 0.  1.
</event>
<event>
 4    1  0.6089441E+003  0.2497419E+02  0.7546771E-02  0.1469092E+00
          2   -1    0    0  501    0  0.00000000000E+00  0.00000000000E+00  0.10626259340E+03  0.10626259340E+03  0.00000000000E+00 0.  1.
          2   -1    0    0  502    0 -0.00000000000E+00 -0.00000000000E+00 -0.73889012429E+03  0.73889012429E+03  0.00000000000E+00 0. -1.
          2    1    1    2  501    0  0.24489646171E+02 -0.48956291222E+01 -0.73720836956E+03  0.73763126974E+03  0.00000000000E+00 0. -1.
          2    1    1    2  502    0 -0.24489646171E+02  0.48956291222E+01  0.10458083866E+03  0.10752144795E+03  0.00000000000E+00 0.  1.
</event>
<event>
 4    1  0.6089441E+003  0.3544225E+02  0.7546771E-02  0.1377480E+00
          2   -1    0    0  501    0  0.00000000000E+00  0.00000000000E+00  0.12826945679E+02  0.12826945679E+02  0.00000000000E+00 0. -1.
          2   -1    0    0  502    0 -0.00000000000E+00 -0.00000000000E+00 -0.25219586740E+03  0.25219586740E+03  0.00000000000E+00 0.  1.
          2    1    1    2  501    0  0.27274989746E+02 -0.22632458605E+02 -0.22332223001E+03  0.22611716358E+03  0.00000000000E+00 0.  1.
          2    1    1    2  502    0 -0.27274989746E+02  0.22632458605E+02 -0.16046691712E+02  0.38905649501E+02  0.00000000000E+00 0. -1.
</event>
<event>
 4    1  0.6089441E+003  0.2766114E+02  0.7546771E-02  0.1441077E+00
          2   -1    0    0  501    0  0.00000000000E+00  0.00000000000E+00  0.55927857213E+01  0.55927857213E+01  0.00000000000E+00 0. -1.
          2   -1    0    0  502    0 -0.00000000000E+00 -0.00000000000E+00 -0.20651280426E+04  0.20651280426E+04  0.00000000000E+00 0.  1.
          2    1    1    2  501    0 -0.12831389223E+02 -0.24504986065E+02 -0.20302457603E+04  0.20304341866E+04  0.00000000000E+00 0.  1.
          2    1    1    2  502    0  0.12831389223E+02  0.24504986065E+02 -0.29289496577E+02  0.40286641721E+02  0.00000000000E+00 0. -1.
</event>
<event>
 4    1  0.6089441E+003  0.2143891E+02  0.7546771E-02  0.1513090E+00
          2   -1    0    0  502    0  0.00000000000E+00  0.00000000000E+00  0.40686171008E+02  0.40686171008E+02  0.00000000000E+00 0.  1.
          2   -1    0    0  501    0 -0.00000000000E+00 -0.00000000000E+00 -0.20150733307E+03  0.20150733307E+03  0.00000000000E+00 0. -1.
          2    1    1    2  501    0 -0.76302393753E+01 -0.20035122938E+02  0.37242758756E+02  0.42972663215E+02  0.00000000000E+00 0.  1.
          2    1    1    2  502    0  0.76302393753E+01  0.20035122938E+02 -0.19806392082E+03  0.19922084086E+03  0.00000000000E+00 0. -1.
</event>
<event>
 4    1  0.6089441E+003  0.2018473E+02  0.7546771E-02  0.1531230E+00
          2   -1    0    0  501    0  0.00000000000E+00  0.00000000000E+00  0.25027695539E+02  0.25027695539E+02  0.00000000000E+00 0.  1.
          2   -1    0    0  502    0 -0.00000000000E+00 -0.00000000000E+00 -0.12495684072E+04  0.12495684072E+04  0.00000000000E+00 0.  1.
          2    1    1    2  501    0  0.20101241895E+02 -0.18339601950E+01 -0.12454035605E+04  0.12455671206E+04  0.00000000000E+00 0.  1.
          2    1    1    2  502    0 -0.20101241895E+02  0.18339601950E+01  0.20862848923E+02  0.29028982085E+02  0.00000000000E+00 0.  1.
</event>
<event>
 4    1  0.6089441E+003  0.2455537E+02  0.7546771E-02  0.1473839E+00
          2   -1    0    0  502    0  0.00000000000E+00  0.00000000000E+00  0.10981977449E+04  0.10981977449E+04  0.00000000000E+00 0.  1.
          2   -1    0    0  501    0 -0.00000000000E+00 -0.00000000000E+00 -0.20376272650E+01  0.20376272650E+01  0.00000000000E+00 0. -1.
          2    1    1    2  501    0 -0.22041102148E+02  0.10823855071E+02  0.10182759760E+04  0.10185720050E+04  0.00000000000E+00 0.  1.
          2    1    1    2  502    0  0.22041102148E+02 -0.10823855071E+02  0.77884141650E+02  0.81663367203E+02  0.00000000000E+00 0. -1.
</event>
<event>
 4    1  0.6089441E+003  0.2633450E+02  0.7546771E-02  0.1454410E+00
          2   -1    0    0  501    0  0.00000000000E+00  0.00000000000E+00  0.80058963458E+03  0.80058963458E+03  0.00000000000E+00 0.  1.
          2   -1    0    0  502    0 -0.00000000000E+00 -0.00000000000E+00 -0.14962215771E+01  0.14962215771E+01  0.00000000000E+00 0.  1.
          2    1    1    2  501    0 -0.26157115450E+02 -0.30514062373E+01  0.13931779974E+03  0.14178489021E+03  0.00000000000E+00 0.  1.
          2    1    1    2  502    0  0.26157115450E+02  0.30514062373E+01  0.65977561326E+03  0.66030096594E+03  0.00000000000E+00 0.  1.
</event>
<event>
 4    1  0.6089441E+003  0.2092219E+02  0.7546771E-02  0.1520379E+00
          2   -1    0    0  501    0  0.00000000000E+00  0.00000000000E+00  0.19708546261E+04  0.19708546261E+04  0.00000000000E+00 0.  1.
          2   -1    0    0  502    0 -0.00000000000E+00 -0.00000000000E+00 -0.29735461806E+00  0.29735461806E+00  0.00000000000E+00 0.  1.
          2    1    1    2  501    0  0.80511411022E+01 -0.19311061233E+02  0.48948262382E+03  0.48992956328E+03  0.00000000000E+00 0.  1.
          2    1    1    2  502    0 -0.80511411022E+01  0.19311061233E+02  0.14810746477E+04  0.14812224174E+04  0.00000000000E+00 0.  1.
</event>
<event>
 4    1  0.6089441E+003  0.2451722E+02  0.7546771E-02  0.1474277E+00
          2   -1    0    0  501    0  0.00000000000E+00  0.00000000000E+00  0.55315808563E+02  0.55315808563E+02  0.00000000000E+00 0. -1.
          2   -1    0    0  502    0 -0.00000000000E+00 -0.00000000000E+00 -0.88385263766E+03  0.88385263766E+03  0.00000000000E+00 0.  1.
          2    1    1    2  501    0 -0.15272808999E+02 -0.19179030996E+02 -0.88095704294E+03  0.88129813652E+03  0.00000000000E+00 0.  1.
          2    1    1    2  502    0  0.15272808999E+02  0.19179030996E+02  0.52420213849E+02  0.57870309699E+02  0.00000000000E+00 0. -1.
</event>
<event>
 4    1  0.6089441E+003  0.2843111E+02  0.7546771E-02  0.1433739E+00
          2   -1    0    0  502    0  0.00000000000E+00  0.00000000000E+00  0.71238166794E+01  0.71238166794E+01  0.00000000000E+00 0.  1.
          2   -1    0    0  501    0 -0.00000000000E+00 -0.00000000000E+00 -0.40149380653E+03  0.40149380653E+03  0.00000000000E+00 0.  1.
          2    1    1    2  501    0  0.25025493110E+02 -0.13492695739E+02 -0.24138397214E+02  0.37295983212E+02  0.00000000000E+00 0.  1.
          2    1    1    2  502    0 -0.25025493110E+02  0.13492695739E+02 -0.37023159264E+03  0.37132164000E+03  0.00000000000E+00 0.  1.
</event>
<event>
 4    1  0.6089441E+003  0.3035041E+02  0.7546771E-02  0.1416575E+00
          2   -1    0    0  501    0  0.00000000000E+00  0.00000000000E+00  0.47495655340E+03  0.47495655340E+03  0.00000000000E+00 0. -1.
          2   -1    0    0  502    0 -0.00000000000E+00 -0.00000000000E+00 -0.34156842507E+02  0.34156842507E+02  0.00000000000E+00 0.  1.
          2    1    1    2  501    0  0.28477462633E+02  0.10496727941E+02 -0.26824337599E+02  0.40505459670E+02  0.00000000000E+00 0.  1.
          2    1    1    2  502    0 -0.28477462633E+02 -0.10496727941E+02  0.46762404849E+03  0.46860793624E+03  0.00000000000E+00 0. -1.
</event>
<event>
 4    1  0.6089441E+003  0.2238599E+02  0.7546771E-02  0.1500356E+00
          2   -1    0    0  501    0  0.00000000000E+00  0.00000000000E+00  0.51181781651E+01  0.51181781651E+01  0.00000000000E+00 0. -1.
          2   -1    0    0  502    0 -0.00000000000E+00 -0.00000000000E+00 -0.47464949342E+03  0.47464949342E+03  0.00000000000E+00 0. -1.
          2    1    1    2  501    0  0.87121645036E+01  0.20621121788E+02 -0.44848003343E+03  0.44903838685E+03  0.00000000000E+00 0. -1.
          2    1    1    2  502    0 -0.87121645036E+01 -0.20621121788E+02 -0.21051281820E+02  0.30729284737E+02  0.00000000000E+00 0. -1.
</event>
<event>
 4    1  0.6089441E+003  0.3101690E+02  0.7546771E-02  0.1410961E+00
          2   -1    0    0  501    0  0.00000000000E+00  0.00000000000E+00  0.15048951409E+03  0.15048951409E+03  0.00000000000E+00 0.  1.
          2   -1    0    0  502    0 -0.00000000000E+00 -0.00000000000E+00 -0.75268328763E+03  0.75268328763E+03  0.00000000000E+00 0. -1.
          2    1    1    2  501    0  0.25164173118E+02  0.18133188770E+02 -0.75076146079E+03  0.75140190255E+03  0.00000000000E+00 0. -1.
          2    1    1    2  502    0 -0.25164173118E+02 -0.18133188770E+02  0.14856768725E+03  0.15177089918E+03  0.00000000000E+00 0.  1.
</event>
<event>
 4    1  0.6089441E+003  0.2799441E+02  0.7546771E-02  0.1437867E+00
          2   -1    0    0  502    0  0.00000000000E+00  0.00000000000E+00  0.82772704089E+03  0.82772704089E+03  0.00000000000E+00 0. -1.
          2   -1    0    0  501    0 -0.00000000000E+00 -0.00000000000E+00 -0.17682882072E+01  0.17682882072E+01  0.00000000000E+00 0. -1.
          2    1    1    2  501    0  0.10637393527E+02 -0.25894650493E+02  0.69566886121E+03  0.69623189494E+03  0.00000000000E+00 0. -1.
          2    1    1    2  502    0 -0.10637393527E+02  0.25894650493E+02  0.13028989147E+03  0.13326343416E+03  0.00000000000E+00 0. -1.
</event>
<event>
 4    1  0.6089441E+003  0.2027412E+02  0.7546771E-02  0.1529886E+00
          2   -1    0    0  502    0  0.00000000000E+00  0.00000000000E+00  0.17582111653E+01  0.17582111653E+01  0.00000000000E+00 0. -1.
          2   -1    0    0  501    0 -0.00000000000E+00 -0.00000000000E+00 -0.30361268177E+03  0.30361268177E+03  0.00000000000E+00 0. -1.
          2    1    1    2  501    0 -0.67047777402E+01  0.19133371030E+02 -0.77702530217E+02  0.80303942205E+02  0.00000000000E+00 0. -1.
          2    1    1    2  502    0  0.67047777402E+01 -0.19133371030E+02 -0.22415194039E+03  0.22506695073E+03  0.00000000000E+00 0. -1.
</event>
<event>
 4    1  0.6089441E+003  0.2366787E+02  0.7546771E-02  0.1484278E+00
          2   -1    0    0  502    0  0.00000000000E+00  0.00000000000E+00  0.14073030454E+02  0.14073030454E+02  0.00000000000E+00 0. -1.
          2   -1    0    0  501    0 -0.00000000000E+00 -0.00000000000E+00 -0.29435716831E+03  0.29435716831E+03  0.00000000000E+00 0. -1.
          2    1    1    2  501    0  0.75335755716E+01 -0.22436871580E+02  0.32676340838E+01  0.23892371161E+02  0.00000000000E+00 0. -1.
          2    1    1    2  502    0 -0.75335755716E+01  0.22436871580E+02 -0.28355177193E+03  0.28453782760E+03  0.00000000000E+00 0. -1.
</event>
<event>
 4    1  0.6089441E+003  0.2710857E+02  0.7546771E-02  0.1446521E+00
          2   -1    0    0  502    0  0.00000000000E+00  0.00000000000E+00  0.26783915632E+03  0.26783915632E+03  0.00000000000E+00 0. -1.
          2   -1    0    0  501    0 -0.00000000000E+00 -0.00000000000E+00 -0.15189167940E+03  0.15189167940E+03  0.00000000000E+00 0.  1.
          2    1    1    2  501    0 -0.26262549535E+02  0.67195831748E+01  0.26593505283E+03  0.26731316209E+03  0.00000000000E+00 0. -1.
          2    1    1    2  502    0  0.26262549535E+02 -0.67195831748E+01 -0.14998757591E+03  0.15241767362E+03  0.00000000000E+00 0.  1.
</event>
<event>
 4    1  0.6089441E+003  0.2710670E+02  0.7546771E-02  0.1446539E+00
          2   -1    0    0  501    0  0.00000000000E+00  0.00000000000E+00  0.36850492929E+03  0.36850492929E+03  0.00000000000E+00 0.  1.
          2   -1    0    0  502    0 -0.00000000000E+00 -0.00000000000E+00 -0.18922774640E+03  0.18922774640E+03  0.00000000000E+00 0.  1.
          2    1    1    2  501    0  0.96391097745E+01 -0.25334969797E+02 -0.18775462054E+03  0.18970126690E+03  0.00000000000E+00 0.  1.
          2    1    1    2  502    0 -0.96391097745E+01  0.25334969797E+02  0.36703180342E+03  0.36803140879E+03  0.00000000000E+00 0.  1.
</event>
<event>
 4    1  0.6089441E+003  0.2129632E+02  0.7546771E-02  0.1515076E+00
          2   -1    0    0  501    0  0.00000000000E+00  0.00000000000E+00  0.14071821236E+04  0.14071821236E+04  0.00000000000E+00 0. -1.
          2   -1    0    0  502    0 -0.00000000000E+00 -0.00000000000E+00 -0.10004768533E+01  0.10004768533E+01  0.00000000000E+00 0. -1.
          2    1    1    2  501    0 -0.21033214504E+01  0.21192193647E+02  0.12339878099E+03  0.12522296987E+03  0.00000000000E+00 0. -1.
          2    1    1    2  502    0  0.21033214504E+01 -0.21192193647E+02  0.12827828658E+04  0.12829596306E+04  0.00000000000E+00 0. -1.
</event>
<event>
 4    1  0.6089441E+003  0.2581624E+02  0.7546771E-02  0.1459876E+00
          2   -1    0    0  502    0  0.00000000000E+00  0.00000000000E+00  0.11679253010E+03  0.11679253010E+03  0.00000000000E+00 0. -1.
          2   -1    0    0  501    0 -0.00000000000E+00 -0.00000000000E+00 -0.73279140943E+01  0.73279140943E+01  0.00000000000E+00 0. -1.
          2    1    1    2  501    0  0.23587860866E+02  0.10492424116E+02  0.83924607851E+02  0.87805568997E+02  0.00000000000E+00 0. -1.
          2    1    1    2  502    0 -0.23587860866E+02 -0.10492424116E+02  0.25540008158E+02  0.36314875200E+02  0.00000000000E+00 0. -1.
</event>
<event>
 4    1  0.6089441E+003  0.2659693E+02  0.7546771E-02  0.1451700E+00
          2   -1    0    0  501    0  0.00000000000E+00  0.00000000000E+00  0.16376252063E+04  0.16376252063E+04  0.00000000000E+00 0. -1.
          2   -1    0    0  502    0 -0.00000000000E+00 -0.00000000000E+00 -0.39524803483E+01  0.39524803483E+01  0.00000000000E+00 0.  1.
          2    1    1    2  501    0  0.20569694845E+02  0.16860739170E+02  0.42196749325E+02  0.49879479999E+02  0.00000000000E+00 0.  1.
          2    1    1    2  502    0 -0.20569694845E+02 -0.16860739170E+02  0.15914759766E+04  0.15916982066E+04  0.00000000000E+00 0. -1.
</event>
<event>
 4    1  0.6089441E+003  0.3753603E+02  0.7546771E-02  0.1363563E+00
          2   -1    0    0  501    0  0.00000000000E+00  0.00000000000E+00  0.86056348811E+02  0.86056348811E+02  0.00000000000E+00 0.  1.
          2   -1    0    0  502    0 -0.00000000000E+00 -0.00000000000E+00 -0.61507958524E+03  0.61507958524E+03  0.00000000000E+00 0.  1.
          2    1    1    2  501    0 -0.34387938756E+02 -0.15047358814E+02 -0.61038233219E+03  0.61153539945E+03  0.00000000000E+00 0.  1.
          2    1    1    2  502    0  0.34387938756E+02  0.15047358814E+02  0.81359095753E+02  0.89600534602E+02  0.00000000000E+00 0.  1.
</event>
<event>
 4    1  0.6089441E+003  0.2738861E+02  0.7546771E-02  0.1443743E+00
          2   -1    0    0  502    0  0.00000000000E+00  0.00000000000E+00  0.16587500453E+03  0.16587500453E+03  0.00000000000E+00 0.  1.
          2   -1    0    0  501    0 -0.00000000000E+00 -0.00000000000E+00 -0.10653740616E+03  0.10653740616E+03  0.00000000000E+00 0.  1.
          2    1    1    2  501    0 -0.60869188265E+01  0.26703658949E+02  0.16295281957E+03  0.16523848640E+03  0.00000000000E+00 0.  1.
          2    1    1    2  502    0  0.60869188265E+01 -0.26703658949E+02 -0.10361522120E+03  0.10717392428E+03  0.00000000000E+00 0.  1.
</event>
<event>
 4    1  0.6089441E+003  0.2006539E+02  0.7546771E-02  0.1533038E+00
          2   -1    0    0  501    0  0.00000000000E+00  0.00000000000E+00  0.17288053392E+02  0.17288053392E+02  0.00000000000E+00 0.  1.
          2   -1    0    0  502    0 -0.00000000000E+00 -0.00000000000E+00 -0.69365899674E+03  0.69365899674E+03  0.00000000000E+00 0. -1.
          2    1    1    2  501    0 -0.20063650110E+02 -0.26421468254E+00 -0.68764071706E+03  0.68793340930E+03  0.00000000000E+00 0. -1.
          2    1    1    2  502    0  0.20063650110E+02  0.26421468254E+00  0.11269773711E+02  0.23013640838E+02  0.00000000000E+00 0.  1.
</event>
<event>
 4    1  0.6089441E+003  0.2755764E+02  0.7546771E-02  0.1442086E+00
          2   -1    0    0  501    0  0.00000000000E+00  0.00000000000E+00  0.23649750298E+03  0.23649750298E+03  0.00000000000E+00 0.  1.
          2   -1    0    0  502    0 -0.00000000000E+00 -0.00000000000E+00 -0.16294074520E+02  0.16294074520E+02  0.00000000000E+00 0. -1.
          2    1    1    2  501    0 -0.27225256412E+02  0.42671924452E+01 -0.31567204063E+01  0.27737851427E+02  0.00000000000E+00 0. -1.
          2    1    1    2  502    0  0.27225256412E+02 -0.42671924452E+01  0.22336014887E+03  0.22505372608E+03  0.00000000000E+00 0.  1.
</event>
<event>
 4    1  0.6089441E+003  0.4064632E+02  0.7546771E-02  0.1344739E+00
          2   -1    0    0  502    0  0.00000000000E+00  0.00000000000E+00  0.30078938423E+02  0.30078938423E+02  0.00000000000E+00 0.  1.
          2   -1    0    0  501    0 -0.00000000000E+00 -0.00000000000E+00 -0.66962564014E+02  0.66962564014E+02  0.00000000000E+00 0.  1.
          2    1    1    2  501    0 -0.28463411871E+02 -0.29016507522E+02  0.21293146188E+01  0.40702057747E+02  0.00000000000E+00 0.  1.
          2    1    1    2  502    0  0.28463411871E+02  0.29016507522E+02 -0.39012940209E+02  0.56339444689E+02  0.00000000000E+00 0.  1.
</event>
<event>
 4    1  0.6089441E+003  0.2883876E+02  0.7546771E-02  0.1429963E+00
          2   -1    0    0  502    0  0.00000000000E+00  0.00000000000E+00  0.80736500266E+02  0.80736500266E+02  0.00000000000E+00 0.  1.
          2   -1    0    0  501    0 -0.00000000000E+00 -0.00000000000E+00 -0.48131534320E+03  0.48131534320E+03  0.00000000000E+00 0. -1.
          2    1    1    2  501    0  0.22560473250E+02  0.17963824425E+02  0.77712983263E+02  0.82891385010E+02  0.00000000000E+00 0.  1.
          2    1    1    2  502    0 -0.22560473250E+02 -0.17963824425E+02 -0.47829182620E+03  0.47916045846E+03  0.00000000000E+00 0. -1.
</event>
<event>
 4    1  0.6089441E+003  0.5775677E+02  0.7546771E-02  0.1267651E+00
          2   -1    0    0  502    0  0.00000000000E+00  0.00000000000E+00  0.55196468427E+03  0.55196468427E+03  0.00000000000E+00 0. -1.
          2   -1    0    0  501    0 -0.00000000000E+00 -0.00000000000E+00 -0.10169075260E+03  0.10169075260E+03  0.00000000000E+00 0.  1.
          2    1    1    2  501    0  0.51452181675E+02  0.26239619876E+02  0.54210408432E+03  0.54517215895E+03  0.00000000000E+00 0. -1.
          2    1    1    2  502    0 -0.51452181675E+02 -0.26239619876E+02 -0.91830152654E+02  0.10848327791E+03  0.00000000000E+00 0.  1.
</event>
<event>
 4    1  0.6089441E+003  0.4719414E+02  0.7546771E-02  0.1310819E+00
          2   -1    0    0  502    0  0.00000000000E+00  0.00000000000E+00  0.47140031192E+01  0.47140031192E+01  0.00000000000E+00 0.  1.
          2   -1    0    0  501    0 -0.00000000000E+00 -0.00000000000E+00 -0.95364983049E+03  0.95364983049E+03  0.00000000000E+00 0. -1.
          2    1    1    2  501    0  0.10324704320E+02 -0.46050920144E+02 -0.13409597208E+03  0.14215842041E+03  0.00000000000E+00 0.  1.
          2    1    1    2  502    0 -0.10324704320E+02  0.46050920144E+02 -0.81483985530E+03  0.81620541320E+03  0.00000000000E+00 0. -1.
</event>
<event>
 4    1  0.6089441E+003  0.2048879E+02  0.7546771E-02  0.1526690E+00
          2   -1    0    0  502    0  0.00000000000E+00  0.00000000000E+00  0.10924180576E+04  0.10924180576E+04  0.00000000000E+00 0.  1.
          2   -1    0    0  501    0 -0.00000000000E+00 -0.00000000000E+00 -0.11022399173E+02  0.11022399173E+02  0.00000000000E+00 0. -1.
          2    1    1    2  501    0 -0.25027903555E+01  0.20335350610E+02  0.10827153677E+04  0.10829092104E+04  0.00000000000E+00 0.  1.
          2    1    1    2  502    0  0.25027903555E+01 -0.20335350610E+02 -0.13197093293E+01  0.20531246350E+02  0.00000000000E+00 0. -1.
</event>
<event>
 4    1  0.6089441E+003  0.3465276E+02  0.7546771E-02  0.1383021E+00
          2   -1    0    0  502    0  0.00000000000E+00  0.00000000000E+00  0.25695281475E+04  0.25695281475E+04  0.00000000000E+00 0.  1.
          2   -1    0    0  501    0 -0.00000000000E+00 -0.00000000000E+00 -0.37573776619E+01  0.37573776619E+01  0.00000000000E+00 0.  1.
          2    1    1    2  501    0 -0.32382163935E+02  0.12337318165E+02  0.24868583771E+04  0.24870997973E+04  0.00000000000E+00 0.  1.
          2    1    1    2  502    0  0.32382163935E+02 -0.12337318165E+02  0.78912392778E+02  0.86185727905E+02  0.00000000000E+00 0.  1.
</event>
<event>
 4    1  0.6089441E+003  0.2271224E+02  0.7546771E-02  0.1496144E+00
          2   -1    0    0  502    0  0.00000000000E+00  0.00000000000E+00  0.42521433417E+02  0.42521433417E+02  0.00000000000E+00 0.  1.
          2   -1    0    0  501    0 -0.00000000000E+00 -0.00000000000E+00 -0.24836577777E+02  0.24836577777E+02  0.00000000000E+00 0.  1.
          2    1    1    2  501    0 -0.17978565465E+02  0.13878655085E+02  0.32930564517E+02  0.40003349392E+02  0.00000000000E+00 0.  1.
          2    1    1    2  502    0  0.17978565465E+02 -0.13878655085E+02 -0.15245708877E+02  0.27354661802E+02  0.00000000000E+00 0.  1.
</event>
<event>
 4    1  0.6089441E+003  0.2298568E+02  0.7546771E-02  0.1492678E+00
          2   -1    0    0  501    0  0.00000000000E+00  0.00000000000E+00  0.61583559175E+03  0.61583559175E+03  0.00000000000E+00 0.  1.
          2   -1    0    0  502    0 -0.00000000000E+00 -0.00000000000E+00 -0.28510556340E+02  0.28510556340E+02  0.00000000000E+00 0. -1.
          2    1    1    2  501    0 -0.18440236160E+02 -0.13722217946E+02 -0.23626190358E+02  0.32962682626E+02  0.00000000000E+00 0. -1.
          2    1    1    2  502    0  0.18440236160E+02  0.13722217946E+02  0.61095122577E+03  0.61138346547E+03  0.00000000000E+00 0.  1.
</event>
<event>
 4    1  0.6089441E+003  0.2346715E+02  0.7546771E-02  0.1486714E+00
          2   -1    0    0  502    0  0.00000000000E+00  0.00000000000E+00  0.83235568413E+03  0.83235568413E+03  0.00000000000E+00 0.  1.
          2   -1    0    0  501    0 -0.00000000000E+00 -0.00000000000E+00 -0.59372729001E+01  0.59372729001E+01  0.00000000000E+00 0. -1.
          2    1    1    2  501    0  0.16761041668E+02  0.16424811903E+02  0.80831212222E+03  0.80865270289E+03  0.00000000000E+00 0.  1.
          2    1    1    2  502    0 -0.16761041668E+02 -0.16424811903E+02  0.18106289013E+02  0.29640254143E+02  0.00000000000E+00 0. -1.
</event>
<event>
 4    1  0.6089441E+003  0.2357678E+02  0.7546771E-02  0.1485380E+00
          2   -1    0    0  501    0  0.00000000000E+00  0.00000000000E+00  0.12650470682E+04  0.12650470682E+04  0.00000000000E+00 0.  1.
          2   -1    0    0  502    0 -0.00000000000E+00 -0.00000000000E+00 -0.22805706498E+01  0.22805706498E+01  0.00000000000E+00 0.  1.
          2    1    1    2  501    0  0.12037011396E+02 -0.20272511200E+02  0.62027227650E+02  0.66356923705E+02  0.00000000000E+00 0.  1.
          2    1    1    2  502    0 -0.12037011396E+02  0.20272511200E+02  0.12007392699E+04  0.12009707151E+04  0.00000000000E+00 0.  1.
</event>
<event>
 4    1  0.6089441E+003  0.3961793E+02  0.7546771E-02  0.1350739E+00
          2   -1    0    0  502    0  0.00000000000E+00  0.00000000000E+00  0.45393182060E+03  0.45393182060E+03  0.00000000000E+00 0.  1.
          2   -1    0    0  501    0 -0.00000000000E+00 -0.00000000000E+00 -0.62209801478E+03  0.62209801478E+03  0.00000000000E+00 0.  1.
          2    1    1    2  501    0  0.16271699063E+02 -0.36122184208E+02  0.45243454007E+03  0.45416582151E+03  0.00000000000E+00 0.  1.
          2    1    1    2  502    0 -0.16271699063E+02  0.36122184208E+02 -0.62060073425E+03  0.62186401386E+03  0.00000000000E+00 0.  1.
</event>
<event>
 4    1  0.6089441E+003  0.2774914E+02  0.7546771E-02  0.1440225E+00
          2   -1    0    0  501    0  0.00000000000E+00  0.00000000000E+00  0.37373169307E+03  0.37373169307E+03  0.00000000000E+00 0.  1.
          2   -1    0    0  502    0 -0.00000000000E+00 -0.00000000000E+00 -0.66778205862E+02  0.66778205862E+02  0.00000000000E+00 0. -1.
          2    1    1    2  501    0 -0.27035621200E+02  0.62522116798E+01 -0.63353766469E+02  0.69164403347E+02  0.00000000000E+00 0. -1.
          2    1    1    2  502    0  0.27035621200E+02 -0.62522116798E+01  0.37030725368E+03  0.37134549559E+03  0.00000000000E+00 0.  1.
</event>
<event>
 4    1  0.6089441E+003  0.2001339E+02  0.7546771E-02  0.1533831E+00
          2   -1    0    0  501    0  0.00000000000E+00  0.00000000000E+00  0.10371110326E+03  0.10371110326E+03  0.00000000000E+00 0. -1.
          2   -1    0    0  502    0 -0.00000000000E+00 -0.00000000000E+00 -0.20090760991E+02  0.20090760991E+02  0.00000000000E+00 0. -1.
          2    1    1    2  501    0 -0.19679543390E+02 -0.36402606461E+01 -0.13823946842E+02  0.24323598252E+02  0.00000000000E+00 0. -1.
          2    1    1    2  502    0  0.19679543390E+02  0.36402606461E+01  0.97444289109E+02  0.99478265996E+02  0.00000000000E+00 0. -1.
</event>
<event>
 4    1  0.6089441E+003  0.2386080E+02  0.7546771E-02  0.1481963E+00
          2   -1    0    0  501    0  0.00000000000E+00  0.00000000000E+00  0.20740344397E+04  0.20740344397E+04  0.00000000000E+00 0.  1.
          2   -1    0    0  502    0 -0.00000000000E+00 -0.00000000000E+00 -0.34708772245E+00  0.34708772245E+00  0.00000000000E+00 0.  1.
          2    1    1    2  501    0 -0.78676282462E+01 -0.22526391133E+02  0.15111384729E+04  0.15113268416E+04  0.00000000000E+00 0.  1.
          2    1    1    2  502    0  0.78676282462E+01  0.22526391133E+02  0.56254887912E+03  0.56305468586E+03  0.00000000000E+00 0.  1.
</event>
<event>
 4    1  0.6089441E+003  0.2206766E+02  0.7546771E-02  0.1504550E+00
          2   -1    0    0  502    0  0.00000000000E+00  0.00000000000E+00  0.10616841342E+04  0.10616841342E+04  0.00000000000E+00 0.  1.
          2   -1    0    0  501    0 -0.00000000000E+00 -0.00000000000E+00 -0.29540030107E+01  0.29540030107E+01  0.00000000000E+00 0. -1.
          2    1    1    2  501    0  0.13541991328E+00 -0.22067248303E+02  0.10186132754E+04  0.10188522889E+04  0.00000000000E+00 0.  1.
          2    1    1    2  502    0 -0.13541991328E+00  0.22067248303E+02  0.40116855753E+02  0.45785848269E+02  0.00000000000E+00 0. -1.
</event>
<event>
 4    1  0.6089441E+003  0.3845223E+02  0.7546771E-02  0.1357802E+00
          2   -1    0    0  501    0  0.00000000000E+00  0.00000000000E+00  0.45476706511E+02  0.45476706511E+02  0.00000000000E+00 0.  1.
          2   -1    0    0  502    0 -0.00000000000E+00 -0.00000000000E+00 -0.90177199911E+03  0.90177199911E+03  0.00000000000E+00 0.  1.
          2    1    1    2  501    0 -0.23998364402E+01  0.38377269920E+02 -0.89315551837E+03  0.89398286004E+03  0.00000000000E+00 0.  1.
          2    1    1    2  502    0  0.23998364402E+01 -0.38377269920E+02  0.36860225768E+02  0.53265845578E+02  0.00000000000E+00 0.  1.
</event>
<event>
 4    1  0.6089441E+003  0.2976587E+02  0.7546771E-02  0.1421642E+00
          2   -1    0    0  501    0  0.00000000000E+00  0.00000000000E+00  0.70005113100E+03  0.70005113100E+03  0.00000000000E+00 0.  1.
          2   -1    0    0  502    0 -0.00000000000E+00 -0.00000000000E+00 -0.46679008256E+01  0.46679008256E+01  0.00000000000E+00 0. -1.
          2    1    1    2  501    0 -0.23962722694E+02  0.17657714063E+02  0.46869664702E+02  0.55522719801E+02  0.00000000000E+00 0. -1.
          2    1    1    2  502    0  0.23962722694E+02 -0.17657714063E+02  0.64851356547E+03  0.64919631202E+03  0.00000000000E+00 0.  1.
</event>
<event>
 4    1  0.6089441E+003  0.2395097E+02  0.7546771E-02  0.1480890E+00
          2   -1    0    0  501    0  0.00000000000E+00  0.00000000000E+00  0.33566654605E+02  0.33566654605E+02  0.00000000000E+00 0. -1.
          2   -1    0    0  502    0 -0.00000000000E+00 -0.00000000000E+00 -0.38213446852E+03  0.38213446852E+03  0.00000000000E+00 0. -1.
          2    1    1    2  501    0 -0.13850518385E+02  0.19540009449E+02 -0.37743355568E+03  0.37819272571E+03  0.00000000000E+00 0. -1.
          2    1    1    2  502    0  0.13850518385E+02 -0.19540009449E+02  0.28865741765E+02  0.37508397412E+02  0.00000000000E+00 0. -1.
</event>
<event>
 4    1  0.6089441E+003  0.5184048E+02  0.7546771E-02  0.1290384E+00
          2   -1    0    0  501    0  0.00000000000E+00  0.00000000000E+00  0.42149933478E+03  0.42149933478E+03  0.00000000000E+00 0. -1.
          2   -1    0    0  502    0 -0.00000000000E+00 -0.00000000000E+00 -0.53787748852E+02  0.53787748852E+02  0.00000000000E+00 0. -1.
          2    1    1    2  501    0 -0.26704354812E+02 -0.44433235016E+02 -0.39258712821E+02  0.65028312851E+02  0.00000000000E+00 0. -1.
          2    1    1    2  502    0  0.26704354812E+02  0.44433235016E+02  0.40697029875E+03  0.41025877079E+03  0.00000000000E+00 0. -1.
</event>
<event>
 4    1  0.6089441E+003  0.2248497E+02  0.7546771E-02  0.1499069E+00
          2   -1    0    0  501    0  0.00000000000E+00  0.00000000000E+00  0.81709108466E+01  0.81709108466E+01  0.00000000000E+00 0.  1.
          2   -1    0    0  502    0 -0.00000000000E+00 -0.00000000000E+00 -0.33296802864E+03  0.33296802864E+03  0.00000000000E+00 0.  1.
          2    1    1    2  501    0 -0.21028025745E+02 -0.79621581823E+01 -0.31630589882E+03  0.31710407670E+03  0.00000000000E+00 0.  1.
          2    1    1    2  502    0  0.21028025745E+02  0.79621581823E+01 -0.84912189739E+01  0.24034862790E+02  0.00000000000E+00 0.  1.
</event>
<event>
 4    1  0.6089441E+003  0.2147461E+02  0.7546771E-02  0.1512595E+00
          2   -1    0    0  501    0  0.00000000000E+00  0.00000000000E+00  0.23073613207E+02  0.23073613207E+02  0.00000000000E+00 0.  1.
          2   -1    0    0  502    0 -0.00000000000E+00 -0.00000000000E+00 -0.78490558340E+02  0.78490558340E+02  0.00000000000E+00 0. -1.
          2    1    1    2  501    0 -0.16893042109E+02 -0.13258351889E+02 -0.71550955800E+02  0.74704069785E+02  0.00000000000E+00 0. -1.
          2    1    1    2  502    0  0.16893042109E+02  0.13258351889E+02  0.16134010667E+02  0.26860101762E+02  0.00000000000E+00 0.  1.
</event>
<event>
 4    1  0.6089441E+003  0.4595678E+02  0.7546771E-02  0.1316723E+00
          2   -1    0    0  501    0  0.00000000000E+00  0.00000000000E+00  0.14907695097E+02  0.14907695097E+02  0.00000000000E+00 0.  1.
          2   -1    0    0  502    0 -0.00000000000E+00 -0.00000000000E+00 -0.42157649992E+03  0.42157649992E+03  0.00000000000E+00 0. -1.
          2    1    1    2  501    0  0.39677334125E+02  0.23189109142E+02 -0.38116401887E+03  0.38392451720E+03  0.00000000000E+00 0. -1.
          2    1    1    2  502    0 -0.39677334125E+02 -0.23189109142E+02 -0.25504785958E+02  0.52559677823E+02  0.00000000000E+00 0.  1.
</event>
<event>
 4    1  0.6089441E+003  0.2152156E+02  0.7546771E-02  0.1511947E+00
          2   -1    0    0  501    0  0.00000000000E+00  0.00000000000E+00  0.14061345012E+02  0.14061345012E+02  0.00000000000E+00 0. -1.
          2   -1    0    0  502    0 -0.00000000000E+00 -0.00000000000E+00 -0.59825451324E+02  0.59825451324E+02  0.00000000000E+00 0.  1.
          2    1    1    2  501    0 -0.14327022779E+02  0.16059702486E+02 -0.47647962743E+02  0.52282941570E+02  0.00000000000E+00 0.  1.
          2    1    1    2  502    0  0.14327022779E+02 -0.16059702486E+02  0.18838564317E+01  0.21603854765E+02  0.00000000000E+00 0. -1.
</event>
<event>
 4    1  0.6089441E+003  0.2681054E+02  0.7546771E-02  0.1449521E+00
          2   -1    0    0  502    0  0.00000000000E+00  0.00000000000E+00  0.37002969091E+03  0.37002969091E+03  0.00000000000E+00 0.  1.
          2   -1    0    0  501    0 -0.00000000000E+00 -0.00000000000E+00 -0.15472566204E+02  0.15472566204E+02  0.00000000000E+00 0.  1.
          2    1    1    2  501    0 -0.37792298541E-01 -0.26810511682E+02  0.35752419424E+03  0.35852803856E+03  0.00000000000E+00 0.  1.
          2    1    1    2  502    0  0.37792298541E-01  0.26810511682E+02 -0.29670695373E+01  0.26974218553E+02  0.00000000000E+00 0.  1.
</event>
<event>
 4    1  0.6089441E+003  0.2120877E+02  0.7546771E-02  0.1516305E+00
          2   -1    0    0  501    0  0.00000000000E+00  0.00000000000E+00  0.41351116644E+02  0.41351116644E+02  0.00000000000E+00 0. -1.
          2   -1    0    0  502    0 -0.00000000000E+00 -0.00000000000E+00 -0.81047572497E+03  0.81047572497E+03  0.00000000000E+00 0.  1.
          2    1    1    2  501    0  0.18134087899E+02  0.10998493848E+02 -0.80760785310E+03  0.80788628927E+03  0.00000000000E+00 0.  1.
          2    1    1    2  502    0 -0.18134087899E+02 -0.10998493848E+02  0.38483244778E+02  0.43940552335E+02  0.00000000000E+00 0. -1.
</event>
<event>
 4    1  0.6089441E+003  0.2548583E+02  0.7546771E-02  0.1463441E+00
          2   -1    0    0  502    0  0.00000000000E+00  0.00000000000E+00  0.68765115003E+02  0.68765115003E+02  0.00000000000E+00 0. -1.
          2   -1    0    0  501    0 -0.00000000000E+00 -0.00000000000E+00 -0.18839289647E+02  0.18839289647E+02  0.00000000000E+00 0. -1.
          2    1    1    2  501    0 -0.17562156680E+02 -0.18468845469E+02  0.55893049863E+02  0.61429314038E+02  0.00000000000E+00 0. -1.
          2    1    1    2  502    0  0.17562156680E+02  0.18468845469E+02 -0.59672245070E+01  0.26175090612E+02  0.00000000000E+00 0. -1.
</event>
<event>
 4    1  0.6089441E+003  0.5804241E+02  0.7546771E-02  0.1266633E+00
          2   -1    0    0  501    0  0.00000000000E+00  0.00000000000E+00  0.14864151449E+03  0.14864151449E+03  0.00000000000E+00 0.  1.
          2   -1    0    0  502    0 -0.00000000000E+00 -0.00000000000E+00 -0.39059061048E+02  0.39059061048E+02  0.00000000000E+00 0. -1.
          2    1    1    2  501    0  0.41642505831E+01 -0.57892830956E+02 -0.60112771922E+01  0.58352860362E+02  0.00000000000E+00 0. -1.
          2    1    1    2  502    0 -0.41642505831E+01  0.57892830956E+02  0.11559373063E+03  0.12934771517E+03  0.00000000000E+00 0.  1.
</event>
<event>
 4    1  0.6089441E+003  0.2205124E+02  0.7546771E-02  0.1504768E+00
          2   -1    0    0  501    0  0.00000000000E+00  0.00000000000E+00  0.12300346801E+01  0.12300346801E+01  0.00000000000E+00 0.  1.
          2   -1    0    0  502    0 -0.00000000000E+00 -0.00000000000E+00 -0.39536552880E+03  0.39536552880E+03  0.00000000000E+00 0.  1.
          2    1    1    2  501    0  0.21818142930E+02  0.31978076370E+01 -0.19919522571E+03  0.20041206371E+03  0.00000000000E+00 0.  1.
          2    1    1    2  502    0 -0.21818142930E+02 -0.31978076370E+01 -0.19494026841E+03  0.19618349977E+03  0.00000000000E+00 0.  1.
</event>
<event>
 4    1  0.6089441E+003  0.2129412E+02  0.7546771E-02  0.1515107E+00
          2   -1    0    0  501    0  0.00000000000E+00  0.00000000000E+00  0.42395551452E+00  0.42395551452E+00  0.00000000000E+00 0. -1.
          2   -1    0    0  502    0 -0.00000000000E+00 -0.00000000000E+00 -0.12667370536E+04  0.12667370536E+04  0.00000000000E+00 0. -1.
          2    1    1    2  501    0  0.20107512448E+02 -0.70090887119E+01 -0.88313558174E+03  0.88339226571E+03  0.00000000000E+00 0. -1.
          2    1    1    2  502    0 -0.20107512448E+02  0.70090887119E+01 -0.38317751634E+03  0.38376874340E+03  0.00000000000E+00 0. -1.
</event>
<event>
 4    1  0.6089441E+003  0.2427825E+02  0.7546771E-02  0.1477042E+00
          2   -1    0    0  501    0  0.00000000000E+00  0.00000000000E+00  0.65001696727E+02  0.65001696727E+02  0.00000000000E+00 0.  1.
          2   -1    0    0  502    0 -0.00000000000E+00 -0.00000000000E+00 -0.73455805305E+02  0.73455805305E+02  0.00000000000E+00 0. -1.
          2    1    1    2  501    0  0.13642067851E+02  0.20083010054E+02 -0.69042028584E+02  0.73186303494E+02  0.00000000000E+00 0. -1.
          2    1    1    2  502    0 -0.13642067851E+02 -0.20083010054E+02  0.60587920005E+02  0.65271198538E+02  0.00000000000E+00 0.  1.
</event>
<event>
 4    1  0.6089441E+003  0.2901641E+02  0.7546771E-02  0.1428341E+00
          2   -1    0    0  502    0  0.00000000000E+00  0.00000000000E+00  0.12418769575E+02  0.12418769575E+02  0.00000000000E+00 0. -1.
          2   -1    0    0  501    0 -0.00000000000E+00 -0.00000000000E+00 -0.10769712918E+04  0.10769712918E+04  0.00000000000E+00 0.  1.
          2    1    1    2  501    0  0.16009323959E+02  0.24200276784E+02 -0.50045162460E+01  0.29444813344E+02  0.00000000000E+00 0. -1.
          2    1    1    2  502    0 -0.16009323959E+02 -0.24200276784E+02 -0.10595480060E+04  0.10599452481E+04  0.00000000000E+00 0.  1.
</event>
<event>
 4    1  0.6089441E+003  0.3962207E+02  0.7546771E-02  0.1350715E+00
          2   -1    0    0  501    0  0.00000000000E+00  0.00000000000E+00  0.93667596819E+02  0.93667596819E+02  0.00000000000E+00 0. -1.
          2   -1    0    0  502    0 -0.00000000000E+00 -0.00000000000E+00 -0.13802007371E+03  0.13802007371E+03  0.00000000000E+00 0.  1.
          2    1    1    2  501    0 -0.34327142938E+02  0.19787759595E+02 -0.13075877015E+03  0.13663002651E+03  0.00000000000E+00 0.  1.
          2    1    1    2  502    0  0.34327142938E+02 -0.19787759595E+02  0.86406293260E+02  0.95057644021E+02  0.00000000000E+00 0. -1.
</event>
<event>
 4    1  0.6089441E+003  0.2283772E+02  0.7546771E-02  0.1494546E+00
          2   -1    0    0  502    0  0.00000000000E+00  0.00000000000E+00  0.14208140505E+04  0.14208140505E+04  0.00000000000E+00 0.  1.
          2   -1    0    0  501    0 -0.00000000000E+00 -0.00000000000E+00 -0.10754194973E+03  0.10754194973E+03  0.00000000000E+00 0.  1.
          2    1    1    2  501    0  0.14985685323E+02  0.17233422591E+02  0.14195087031E+04  0.14196924032E+04  0.00000000000E+00 0.  1.
          2    1    1    2  502    0 -0.14985685323E+02 -0.17233422591E+02 -0.10623660237E+03  0.10866359695E+03  0.00000000000E+00 0.  1.
</event>
<event>
 4    1  0.6089441E+003  0.2287109E+02  0.7546771E-02  0.1494123E+00
          2   -1    0    0  502    0  0.00000000000E+00  0.00000000000E+00  0.15996665473E+02  0.15996665473E+02  0.00000000000E+00 0.  1.
          2   -1    0    0  501    0 -0.00000000000E+00 -0.00000000000E+00 -0.10931658718E+04  0.10931658718E+04  0.00000000000E+00 0.  1.
          2    1    1    2  501    0  0.13481260508E+02  0.18475458226E+02  0.76391276388E+01  0.24113133613E+02  0.00000000000E+00 0.  1.
          2    1    1    2  502    0 -0.13481260508E+02 -0.18475458226E+02 -0.10848083339E+04  0.10850494036E+04  0.00000000000E+00 0.  1.
</event>
<event>
 4    1  0.6089441E+003  0.2734082E+02  0.7546771E-02  0.1444214E+00
          2   -1    0    0  501    0  0.00000000000E+00  0.00000000000E+00  0.11164542491E+02  0.11164542491E+02  0.00000000000E+00 0. -1.
          2   -1    0    0  502    0 -0.00000000000E+00 -0.00000000000E+00 -0.13464928282E+03  0.13464928282E+03  0.00000000000E+00 0.  1.
          2    1    1    2  501    0 -0.18104714389E+02 -0.20487546009E+02 -0.11343673159E+03  0.11668509887E+03  0.00000000000E+00 0.  1.
          2    1    1    2  502    0  0.18104714389E+02  0.20487546009E+02 -0.10048008742E+02  0.29128726444E+02  0.00000000000E+00 0. -1.
</event>
<event>
 4    1  0.6089441E+003  0.2339984E+02  0.7546771E-02  0.1487537E+00
          2   -1    0    0  502    0  0.00000000000E+00  0.00000000000E+00  0.57447570123E+02  0.57447570123E+02  0.00000000000E+00 0. -1.
          2   -1    0    0  501    0 -0.00000000000E+00 -0.00000000000E+00 -0.14221951312E+02  0.14221951312E+02  0.00000000000E+00 0. -1.
          2    1    1    2  501    0 -0.19964127614E+02 -0.12205983904E+02  0.42192533527E+02  0.48246889225E+02  0.00000000000E+00 0. -1.
          2    1    1    2  502    0  0.19964127614E+02  0.12205983904E+02  0.10330852836E+01  0.23422632211E+02  0.00000000000E+00 0. -1.
</event>
<event>
 4    1  0.6089441E+003  0.2466252E+02  0.7546771E-02  0.1472614E+00
          2   -1    0    0  501    0  0.00000000000E+00  0.00000000000E+00  0.72767822029E+02  0.72767822029E+02  0.00000000000E+00 0.  1.
          2   -1    0    0  502    0 -0.00000000000E+00 -0.00000000000E+00 -0.46004615301E+03  0.46004615301E+03  0.00000000000E+00 0. -1.
          2    1    1    2  501    0 -0.20204730943E+02  0.14142437105E+02 -0.45761486812E+03  0.45827896221E+03  0.00000000000E+00 0. -1.
          2    1    1    2  502    0  0.20204730943E+02 -0.14142437105E+02  0.70336537142E+02  0.74535012826E+02  0.00000000000E+00 0.  1.
</event>
<event>
 4    1  0.6089441E+003  0.2074218E+02  0.7546771E-02  0.1522978E+00
          2   -1    0    0  502    0  0.00000000000E+00  0.00000000000E+00  0.11183740137E+01  0.11183740137E+01  0.00000000000E+00 0.  1.
          2   -1    0    0  501    0 -0.00000000000E+00 -0.00000000000E+00 -0.41465843642E+03  0.41465843642E+03  0.00000000000E+00 0.  1.
          2    1    1    2  501    0 -0.98259932552E+01 -0.18267126511E+02 -0.15089119349E+03  0.15231017802E+03  0.00000000000E+00 0.  1.
          2    1    1    2  502    0  0.98259932552E+01  0.18267126511E+02 -0.26264886892E+03  0.26346663242E+03  0.00000000000E+00 0.  1.
</event>
<event>
 4    1  0.6089441E+003  0.2511770E+02  0.7546771E-02  0.1467491E+00
          2   -1    0    0  501    0  0.00000000000E+00  0.00000000000E+00  0.15033723708E+02  0.15033723708E+02  0.00000000000E+00 0.  1.
          2   -1    0    0  502    0 -0.00000000000E+00 -0.00000000000E+00 -0.24242252385E+03  0.24242252385E+03  0.00000000000E+00 0. -1.
          2    1    1    2  501    0 -0.24293680149E+02  0.63809158547E+01 -0.23075143099E+03  0.23211445859E+03  0.00000000000E+00 0. -1.
          2    1    1    2  502    0  0.24293680149E+02 -0.63809158547E+01  0.33626308403E+01  0.25341788976E+02  0.00000000000E+00 0.  1.
</event>
<event>
 4    1  0.6089441E+003  0.2361190E+02  0.7546771E-02  0.1484954E+00
          2   -1    0    0  501    0  0.00000000000E+00  0.00000000000E+00  0.14017452437E+01  0.14017452437E+01  0.00000000000E+00 0.  1.
          2   -1    0    0  502    0 -0.00000000000E+00 -0.00000000000E+00 -0.10652799766E+04  0.10652799766E+04  0.00000000000E+00 0. -1.
          2    1    1    2  501    0  0.10817071284E+02  0.20988397532E+02 -0.95413455660E+03  0.95442667291E+03  0.00000000000E+00 0. -1.
          2    1    1    2  502    0 -0.10817071284E+02 -0.20988397532E+02 -0.10974367473E+03  0.11225504890E+03  0.00000000000E+00 0.  1.
</event>
<event>
 4    1  0.6089441E+003  0.2031622E+02  0.7546771E-02  0.1529255E+00
          2   -1    0    0  502    0  0.00000000000E+00  0.00000000000E+00  0.39354174228E+01  0.39354174228E+01  0.00000000000E+00 0. -1.
          2   -1    0    0  501    0 -0.00000000000E+00 -0.00000000000E+00 -0.96455872293E+03  0.96455872293E+03  0.00000000000E+00 0.  1.
          2    1    1    2  501    0  0.17613067735E+02  0.10125636602E+02 -0.23149130546E+02  0.30799852543E+02  0.00000000000E+00 0. -1.
          2    1    1    2  502    0 -0.17613067735E+02 -0.10125636602E+02 -0.93747417496E+03  0.93769428781E+03  0.00000000000E+00 0.  1.
</event>
<event>
 4    1  0.6291841E+003  0.2011616E+02  0.7546771E-02  0.1532267E+00
          2   -1    0    0  501    0  0.00000000000E+00  0.00000000000E+00  0.12566911132E+04  0.12566911132E+04  0.00000000000E+00 0. -1.
          2   -1    0    0  502    0 -0.00000000000E+00 -0.00000000000E+00 -0.64435543678E+03  0.64435543678E+03  0.00000000000E+00 0. -1.
          2    1    1    2  501    0  0.15324548778E+02 -0.13031420873E+02 -0.64411790432E+03  0.64443194706E+03  0.00000000000E+00 0. -1.
          2    1    1    2  502    0 -0.15324548778E+02  0.13031420873E+02  0.12564535808E+04  0.12566146030E+04  0.00000000000E+00 0. -1.
</event>
<event>
 4    1  0.6089441E+003  0.3015110E+02  0.7546771E-02  0.1418288E+00
          2   -1    0    0  502    0  0.00000000000E+00  0.00000000000E+00  0.13179471602E+03  0.13179471602E+03  0.00000000000E+00 0.  1.
          2   -1    0    0  501    0 -0.00000000000E+00 -0.00000000000E+00 -0.16914868979E+04  0.16914868979E+04  0.00000000000E+00 0. -1.
          2    1    1    2  501    0  0.27506320884E+02  0.12348728394E+02  0.12993401388E+03  0.13338641889E+03  0.00000000000E+00 0.  1.
          2    1    1    2  502    0 -0.27506320884E+02 -0.12348728394E+02 -0.16896261958E+04  0.16898951950E+04  0.00000000000E+00 0. -1.
</event>
<event>
 4    1  0.6089441E+003  0.2336088E+02  0.7546771E-02  0.1488016E+00
          2   -1    0    0  501    0  0.00000000000E+00  0.00000000000E+00  0.62768416939E+03  0.62768416939E+03  0.00000000000E+00 0. -1.
          2   -1    0    0  502    0 -0.00000000000E+00 -0.00000000000E+00 -0.13219459687E+02  0.13219459687E+02  0.00000000000E+00 0.  1.
          2    1    1    2  501    0  0.22685245695E+02  0.55776848401E+01 -0.25022901931E+01  0.23494518438E+02  0.00000000000E+00 0.  1.
          2    1    1    2  502    0 -0.22685245695E+02 -0.55776848401E+01  0.61696699989E+03  0.61740911063E+03  0.00000000000E+00 0. -1.
</event>
<event>
 4    1  0.6089441E+003  0.7670547E+02  0.7546771E-02  0.1211710E+00
          2   -1    0    0  502    0  0.00000000000E+00  0.00000000000E+00  0.35918019958E+04  0.35918019958E+04  0.00000000000E+00 0. -1.
          2   -1    0    0  501    0 -0.00000000000E+00 -0.00000000000E+00 -0.45390053803E+03  0.45390053803E+03  0.00000000000E+00 0.  1.
          2    1    1    2  501    0  0.18684289708E+02  0.74395071384E+02  0.35881485226E+04  0.35889683127E+04  0.00000000000E+00 0. -1.
          2    1    1    2  502    0 -0.18684289708E+02 -0.74395071384E+02 -0.45024706485E+03  0.45673422111E+03  0.00000000000E+00 0.  1.
</event>
<event>
 4    1  0.6089441E+003  0.2693640E+02  0.7546771E-02  0.1448248E+00
          2   -1    0    0  502    0  0.00000000000E+00  0.00000000000E+00  0.15252052903E+02  0.15252052903E+02  0.00000000000E+00 0.  1.
          2   -1    0    0  501    0 -0.00000000000E+00 -0.00000000000E+00 -0.15593454520E+03  0.15593454520E+03  0.00000000000E+00 0.  1.
          2    1    1    2  501    0  0.24053197372E+02  0.12124911811E+02  0.10111085453E+01  0.26955372947E+02  0.00000000000E+00 0.  1.
          2    1    1    2  502    0 -0.24053197372E+02 -0.12124911811E+02 -0.14169360084E+03  0.14423122515E+03  0.00000000000E+00 0.  1.
</event>
<event>
 4    1  0.6089441E+003  0.3207029E+02  0.7546771E-02  0.1402419E+00
          2   -1    0    0  502    0  0.00000000000E+00  0.00000000000E+00  0.10782994573E+04  0.10782994573E+04  0.00000000000E+00 0.  1.
          2   -1    0    0  501    0 -0.00000000000E+00 -0.00000000000E+00 -0.46087703573E+01  0.46087703573E+01  0.00000000000E+00 0. -1.
          2    1    1    2  501    0 -0.90135533973E+01  0.30777575390E+02  0.10190261077E+04  0.10195306329E+04  0.00000000000E+00 0.  1.
          2    1    1    2  502    0  0.90135533973E+01 -0.30777575390E+02  0.54664579305E+02  0.63377594798E+02  0.00000000000E+00 0. -1.
</event>
<event>
 4    1  0.6089441E+003  0.3153595E+02  0.7546771E-02  0.1406703E+00
          2   -1    0    0  502    0  0.00000000000E+00  0.00000000000E+00  0.43695746719E+00  0.43695746719E+00  0.00000000000E+00 0. -1.
          2   -1    0    0  501    0 -0.00000000000E+00 -0.00000000000E+00 -0.22780553302E+04  0.22780553302E+04  0.00000000000E+00 0.  1.
          2    1    1    2  501    0  0.15411654342E+02 -0.27513583934E+02 -0.11730061132E+04  0.11734299545E+04  0.00000000000E+00 0. -1.
          2    1    1    2  502    0 -0.15411654342E+02  0.27513583934E+02 -0.11046122595E+04  0.11050623332E+04  0.00000000000E+00 0.  1.
</event>
<event>
 4    1  0.6089441E+003  0.7012570E+02  0.7546771E-02  0.1228836E+00
          2   -1    0    0  501    0  0.00000000000E+00  0.00000000000E+00  0.13558372083E+04  0.13558372083E+04  0.00000000000E+00 0.  1.
          2   -1    0    0  502    0 -0.00000000000E+00 -0.00000000000E+00 -0.33718814402E+02  0.33718814402E+02  0.00000000000E+00 0.  1.
          2    1    1    2  501    0 -0.65615143832E+02  0.24744034205E+02  0.47112319616E+01  0.70283782165E+02  0.00000000000E+00 0.  1.
          2    1    1    2  502    0  0.65615143832E+02 -0.24744034205E+02  0.13174071619E+04  0.13192722405E+04  0.00000000000E+00 0.  1.
</event>
<event>
 4    1  0.6089441E+003  0.3824267E+02  0.7546771E-02  0.1359103E+00
          2   -1    0    0  501    0  0.00000000000E+00  0.00000000000E+00  0.62719690022E+03  0.62719690022E+03  0.00000000000E+00 0.  1.
          2   -1    0    0  502    0 -0.00000000000E+00 -0.00000000000E+00 -0.14222850425E+02  0.14222850425E+02  0.00000000000E+00 0. -1.
          2    1    1    2  501    0  0.38227975647E+02 -0.10600834032E+01  0.13243115544E+02  0.40470754974E+02  0.00000000000E+00 0. -1.
          2    1    1    2  502    0 -0.38227975647E+02  0.10600834032E+01  0.59973093425E+03  0.60094899567E+03  0.00000000000E+00 0.  1.
</event>
<event>
 4    1  0.6089441E+003  0.3108727E+02  0.7546771E-02  0.1410378E+00
          2   -1    0    0  502    0  0.00000000000E+00  0.00000000000E+00  0.27294054878E+01  0.27294054878E+01  0.00000000000E+00 0. -1.
          2   -1    0    0  501    0 -0.00000000000E+00 -0.00000000000E+00 -0.77359009479E+03  0.77359009479E+03  0.00000000000E+00 0. -1.
          2    1    1    2  501    0 -0.81096463889E+01  0.30010860797E+02 -0.67127370532E+03  0.67199315888E+03  0.00000000000E+00 0. -1.
          2    1    1    2  502    0  0.81096463889E+01 -0.30010860797E+02 -0.99586983984E+02  0.10432634140E+03  0.00000000000E+00 0. -1.
</event>
<event>
 4    1  0.6089441E+003  0.2317300E+02  0.7546771E-02  0.1490337E+00
          2   -1    0    0  501    0  0.00000000000E+00  0.00000000000E+00  0.93294474900E+03  0.93294474900E+03  0.00000000000E+00 0.  1.
          2   -1    0    0  502    0 -0.00000000000E+00 -0.00000000000E+00 -0.49503144614E+03  0.49503144614E+03  0.00000000000E+00 0. -1.
          2    1    1    2  501    0 -0.89999122713E+01  0.21353905685E+02 -0.49461624082E+03  0.49515877594E+03  0.00000000000E+00 0. -1.
          2    1    1    2  502    0  0.89999122713E+01 -0.21353905685E+02  0.93252954369E+03  0.93281741920E+03  0.00000000000E+00 0.  1.
</event>
<event>
 4    1  0.6089441E+003  0.3259594E+02  0.7546771E-02  0.1398301E+00
          2   -1    0    0  502    0  0.00000000000E+00  0.00000000000E+00  0.23472396608E+04  0.23472396608E+04  0.00000000000E+00 0. -1.
          2   -1    0    0  501    0 -0.00000000000E+00 -0.00000000000E+00 -0.46535642304E+00  0.46535642304E+00  0.00000000000E+00 0.  1.
          2    1    1    2  501    0 -0.32414270053E+02 -0.34366599850E+01  0.97947507261E+03  0.98001730260E+03  0.00000000000E+00 0. -1.
          2    1    1    2  502    0  0.32414270053E+02  0.34366599850E+01  0.13672992318E+04  0.13676877147E+04  0.00000000000E+00 0.  1.
</event>
<event>
 4    1  0.6089441E+003  0.2235912E+02  0.7546771E-02  0.1500706E+00
          2   -1    0    0  502    0  0.00000000000E+00  0.00000000000E+00  0.57594252170E+03  0.57594252170E+03  0.00000000000E+00 0. -1.
          2   -1    0    0  501    0 -0.00000000000E+00 -0.00000000000E+00 -0.10410690935E+02  0.10410690935E+02  0.00000000000E+00 0. -1.
          2    1    1    2  501    0  0.65452672244E+01  0.21379656440E+02  0.56345432942E+03  0.56389778468E+03  0.00000000000E+00 0. -1.
          2    1    1    2  502    0 -0.65452672244E+01 -0.21379656440E+02  0.20775013455E+01  0.22455427949E+02  0.00000000000E+00 0. -1.
</event>
<event>
 4    1  0.6089441E+003  0.2263444E+02  0.7546771E-02  0.1497140E+00
          2   -1    0    0  502    0  0.00000000000E+00  0.00000000000E+00  0.14449422455E+04  0.14449422455E+04  0.00000000000E+00 0. -1.
          2   -1    0    0  501    0 -0.00000000000E+00 -0.00000000000E+00 -0.34418784446E+01  0.34418784446E+01  0.00000000000E+00 0. -1.
          2    1    1    2  501    0  0.17404313655E+02 -0.14470927929E+02  0.14066279900E+04  0.14068100867E+04  0.00000000000E+00 0. -1.
          2    1    1    2  502    0 -0.17404313655E+02  0.14470927929E+02  0.34872377098E+02  0.41574037252E+02  0.00000000000E+00 0. -1.
</event>
<event>
 4    1  0.6089441E+003  0.3116415E+02  0.7546771E-02  0.1409743E+00
          2   -1    0    0  501    0  0.00000000000E+00  0.00000000000E+00  0.19820532941E+03  0.19820532941E+03  0.00000000000E+00 0.  1.
          2   -1    0    0  502    0 -0.00000000000E+00 -0.00000000000E+00 -0.11017084534E+03  0.11017084534E+03  0.00000000000E+00 0.  1.
          2    1    1    2  501    0 -0.20920502816E+02  0.23098422401E+02 -0.10670298922E+03  0.11116084051E+03  0.00000000000E+00 0.  1.
          2    1    1    2  502    0  0.20920502816E+02 -0.23098422401E+02  0.19473747328E+03  0.19721533423E+03  0.00000000000E+00 0.  1.
</event>
<event>
 4    1  0.6089441E+003  0.2369756E+02  0.7546771E-02  0.1483920E+00
          2   -1    0    0  501    0  0.00000000000E+00  0.00000000000E+00  0.23770664757E+04  0.23770664757E+04  0.00000000000E+00 0. -1.
          2   -1    0    0  502    0 -0.00000000000E+00 -0.00000000000E+00 -0.24158661391E+00  0.24158661391E+00  0.00000000000E+00 0. -1.
          2    1    1    2  501    0 -0.86635095505E+01  0.22057152707E+02  0.13651307331E+04  0.13653364028E+04  0.00000000000E+00 0. -1.
          2    1    1    2  502    0  0.86635095505E+01 -0.22057152707E+02  0.10116941560E+04  0.10119716595E+04  0.00000000000E+00 0. -1.
</event>
<event>
 4    1  0.6089441E+003  0.2138372E+02  0.7546771E-02  0.1513856E+00
          2   -1    0    0  502    0  0.00000000000E+00  0.00000000000E+00  0.11111433977E+04  0.11111433977E+04  0.00000000000E+00 0.  1.
          2   -1    0    0  501    0 -0.00000000000E+00 -0.00000000000E+00 -0.48853975252E+01  0.48853975252E+01  0.00000000000E+00 0.  1.
          2    1    1    2  501    0  0.19289170553E+02  0.92299234305E+01  0.10871240610E+04  0.10873343495E+04  0.00000000000E+00 0.  1.
          2    1    1    2  502    0 -0.19289170553E+02 -0.92299234305E+01  0.19133939163E+02  0.28694445718E+02  0.00000000000E+00 0.  1.
</event>
<event>
 4    1  0.6089441E+003  0.2142082E+02  0.7546771E-02  0.1513341E+00
          2   -1    0    0  502    0  0.00000000000E+00  0.00000000000E+00  0.11320631401E+02  0.11320631401E+02  0.00000000000E+00 0. -1.
          2   -1    0    0  501    0 -0.00000000000E+00 -0.00000000000E+00 -0.27598231809E+03  0.27598231809E+03  0.00000000000E+00 0.  1.
          2    1    1    2  501    0  0.20133003321E+02 -0.73153160839E+01  0.35322755455E+00  0.21423735478E+02  0.00000000000E+00 0. -1.
          2    1    1    2  502    0 -0.20133003321E+02  0.73153160839E+01 -0.26501491424E+03  0.26587921401E+03  0.00000000000E+00 0.  1.
</event>
<event>
 4    1  0.6089441E+003  0.2010185E+02  0.7546771E-02  0.1532484E+00
          2   -1    0    0  502    0  0.00000000000E+00  0.00000000000E+00  0.58011773193E+03  0.58011773193E+03  0.00000000000E+00 0.  1.
          2   -1    0    0  501    0 -0.00000000000E+00 -0.00000000000E+00 -0.24946674102E+02  0.24946674102E+02  0.00000000000E+00 0.  1.
          2    1    1    2  501    0  0.15553668995E+02  0.12734505685E+02  0.57586421112E+03  0.57621495460E+03  0.00000000000E+00 0.  1.
          2    1    1    2  502    0 -0.15553668995E+02 -0.12734505685E+02 -0.20693153298E+02  0.28849451428E+02  0.00000000000E+00 0.  1.
</event>
<event>
 4    1  0.6089441E+003  0.3971444E+02  0.7546771E-02  0.1350167E+00
          2   -1    0    0  501    0  0.00000000000E+00  0.00000000000E+00  0.18660098862E+03  0.18660098862E+03  0.00000000000E+00 0. -1.
          2   -1    0    0  502    0 -0.00000000000E+00 -0.00000000000E+00 -0.34523587555E+02  0.34523587555E+02  0.00000000000E+00 0.  1.
          2    1    1    2  501    0 -0.37537840384E+01 -0.39536639811E+02 -0.20040414131E+02  0.44484322864E+02  0.00000000000E+00 0.  1.
          2    1    1    2  502    0  0.37537840384E+01  0.39536639811E+02  0.17211781519E+03  0.17664025331E+03  0.00000000000E+00 0. -1.
</event>
<event>
 4    1  0.6089441E+003  0.2021797E+02  0.7546771E-02  0.1530729E+00
          2   -1    0    0  502    0  0.00000000000E+00  0.00000000000E+00  0.41760031973E+03  0.41760031973E+03  0.00000000000E+00 0. -1.
          2   -1    0    0  501    0 -0.00000000000E+00 -0.00000000000E+00 -0.41190623139E+03  0.41190623139E+03  0.00000000000E+00 0.  1.
          2    1    1    2  501    0 -0.20211802276E+02  0.49922546970E+00  0.41710722105E+03  0.41759693489E+03  0.00000000000E+00 0. -1.
          2    1    1    2  502    0  0.20211802276E+02 -0.49922546970E+00 -0.41141313271E+03  0.41190961623E+03  0.00000000000E+00 0.  1.
</event>
<event>
 4    1  0.6089441E+003  0.2058788E+02  0.7546771E-02  0.1525231E+00
          2   -1    0    0  501    0  0.00000000000E+00  0.00000000000E+00  0.27954066718E+03  0.27954066718E+03  0.00000000000E+00 0. -1.
          2   -1    0    0  502    0 -0.00000000000E+00 -0.00000000000E+00 -0.20316366271E+01  0.20316366271E+01  0.00000000000E+00 0. -1.
          2    1    1    2  501    0 -0.15065155818E+02  0.14032178734E+02  0.67846993712E+02  0.70901872441E+02  0.00000000000E+00 0. -1.
          2    1    1    2  502    0  0.15065155818E+02 -0.14032178734E+02  0.20966203685E+03  0.21067043137E+03  0.00000000000E+00 0. -1.
</event>
<event>
 4    1  0.6089441E+003  0.2120147E+02  0.7546771E-02  0.1516408E+00
          2   -1    0    0  501    0  0.00000000000E+00  0.00000000000E+00  0.53138556721E+03  0.53138556721E+03  0.00000000000E+00 0. -1.
          2   -1    0    0  502    0 -0.00000000000E+00 -0.00000000000E+00 -0.87995514134E+02  0.87995514134E+02  0.00000000000E+00 0. -1.
          2    1    1    2  501    0 -0.10158589423E+02  0.18609277807E+02 -0.86503383157E+02  0.89063670804E+02  0.00000000000E+00 0. -1.
          2    1    1    2  502    0  0.10158589423E+02 -0.18609277807E+02  0.52989343623E+03  0.53031741054E+03  0.00000000000E+00 0. -1.
</event>
<event>
 4    1  0.6089441E+003  0.2178632E+02  0.7546771E-02  0.1508328E+00
          2   -1    0    0  501    0  0.00000000000E+00  0.00000000000E+00  0.90955196520E+03  0.90955196520E+03  0.00000000000E+00 0. -1.
          2   -1    0    0  502    0 -0.00000000000E+00 -0.00000000000E+00 -0.38220281035E+03  0.38220281035E+03  0.00000000000E+00 0. -1.
          2    1    1    2  501    0 -0.12214152260E+02 -0.18040463522E+02 -0.38176173289E+03  0.38238287689E+03  0.00000000000E+00 0. -1.
          2    1    1    2  502    0  0.12214152260E+02  0.18040463522E+02  0.90911088775E+03  0.90937189865E+03  0.00000000000E+00 0. -1.
</event>
<event>
 4    1  0.1246425E+004  0.2354689E+02  0.7546771E-02  0.1485743E+00
          2   -1    0    0  502    0  0.00000000000E+00  0.00000000000E+00  0.54999607813E+03  0.54999607813E+03  0.00000000000E+00 0.  1.
          2   -1    0    0  501    0 -0.00000000000E+00 -0.00000000000E+00 -0.97396483740E+03  0.97396483740E+03  0.00000000000E+00 0. -1.
          2    1    1    2  501    0 -0.84335915437E+01 -0.21984776063E+02  0.54960162959E+03  0.55010581445E+03  0.00000000000E+00 0.  1.
          2    1    1    2  502    0  0.84335915437E+01  0.21984776063E+02 -0.97357038886E+03  0.97385510109E+03  0.00000000000E+00 0. -1.
</event>
<event>
 4    1  0.6089441E+003  0.2012050E+02  0.7546771E-02  0.1532202E+00
          2   -1    0    0  502    0  0.00000000000E+00  0.00000000000E+00  0.73963110051E+03  0.73963110051E+03  0.00000000000E+00 0. -1.
          2   -1    0    0  501    0 -0.00000000000E+00 -0.00000000000E+00 -0.39749357617E+02  0.39749357617E+02  0.00000000000E+00 0. -1.
          2    1    1    2  501    0 -0.20073640829E+02  0.13723227825E+01  0.73693879461E+03  0.73721341640E+03  0.00000000000E+00 0. -1.
          2    1    1    2  502    0  0.20073640829E+02 -0.13723227825E+01 -0.37057051715E+02  0.42167041724E+02  0.00000000000E+00 0. -1.
</event>
<event>
 4    1  0.6089441E+003  0.2600831E+02  0.7546771E-02  0.1457832E+00
          2   -1    0    0  502    0  0.00000000000E+00  0.00000000000E+00  0.14502326528E+04  0.14502326528E+04  0.00000000000E+00 0.  1.
          2   -1    0    0  501    0 -0.00000000000E+00 -0.00000000000E+00 -0.64282860441E+00  0.64282860441E+00  0.00000000000E+00 0.  1.
          2    1    1    2  501    0 -0.24834581114E+02  0.77250176211E+01  0.11048091485E+04  0.11051152369E+04  0.00000000000E+00 0.  1.
          2    1    1    2  502    0  0.24834581114E+02 -0.77250176211E+01  0.34478067575E+03  0.34576024451E+03  0.00000000000E+00 0.  1.
</event>
<event>
 4    1  0.6089441E+003  0.2106223E+02  0.7546771E-02  0.1518378E+00
          2   -1    0    0  501    0  0.00000000000E+00  0.00000000000E+00  0.30882918957E+02  0.30882918957E+02  0.00000000000E+00 0. -1.
          2   -1    0    0  502    0 -0.00000000000E+00 -0.00000000000E+00 -0.12436842370E+04  0.12436842370E+04  0.00000000000E+00 0. -1.
          2    1    1    2  501    0 -0.18234129400E+01  0.20983148902E+02 -0.12399932519E+04  0.12401721180E+04  0.00000000000E+00 0. -1.
          2    1    1    2  502    0  0.18234129400E+01 -0.20983148902E+02  0.27191933860E+02  0.34395038009E+02  0.00000000000E+00 0. -1.
</event>
<event>
 4    1  0.6089441E+003  0.3447423E+02  0.7546771E-02  0.1384298E+00
          2   -1    0    0  501    0  0.00000000000E+00  0.00000000000E+00  0.72598561138E+03  0.72598561138E+03  0.00000000000E+00 0. -1.
          2   -1    0    0  502    0 -0.00000000000E+00 -0.00000000000E+00 -0.40419655571E+03  0.40419655571E+03  0.00000000000E+00 0. -1.
          2    1    1    2  501    0 -0.30405512665E+02 -0.16247381671E+02 -0.40305104957E+03  0.40452270785E+03  0.00000000000E+00 0. -1.
          2    1    1    2  502    0  0.30405512665E+02  0.16247381671E+02  0.72484010524E+03  0.72565945923E+03  0.00000000000E+00 0. -1.
</event>
<event>
 4    1  0.6089441E+003  0.2171571E+02  0.7546771E-02  0.1509287E+00
          2   -1    0    0  502    0  0.00000000000E+00  0.00000000000E+00  0.84789433276E+02  0.84789433276E+02  0.00000000000E+00 0.  1.
          2   -1    0    0  501    0 -0.00000000000E+00 -0.00000000000E+00 -0.16663536439E+02  0.16663536439E+02  0.00000000000E+00 0.  1.
          2    1    1    2  501    0 -0.15498587884E+02  0.15210715074E+02  0.75467577234E+02  0.78529786025E+02  0.00000000000E+00 0.  1.
          2    1    1    2  502    0  0.15498587884E+02 -0.15210715074E+02 -0.73416803974E+01  0.22923183691E+02  0.00000000000E+00 0.  1.
</event>
<event>
 4    1  0.6089441E+003  0.2060267E+02  0.7546771E-02  0.1525014E+00
          2   -1    0    0  501    0  0.00000000000E+00  0.00000000000E+00  0.82370522233E+01  0.82370522233E+01  0.00000000000E+00 0.  1.
          2   -1    0    0  502    0 -0.00000000000E+00 -0.00000000000E+00 -0.89526613331E+02  0.89526613331E+02  0.00000000000E+00 0. -1.
          2    1    1    2  501    0 -0.19689373294E+02  0.60661933276E+01 -0.72489216770E+02  0.75360179606E+02  0.00000000000E+00 0. -1.
          2    1    1    2  502    0  0.19689373294E+02 -0.60661933276E+01 -0.88003443369E+01  0.22403485948E+02  0.00000000000E+00 0.  1.
</event>
<event>
 4    1  0.6089441E+003  0.2003715E+02  0.7546771E-02  0.1533469E+00
          2   -1    0    0  501    0  0.00000000000E+00  0.00000000000E+00  0.71666852518E+03  0.71666852518E+03  0.00000000000E+00 0. -1.
          2   -1    0    0  502    0 -0.00000000000E+00 -0.00000000000E+00 -0.86010487617E+00  0.86010487617E+00  0.00000000000E+00 0.  1.
          2    1    1    2  501    0 -0.13160027607E+02  0.15109629708E+02  0.14606045296E+03  0.14742843401E+03  0.00000000000E+00 0.  1.
          2    1    1    2  502    0  0.13160027607E+02 -0.15109629708E+02  0.56974796735E+03  0.57010019605E+03  0.00000000000E+00 0. -1.
</event>
<event>
 4    1  0.6089441E+003  0.6640464E+02  0.7546771E-02  0.1239498E+00
          2   -1    0    0  501    0  0.00000000000E+00  0.00000000000E+00  0.13597241441E+04  0.13597241441E+04  0.00000000000E+00 0.  1.
          2   -1    0    0  502    0 -0.00000000000E+00 -0.00000000000E+00 -0.16577831117E+04  0.16577831117E+04  0.00000000000E+00 0. -1.
          2    1    1    2  501    0  0.35541144579E+02 -0.56092806970E+02 -0.16563066602E+04  0.16576372729E+04  0.00000000000E+00 0. -1.
          2    1    1    2  502    0 -0.35541144579E+02  0.56092806970E+02  0.13582476926E+04  0.13598699829E+04  0.00000000000E+00 0.  1.
</event>
<event>
 4    1  0.6089441E+003  0.2030805E+02  0.7546771E-02  0.1529377E+00
          2   -1    0    0  502    0  0.00000000000E+00  0.00000000000E+00  0.24020741641E+00  0.24020741641E+00  0.00000000000E+00 0.  1.
          2   -1    0    0  501    0 -0.00000000000E+00 -0.00000000000E+00 -0.17182153863E+04  0.17182153863E+04  0.00000000000E+00 0. -1.
          2    1    1    2  501    0 -0.19011901144E+02  0.71389544321E+01 -0.88257459305E+03  0.88280820644E+03  0.00000000000E+00 0.  1.
          2    1    1    2  502    0  0.19011901144E+02 -0.71389544321E+01 -0.83540058586E+03  0.83564738730E+03  0.00000000000E+00 0. -1.
</event>
<event>
 4    1  0.6089441E+003  0.2428751E+02  0.7546771E-02  0.1476934E+00
          2   -1    0    0  502    0  0.00000000000E+00  0.00000000000E+00  0.11742479914E+03  0.11742479914E+03  0.00000000000E+00 0.  1.
          2   -1    0    0  501    0 -0.00000000000E+00 -0.00000000000E+00 -0.34856658785E+02  0.34856658785E+02  0.00000000000E+00 0.  1.
          2    1    1    2  501    0  0.23454584395E+02 -0.63059971142E+01  0.11172479146E+03  0.11433421254E+03  0.00000000000E+00 0.  1.
          2    1    1    2  502    0 -0.23454584395E+02  0.63059971142E+01 -0.29156651108E+02  0.37947245389E+02  0.00000000000E+00 0.  1.
</event>
<event>
 4    1  0.6089441E+003  0.3245122E+02  0.7546771E-02  0.1399426E+00
          2   -1    0    0  502    0  0.00000000000E+00  0.00000000000E+00  0.16329990879E+04  0.16329990879E+04  0.00000000000E+00 0.  1.
          2   -1    0    0  501    0 -0.00000000000E+00 -0.00000000000E+00 -0.22045043763E+01  0.22045043763E+01  0.00000000000E+00 0.  1.
          2    1    1    2  501    0  0.31648129835E+02 -0.71747673537E+01  0.15030940259E+04  0.15034442897E+04  0.00000000000E+00 0.  1.
          2    1    1    2  502    0 -0.31648129835E+02  0.71747673537E+01  0.12770055757E+03  0.13175930257E+03  0.00000000000E+00 0.  1.
</event>
<event>
 4    1  0.6089441E+003  0.2433147E+02  0.7546771E-02  0.1476423E+00
          2   -1    0    0  501    0  0.00000000000E+00  0.00000000000E+00  0.18547533120E+04  0.18547533120E+04  0.00000000000E+00 0.  1.
          2   -1    0    0  502    0 -0.00000000000E+00 -0.00000000000E+00 -0.54884585275E+00  0.54884585275E+00  0.00000000000E+00 0. -1.
          2    1    1    2  501    0 -0.20857922383E+02  0.12528659382E+02  0.32703841167E+03  0.32794228599E+03  0.00000000000E+00 0. -1.
          2    1    1    2  502    0  0.20857922383E+02 -0.12528659382E+02  0.15271660545E+04  0.15273598718E+04  0.00000000000E+00 0.  1.
</event>
<event>
 4    1  0.6089441E+003  0.2169504E+02  0.7546771E-02  0.1509569E+00
          2   -1    0    0  501    0  0.00000000000E+00  0.00000000000E+00  0.55425810345E+01  0.55425810345E+01  0.00000000000E+00 0. -1.
          2   -1    0    0  502    0 -0.00000000000E+00 -0.00000000000E+00 -0.29717508593E+03  0.29717508593E+03  0.00000000000E+00 0.  1.
          2    1    1    2  501    0  0.14034281677E+02  0.16544288511E+02 -0.27373402589E+03  0.27459240972E+03  0.00000000000E+00 0.  1.
          2    1    1    2  502    0 -0.14034281677E+02 -0.16544288511E+02 -0.17898479007E+02  0.28125257248E+02  0.00000000000E+00 0. -1.
</event>
<event>
 4    1  0.6089441E+003  0.2682316E+02  0.7546771E-02  0.1449393E+00
          2   -1    0    0  502    0  0.00000000000E+00  0.00000000000E+00  0.40152928693E+01  0.40152928693E+01  0.00000000000E+00 0. -1.
          2   -1    0    0  501    0 -0.00000000000E+00 -0.00000000000E+00 -0.11014803505E+04  0.11014803505E+04  0.00000000000E+00 0. -1.
          2    1    1    2  501    0  0.15073487535E+02  0.22187196564E+02 -0.42938629880E+02  0.50628131052E+02  0.00000000000E+00 0. -1.
          2    1    1    2  502    0 -0.15073487535E+02 -0.22187196564E+02 -0.10545264278E+04  0.10548675124E+04  0.00000000000E+00 0. -1.
</event>
<event>
 4    1  0.6089441E+003  0.2394255E+02  0.7546771E-02  0.1480990E+00
          2   -1    0    0  502    0  0.00000000000E+00  0.00000000000E+00  0.56604199610E+03  0.56604199610E+03  0.00000000000E+00 0.  1.
          2   -1    0    0  501    0 -0.00000000000E+00 -0.00000000000E+00 -0.31491402208E+02  0.31491402208E+02  0.00000000000E+00 0. -1.
          2    1    1    2  501    0  0.35064200599E+01 -0.23684401704E+02  0.56119874541E+03  0.56170924660E+03  0.00000000000E+00 0.  1.
          2    1    1    2  502    0 -0.35064200599E+01  0.23684401704E+02 -0.26648151523E+02  0.35824151704E+02  0.00000000000E+00 0. -1.
</event>
<event>
 4    1  0.6089441E+003  0.2379374E+02  0.7546771E-02  0.1482765E+00
          2   -1    0    0  501    0  0.00000000000E+00  0.00000000000E+00  0.78606574199E+01  0.78606574199E+01  0.00000000000E+00 0. -1.
          2   -1    0    0  502    0 -0.00000000000E+00 -0.00000000000E+00 -0.38772409769E+03  0.38772409769E+03  0.00000000000E+00 0.  1.
          2    1    1    2  501    0  0.13990644384E+02  0.19245883102E+02 -0.36841055551E+03  0.36917811360E+03  0.00000000000E+00 0.  1.
          2    1    1    2  502    0 -0.13990644384E+02 -0.19245883102E+02 -0.11452884757E+02  0.26406641512E+02  0.00000000000E+00 0. -1.
</event>
<event>
 4    1  0.6089441E+003  0.3769981E+02  0.7546771E-02  0.1362519E+00
          2   -1    0    0  502    0  0.00000000000E+00  0.00000000000E+00  0.28505507792E+03  0.28505507792E+03  0.00000000000E+00 0.  1.
          2   -1    0    0  501    0 -0.00000000000E+00 -0.00000000000E+00 -0.61214014119E+01  0.61214014119E+01  0.00000000000E+00 0. -1.
          2    1    1    2  501    0  0.33216798911E+02 -0.17830308547E+02  0.20216886933E+03  0.20565390188E+03  0.00000000000E+00 0.  1.
          2    1    1    2  502    0 -0.33216798911E+02  0.17830308547E+02  0.76764807183E+02  0.85522577455E+02  0.00000000000E+00 0. -1.
</event>
<event>
 4    1  0.6089441E+003  0.1135364E+03  0.7546771E-02  0.1142218E+00
          2   -1    0    0  501    0  0.00000000000E+00  0.00000000000E+00  0.12252061424E+02  0.12252061424E+02  0.00000000000E+00 0. -1.
          2   -1    0    0  502    0 -0.00000000000E+00 -0.00000000000E+00 -0.11404236263E+04  0.11404236263E+04  0.00000000000E+00 0.  1.
          2    1    1    2  501    0 -0.78766927696E+02 -0.81769718407E+02 -0.72446866449E+03  0.73331123105E+03  0.00000000000E+00 0.  1.
          2    1    1    2  502    0  0.78766927696E+02  0.81769718407E+02 -0.40370290037E+03  0.41936445667E+03  0.00000000000E+00 0. -1.
</event>
<event>
 4    1  0.6089441E+003  0.2228375E+02  0.7546771E-02  0.1501693E+00
          2   -1    0    0  501    0  0.00000000000E+00  0.00000000000E+00  0.13005173359E+03  0.13005173359E+03  0.00000000000E+00 0. -1.
          2   -1    0    0  502    0 -0.00000000000E+00 -0.00000000000E+00 -0.63725841177E+01  0.63725841177E+01  0.00000000000E+00 0. -1.
          2    1    1    2  501    0  0.22146157721E+02 -0.24724651384E+01  0.18653284862E+02  0.29060461486E+02  0.00000000000E+00 0. -1.
          2    1    1    2  502    0 -0.22146157721E+02  0.24724651384E+01  0.10502586461E+03  0.10736385622E+03  0.00000000000E+00 0. -1.
</event>
<event>
 4    1  0.6089441E+003  0.3285193E+02  0.7546771E-02  0.1396328E+00
          2   -1    0    0  502    0  0.00000000000E+00  0.00000000000E+00  0.15412164750E+02  0.15412164750E+02  0.00000000000E+00 0. -1.
          2   -1    0    0  501    0 -0.00000000000E+00 -0.00000000000E+00 -0.68313784859E+03  0.68313784859E+03  0.00000000000E+00 0. -1.
          2    1    1    2  501    0 -0.44938102587E+01  0.32543125204E+02 -0.29731351636E+01  0.32986191981E+02  0.00000000000E+00 0. -1.
          2    1    1    2  502    0  0.44938102587E+01 -0.32543125204E+02 -0.66475254868E+03  0.66556382136E+03  0.00000000000E+00 0. -1.
</event>
<event>
 4    1  0.6089441E+003  0.2077133E+02  0.7546771E-02  0.1522555E+00
          2   -1    0    0  501    0  0.00000000000E+00  0.00000000000E+00  0.92804797531E+03  0.92804797531E+03  0.00000000000E+00 0. -1.
          2   -1    0    0  502    0 -0.00000000000E+00 -0.00000000000E+00 -0.20479520927E+01  0.20479520927E+01  0.00000000000E+00 0.  1.
          2    1    1    2  501    0  0.16775362385E+02  0.12248887048E+02  0.54129609486E+02  0.57978122082E+02  0.00000000000E+00 0.  1.
          2    1    1    2  502    0 -0.16775362385E+02 -0.12248887048E+02  0.87187041373E+03  0.87211780532E+03  0.00000000000E+00 0. -1.
</event>
<event>
 4    1  0.6089441E+003  0.2039904E+02  0.7546771E-02  0.1528021E+00
          2   -1    0    0  502    0  0.00000000000E+00  0.00000000000E+00  0.19529417955E+01  0.19529417955E+01  0.00000000000E+00 0.  1.
          2   -1    0    0  501    0 -0.00000000000E+00 -0.00000000000E+00 -0.75208280644E+03  0.75208280644E+03  0.00000000000E+00 0. -1.
          2    1    1    2  501    0  0.19429432223E+02  0.62143232268E+01 -0.55891203356E+02  0.59497455930E+02  0.00000000000E+00 0.  1.
          2    1    1    2  502    0 -0.19429432223E+02 -0.62143232268E+01 -0.69423866129E+03  0.69453829231E+03  0.00000000000E+00 0. -1.
</event>
<event>
 4    1  0.6089441E+003  0.2192861E+02  0.7546771E-02  0.1506408E+00
          2   -1    0    0  501    0  0.00000000000E+00  0.00000000000E+00  0.30320655203E+03  0.30320655203E+03  0.00000000000E+00 0.  1.
          2   -1    0    0  502    0 -0.00000000000E+00 -0.00000000000E+00 -0.20941230224E+02  0.20941230224E+02  0.00000000000E+00 0.  1.
          2    1    1    2  501    0  0.38607966996E+01 -0.21586065882E+02 -0.14683296751E+02  0.26390589135E+02  0.00000000000E+00 0.  1.
          2    1    1    2  502    0 -0.38607966996E+01  0.21586065882E+02  0.29694861855E+03  0.29775719312E+03  0.00000000000E+00 0.  1.
</event>
<event>
 4    1  0.6089441E+003  0.2543312E+02  0.7546771E-02  0.1464016E+00
          2   -1    0    0  501    0  0.00000000000E+00  0.00000000000E+00  0.49834368705E+03  0.49834368705E+03  0.00000000000E+00 0.  1.
          2   -1    0    0  502    0 -0.00000000000E+00 -0.00000000000E+00 -0.63330105313E+01  0.63330105313E+01  0.00000000000E+00 0.  1.
          2    1    1    2  501    0 -0.23553661297E+02  0.95952482150E+01  0.21007216078E+02  0.32987071348E+02  0.00000000000E+00 0.  1.
          2    1    1    2  502    0  0.23553661297E+02 -0.95952482150E+01  0.47100346044E+03  0.47168962623E+03  0.00000000000E+00 0.  1.
</event>
<event>
 4    1  0.6089441E+003  0.3117503E+02  0.7546771E-02  0.1409653E+00
          2   -1    0    0  502    0  0.00000000000E+00  0.00000000000E+00  0.73969709945E+03  0.73969709945E+03  0.00000000000E+00 0. -1.
          2   -1    0    0  501    0 -0.00000000000E+00 -0.00000000000E+00 -0.34974244194E+01  0.34974244194E+01  0.00000000000E+00 0.  1.
          2    1    1    2  501    0 -0.27025530033E+02  0.15540365755E+02  0.66171477052E+03  0.66244872992E+03  0.00000000000E+00 0. -1.
          2    1    1    2  502    0  0.27025530033E+02 -0.15540365755E+02  0.74484904506E+02  0.80745793951E+02  0.00000000000E+00 0.  1.
</event>
<event>
 4    1  0.6089441E+003  0.2213575E+02  0.7546771E-02  0.1503645E+00
          2   -1    0    0  502    0  0.00000000000E+00  0.00000000000E+00  0.14002994334E+01  0.14002994334E+01  0.00000000000E+00 0.  1.
          2   -1    0    0  501    0 -0.00000000000E+00 -0.00000000000E+00 -0.10769797578E+04  0.10769797578E+04  0.00000000000E+00 0. -1.
          2    1    1    2  501    0  0.26202934146E+01 -0.21980111406E+02 -0.94769594775E+02  0.97320436337E+02  0.00000000000E+00 0.  1.
          2    1    1    2  502    0 -0.26202934146E+01  0.21980111406E+02 -0.98080986358E+03  0.98105962088E+03  0.00000000000E+00 0. -1.
</event>
<event>
 4    1  0.6089441E+003  0.2816101E+02  0.7546771E-02  0.1436282E+00
          2   -1    0    0  502    0  0.00000000000E+00  0.00000000000E+00  0.18616021160E+04  0.18616021160E+04  0.00000000000E+00 0. -1.
          2   -1    0    0  501    0 -0.00000000000E+00 -0.00000000000E+00 -0.43525980026E+00  0.43525980026E+00  0.00000000000E+00 0.  1.
          2    1    1    2  501    0  0.17718642125E+02 -0.21888178941E+02  0.10663781781E+04  0.10667499527E+04  0.00000000000E+00 0. -1.
          2    1    1    2  502    0 -0.17718642125E+02  0.21888178941E+02  0.79478867810E+03  0.79528742320E+03  0.00000000000E+00 0.  1.
</event>
<event>
 4    1  0.6089441E+003  0.3943491E+02  0.7546771E-02  0.1351829E+00
          2   -1    0    0  501    0  0.00000000000E+00  0.00000000000E+00  0.52799409224E+03  0.52799409224E+03  0.00000000000E+00 0. -1.
          2   -1    0    0  502    0 -0.00000000000E+00 -0.00000000000E+00 -0.48267166912E+01  0.48267166912E+01  0.00000000000E+00 0.  1.
          2    1    1    2  501    0  0.15032405404E+02  0.36457358810E+02  0.95255704936E+02  0.10309588521E+03  0.00000000000E+00 0.  1.
          2    1    1    2  502    0 -0.15032405404E+02 -0.36457358810E+02  0.42791167061E+03  0.42972492372E+03  0.00000000000E+00 0. -1.
</event>
<event>
 4    1  0.6089441E+003  0.2648303E+02  0.7546771E-02  0.1452871E+00
          2   -1    0    0  501    0  0.00000000000E+00  0.00000000000E+00  0.50636330797E+03  0.50636330797E+03  0.00000000000E+00 0. -1.
          2   -1    0    0  502    0 -0.00000000000E+00 -0.00000000000E+00 -0.19840600519E+01  0.19840600519E+01  0.00000000000E+00 0. -1.
          2    1    1    2  501    0  0.22025477474E+01  0.26391284277E+02  0.11253310593E+03  0.11560731393E+03  0.00000000000E+00 0. -1.
          2    1    1    2  502    0 -0.22025477474E+01 -0.26391284277E+02  0.39184614199E+03  0.39274005410E+03  0.00000000000E+00 0. -1.
</event>
<event>
 4    1  0.6089441E+003  0.2295026E+02  0.7546771E-02  0.1493124E+00
          2   -1    0    0  501    0  0.00000000000E+00  0.00000000000E+00  0.16516716209E+03  0.16516716209E+03  0.00000000000E+00 0.  1.
          2   -1    0    0  502    0 -0.00000000000E+00 -0.00000000000E+00 -0.34847209896E+02  0.34847209896E+02  0.00000000000E+00 0.  1.
          2    1    1    2  501    0  0.15943154299E+02 -0.16508490798E+02 -0.30161449736E+02  0.37900230706E+02  0.00000000000E+00 0.  1.
          2    1    1    2  502    0 -0.15943154299E+02  0.16508490798E+02  0.16048140193E+03  0.16211414128E+03  0.00000000000E+00 0.  1.
</event>
<event>
 4    1  0.6089441E+003  0.2273699E+02  0.7546771E-02  0.1495827E+00
          2   -1    0    0  501    0  0.00000000000E+00  0.00000000000E+00  0.96695750542E+02  0.96695750542E+02  0.00000000000E+00 0. -1.
          2   -1    0    0  502    0 -0.00000000000E+00 -0.00000000000E+00 -0.14876412847E+02  0.14876412847E+02  0.00000000000E+00 0.  1.
          2    1    1    2  501    0  0.15201894287E+02  0.16907780417E+02 -0.37406251378E+01  0.23042632336E+02  0.00000000000E+00 0.  1.
          2    1    1    2  502    0 -0.15201894287E+02 -0.16907780417E+02  0.85559962833E+02  0.88529531053E+02  0.00000000000E+00 0. -1.
</event>
<event>
 4    1  0.6089441E+003  0.2192524E+02  0.7546771E-02  0.1506454E+00
          2   -1    0    0  502    0  0.00000000000E+00  0.00000000000E+00  0.70634049738E+03  0.70634049738E+03  0.00000000000E+00 0. -1.
          2   -1    0    0  501    0 -0.00000000000E+00 -0.00000000000E+00 -0.43556936459E+01  0.43556936459E+01  0.00000000000E+00 0. -1.
          2    1    1    2  501    0 -0.14699858045E+02 -0.16267459235E+02  0.67740066703E+03  0.67775539817E+03  0.00000000000E+00 0. -1.
          2    1    1    2  502    0  0.14699858045E+02  0.16267459235E+02  0.24584136707E+02  0.32940792858E+02  0.00000000000E+00 0. -1.
</event>
<event>
 4    1  0.6089441E+003  0.2734540E+02  0.7546771E-02  0.1444169E+00
          2   -1    0    0  501    0  0.00000000000E+00  0.00000000000E+00  0.29895793653E+02  0.29895793653E+02  0.00000000000E+00 0.  1.
          2   -1    0    0  502    0 -0.00000000000E+00 -0.00000000000E+00 -0.91267779638E+02  0.91267779638E+02  0.00000000000E+00 0.  1.
          2    1    1    2  501    0  0.16086806316E+02  0.22113021052E+02 -0.82303057974E+02  0.86726953073E+02  0.00000000000E+00 0.  1.
          2    1    1    2  502    0 -0.16086806316E+02 -0.22113021052E+02  0.20931071988E+02  0.34436620218E+02  0.00000000000E+00 0.  1.
</event>
<event>
 4    1  0.6089441E+003  0.2255389E+02  0.7546771E-02  0.1498177E+00
          2   -1    0    0  501    0  0.00000000000E+00  0.00000000000E+00  0.23364770932E+03  0.23364770932E+03  0.00000000000E+00 0.  1.
          2   -1    0    0  502    0 -0.00000000000E+00 -0.00000000000E+00 -0.53011279579E+02  0.53011279579E+02  0.00000000000E+00 0. -1.
          2    1    1    2  501    0 -0.22105364229E+02  0.44755567501E+01 -0.50037232985E+02  0.54885357070E+02  0.00000000000E+00 0. -1.
          2    1    1    2  502    0  0.22105364229E+02 -0.44755567501E+01  0.23067366272E+03  0.23177363183E+03  0.00000000000E+00 0.  1.
</event>
<event>
 4    1  0.6089441E+003  0.2033773E+02  0.7546771E-02  0.1528934E+00
          2   -1    0    0  501    0  0.00000000000E+00  0.00000000000E+00  0.50822024911E+02  0.50822024911E+02  0.00000000000E+00 0.  1.
          2   -1    0    0  502    0 -0.00000000000E+00 -0.00000000000E+00 -0.42329929937E+03  0.42329929937E+03  0.00000000000E+00 0.  1.
          2    1    1    2  501    0  0.19350605508E+02  0.62591656002E+01 -0.42100928882E+03  0.42150023055E+03  0.00000000000E+00 0.  1.
          2    1    1    2  502    0 -0.19350605508E+02 -0.62591656002E+01  0.48532014357E+02  0.52621093728E+02  0.00000000000E+00 0.  1.
</event>
<event>
 4    1  0.6089441E+003  0.4264023E+02  0.7546771E-02  0.1333672E+00
          2   -1    0    0  502    0  0.00000000000E+00  0.00000000000E+00  0.53711223874E+01  0.53711223874E+01  0.00000000000E+00 0.  1.
          2   -1    0    0  501    0 -0.00000000000E+00 -0.00000000000E+00 -0.51429133922E+03  0.51429133922E+03  0.00000000000E+00 0.  1.
          2    1    1    2  501    0  0.25257360758E+02 -0.34354842937E+02 -0.10255561161E+03  0.11106684014E+03  0.00000000000E+00 0.  1.
          2    1    1    2  502    0 -0.25257360758E+02  0.34354842937E+02 -0.40636460522E+03  0.40859562147E+03  0.00000000000E+00 0.  1.
</event>
<event>
 4    1  0.6089441E+003  0.2012272E+02  0.7546771E-02  0.1532168E+00
          2   -1    0    0  502    0  0.00000000000E+00  0.00000000000E+00  0.34481004402E+02  0.34481004402E+02  0.00000000000E+00 0.  1.
          2   -1    0    0  501    0 -0.00000000000E+00 -0.00000000000E+00 -0.15197026214E+03  0.15197026214E+03  0.00000000000E+00 0. -1.
          2    1    1    2  501    0  0.12107117163E+02  0.16073012166E+02  0.30806621424E+02  0.36796357559E+02  0.00000000000E+00 0.  1.
          2    1    1    2  502    0 -0.12107117163E+02 -0.16073012166E+02 -0.14829587917E+03  0.14965490899E+03  0.00000000000E+00 0. -1.
</event>
<event>
 4    1  0.6089441E+003  0.4544658E+02  0.7546771E-02  0.1319221E+00
          2   -1    0    0  501    0  0.00000000000E+00  0.00000000000E+00  0.69659700413E+03  0.69659700413E+03  0.00000000000E+00 0. -1.
          2   -1    0    0  502    0 -0.00000000000E+00 -0.00000000000E+00 -0.36812600175E+02  0.36812600175E+02  0.00000000000E+00 0.  1.
          2    1    1    2  501    0 -0.23331255145E+02 -0.39000560850E+02 -0.21735000547E+02  0.50376596371E+02  0.00000000000E+00 0.  1.
          2    1    1    2  502    0  0.23331255145E+02  0.39000560850E+02  0.68151940450E+03  0.68303300793E+03  0.00000000000E+00 0. -1.
</event>
<event>
 4    1  0.6089441E+003  0.3604323E+02  0.7546771E-02  0.1373374E+00
          2   -1    0    0  502    0  0.00000000000E+00  0.00000000000E+00  0.67874054269E+01  0.67874054269E+01  0.00000000000E+00 0. -1.
          2   -1    0    0  501    0 -0.00000000000E+00 -0.00000000000E+00 -0.25767982133E+04  0.25767982133E+04  0.00000000000E+00 0. -1.
          2    1    1    2  501    0  0.21360648634E+02 -0.29031658513E+02 -0.42114431108E+02  0.55432299371E+02  0.00000000000E+00 0. -1.
          2    1    1    2  502    0 -0.21360648634E+02  0.29031658513E+02 -0.25278963768E+04  0.25281533194E+04  0.00000000000E+00 0. -1.
</event>
<event>
 4    1  0.6089441E+003  0.2520700E+02  0.7546771E-02  0.1466501E+00
          2   -1    0    0  502    0  0.00000000000E+00  0.00000000000E+00  0.13647264234E+04  0.13647264234E+04  0.00000000000E+00 0.  1.
          2   -1    0    0  501    0 -0.00000000000E+00 -0.00000000000E+00 -0.37706077825E+01  0.37706077825E+01  0.00000000000E+00 0.  1.
          2    1    1    2  501    0 -0.12645769258E+02 -0.21805446398E+02  0.13210906399E+04  0.13213310985E+04  0.00000000000E+00 0.  1.
          2    1    1    2  502    0  0.12645769258E+02  0.21805446398E+02  0.39865175705E+02  0.47165932693E+02  0.00000000000E+00 0.  1.
</event>
<event>
 4    1  0.6089441E+003  0.2316182E+02  0.7546771E-02  0.1490476E+00
          2   -1    0    0  502    0  0.00000000000E+00  0.00000000000E+00  0.62612178945E+03  0.62612178945E+03  0.00000000000E+00 0. -1.
          2   -1    0    0  501    0 -0.00000000000E+00 -0.00000000000E+00 -0.22858756931E+02  0.22858756931E+02  0.00000000000E+00 0.  1.
          2    1    1    2  501    0  0.80361667364E+01  0.21723022738E+02  0.61998228192E+03  0.62041478028E+03  0.00000000000E+00 0. -1.
          2    1    1    2  502    0 -0.80361667364E+01 -0.21723022738E+02 -0.16719249399E+02  0.28565766105E+02  0.00000000000E+00 0.  1.
</event>
<event>
 4    1  0.6089441E+003  0.2115284E+02  0.7546771E-02  0.1517094E+00
          2   -1    0    0  501    0  0.00000000000E+00  0.00000000000E+00  0.32059121414E+00  0.32059121414E+00  0.00000000000E+00 0.  1.
          2   -1    0    0  502    0 -0.00000000000E+00 -0.00000000000E+00 -0.17429484857E+04  0.17429484857E+04  0.00000000000E+00 0. -1.
          2    1    1    2  501    0  0.21064238341E+02  0.19340772288E+01 -0.12603812662E+04  0.12605587566E+04  0.00000000000E+00 0. -1.
          2    1    1    2  502    0 -0.21064238341E+02 -0.19340772288E+01 -0.48224662827E+03  0.48271032024E+03  0.00000000000E+00 0.  1.
</event>
<event>
 4    1  0.6089441E+003  0.3805655E+02  0.7546771E-02  0.1360267E+00
          2   -1    0    0  501    0  0.00000000000E+00  0.00000000000E+00  0.31240415333E+02  0.31240415333E+02  0.00000000000E+00 0.  1.
          2   -1    0    0  502    0 -0.00000000000E+00 -0.00000000000E+00 -0.18335530236E+03  0.18335530236E+03  0.00000000000E+00 0.  1.
          2    1    1    2  501    0 -0.28226320937E+02 -0.25525989375E+02 -0.16880391073E+03  0.17304063570E+03  0.00000000000E+00 0.  1.
          2    1    1    2  502    0  0.28226320937E+02  0.25525989375E+02  0.16689023700E+02  0.41555081991E+02  0.00000000000E+00 0.  1.
</event>
<event>
 4    1  0.6089441E+003  0.2539074E+02  0.7546771E-02  0.1464479E+00
          2   -1    0    0  501    0  0.00000000000E+00  0.00000000000E+00  0.15923786370E+03  0.15923786370E+03  0.00000000000E+00 0. -1.
          2   -1    0    0  502    0 -0.00000000000E+00 -0.00000000000E+00 -0.31419336669E+02  0.31419336669E+02  0.00000000000E+00 0.  1.
          2    1    1    2  501    0 -0.14395017710E+02  0.20915858010E+02 -0.25065735350E+02  0.35678855640E+02  0.00000000000E+00 0.  1.
          2    1    1    2  502    0  0.14395017710E+02 -0.20915858010E+02  0.15288426238E+03  0.15497834473E+03  0.00000000000E+00 0. -1.
</event>
<event>
 4    1  0.6089441E+003  0.4168841E+02  0.7546771E-02  0.1338866E+00
          2   -1    0    0  501    0  0.00000000000E+00  0.00000000000E+00  0.19302232674E+02  0.19302232674E+02  0.00000000000E+00 0.  1.
          2   -1    0    0  502    0 -0.00000000000E+00 -0.00000000000E+00 -0.28041557483E+03  0.28041557483E+03  0.00000000000E+00 0. -1.
          2    1    1    2  501    0 -0.41460596117E+02 -0.43522608055E+01 -0.25403480107E+03  0.25743271618E+03  0.00000000000E+00 0. -1.
          2    1    1    2  502    0  0.41460596117E+02  0.43522608055E+01 -0.70785410874E+01  0.42285091326E+02  0.00000000000E+00 0.  1.
</event>
<event>
 4    1  0.6089441E+003  0.2205000E+02  0.7546771E-02  0.1504785E+00
          2   -1    0    0  501    0  0.00000000000E+00  0.00000000000E+00  0.31789526959E+03  0.31789526959E+03  0.00000000000E+00 0.  1.
          2   -1    0    0  502    0 -0.00000000000E+00 -0.00000000000E+00 -0.40318344689E+03  0.40318344689E+03  0.00000000000E+00 0.  1.
          2    1    1    2  501    0  0.17267341944E+01  0.21982288377E+02 -0.40249895916E+03  0.40310248665E+03  0.00000000000E+00 0.  1.
          2    1    1    2  502    0 -0.17267341944E+01 -0.21982288377E+02  0.31721078186E+03  0.31797622984E+03  0.00000000000E+00 0.  1.
</event>
<event>
 4    1  0.6089441E+003  0.3561355E+02  0.7546771E-02  0.1376300E+00
          2   -1    0    0  502    0  0.00000000000E+00  0.00000000000E+00  0.24315005210E+02  0.24315005210E+02  0.00000000000E+00 0.  1.
          2   -1    0    0  501    0 -0.00000000000E+00 -0.00000000000E+00 -0.14509718252E+04  0.14509718252E+04  0.00000000000E+00 0. -1.
          2    1    1    2  501    0  0.35605115153E+02  0.77520003417E+00  0.10934557694E+02  0.37254391850E+02  0.00000000000E+00 0.  1.
          2    1    1    2  502    0 -0.35605115153E+02 -0.77520003417E+00 -0.14375913777E+04  0.14380324386E+04  0.00000000000E+00 0. -1.
</event>
<event>
 4    1  0.6089441E+003  0.2246077E+02  0.7546771E-02  0.1499383E+00
          2   -1    0    0  501    0  0.00000000000E+00  0.00000000000E+00  0.21439006376E+02  0.21439006376E+02  0.00000000000E+00 0.  1.
          2   -1    0    0  502    0 -0.00000000000E+00 -0.00000000000E+00 -0.66753754268E+03  0.66753754268E+03  0.00000000000E+00 0.  1.
          2    1    1    2  501    0 -0.16599542569E+02  0.15130811525E+02 -0.66141132582E+03  0.66179258699E+03  0.00000000000E+00 0.  1.
          2    1    1    2  502    0  0.16599542569E+02 -0.15130811525E+02  0.15312789516E+02  0.27183962067E+02  0.00000000000E+00 0.  1.
</event>
<event>
 4    1  0.6089441E+003  0.2109912E+02  0.7546771E-02  0.1517854E+00
          2   -1    0    0  501    0  0.00000000000E+00  0.00000000000E+00  0.49729713579E+02  0.49729713579E+02  0.00000000000E+00 0. -1.
          2   -1    0    0  502    0 -0.00000000000E+00 -0.00000000000E+00 -0.97081589526E+01  0.97081589526E+01  0.00000000000E+00 0.  1.
          2    1    1    2  501    0  0.20680650619E+02  0.41813496801E+01  0.11715820997E+02  0.24133658173E+02  0.00000000000E+00 0.  1.
          2    1    1    2  502    0 -0.20680650619E+02 -0.41813496801E+01  0.28305733629E+02  0.35304214359E+02  0.00000000000E+00 0. -1.
</event>
<event>
 4    1  0.6089441E+003  0.2143296E+02  0.7546771E-02  0.1513172E+00
          2   -1    0    0  502    0  0.00000000000E+00  0.00000000000E+00  0.32921990049E+03  0.32921990049E+03  0.00000000000E+00 0. -1.
          2   -1    0    0  501    0 -0.00000000000E+00 -0.00000000000E+00 -0.45053120846E+02  0.45053120846E+02  0.00000000000E+00 0. -1.
          2    1    1    2  501    0  0.93757186629E+01 -0.19273491411E+02  0.32629922003E+03  0.32700237395E+03  0.00000000000E+00 0. -1.
          2    1    1    2  502    0 -0.93757186629E+01  0.19273491411E+02 -0.42132440389E+02  0.47270647391E+02  0.00000000000E+00 0. -1.
</event>
<event>
 4    1  0.6089441E+003  0.2204114E+02  0.7546771E-02  0.1504903E+00
          2   -1    0    0  501    0  0.00000000000E+00  0.00000000000E+00  0.20787141843E+01  0.20787141843E+01  0.00000000000E+00 0.  1.
          2   -1    0    0  502    0 -0.00000000000E+00 -0.00000000000E+00 -0.26617523971E+03  0.26617523971E+03  0.00000000000E+00 0.  1.
          2    1    1    2  501    0  0.21337330767E+02  0.55254047179E+01 -0.85204030150E+02  0.88008741244E+02  0.00000000000E+00 0.  1.
          2    1    1    2  502    0 -0.21337330767E+02 -0.55254047179E+01 -0.17889249538E+03  0.18024521265E+03  0.00000000000E+00 0.  1.
</event>
<event>
 4    1  0.6089441E+003  0.2176577E+02  0.7546771E-02  0.1508607E+00
          2   -1    0    0  502    0  0.00000000000E+00  0.00000000000E+00  0.16206023697E+04  0.16206023697E+04  0.00000000000E+00 0.  1.
          2   -1    0    0  501    0 -0.00000000000E+00 -0.00000000000E+00 -0.52908778773E+01  0.52908778773E+01  0.00000000000E+00 0.  1.
          2    1    1    2  501    0  0.10288048465E+02  0.19180843759E+02  0.15978250315E+04  0.15979732726E+04  0.00000000000E+00 0.  1.
          2    1    1    2  502    0 -0.10288048465E+02 -0.19180843759E+02  0.17486460387E+02  0.27919975025E+02  0.00000000000E+00 0.  1.
</event>
<event>
 4    1  0.6089441E+003  0.3153487E+02  0.7546771E-02  0.1406711E+00
          2   -1    0    0  501    0  0.00000000000E+00  0.00000000000E+00  0.21131071801E+04  0.21131071801E+04  0.00000000000E+00 0. -1.
          2   -1    0    0  502    0 -0.00000000000E+00 -0.00000000000E+00 -0.11110769092E+01  0.11110769092E+01  0.00000000000E+00 0.  1.
          2    1    1    2  501    0 -0.21263796187E+02 -0.23287316309E+02  0.25340331141E+03  0.25535795731E+03  0.00000000000E+00 0.  1.
          2    1    1    2  502    0  0.21263796187E+02  0.23287316309E+02  0.18585927918E+04  0.18588602997E+04  0.00000000000E+00 0. -1.
</event>
<event>
 4    1  0.6089441E+003  0.2341009E+02  0.7546771E-02  0.1487412E+00
          2   -1    0    0  501    0  0.00000000000E+00  0.00000000000E+00  0.89564514931E+03  0.89564514931E+03  0.00000000000E+00 0. -1.
          2   -1    0    0  502    0 -0.00000000000E+00 -0.00000000000E+00 -0.66326786228E+01  0.66326786228E+01  0.00000000000E+00 0. -1.
          2    1    1    2  501    0  0.16468875931E+02  0.16637563951E+02  0.14680257696E+02  0.27632270531E+02  0.00000000000E+00 0. -1.
          2    1    1    2  502    0 -0.16468875931E+02 -0.16637563951E+02  0.87433221299E+03  0.87464555740E+03  0.00000000000E+00 0. -1.
</event>
<event>
 4    1  0.6089441E+003  0.2058393E+02  0.7546771E-02  0.1525289E+00
          2   -1    0    0  502    0  0.00000000000E+00  0.00000000000E+00  0.47957152067E+03  0.47957152067E+03  0.00000000000E+00 0.  1.
          2   -1    0    0  501    0 -0.00000000000E+00 -0.00000000000E+00 -0.81349215538E+02  0.81349215538E+02  0.00000000000E+00 0.  1.
          2    1    1    2  501    0  0.68966065750E+01  0.19394200323E+02  0.47804439298E+03  0.47848734555E+03  0.00000000000E+00 0.  1.
          2    1    1    2  502    0 -0.68966065750E+01 -0.19394200323E+02 -0.79822087846E+02  0.82433390665E+02  0.00000000000E+00 0.  1.
</event>
<event>
 4    1  0.6089441E+003  0.2669165E+02  0.7546771E-02  0.1450730E+00
          2   -1    0    0  501    0  0.00000000000E+00  0.00000000000E+00  0.10361506573E+03  0.10361506573E+03  0.00000000000E+00 0.  1.
          2   -1    0    0  502    0 -0.00000000000E+00 -0.00000000000E+00 -0.39145050876E+02  0.39145050876E+02  0.00000000000E+00 0.  1.
          2    1    1    2  501    0  0.16045208256E+02 -0.21330618210E+02 -0.32573559950E+02  0.42112715289E+02  0.00000000000E+00 0.  1.
          2    1    1    2  502    0 -0.16045208256E+02  0.21330618210E+02  0.97043574801E+02  0.10064740131E+03  0.00000000000E+00 0.  1.
</event>
<event>
 4    1  0.6089441E+003  0.5437323E+02  0.7546771E-02  0.1280249E+00
          2   -1    0    0  501    0  0.00000000000E+00  0.00000000000E+00  0.29998610734E+03  0.29998610734E+03  0.00000000000E+00 0.  1.
          2   -1    0    0  502    0 -0.00000000000E+00 -0.00000000000E+00 -0.17633547696E+04  0.17633547696E+04  0.00000000000E+00 0.  1.
          2    1    1    2  501    0  0.54103906950E+02 -0.54051485824E+01 -0.17604677579E+04  0.17613072347E+04  0.00000000000E+00 0.  1.
          2    1    1    2  502    0 -0.54103906950E+02  0.54051485824E+01  0.29709909567E+03  0.30203364221E+03  0.00000000000E+00 0.  1.
</event>
<event>
 4    1  0.6089441E+003  0.2317829E+02  0.7546771E-02  0.1490271E+00
          2   -1    0    0  501    0  0.00000000000E+00  0.00000000000E+00  0.90568006561E+03  0.90568006561E+03  0.00000000000E+00 0. -1.
          2   -1    0    0  502    0 -0.00000000000E+00 -0.00000000000E+00 -0.12838595588E+01  0.12838595588E+01  0.00000000000E+00 0.  1.
          2    1    1    2  501    0 -0.96419897961E+01 -0.21077599864E+02  0.11958534288E+03  0.12181086739E+03  0.00000000000E+00 0.  1.
          2    1    1    2  502    0  0.96419897961E+01  0.21077599864E+02  0.78481086317E+03  0.78515305778E+03  0.00000000000E+00 0. -1.
</event>
<event>
 4    1  0.6089441E+003  0.2492462E+02  0.7546771E-02  0.1469648E+00
          2   -1    0    0  502    0  0.00000000000E+00  0.00000000000E+00  0.44127366983E+03  0.44127366983E+03  0.00000000000E+00 0. -1.
          2   -1    0    0  501    0 -0.00000000000E+00 -0.00000000000E+00 -0.79690782596E+01  0.79690782596E+01  0.00000000000E+00 0. -1.
          2    1    1    2  501    0  0.98819093491E+01  0.22881967192E+02  0.42046929379E+03  0.42120738784E+03  0.00000000000E+00 0. -1.
          2    1    1    2  502    0 -0.98819093491E+01 -0.22881967192E+02  0.12835297782E+02  0.28035360246E+02  0.00000000000E+00 0. -1.
</event>
<event>
 4    1  0.6089441E+003  0.3262175E+02  0.7546771E-02  0.1398101E+00
          2   -1    0    0  502    0  0.00000000000E+00  0.00000000000E+00  0.36269603161E+02  0.36269603161E+02  0.00000000000E+00 0.  1.
          2   -1    0    0  501    0 -0.00000000000E+00 -0.00000000000E+00 -0.16677114052E+04  0.16677114052E+04  0.00000000000E+00 0. -1.
          2    1    1    2  501    0  0.27493067282E+02 -0.17558747160E+02  0.28741624388E+02  0.43477112632E+02  0.00000000000E+00 0.  1.
          2    1    1    2  502    0 -0.27493067282E+02  0.17558747160E+02 -0.16601834264E+04  0.16605038957E+04  0.00000000000E+00 0. -1.
</event>
<event>
 4    1  0.6089441E+003  0.3382543E+02  0.7546771E-02  0.1389014E+00
          2   -1    0    0  502    0  0.00000000000E+00  0.00000000000E+00  0.43869906890E+02  0.43869906890E+02  0.00000000000E+00 0.  1.
          2   -1    0    0  501    0 -0.00000000000E+00 -0.00000000000E+00 -0.70875545217E+02  0.70875545217E+02  0.00000000000E+00 0.  1.
          2    1    1    2  501    0  0.32644681800E+02 -0.88591542921E+01  0.32108336930E+02  0.46638022739E+02  0.00000000000E+00 0.  1.
          2    1    1    2  502    0 -0.32644681800E+02  0.88591542921E+01 -0.59113975256E+02  0.68107429368E+02  0.00000000000E+00 0.  1.
</event>
<event>
 4    1  0.6089441E+003  0.5723186E+02  0.7546771E-02  0.1269539E+00
          2   -1    0    0  502    0  0.00000000000E+00  0.00000000000E+00  0.24585974601E+04  0.24585974601E+04  0.00000000000E+00 0. -1.
          2   -1    0    0  501    0 -0.00000000000E+00 -0.00000000000E+00 -0.69897620910E+03  0.69897620910E+03  0.00000000000E+00 0. -1.
          2    1    1    2  501    0 -0.45358278349E+02 -0.34901473080E+02  0.24570921480E+04  0.24577585947E+04  0.00000000000E+00 0. -1.
          2    1    1    2  502    0  0.45358278349E+02  0.34901473080E+02 -0.69747089702E+03  0.69981507445E+03  0.00000000000E+00 0. -1.
</event>
<event>
 4    1  0.6089441E+003  0.4540177E+02  0.7546771E-02  0.1319443E+00
          2   -1    0    0  501    0  0.00000000000E+00  0.00000000000E+00  0.16808325619E+04  0.16808325619E+04  0.00000000000E+00 0.  1.
          2   -1    0    0  502    0 -0.00000000000E+00 -0.00000000000E+00 -0.12053523060E+04  0.12053523060E+04  0.00000000000E+00 0. -1.
          2    1    1    2  501    0  0.37105176893E+02  0.26163454471E+02 -0.12046179922E+04  0.12054732795E+04  0.00000000000E+00 0. -1.
          2    1    1    2  502    0 -0.37105176893E+02 -0.26163454471E+02  0.16800982480E+04  0.16807115884E+04  0.00000000000E+00 0.  1.
</event>
<event>
 4    1  0.6089441E+003  0.2649061E+02  0.7546771E-02  0.1452793E+00
          2   -1    0    0  501    0  0.00000000000E+00  0.00000000000E+00  0.12999423475E+03  0.12999423475E+03  0.00000000000E+00 0. -1.
          2   -1    0    0  502    0 -0.00000000000E+00 -0.00000000000E+00 -0.37013732342E+02  0.37013732342E+02  0.00000000000E+00 0. -1.
          2    1    1    2  501    0  0.78749445980E+01 -0.25293038522E+02 -0.30684470059E+02  0.40537504275E+02  0.00000000000E+00 0. -1.
          2    1    1    2  502    0 -0.78749445980E+01  0.25293038522E+02  0.12366497246E+03  0.12647046281E+03  0.00000000000E+00 0. -1.
</event>
<event>
 4    1  0.6089441E+003  0.2041817E+02  0.7546771E-02  0.1527736E+00
          2   -1    0    0  501    0  0.00000000000E+00  0.00000000000E+00  0.10418785910E+01  0.10418785910E+01  0.00000000000E+00 0. -1.
          2   -1    0    0  502    0 -0.00000000000E+00 -0.00000000000E+00 -0.62510189947E+03  0.62510189947E+03  0.00000000000E+00 0.  1.
          2    1    1    2  501    0  0.39907910391E+00 -0.20414272068E+02 -0.49984013875E+03  0.50025700003E+03  0.00000000000E+00 0.  1.
          2    1    1    2  502    0 -0.39907910391E+00  0.20414272068E+02 -0.12421988212E+03  0.12588677803E+03  0.00000000000E+00 0. -1.
</event>
<event>
 4    1  0.6089441E+003  0.5486162E+02  0.7546771E-02  0.1278367E+00
          2   -1    0    0  501    0  0.00000000000E+00  0.00000000000E+00  0.60851348944E+02  0.60851348944E+02  0.00000000000E+00 0. -1.
          2   -1    0    0  502    0 -0.00000000000E+00 -0.00000000000E+00 -0.43564382276E+03  0.43564382276E+03  0.00000000000E+00 0.  1.
          2    1    1    2  501    0 -0.46718550569E+02  0.28760639406E+02 -0.42112677777E+03  0.42468524851E+03  0.00000000000E+00 0.  1.
          2    1    1    2  502    0  0.46718550569E+02 -0.28760639406E+02  0.46334303955E+02  0.71809923195E+02  0.00000000000E+00 0. -1.
</event>
<event>
 4    1  0.6089441E+003  0.3541220E+02  0.7546771E-02  0.1377688E+00
          2   -1    0    0  501    0  0.00000000000E+00  0.00000000000E+00  0.46570642881E+02  0.46570642881E+02  0.00000000000E+00 0.  1.
          2   -1    0    0  502    0 -0.00000000000E+00 -0.00000000000E+00 -0.55242884662E+03  0.55242884662E+03  0.00000000000E+00 0.  1.
          2    1    1    2  501    0 -0.77978303679E+01 -0.34542987367E+02 -0.54503831835E+03  0.54618750681E+03  0.00000000000E+00 0.  1.
          2    1    1    2  502    0  0.77978303679E+01  0.34542987367E+02  0.39180114607E+02  0.52811982687E+02  0.00000000000E+00 0.  1.
</event>
<event>
 4    1  0.6089441E+003  0.4129330E+02  0.7546771E-02  0.1341069E+00
          2   -1    0    0  501    0  0.00000000000E+00  0.00000000000E+00  0.13066033607E+03  0.13066033607E+03  0.00000000000E+00 0. -1.
          2   -1    0    0  502    0 -0.00000000000E+00 -0.00000000000E+00 -0.92321532956E+02  0.92321532956E+02  0.00000000000E+00 0.  1.
          2    1    1    2  501    0 -0.22887114870E+02  0.34370286801E+02 -0.84141529805E+02  0.93727977039E+02  0.00000000000E+00 0.  1.
          2    1    1    2  502    0  0.22887114870E+02 -0.34370286801E+02  0.12248033292E+03  0.12925389199E+03  0.00000000000E+00 0. -1.
</event>
<event>
 4    1  0.6089441E+003  0.2388716E+02  0.7546771E-02  0.1481649E+00
          2   -1    0    0  502    0  0.00000000000E+00  0.00000000000E+00  0.62036872973E+03  0.62036872973E+03  0.00000000000E+00 0. -1.
          2   -1    0    0  501    0 -0.00000000000E+00 -0.00000000000E+00 -0.35661911342E+01  0.35661911342E+01  0.00000000000E+00 0. -1.
          2    1    1    2  501    0 -0.14110703175E+02  0.19273937858E+02  0.57714383391E+03  0.57763795031E+03  0.00000000000E+00 0. -1.
          2    1    1    2  502    0  0.14110703175E+02 -0.19273937858E+02  0.39658704690E+02  0.46296970553E+02  0.00000000000E+00 0. -1.
</event>
<event>
 4    1  0.6089441E+003  0.2067740E+02  0.7546771E-02  0.1523921E+00
          2   -1    0    0  502    0  0.00000000000E+00  0.00000000000E+00  0.32787440172E+02  0.32787440172E+02  0.00000000000E+00 0. -1.
          2   -1    0    0  501    0 -0.00000000000E+00 -0.00000000000E+00 -0.52158997923E+02  0.52158997923E+02  0.00000000000E+00 0. -1.
          2    1    1    2  501    0 -0.37960025185E+01  0.20325977578E+02  0.27096892806E+02  0.34085137514E+02  0.00000000000E+00 0. -1.
          2    1    1    2  502    0  0.37960025185E+01 -0.20325977578E+02 -0.46468450557E+02  0.50861300581E+02  0.00000000000E+00 0. -1.
</event>
<event>
 4    1  0.6089441E+003  0.2146935E+02  0.7546771E-02  0.1512668E+00
          2   -1    0    0  502    0  0.00000000000E+00  0.00000000000E+00  0.75018789027E+03  0.75018789027E+03  0.00000000000E+00 0.  1.
          2   -1    0    0  501    0 -0.00000000000E+00 -0.00000000000E+00 -0.47796193044E+01  0.47796193044E+01  0.00000000000E+00 0.  1.
          2    1    1    2  501    0  0.10487216322E+02 -0.18733695205E+02  0.72509068730E+03  0.72540846277E+03  0.00000000000E+00 0.  1.
          2    1    1    2  502    0 -0.10487216322E+02  0.18733695205E+02  0.20317583663E+02  0.29559046807E+02  0.00000000000E+00 0.  1.
</event>
<event>
 4    1  0.6089441E+003  0.2209857E+02  0.7546771E-02  0.1504139E+00
          2   -1    0    0  502    0  0.00000000000E+00  0.00000000000E+00  0.80844571793E+03  0.80844571793E+03  0.00000000000E+00 0.  1.
          2   -1    0    0  501    0 -0.00000000000E+00 -0.00000000000E+00 -0.53716627744E+01  0.53716627744E+01  0.00000000000E+00 0. -1.
          2    1    1    2  501    0 -0.44856498919E-01 -0.22098519619E+02  0.78488467619E+03  0.78519570904E+03  0.00000000000E+00 0.  1.
          2    1    1    2  502    0  0.44856498919E-01  0.22098519619E+02  0.18189378961E+02  0.28621671657E+02  0.00000000000E+00 0. -1.
</event>
<event>
 4    1  0.6089441E+003  0.2764592E+02  0.7546771E-02  0.1441225E+00
          2   -1    0    0  502    0  0.00000000000E+00  0.00000000000E+00  0.42907753595E+01  0.42907753595E+01  0.00000000000E+00 0. -1.
          2   -1    0    0  501    0 -0.00000000000E+00 -0.00000000000E+00 -0.23322305084E+03  0.23322305084E+03  0.00000000000E+00 0.  1.
          2    1    1    2  501    0  0.27476313483E+02  0.30576593397E+01 -0.56744481856E+02  0.63120783458E+02  0.00000000000E+00 0. -1.
          2    1    1    2  502    0 -0.27476313483E+02 -0.30576593397E+01 -0.17218779362E+03  0.17439304274E+03  0.00000000000E+00 0.  1.
</event>
<event>
 4    1  0.6089441E+003  0.4001320E+02  0.7546771E-02  0.1348408E+00
          2   -1    0    0  501    0  0.00000000000E+00  0.00000000000E+00  0.93946876043E+02  0.93946876043E+02  0.00000000000E+00 0. -1.
          2   -1    0    0  502    0 -0.00000000000E+00 -0.00000000000E+00 -0.35518823493E+02  0.35518823493E+02  0.00000000000E+00 0.  1.
          2    1    1    2  501    0  0.32726121791E+02 -0.23022964635E+02 -0.17474206291E+02  0.43662384652E+02  0.00000000000E+00 0.  1.
          2    1    1    2  502    0 -0.32726121791E+02  0.23022964635E+02  0.75902258841E+02  0.85803314884E+02  0.00000000000E+00 0. -1.
</event>
<event>
 4    1  0.6089441E+003  0.2553595E+02  0.7546771E-02  0.1462896E+00
          2   -1    0    0  501    0  0.00000000000E+00  0.00000000000E+00  0.13023300380E+04  0.13023300380E+04  0.00000000000E+00 0. -1.
          2   -1    0    0  502    0 -0.00000000000E+00 -0.00000000000E+00 -0.19928983536E+01  0.19928983536E+01  0.00000000000E+00 0. -1.
          2    1    1    2  501    0 -0.55299035646E+00 -0.25529962621E+02  0.85849235255E+02  0.89566600826E+02  0.00000000000E+00 0. -1.
          2    1    1    2  502    0  0.55299035646E+00  0.25529962621E+02  0.12144879044E+04  0.12147563356E+04  0.00000000000E+00 0. -1.
</event>
<event>
 4    1  0.6089441E+003  0.2485160E+02  0.7546771E-02  0.1470470E+00
          2   -1    0    0  502    0  0.00000000000E+00  0.00000000000E+00  0.99422883481E+01  0.99422883481E+01  0.00000000000E+00 0. -1.
          2   -1    0    0  501    0 -0.00000000000E+00 -0.00000000000E+00 -0.39111287601E+03  0.39111287601E+03  0.00000000000E+00 0. -1.
          2    1    1    2  501    0 -0.24513643744E+02 -0.40845259695E+01 -0.66702894345E+01  0.25731203686E+02  0.00000000000E+00 0. -1.
          2    1    1    2  502    0  0.24513643744E+02  0.40845259695E+01 -0.37450029823E+03  0.37532396067E+03  0.00000000000E+00 0. -1.
</event>
<event>
 4    1  0.7766063E+003  0.4469377E+02  0.7546771E-02  0.1322978E+00
          2   -1    0    0  502    0  0.00000000000E+00  0.00000000000E+00  0.87989854063E+03  0.87989854063E+03  0.00000000000E+00 0. -1.
          2   -1    0    0  501    0 -0.00000000000E+00 -0.00000000000E+00 -0.98011519041E+03  0.98011519041E+03  0.00000000000E+00 0.  1.
          2    1    1    2  501    0  0.23277273205E+02 -0.38153655645E+02  0.87882085503E+03  0.87995660581E+03  0.00000000000E+00 0. -1.
          2    1    1    2  502    0 -0.23277273205E+02  0.38153655645E+02 -0.97903750481E+03  0.98005712523E+03  0.00000000000E+00 0.  1.
</event>
<event>
 4    1  0.6089441E+003  0.2907338E+02  0.7546771E-02  0.1427823E+00
          2   -1    0    0  501    0  0.00000000000E+00  0.00000000000E+00  0.80083161039E+03  0.80083161039E+03  0.00000000000E+00 0.  1.
          2   -1    0    0  502    0 -0.00000000000E+00 -0.00000000000E+00 -0.19642407341E+01  0.19642407341E+01  0.00000000000E+00 0.  1.
          2    1    1    2  501    0  0.24771160149E+01 -0.28967658365E+02  0.12640852671E+03  0.12970881604E+03  0.00000000000E+00 0.  1.
          2    1    1    2  502    0 -0.24771160149E+01  0.28967658365E+02  0.67245884295E+03  0.67308703508E+03  0.00000000000E+00 0.  1.
</event>
<event>
 4    1  0.6089441E+003  0.2169908E+02  0.7546771E-02  0.1509513E+00
          2   -1    0    0  502    0  0.00000000000E+00  0.00000000000E+00  0.20234351551E+03  0.20234351551E+03  0.00000000000E+00 0. -1.
          2   -1    0    0  501    0 -0.00000000000E+00 -0.00000000000E+00 -0.14404335053E+02  0.14404335053E+02  0.00000000000E+00 0.  1.
          2    1    1    2  501    0 -0.20174387296E+02 -0.79902554772E+01  0.19320440075E+03  0.19441911056E+03  0.00000000000E+00 0. -1.
          2    1    1    2  502    0  0.20174387296E+02  0.79902554772E+01 -0.52652202852E+01  0.22328740001E+02  0.00000000000E+00 0.  1.
</event>
<event>
 4    1  0.6089441E+003  0.2056634E+02  0.7546771E-02  0.1525547E+00
          2   -1    0    0  501    0  0.00000000000E+00  0.00000000000E+00  0.25011471751E+02  0.25011471751E+02  0.00000000000E+00 0.  1.
          2   -1    0    0  502    0 -0.00000000000E+00 -0.00000000000E+00 -0.10497008781E+04  0.10497008781E+04  0.00000000000E+00 0.  1.
          2    1    1    2  501    0  0.73324318168E+01  0.19214837764E+02 -0.10453547601E+04  0.10455570520E+04  0.00000000000E+00 0.  1.
          2    1    1    2  502    0 -0.73324318168E+01 -0.19214837764E+02  0.20665353750E+02  0.29155297842E+02  0.00000000000E+00 0.  1.
</event>
<event>
 4    1  0.6089441E+003  0.2112554E+02  0.7546771E-02  0.1517480E+00
          2   -1    0    0  502    0  0.00000000000E+00  0.00000000000E+00  0.20804580713E+02  0.20804580713E+02  0.00000000000E+00 0. -1.
          2   -1    0    0  501    0 -0.00000000000E+00 -0.00000000000E+00 -0.37368147486E+03  0.37368147486E+03  0.00000000000E+00 0.  1.
          2    1    1    2  501    0 -0.19522947308E+02  0.80711110413E+01  0.15059475327E+02  0.25943710262E+02  0.00000000000E+00 0. -1.
          2    1    1    2  502    0  0.19522947308E+02 -0.80711110413E+01 -0.36793636948E+03  0.36854234532E+03  0.00000000000E+00 0.  1.
</event>
<event>
 4    1  0.6089441E+003  0.2923257E+02  0.7546771E-02  0.1426385E+00
          2   -1    0    0  501    0  0.00000000000E+00  0.00000000000E+00  0.54851218922E+03  0.54851218922E+03  0.00000000000E+00 0.  1.
          2   -1    0    0  502    0 -0.00000000000E+00 -0.00000000000E+00 -0.43731924645E+01  0.43731924645E+01  0.00000000000E+00 0. -1.
          2    1    1    2  501    0 -0.24931340617E+02 -0.15263395340E+02  0.50267554876E+02  0.58149549056E+02  0.00000000000E+00 0. -1.
          2    1    1    2  502    0  0.24931340617E+02  0.15263395340E+02  0.49387144188E+03  0.49473583263E+03  0.00000000000E+00 0.  1.
</event>
<event>
 4    1  0.6089441E+003  0.2204969E+02  0.7546771E-02  0.1504789E+00
          2   -1    0    0  501    0  0.00000000000E+00  0.00000000000E+00  0.22545428436E+03  0.22545428436E+03  0.00000000000E+00 0. -1.
          2   -1    0    0  502    0 -0.00000000000E+00 -0.00000000000E+00 -0.65824251388E+03  0.65824251388E+03  0.00000000000E+00 0.  1.
          2    1    1    2  501    0 -0.21090469552E+02  0.64328008951E+01 -0.65751814466E+03  0.65788775592E+03  0.00000000000E+00 0.  1.
          2    1    1    2  502    0  0.21090469552E+02 -0.64328008951E+01  0.22472991514E+03  0.22580904232E+03  0.00000000000E+00 0. -1.
</event>
<event>
 4    1  0.6089441E+003  0.5497165E+02  0.7546771E-02  0.1277946E+00
          2   -1    0    0  502    0  0.00000000000E+00  0.00000000000E+00  0.59445070395E+02  0.59445070395E+02  0.00000000000E+00 0. -1.
          2   -1    0    0  501    0 -0.00000000000E+00 -0.00000000000E+00 -0.56904518576E+02  0.56904518576E+02  0.00000000000E+00 0. -1.
          2    1    1    2  501    0 -0.54705442688E+02  0.54033736065E+01  0.20269836944E+02  0.58589659461E+02  0.00000000000E+00 0. -1.
          2    1    1    2  502    0  0.54705442688E+02 -0.54033736065E+01 -0.17729285125E+02  0.57759929511E+02  0.00000000000E+00 0. -1.
</event>
<event>
 4    1  0.6089441E+003  0.2139821E+02  0.7546771E-02  0.1513655E+00
          2   -1    0    0  502    0  0.00000000000E+00  0.00000000000E+00  0.21618758394E+04  0.21618758394E+04  0.00000000000E+00 0. -1.
          2   -1    0    0  501    0 -0.00000000000E+00 -0.00000000000E+00 -0.22243410611E+00  0.22243410611E+00  0.00000000000E+00 0.  1.
          2    1    1    2  501    0 -0.21126201471E+02 -0.34010114249E+01  0.13172087364E+04  0.13173825331E+04  0.00000000000E+00 0. -1.
          2    1    1    2  502    0  0.21126201471E+02  0.34010114249E+01  0.84444466897E+03  0.84471574049E+03  0.00000000000E+00 0.  1.
</event>
<event>
 4    1  0.6089441E+003  0.2262858E+02  0.7546771E-02  0.1497216E+00
          2   -1    0    0  502    0  0.00000000000E+00  0.00000000000E+00  0.49073117501E+03  0.49073117501E+03  0.00000000000E+00 0. -1.
          2   -1    0    0  501    0 -0.00000000000E+00 -0.00000000000E+00 -0.36999321364E+01  0.36999321364E+01  0.00000000000E+00 0. -1.
          2    1    1    2  501    0 -0.19408987719E+02 -0.11633728525E+02  0.45299078026E+03  0.45355561891E+03  0.00000000000E+00 0. -1.
          2    1    1    2  502    0  0.19408987719E+02  0.11633728525E+02  0.34040462613E+02  0.40875488237E+02  0.00000000000E+00 0. -1.
</event>
<event>
 4    1  0.6089441E+003  0.2115912E+02  0.7546771E-02  0.1517005E+00
          2   -1    0    0  502    0  0.00000000000E+00  0.00000000000E+00  0.18272447589E+03  0.18272447589E+03  0.00000000000E+00 0. -1.
          2   -1    0    0  501    0 -0.00000000000E+00 -0.00000000000E+00 -0.16955919973E+02  0.16955919973E+02  0.00000000000E+00 0.  1.
          2    1    1    2  501    0  0.59788113122E+01 -0.20296850876E+02  0.17522954865E+03  0.17650241659E+03  0.00000000000E+00 0. -1.
          2    1    1    2  502    0 -0.59788113122E+01  0.20296850876E+02 -0.94609927290E+01  0.23177979282E+02  0.00000000000E+00 0.  1.
</event>
<event>
 4    1  0.6089441E+003  0.2203769E+02  0.7546771E-02  0.1504949E+00
          2   -1    0    0  501    0  0.00000000000E+00  0.00000000000E+00  0.58986124749E+03  0.58986124749E+03  0.00000000000E+00 0.  1.
          2   -1    0    0  502    0 -0.00000000000E+00 -0.00000000000E+00 -0.11565927701E+02  0.11565927701E+02  0.00000000000E+00 0.  1.
          2    1    1    2  501    0 -0.22030292448E+02  0.57098494358E+00 -0.66486534584E+00  0.22047717684E+02  0.00000000000E+00 0.  1.
          2    1    1    2  502    0  0.22030292448E+02 -0.57098494358E+00  0.57896018514E+03  0.57937945751E+03  0.00000000000E+00 0.  1.
</event>
<event>
 4    1  0.6089441E+003  0.3013809E+02  0.7546771E-02  0.1418400E+00
          2   -1    0    0  501    0  0.00000000000E+00  0.00000000000E+00  0.67154623107E+01  0.67154623107E+01  0.00000000000E+00 0. -1.
          2   -1    0    0  502    0 -0.00000000000E+00 -0.00000000000E+00 -0.14686250651E+04  0.14686250651E+04  0.00000000000E+00 0. -1.
          2    1    1    2  501    0  0.19111865146E+02  0.23303235748E+02 -0.14338362067E+04  0.14341529109E+04  0.00000000000E+00 0. -1.
          2    1    1    2  502    0 -0.19111865146E+02 -0.23303235748E+02 -0.28073396067E+02  0.41187616494E+02  0.00000000000E+00 0. -1.
</event>
<event>
 4    1  0.6089441E+003  0.4737488E+02  0.7546771E-02  0.1309974E+00
          2   -1    0    0  501    0  0.00000000000E+00  0.00000000000E+00  0.64798592621E+01  0.64798592621E+01  0.00000000000E+00 0.  1.
          2   -1    0    0  502    0 -0.00000000000E+00 -0.00000000000E+00 -0.14406429177E+04  0.14406429177E+04  0.00000000000E+00 0.  1.
          2    1    1    2  501    0  0.38349541657E+02  0.27815319839E+02 -0.13476925411E+04  0.13485249589E+04  0.00000000000E+00 0.  1.
          2    1    1    2  502    0 -0.38349541657E+02 -0.27815319839E+02 -0.86470517317E+02  0.98597818069E+02  0.00000000000E+00 0.  1.
</event>
<event>
 4    1  0.6089441E+003  0.2098944E+02  0.7546771E-02  0.1519416E+00
          2   -1    0    0  502    0  0.00000000000E+00  0.00000000000E+00  0.44621711414E+01  0.44621711414E+01  0.00000000000E+00 0. -1.
          2   -1    0    0  501    0 -0.00000000000E+00 -0.00000000000E+00 -0.10534745704E+03  0.10534745704E+03  0.00000000000E+00 0.  1.
          2    1    1    2  501    0  0.10118305718E+01 -0.20965039534E+02 -0.36683355039E+02  0.42263757768E+02  0.00000000000E+00 0. -1.
          2    1    1    2  502    0 -0.10118305718E+01  0.20965039534E+02 -0.64201930860E+02  0.67545870414E+02  0.00000000000E+00 0.  1.
</event>
<event>
 4    1  0.6089441E+003  0.3455108E+02  0.7546771E-02  0.1383747E+00
          2   -1    0    0  502    0  0.00000000000E+00  0.00000000000E+00  0.70167966744E+02  0.70167966744E+02  0.00000000000E+00 0. -1.
          2   -1    0    0  501    0 -0.00000000000E+00 -0.00000000000E+00 -0.12053130284E+04  0.12053130284E+04  0.00000000000E+00 0. -1.
          2    1    1    2  501    0 -0.27115051804E+02  0.21413805520E+02  0.65651079939E+02  0.74187879052E+02  0.00000000000E+00 0. -1.
          2    1    1    2  502    0  0.27115051804E+02 -0.21413805520E+02 -0.12007961416E+04  0.12012931161E+04  0.00000000000E+00 0. -1.
</event>
<event>
 4    1  0.6089441E+003  0.2708707E+02  0.7546771E-02  0.1446735E+00
          2   -1    0    0  501    0  0.00000000000E+00  0.00000000000E+00  0.21901939808E+03  0.21901939808E+03  0.00000000000E+00 0. -1.
          2   -1    0    0  502    0 -0.00000000000E+00 -0.00000000000E+00 -0.13502770695E+03  0.13502770695E+03  0.00000000000E+00 0.  1.
          2    1    1    2  501    0 -0.26436570418E+02 -0.59006213380E+01 -0.13281797879E+03  0.13555192761E+03  0.00000000000E+00 0.  1.
          2    1    1    2  502    0  0.26436570418E+02  0.59006213380E+01  0.21680966992E+03  0.21849517743E+03  0.00000000000E+00 0. -1.
</event>
<event>
 4    1  0.6089441E+003  0.2066895E+02  0.7546771E-02  0.1524044E+00
          2   -1    0    0  501    0  0.00000000000E+00  0.00000000000E+00  0.65077705015E+01  0.65077705015E+01  0.00000000000E+00 0.  1.
          2   -1    0    0  502    0 -0.00000000000E+00 -0.00000000000E+00 -0.12084818270E+03  0.12084818270E+03  0.00000000000E+00 0. -1.
          2    1    1    2  501    0 -0.20438017117E+02  0.30810613338E+01 -0.10020795091E+03  0.10231734412E+03  0.00000000000E+00 0. -1.
          2    1    1    2  502    0  0.20438017117E+02 -0.30810613338E+01 -0.14132461292E+02  0.25038609083E+02  0.00000000000E+00 0.  1.
</event>
<event>
 4    1  0.6089441E+003  0.2418105E+02  0.7546771E-02  0.1478177E+00
          2   -1    0    0  501    0  0.00000000000E+00  0.00000000000E+00  0.19392503096E+01  0.19392503096E+01  0.00000000000E+00 0.  1.
          2   -1    0    0  502    0 -0.00000000000E+00 -0.00000000000E+00 -0.30789476261E+03  0.30789476261E+03  0.00000000000E+00 0. -1.
          2    1    1    2  501    0  0.24119591613E+02 -0.17228948928E+01 -0.13068701775E+03  0.13290530341E+03  0.00000000000E+00 0. -1.
          2    1    1    2  502    0 -0.24119591613E+02  0.17228948928E+01 -0.17526849456E+03  0.17692870952E+03  0.00000000000E+00 0.  1.
</event>
<event>
 4    1  0.6089441E+003  0.3992484E+02  0.7546771E-02  0.1348927E+00
          2   -1    0    0  501    0  0.00000000000E+00  0.00000000000E+00  0.10647224893E+03  0.10647224893E+03  0.00000000000E+00 0. -1.
          2   -1    0    0  502    0 -0.00000000000E+00 -0.00000000000E+00 -0.39044778023E+03  0.39044778023E+03  0.00000000000E+00 0. -1.
          2    1    1    2  501    0  0.36436003600E+02  0.16322092261E+02 -0.38563786121E+03  0.38769904959E+03  0.00000000000E+00 0. -1.
          2    1    1    2  502    0 -0.36436003600E+02 -0.16322092261E+02  0.10166232992E+03  0.10922097957E+03  0.00000000000E+00 0. -1.
</event>
<event>
 4    1  0.6089441E+003  0.2544804E+02  0.7546771E-02  0.1463853E+00
          2   -1    0    0  501    0  0.00000000000E+00  0.00000000000E+00  0.11213863296E+03  0.11213863296E+03  0.00000000000E+00 0.  1.
          2   -1    0    0  502    0 -0.00000000000E+00 -0.00000000000E+00 -0.16312110056E+02  0.16312110056E+02  0.00000000000E+00 0.  1.
          2    1    1    2  501    0  0.88702110904E+01 -0.23852087444E+02 -0.37060162235E+01  0.25716478695E+02  0.00000000000E+00 0.  1.
          2    1    1    2  502    0 -0.88702110904E+01  0.23852087444E+02  0.99532539123E+02  0.10273426432E+03  0.00000000000E+00 0.  1.
</event>
<event>
 4    1  0.6089441E+003  0.5535141E+02  0.7546771E-02  0.1276501E+00
          2   -1    0    0  502    0  0.00000000000E+00  0.00000000000E+00  0.17455436290E+02  0.17455436290E+02  0.00000000000E+00 0. -1.
          2   -1    0    0  501    0 -0.00000000000E+00 -0.00000000000E+00 -0.14410905447E+04  0.14410905447E+04  0.00000000000E+00 0. -1.
          2    1    1    2  501    0  0.47054613110E+01 -0.55151044328E+02 -0.28397583567E+02  0.62210946055E+02  0.00000000000E+00 0. -1.
          2    1    1    2  502    0 -0.47054613110E+01  0.55151044328E+02 -0.13952375249E+04  0.13963350349E+04  0.00000000000E+00 0. -1.
</event>
<event>
 4    1  0.6089441E+003  0.5222300E+02  0.7546771E-02  0.1288812E+00
          2   -1    0    0  502    0  0.00000000000E+00  0.00000000000E+00  0.40601454216E+02  0.40601454216E+02  0.00000000000E+00 0. -1.
          2   -1    0    0  501    0 -0.00000000000E+00 -0.00000000000E+00 -0.22043231379E+03  0.22043231379E+03  0.00000000000E+00 0.  1.
          2    1    1    2  501    0 -0.41918423976E+02 -0.31146223037E+02  0.18913735307E+02  0.55542514000E+02  0.00000000000E+00 0. -1.
          2    1    1    2  502    0  0.41918423976E+02  0.31146223037E+02 -0.19874459488E+03  0.20549125400E+03  0.00000000000E+00 0.  1.
</event>
<event>
 4    1  0.6089441E+003  0.2073995E+02  0.7546771E-02  0.1523010E+00
          2   -1    0    0  502    0  0.00000000000E+00  0.00000000000E+00  0.56191332964E+03  0.56191332964E+03  0.00000000000E+00 0. -1.
          2   -1    0    0  501    0 -0.00000000000E+00 -0.00000000000E+00 -0.51147385835E+03  0.51147385835E+03  0.00000000000E+00 0.  1.
          2    1    1    2  501    0 -0.10407246407E+02  0.17939749352E+02  0.56151155595E+03  0.56189444992E+03  0.00000000000E+00 0. -1.
          2    1    1    2  502    0  0.10407246407E+02 -0.17939749352E+02 -0.51107208466E+03  0.51149273807E+03  0.00000000000E+00 0.  1.
</event>
<event>
 4    1  0.6089441E+003  0.2018091E+02  0.7546771E-02  0.1531288E+00
          2   -1    0    0  501    0  0.00000000000E+00  0.00000000000E+00  0.16617596208E+02  0.16617596208E+02  0.00000000000E+00 0. -1.
          2   -1    0    0  502    0 -0.00000000000E+00 -0.00000000000E+00 -0.17904595075E+03  0.17904595075E+03  0.00000000000E+00 0.  1.
          2    1    1    2  501    0 -0.17462706960E+02 -0.10115478853E+02 -0.17210391002E+03  0.17328307733E+03  0.00000000000E+00 0.  1.
          2    1    1    2  502    0  0.17462706960E+02  0.10115478853E+02  0.96755554766E+01  0.22380469624E+02  0.00000000000E+00 0. -1.
</event>
<event>
 4    1  0.6089441E+003  0.3696036E+02  0.7546771E-02  0.1367282E+00
          2   -1    0    0  502    0  0.00000000000E+00  0.00000000000E+00  0.16523465587E+03  0.16523465587E+03  0.00000000000E+00 0. -1.
          2   -1    0    0  501    0 -0.00000000000E+00 -0.00000000000E+00 -0.20484370257E+02  0.20484370257E+02  0.00000000000E+00 0. -1.
          2    1    1    2  501    0  0.15837117841E+02  0.33395414686E+02  0.14408784634E+03  0.14875273270E+03  0.00000000000E+00 0. -1.
          2    1    1    2  502    0 -0.15837117841E+02 -0.33395414686E+02  0.66243927020E+00  0.36966293422E+02  0.00000000000E+00 0. -1.
</event>
<event>
 4    1  0.6089441E+003  0.4241825E+02  0.7546771E-02  0.1334869E+00
          2   -1    0    0  501    0  0.00000000000E+00  0.00000000000E+00  0.20878602825E+03  0.20878602825E+03  0.00000000000E+00 0. -1.
          2   -1    0    0  502    0 -0.00000000000E+00 -0.00000000000E+00 -0.15236584693E+03  0.15236584693E+03  0.00000000000E+00 0. -1.
          2    1    1    2  501    0 -0.23035741911E+02 -0.35618292257E+02 -0.14718474788E+03  0.15317525308E+03  0.00000000000E+00 0. -1.
          2    1    1    2  502    0  0.23035741911E+02  0.35618292257E+02  0.20360492919E+03  0.20797662210E+03  0.00000000000E+00 0. -1.
</event>
<event>
 4    1  0.6089441E+003  0.2034169E+02  0.7546771E-02  0.1528875E+00
          2   -1    0    0  502    0  0.00000000000E+00  0.00000000000E+00  0.45834082832E+03  0.45834082832E+03  0.00000000000E+00 0.  1.
          2   -1    0    0  501    0 -0.00000000000E+00 -0.00000000000E+00 -0.18318123587E+01  0.18318123587E+01  0.00000000000E+00 0.  1.
          2    1    1    2  501    0  0.19757058672E+02 -0.48417826596E+01  0.39211114876E+03  0.39263843063E+03  0.00000000000E+00 0.  1.
          2    1    1    2  502    0 -0.19757058672E+02  0.48417826596E+01  0.64397867206E+02  0.67534210052E+02  0.00000000000E+00 0.  1.
</event>
<event>
 4    1  0.6089441E+003  0.2045284E+02  0.7546771E-02  0.1527222E+00
          2   -1    0    0  502    0  0.00000000000E+00  0.00000000000E+00  0.97469748285E+02  0.97469748285E+02  0.00000000000E+00 0. -1.
          2   -1    0    0  501    0 -0.00000000000E+00 -0.00000000000E+00 -0.16258093634E+03  0.16258093634E+03  0.00000000000E+00 0.  1.
          2    1    1    2  501    0 -0.10508059938E+02  0.17547060253E+02  0.95742078771E+02  0.97902320169E+02  0.00000000000E+00 0. -1.
          2    1    1    2  502    0  0.10508059938E+02 -0.17547060253E+02 -0.16085326683E+03  0.16214836446E+03  0.00000000000E+00 0.  1.
</event>
<event>
 4    1  0.6089441E+003  0.2182638E+02  0.7546771E-02  0.1507786E+00
          2   -1    0    0  502    0  0.00000000000E+00  0.00000000000E+00  0.11748486993E+03  0.11748486993E+03  0.00000000000E+00 0. -1.
          2   -1    0    0  501    0 -0.00000000000E+00 -0.00000000000E+00 -0.90983748754E+01  0.90983748754E+01  0.00000000000E+00 0. -1.
          2    1    1    2  501    0 -0.19611333530E+02 -0.95805207052E+01  0.10131579275E+03  0.10364014975E+03  0.00000000000E+00 0. -1.
          2    1    1    2  502    0  0.19611333530E+02  0.95805207052E+01  0.70707023103E+01  0.22943095060E+02  0.00000000000E+00 0. -1.
</event>
<event>
 4    1  0.6089441E+003  0.5495848E+02  0.7546771E-02  0.1277996E+00
          2   -1    0    0  502    0  0.00000000000E+00  0.00000000000E+00  0.13885475328E+02  0.13885475328E+02  0.00000000000E+00 0.  1.
          2   -1    0    0  501    0 -0.00000000000E+00 -0.00000000000E+00 -0.82008909711E+03  0.82008909711E+03  0.00000000000E+00 0.  1.
          2    1    1    2  501    0  0.54797641156E+02  0.42015377281E+01 -0.45669330919E+02  0.71457135278E+02  0.00000000000E+00 0.  1.
          2    1    1    2  502    0 -0.54797641156E+02 -0.42015377281E+01 -0.76053429087E+03  0.76251743716E+03  0.00000000000E+00 0.  1.
</event>
<event>
 4    1  0.6089441E+003  0.2171957E+02  0.7546771E-02  0.1509234E+00
          2   -1    0    0  501    0  0.00000000000E+00  0.00000000000E+00  0.48640997483E+01  0.48640997483E+01  0.00000000000E+00 0.  1.
          2   -1    0    0  502    0 -0.00000000000E+00 -0.00000000000E+00 -0.98740208427E+02  0.98740208427E+02  0.00000000000E+00 0.  1.
          2    1    1    2  501    0 -0.21249430002E+02  0.44946072252E+01 -0.40029441212E+02  0.45542243393E+02  0.00000000000E+00 0.  1.
          2    1    1    2  502    0  0.21249430002E+02 -0.44946072252E+01 -0.53846667467E+02  0.58062064782E+02  0.00000000000E+00 0.  1.
</event>
<event>
 4    1  0.6089441E+003  0.3421909E+02  0.7546771E-02  0.1386138E+00
          2   -1    0    0  501    0  0.00000000000E+00  0.00000000000E+00  0.84215570693E+03  0.84215570693E+03  0.00000000000E+00 0.  1.
          2   -1    0    0  502    0 -0.00000000000E+00 -0.00000000000E+00 -0.13584161830E+02  0.13584161830E+02  0.00000000000E+00 0.  1.
          2    1    1    2  501    0 -0.31525516390E+02  0.13307433910E+02  0.89042654815E+01  0.35358618818E+02  0.00000000000E+00 0.  1.
          2    1    1    2  502    0  0.31525516390E+02 -0.13307433910E+02  0.81966727962E+03  0.82038124995E+03  0.00000000000E+00 0.  1.
</event>
<event>
 4    1  0.6089441E+003  0.3885060E+02  0.7546771E-02  0.1355356E+00
          2   -1    0    0  502    0  0.00000000000E+00  0.00000000000E+00  0.13763098849E+03  0.13763098849E+03  0.00000000000E+00 0.  1.
          2   -1    0    0  501    0 -0.00000000000E+00 -0.00000000000E+00 -0.56474664673E+02  0.56474664673E+02  0.00000000000E+00 0. -1.
          2    1    1    2  501    0  0.38357941661E+02 -0.61674744563E+01  0.12769952456E+03  0.13347860503E+03  0.00000000000E+00 0.  1.
          2    1    1    2  502    0 -0.38357941661E+02  0.61674744563E+01 -0.46543200741E+02  0.60627048129E+02  0.00000000000E+00 0. -1.
</event>
<event>
 4    1  0.6089441E+003  0.6983699E+02  0.7546771E-02  0.1229636E+00
          2   -1    0    0  502    0  0.00000000000E+00  0.00000000000E+00  0.71457609705E+02  0.71457609705E+02  0.00000000000E+00 0. -1.
          2   -1    0    0  501    0 -0.00000000000E+00 -0.00000000000E+00 -0.20837211340E+03  0.20837211340E+03  0.00000000000E+00 0.  1.
          2    1    1    2  501    0 -0.24548479981E+02 -0.65380251862E+02  0.46276856436E+02  0.83777996183E+02  0.00000000000E+00 0. -1.
          2    1    1    2  502    0  0.24548479981E+02  0.65380251862E+02 -0.18319136013E+03  0.19605172693E+03  0.00000000000E+00 0.  1.
</event>
<event>
 4    1  0.6089441E+003  0.2550579E+02  0.7546771E-02  0.1463224E+00
          2   -1    0    0  501    0  0.00000000000E+00  0.00000000000E+00  0.58063488258E+00  0.58063488258E+00  0.00000000000E+00 0. -1.
          2   -1    0    0  502    0 -0.00000000000E+00 -0.00000000000E+00 -0.12034535076E+04  0.12034535076E+04  0.00000000000E+00 0. -1.
          2    1    1    2  501    0 -0.23186463863E+02  0.10627004500E+02 -0.75958457771E+03  0.76001268149E+03  0.00000000000E+00 0. -1.
          2    1    1    2  502    0  0.23186463863E+02 -0.10627004500E+02 -0.44328829496E+03  0.44402146095E+03  0.00000000000E+00 0. -1.
</event>
<event>
 4    1  0.6089441E+003  0.2175803E+02  0.7546771E-02  0.1508711E+00
          2   -1    0    0  501    0  0.00000000000E+00  0.00000000000E+00  0.66011204194E+01  0.66011204194E+01  0.00000000000E+00 0.  1.
          2   -1    0    0  502    0 -0.00000000000E+00 -0.00000000000E+00 -0.17676968795E+03  0.17676968795E+03  0.00000000000E+00 0. -1.
          2    1    1    2  501    0 -0.18539209597E+02  0.11389019398E+02 -0.15576485433E+03  0.15727714996E+03  0.00000000000E+00 0. -1.
          2    1    1    2  502    0  0.18539209597E+02 -0.11389019398E+02 -0.14403713208E+02  0.26093658416E+02  0.00000000000E+00 0.  1.
</event>
<event>
 4    1  0.6089441E+003  0.2842900E+02  0.7546771E-02  0.1433758E+00
          2   -1    0    0  501    0  0.00000000000E+00  0.00000000000E+00  0.88203879964E+02  0.88203879964E+02  0.00000000000E+00 0. -1.
          2   -1    0    0  502    0 -0.00000000000E+00 -0.00000000000E+00 -0.13956466752E+04  0.13956466752E+04  0.00000000000E+00 0.  1.
          2    1    1    2  501    0 -0.89007985049E+01 -0.26999702539E+02 -0.13932071528E+04  0.13934971757E+04  0.00000000000E+00 0.  1.
          2    1    1    2  502    0  0.89007985049E+01  0.26999702539E+02  0.85764357552E+02  0.90353379447E+02  0.00000000000E+00 0. -1.
</event>
<event>
 4    1  0.6089441E+003  0.2098027E+02  0.7546771E-02  0.1519547E+00
          2   -1    0    0  501    0  0.00000000000E+00  0.00000000000E+00  0.70822884478E+01  0.70822884478E+01  0.00000000000E+00 0.  1.
          2   -1    0    0  502    0 -0.00000000000E+00 -0.00000000000E+00 -0.57663529322E+03  0.57663529322E+03  0.00000000000E+00 0. -1.
          2    1    1    2  501    0 -0.11797542225E+02  0.17349061240E+02 -0.56045836366E+03  0.56085091542E+03  0.00000000000E+00 0. -1.
          2    1    1    2  502    0  0.11797542225E+02 -0.17349061240E+02 -0.90946411141E+01  0.22866666252E+02  0.00000000000E+00 0.  1.
</event>
<event>
 4    1  0.1327709E+004  0.2197684E+02  0.7546771E-02  0.1505762E+00
          2   -1    0    0  501    0  0.00000000000E+00  0.00000000000E+00  0.78795945630E+03  0.78795945630E+03  0.00000000000E+00 0. -1.
          2   -1    0    0  502    0 -0.00000000000E+00 -0.00000000000E+00 -0.14360015267E+04  0.14360015267E+04  0.00000000000E+00 0.  1.
          2    1    1    2  501    0  0.20842918532E+02 -0.69681009478E+01 -0.14357641788E+04  0.14359323657E+04  0.00000000000E+00 0.  1.
          2    1    1    2  502    0 -0.20842918532E+02  0.69681009478E+01  0.78772210839E+03  0.78802861733E+03  0.00000000000E+00 0. -1.
</event>
<event>
 4    1  0.6089441E+003  0.2191536E+02  0.7546771E-02  0.1506586E+00
          2   -1    0    0  501    0  0.00000000000E+00  0.00000000000E+00  0.73562358195E+02  0.73562358195E+02  0.00000000000E+00 0.  1.
          2   -1    0    0  502    0 -0.00000000000E+00 -0.00000000000E+00 -0.14314220268E+04  0.14314220268E+04  0.00000000000E+00 0.  1.
          2    1    1    2  501    0  0.20615329506E+02 -0.74358082529E+01 -0.14297039523E+04  0.14298719083E+04  0.00000000000E+00 0.  1.
          2    1    1    2  502    0 -0.20615329506E+02  0.74358082529E+01  0.71844283673E+02  0.75112476670E+02  0.00000000000E+00 0.  1.
</event>
<event>
 4    1  0.6089441E+003  0.2557485E+02  0.7546771E-02  0.1462474E+00
          2   -1    0    0  501    0  0.00000000000E+00  0.00000000000E+00  0.78782357645E+03  0.78782357645E+03  0.00000000000E+00 0. -1.
          2   -1    0    0  502    0 -0.00000000000E+00 -0.00000000000E+00 -0.12046760407E+02  0.12046760407E+02  0.00000000000E+00 0.  1.
          2    1    1    2  501    0 -0.15477082010E+01 -0.25527973570E+02  0.19804134046E+01  0.25651410731E+02  0.00000000000E+00 0.  1.
          2    1    1    2  502    0  0.15477082010E+01  0.25527973570E+02  0.77379640264E+03  0.77421892613E+03  0.00000000000E+00 0. -1.
</event>
<event>
 4    1  0.6089441E+003  0.2576637E+02  0.7546771E-02  0.1460410E+00
          2   -1    0    0  501    0  0.00000000000E+00  0.00000000000E+00  0.16940829112E+02  0.16940829112E+02  0.00000000000E+00 0.  1.
          2   -1    0    0  502    0 -0.00000000000E+00 -0.00000000000E+00 -0.88603394040E+03  0.88603394040E+03  0.00000000000E+00 0.  1.
          2    1    1    2  501    0  0.24869437787E+02  0.67392121224E+01 -0.87593627274E+03  0.87631516009E+03  0.00000000000E+00 0.  1.
          2    1    1    2  502    0 -0.24869437787E+02 -0.67392121224E+01  0.68431614461E+01  0.26659609421E+02  0.00000000000E+00 0.  1.
</event>
<event>
 4    1  0.6089441E+003  0.2725232E+02  0.7546771E-02  0.1445090E+00
          2   -1    0    0  501    0  0.00000000000E+00  0.00000000000E+00  0.25437933492E+01  0.25437933492E+01  0.00000000000E+00 0. -1.
          2   -1    0    0  502    0 -0.00000000000E+00 -0.00000000000E+00 -0.94933421534E+03  0.94933421534E+03  0.00000000000E+00 0. -1.
          2    1    1    2  501    0  0.25317131035E+02  0.10086226086E+02 -0.86944305313E+03  0.86987005450E+03  0.00000000000E+00 0. -1.
          2    1    1    2  502    0 -0.25317131035E+02 -0.10086226086E+02 -0.77347368858E+02  0.82007954186E+02  0.00000000000E+00 0. -1.
</event>
<event>
 4    1  0.6089441E+003  0.2365557E+02  0.7546771E-02  0.1484426E+00
          2   -1    0    0  501    0  0.00000000000E+00  0.00000000000E+00  0.60821408931E+02  0.60821408931E+02  0.00000000000E+00 0.  1.
          2   -1    0    0  502    0 -0.00000000000E+00 -0.00000000000E+00 -0.12677129336E+02  0.12677129336E+02  0.00000000000E+00 0. -1.
          2    1    1    2  501    0  0.13431151754E+02 -0.19472806845E+02  0.48271003460E+01  0.24143051622E+02  0.00000000000E+00 0. -1.
          2    1    1    2  502    0 -0.13431151754E+02  0.19472806845E+02  0.43317179250E+02  0.49355486645E+02  0.00000000000E+00 0.  1.
</event>
<event>
 4    1  0.6089441E+003  0.2430229E+02  0.7546771E-02  0.1476762E+00
          2   -1    0    0  501    0  0.00000000000E+00  0.00000000000E+00  0.13193837777E+04  0.13193837777E+04  0.00000000000E+00 0.  1.
          2   -1    0    0  502    0 -0.00000000000E+00 -0.00000000000E+00 -0.95058179540E+00  0.95058179540E+00  0.00000000000E+00 0. -1.
          2    1    1    2  501    0 -0.14270245007E+02 -0.19671328492E+02  0.17901828357E+03  0.18066030807E+03  0.00000000000E+00 0. -1.
          2    1    1    2  502    0  0.14270245007E+02  0.19671328492E+02  0.11394149123E+04  0.11396740514E+04  0.00000000000E+00 0.  1.
</event>
<event>
 4    1  0.6089441E+003  0.2996983E+02  0.7546771E-02  0.1419859E+00
          2   -1    0    0  502    0  0.00000000000E+00  0.00000000000E+00  0.17141867414E+03  0.17141867414E+03  0.00000000000E+00 0.  1.
          2   -1    0    0  501    0 -0.00000000000E+00 -0.00000000000E+00 -0.56403660458E+02  0.56403660458E+02  0.00000000000E+00 0. -1.
          2    1    1    2  501    0 -0.26454683093E+02 -0.14083345930E+02  0.16599870994E+03  0.16868243119E+03  0.00000000000E+00 0.  1.
          2    1    1    2  502    0  0.26454683093E+02  0.14083345930E+02 -0.50983696262E+02  0.59139903405E+02  0.00000000000E+00 0. -1.
</event>
<event>
 4    1  0.6089441E+003  0.2037231E+02  0.7546771E-02  0.1528418E+00
          2   -1    0    0  502    0  0.00000000000E+00  0.00000000000E+00  0.56777223876E+02  0.56777223876E+02  0.00000000000E+00 0.  1.
          2   -1    0    0  501    0 -0.00000000000E+00 -0.00000000000E+00 -0.26879247442E+02  0.26879247442E+02  0.00000000000E+00 0.  1.
          2    1    1    2  501    0 -0.82227173145E+00  0.20355706423E+02  0.50639282248E+02  0.54583585640E+02  0.00000000000E+00 0.  1.
          2    1    1    2  502    0  0.82227173145E+00 -0.20355706423E+02 -0.20741305814E+02  0.29072885677E+02  0.00000000000E+00 0.  1.
</event>
<event>
 4    1  0.6089441E+003  0.2556016E+02  0.7546771E-02  0.1462633E+00
          2   -1    0    0  501    0  0.00000000000E+00  0.00000000000E+00  0.95939264102E+00  0.95939264102E+00  0.00000000000E+00 0. -1.
          2   -1    0    0  502    0 -0.00000000000E+00 -0.00000000000E+00 -0.79220129115E+03  0.79220129115E+03  0.00000000000E+00 0. -1.
          2    1    1    2  501    0  0.42214091182E+01 -0.25209157170E+02 -0.54422072791E+03  0.54482063341E+03  0.00000000000E+00 0. -1.
          2    1    1    2  502    0 -0.42214091182E+01  0.25209157170E+02 -0.24702117060E+03  0.24834005039E+03  0.00000000000E+00 0. -1.
</event>
<event>
 4    1  0.6089441E+003  0.5557040E+02  0.7546771E-02  0.1275674E+00
          2   -1    0    0  501    0  0.00000000000E+00  0.00000000000E+00  0.12078641869E+04  0.12078641869E+04  0.00000000000E+00 0.  1.
          2   -1    0    0  502    0 -0.00000000000E+00 -0.00000000000E+00 -0.99100923891E+01  0.99100923891E+01  0.00000000000E+00 0. -1.
          2    1    1    2  501    0 -0.55388989768E+02 -0.44866029853E+01  0.74479221256E+02  0.92925907005E+02  0.00000000000E+00 0. -1.
          2    1    1    2  502    0  0.55388989768E+02  0.44866029853E+01  0.11234748733E+04  0.11248483723E+04  0.00000000000E+00 0.  1.
</event>
<event>
 4    1  0.6089441E+003  0.2407889E+02  0.7546771E-02  0.1479377E+00
          2   -1    0    0  502    0  0.00000000000E+00  0.00000000000E+00  0.10375192919E+04  0.10375192919E+04  0.00000000000E+00 0. -1.
          2   -1    0    0  501    0 -0.00000000000E+00 -0.00000000000E+00 -0.24539021875E+01  0.24539021875E+01  0.00000000000E+00 0. -1.
          2    1    1    2  501    0 -0.23618025213E+02 -0.46884737096E+01  0.97449128621E+03  0.97478872573E+03  0.00000000000E+00 0. -1.
          2    1    1    2  502    0  0.23618025213E+02  0.46884737096E+01  0.60574103509E+02  0.65184468370E+02  0.00000000000E+00 0. -1.
</event>
<event>
 4    1  0.6089441E+003  0.3529286E+02  0.7546771E-02  0.1378516E+00
          2   -1    0    0  502    0  0.00000000000E+00  0.00000000000E+00  0.12697676670E+01  0.12697676670E+01  0.00000000000E+00 0. -1.
          2   -1    0    0  501    0 -0.00000000000E+00 -0.00000000000E+00 -0.27252204278E+04  0.27252204278E+04  0.00000000000E+00 0. -1.
          2    1    1    2  501    0 -0.35942752697E+01  0.35109356305E+02 -0.27134056420E+03  0.27362618203E+03  0.00000000000E+00 0. -1.
          2    1    1    2  502    0  0.35942752697E+01 -0.35109356305E+02 -0.24526100960E+04  0.24528640135E+04  0.00000000000E+00 0. -1.
</event>
<event>
 4    1  0.6089441E+003  0.2010931E+02  0.7546771E-02  0.1532371E+00
          2   -1    0    0  501    0  0.00000000000E+00  0.00000000000E+00  0.81185270392E+01  0.81185270392E+01  0.00000000000E+00 0. -1.
          2   -1    0    0  502    0 -0.00000000000E+00 -0.00000000000E+00 -0.16052888089E+03  0.16052888089E+03  0.00000000000E+00 0.  1.
          2    1    1    2  501    0  0.18130773386E+02 -0.86982339168E+01 -0.14623513020E+03  0.14761130554E+03  0.00000000000E+00 0.  1.
          2    1    1    2  502    0 -0.18130773386E+02  0.86982339168E+01 -0.61752236505E+01  0.21036102395E+02  0.00000000000E+00 0. -1.
</event>
<event>
 4    1  0.6089441E+003  0.2125564E+02  0.7546771E-02  0.1515646E+00
          2   -1    0    0  502    0  0.00000000000E+00  0.00000000000E+00  0.13167091467E+01  0.13167091467E+01  0.00000000000E+00 0.  1.
          2   -1    0    0  501    0 -0.00000000000E+00 -0.00000000000E+00 -0.35806667402E+03  0.35806667402E+03  0.00000000000E+00 0.  1.
          2    1    1    2  501    0  0.21068388363E+02  0.28151816890E+01 -0.14167423479E+03  0.14325987240E+03  0.00000000000E+00 0.  1.
          2    1    1    2  502    0 -0.21068388363E+02 -0.28151816890E+01 -0.21507573008E+03  0.21612351077E+03  0.00000000000E+00 0.  1.
</event>
<event>
 4    1  0.6089441E+003  0.2612740E+02  0.7546771E-02  0.1456576E+00
          2   -1    0    0  501    0  0.00000000000E+00  0.00000000000E+00  0.48781700482E+03  0.48781700482E+03  0.00000000000E+00 0.  1.
          2   -1    0    0  502    0 -0.00000000000E+00 -0.00000000000E+00 -0.29860112482E+01  0.29860112482E+01  0.00000000000E+00 0. -1.
          2    1    1    2  501    0 -0.23900077098E+02  0.10555918870E+02  0.63532286677E+02  0.68694923822E+02  0.00000000000E+00 0. -1.
          2    1    1    2  502    0  0.23900077098E+02 -0.10555918870E+02  0.42129870690E+03  0.42210809225E+03  0.00000000000E+00 0.  1.
</event>
<event>
 4    1  0.6089441E+003  0.2118633E+02  0.7546771E-02  0.1516621E+00
          2   -1    0    0  501    0  0.00000000000E+00  0.00000000000E+00  0.71557159401E+01  0.71557159401E+01  0.00000000000E+00 0. -1.
          2   -1    0    0  502    0 -0.00000000000E+00 -0.00000000000E+00 -0.40917237306E+03  0.40917237306E+03  0.00000000000E+00 0. -1.
          2    1    1    2  501    0 -0.21145908592E+02  0.13080444883E+01 -0.39255279611E+03  0.39312410021E+03  0.00000000000E+00 0. -1.
          2    1    1    2  502    0  0.21145908592E+02 -0.13080444883E+01 -0.94638610067E+01  0.23203988789E+02  0.00000000000E+00 0. -1.
</event>
<event>
 4    1  0.6089441E+003  0.4376024E+02  0.7546771E-02  0.1327756E+00
          2   -1    0    0  501    0  0.00000000000E+00  0.00000000000E+00  0.47404033950E+01  0.47404033950E+01  0.00000000000E+00 0.  1.
          2   -1    0    0  502    0 -0.00000000000E+00 -0.00000000000E+00 -0.65731063017E+03  0.65731063017E+03  0.00000000000E+00 0.  1.
          2    1    1    2  501    0  0.91586571206E+00 -0.43750654761E+02 -0.53179493105E+03  0.53359236060E+03  0.00000000000E+00 0.  1.
          2    1    1    2  502    0 -0.91586571206E+00  0.43750654761E+02 -0.12077529573E+03  0.12845867296E+03  0.00000000000E+00 0.  1.
</event>
<event>
 4    1  0.6089441E+003  0.3648521E+02  0.7546771E-02  0.1370412E+00
          2   -1    0    0  501    0  0.00000000000E+00  0.00000000000E+00  0.19486471534E+04  0.19486471534E+04  0.00000000000E+00 0. -1.
          2   -1    0    0  502    0 -0.00000000000E+00 -0.00000000000E+00 -0.25202975917E+02  0.25202975917E+02  0.00000000000E+00 0. -1.
          2    1    1    2  501    0 -0.33383245369E+02  0.14721738597E+02 -0.11735812130E+02  0.38326230510E+02  0.00000000000E+00 0. -1.
          2    1    1    2  502    0  0.33383245369E+02 -0.14721738597E+02  0.19351799896E+04  0.19355238988E+04  0.00000000000E+00 0. -1.
</event>
<event>
 4    1  0.6089441E+003  0.3775651E+02  0.7546771E-02  0.1362159E+00
          2   -1    0    0  501    0  0.00000000000E+00  0.00000000000E+00  0.33635665047E+03  0.33635665047E+03  0.00000000000E+00 0.  1.
          2   -1    0    0  502    0 -0.00000000000E+00 -0.00000000000E+00 -0.29844687618E+02  0.29844687618E+02  0.00000000000E+00 0. -1.
          2    1    1    2  501    0  0.35729002970E+02 -0.12206248450E+02 -0.16346121017E+02  0.41143041049E+02  0.00000000000E+00 0. -1.
          2    1    1    2  502    0 -0.35729002970E+02  0.12206248450E+02  0.32285808387E+03  0.32505829704E+03  0.00000000000E+00 0.  1.
</event>
<event>
 4    1  0.6089441E+003  0.2841575E+02  0.7546771E-02  0.1433882E+00
          2   -1    0    0  501    0  0.00000000000E+00  0.00000000000E+00  0.34935116685E+02  0.34935116685E+02  0.00000000000E+00 0.  1.
          2   -1    0    0  502    0 -0.00000000000E+00 -0.00000000000E+00 -0.12055924358E+04  0.12055924358E+04  0.00000000000E+00 0.  1.
          2    1    1    2  501    0  0.53440075770E+01 -0.27908715491E+02 -0.11996179769E+04  0.11999544763E+04  0.00000000000E+00 0.  1.
          2    1    1    2  502    0 -0.53440075770E+01  0.27908715491E+02  0.28960657714E+02  0.40573076203E+02  0.00000000000E+00 0.  1.
</event>
<event>
 4    1  0.6089441E+003  0.2044726E+02  0.7546771E-02  0.1527305E+00
          2   -1    0    0  501    0  0.00000000000E+00  0.00000000000E+00  0.85424379125E+01  0.85424379125E+01  0.00000000000E+00 0. -1.
          2   -1    0    0  502    0 -0.00000000000E+00 -0.00000000000E+00 -0.49962731503E+02  0.49962731503E+02  0.00000000000E+00 0.  1.
          2    1    1    2  501    0 -0.15357510839E+02 -0.13499532718E+02 -0.16530550600E+02  0.26293528214E+02  0.00000000000E+00 0. -1.
          2    1    1    2  502    0  0.15357510839E+02  0.13499532718E+02 -0.24889742990E+02  0.32211641202E+02  0.00000000000E+00 0.  1.
</event>
<event>
 4    1  0.6089441E+003  0.2671283E+02  0.7546771E-02  0.1450514E+00
          2   -1    0    0  502    0  0.00000000000E+00  0.00000000000E+00  0.82376821741E+03  0.82376821741E+03  0.00000000000E+00 0. -1.
          2   -1    0    0  501    0 -0.00000000000E+00 -0.00000000000E+00 -0.34633022208E+03  0.34633022208E+03  0.00000000000E+00 0.  1.
          2    1    1    2  501    0  0.16818593000E+01 -0.26659833843E+02  0.82303610349E+03  0.82346949126E+03  0.00000000000E+00 0. -1.
          2    1    1    2  502    0 -0.16818593000E+01  0.26659833843E+02 -0.34559810816E+03  0.34662894824E+03  0.00000000000E+00 0.  1.
</event>
<event>
 4    1  0.6089441E+003  0.2190890E+02  0.7546771E-02  0.1506673E+00
          2   -1    0    0  502    0  0.00000000000E+00  0.00000000000E+00  0.42471349354E+02  0.42471349354E+02  0.00000000000E+00 0.  1.
          2   -1    0    0  501    0 -0.00000000000E+00 -0.00000000000E+00 -0.11030851773E+04  0.11030851773E+04  0.00000000000E+00 0. -1.
          2    1    1    2  501    0 -0.14988131059E+02 -0.15979856012E+02  0.39529575783E+02  0.45194991231E+02  0.00000000000E+00 0.  1.
          2    1    1    2  502    0  0.14988131059E+02  0.15979856012E+02 -0.11001434038E+04  0.11003615355E+04  0.00000000000E+00 0. -1.
</event>
<event>
 4    1  0.6089441E+003  0.2417894E+02  0.7546771E-02  0.1478202E+00
          2   -1    0    0  502    0  0.00000000000E+00  0.00000000000E+00  0.39442848649E+03  0.39442848649E+03  0.00000000000E+00 0. -1.
          2   -1    0    0  501    0 -0.00000000000E+00 -0.00000000000E+00 -0.25744117632E+03  0.25744117632E+03  0.00000000000E+00 0.  1.
          2    1    1    2  501    0  0.23321865868E+02  0.63805682307E+01  0.39348885963E+03  0.39423102837E+03  0.00000000000E+00 0. -1.
          2    1    1    2  502    0 -0.23321865868E+02 -0.63805682307E+01 -0.25650154946E+03  0.25763863444E+03  0.00000000000E+00 0.  1.
</event>
<event>
 4    1  0.6089441E+003  0.2161294E+02  0.7546771E-02  0.1510691E+00
          2   -1    0    0  502    0  0.00000000000E+00  0.00000000000E+00  0.60582186117E+01  0.60582186117E+01  0.00000000000E+00 0. -1.
          2   -1    0    0  501    0 -0.00000000000E+00 -0.00000000000E+00 -0.36648399122E+03  0.36648399122E+03  0.00000000000E+00 0. -1.
          2    1    1    2  501    0 -0.48496585326E+01 -0.21061813073E+02 -0.14692512138E+02  0.26134059591E+02  0.00000000000E+00 0. -1.
          2    1    1    2  502    0  0.48496585326E+01  0.21061813073E+02 -0.34573326047E+03  0.34640815024E+03  0.00000000000E+00 0. -1.
</event>
<event>
 4    1  0.6089441E+003  0.3147443E+02  0.7546771E-02  0.1407202E+00
          2   -1    0    0  502    0  0.00000000000E+00  0.00000000000E+00  0.13239162678E+04  0.13239162678E+04  0.00000000000E+00 0.  1.
          2   -1    0    0  501    0 -0.00000000000E+00 -0.00000000000E+00 -0.34874180927E+02  0.34874180927E+02  0.00000000000E+00 0.  1.
          2    1    1    2  501    0 -0.65802448996E+00  0.31467554033E+02  0.13165881518E+04  0.13169643129E+04  0.00000000000E+00 0.  1.
          2    1    1    2  502    0  0.65802448996E+00 -0.31467554033E+02 -0.27546064879E+02  0.41826135889E+02  0.00000000000E+00 0.  1.
</event>
<event>
 4    1  0.6089441E+003  0.4057011E+02  0.7546771E-02  0.1345177E+00
          2   -1    0    0  502    0  0.00000000000E+00  0.00000000000E+00  0.19099405352E+02  0.19099405352E+02  0.00000000000E+00 0.  1.
          2   -1    0    0  501    0 -0.00000000000E+00 -0.00000000000E+00 -0.74472881689E+03  0.74472881689E+03  0.00000000000E+00 0. -1.
          2    1    1    2  501    0 -0.39687750978E+02  0.84152563624E+01 -0.36765721827E+01  0.40736363367E+02  0.00000000000E+00 0.  1.
          2    1    1    2  502    0  0.39687750978E+02 -0.84152563624E+01 -0.72195283935E+03  0.72309185887E+03  0.00000000000E+00 0. -1.
</event>
<event>
 4    1  0.6089441E+003  0.2600416E+02  0.7546771E-02  0.1457876E+00
          2   -1    0    0  502    0  0.00000000000E+00  0.00000000000E+00  0.16686792606E+04  0.16686792606E+04  0.00000000000E+00 0.  1.
          2   -1    0    0  501    0 -0.00000000000E+00 -0.00000000000E+00 -0.53740901150E+01  0.53740901150E+01  0.00000000000E+00 0.  1.
          2    1    1    2  501    0 -0.24600949894E+02  0.84267049462E+01  0.16365022388E+04  0.16367088299E+04  0.00000000000E+00 0.  1.
          2    1    1    2  502    0  0.24600949894E+02 -0.84267049462E+01  0.26802931675E+02  0.37344520860E+02  0.00000000000E+00 0.  1.
</event>
<event>
 4    1  0.6089441E+003  0.4132098E+02  0.7546771E-02  0.1340914E+00
          2   -1    0    0  502    0  0.00000000000E+00  0.00000000000E+00  0.11078427945E+01  0.11078427945E+01  0.00000000000E+00 0. -1.
          2   -1    0    0  501    0 -0.00000000000E+00 -0.00000000000E+00 -0.18909021581E+04  0.18909021581E+04  0.00000000000E+00 0.  1.
          2    1    1    2  501    0  0.74084552193E+01 -0.40651419770E+02 -0.53808006629E+03  0.53966432241E+03  0.00000000000E+00 0. -1.
          2    1    1    2  502    0 -0.74084552193E+01  0.40651419770E+02 -0.13517142490E+04  0.13523456785E+04  0.00000000000E+00 0.  1.
</event>
<event>
 4    1  0.6089441E+003  0.2163171E+02  0.7546771E-02  0.1510434E+00
          2   -1    0    0  502    0  0.00000000000E+00  0.00000000000E+00  0.13402141904E+04  0.13402141904E+04  0.00000000000E+00 0.  1.
          2   -1    0    0  501    0 -0.00000000000E+00 -0.00000000000E+00 -0.12281133493E+02  0.12281133493E+02  0.00000000000E+00 0. -1.
          2    1    1    2  501    0  0.52371715112E+01 -0.20988156428E+02  0.13305321975E+04  0.13307080293E+04  0.00000000000E+00 0.  1.
          2    1    1    2  502    0 -0.52371715112E+01  0.20988156428E+02 -0.25991405494E+01  0.21787294629E+02  0.00000000000E+00 0. -1.
</event>
<event>
 4    1  0.6089441E+003  0.2196133E+02  0.7546771E-02  0.1505969E+00
          2   -1    0    0  501    0  0.00000000000E+00  0.00000000000E+00  0.51124099456E+01  0.51124099456E+01  0.00000000000E+00 0.  1.
          2   -1    0    0  502    0 -0.00000000000E+00 -0.00000000000E+00 -0.64175852259E+03  0.64175852259E+03  0.00000000000E+00 0.  1.
          2    1    1    2  501    0  0.12502636459E+02  0.18055033869E+02 -0.61704141774E+03  0.61743211074E+03  0.00000000000E+00 0.  1.
          2    1    1    2  502    0 -0.12502636459E+02 -0.18055033869E+02 -0.19604694906E+02  0.29438821797E+02  0.00000000000E+00 0.  1.
</event>
<event>
 4    1  0.6089441E+003  0.2838128E+02  0.7546771E-02  0.1434205E+00
          2   -1    0    0  501    0  0.00000000000E+00  0.00000000000E+00  0.16895242777E+03  0.16895242777E+03  0.00000000000E+00 0. -1.
          2   -1    0    0  502    0 -0.00000000000E+00 -0.00000000000E+00 -0.10528452346E+04  0.10528452346E+04  0.00000000000E+00 0.  1.
          2    1    1    2  501    0  0.11719631630E+02  0.25848546878E+02 -0.10514604992E+04  0.10518434667E+04  0.00000000000E+00 0.  1.
          2    1    1    2  502    0 -0.11719631630E+02 -0.25848546878E+02  0.16756769229E+03  0.16995419571E+03  0.00000000000E+00 0. -1.
</event>
<event>
 4    1  0.6089441E+003  0.2267517E+02  0.7546771E-02  0.1496618E+00
          2   -1    0    0  502    0  0.00000000000E+00  0.00000000000E+00  0.18442249394E+03  0.18442249394E+03  0.00000000000E+00 0.  1.
          2   -1    0    0  501    0 -0.00000000000E+00 -0.00000000000E+00 -0.70134816022E+03  0.70134816022E+03  0.00000000000E+00 0.  1.
          2    1    1    2  501    0  0.82092747020E+01 -0.21136962319E+02  0.18354134948E+03  0.18493671981E+03  0.00000000000E+00 0.  1.
          2    1    1    2  502    0 -0.82092747020E+01  0.21136962319E+02 -0.70046701576E+03  0.70083393435E+03  0.00000000000E+00 0.  1.
</event>
<event>
 4    1  0.6089441E+003  0.3737351E+02  0.7546771E-02  0.1364605E+00
          2   -1    0    0  501    0  0.00000000000E+00  0.00000000000E+00  0.11821154218E+04  0.11821154218E+04  0.00000000000E+00 0.  1.
          2   -1    0    0  502    0 -0.00000000000E+00 -0.00000000000E+00 -0.27963516047E+01  0.27963516047E+01  0.00000000000E+00 0. -1.
          2    1    1    2  501    0 -0.34576344026E+02 -0.14186450830E+02  0.13945074059E+03  0.14437204717E+03  0.00000000000E+00 0. -1.
          2    1    1    2  502    0  0.34576344026E+02  0.14186450830E+02  0.10398683296E+04  0.10405397262E+04  0.00000000000E+00 0.  1.
</event>
<event>
 4    1  0.6089441E+003  0.2706980E+02  0.7546771E-02  0.1446908E+00
          2   -1    0    0  502    0  0.00000000000E+00  0.00000000000E+00  0.18231146471E+04  0.18231146471E+04  0.00000000000E+00 0.  1.
          2   -1    0    0  501    0 -0.00000000000E+00 -0.00000000000E+00 -0.43698158867E+00  0.43698158867E+00  0.00000000000E+00 0.  1.
          2    1    1    2  501    0 -0.23462406607E+02 -0.13501470947E+02  0.11695512630E+04  0.11698644926E+04  0.00000000000E+00 0.  1.
          2    1    1    2  502    0  0.23462406607E+02  0.13501470947E+02  0.65312640253E+03  0.65368713611E+03  0.00000000000E+00 0.  1.
</event>
<event>
 4    1  0.6089441E+003  0.2447206E+02  0.7546771E-02  0.1474797E+00
          2   -1    0    0  502    0  0.00000000000E+00  0.00000000000E+00  0.97441705115E+03  0.97441705115E+03  0.00000000000E+00 0. -1.
          2   -1    0    0  501    0 -0.00000000000E+00 -0.00000000000E+00 -0.17122670042E+01  0.17122670042E+01  0.00000000000E+00 0.  1.
          2    1    1    2  501    0  0.11450014254E+02 -0.21628197594E+02  0.87712660718E+03  0.87746792920E+03  0.00000000000E+00 0. -1.
          2    1    1    2  502    0 -0.11450014254E+02  0.21628197594E+02  0.95578176971E+02  0.98661388956E+02  0.00000000000E+00 0.  1.
</event>
<event>
 4    1  0.6089441E+003  0.3368157E+02  0.7546771E-02  0.1390077E+00
          2   -1    0    0  501    0  0.00000000000E+00  0.00000000000E+00  0.21583933276E+02  0.21583933276E+02  0.00000000000E+00 0. -1.
          2   -1    0    0  502    0 -0.00000000000E+00 -0.00000000000E+00 -0.18481376655E+03  0.18481376655E+03  0.00000000000E+00 0.  1.
          2    1    1    2  501    0 -0.33522208195E+02 -0.32725508631E+01 -0.16891446349E+03  0.17223978637E+03  0.00000000000E+00 0.  1.
          2    1    1    2  502    0  0.33522208195E+02  0.32725508631E+01  0.56846302127E+01  0.34157913462E+02  0.00000000000E+00 0. -1.
</event>
<event>
 4    1  0.6089441E+003  0.3335074E+02  0.7546771E-02  0.1392544E+00
          2   -1    0    0  502    0  0.00000000000E+00  0.00000000000E+00  0.49970420344E+00  0.49970420344E+00  0.00000000000E+00 0. -1.
          2   -1    0    0  501    0 -0.00000000000E+00 -0.00000000000E+00 -0.22536155070E+04  0.22536155070E+04  0.00000000000E+00 0. -1.
          2    1    1    2  501    0  0.16558901318E+01 -0.33309606883E+02 -0.12516345771E+04  0.12520788260E+04  0.00000000000E+00 0. -1.
          2    1    1    2  502    0 -0.16558901318E+01  0.33309606883E+02 -0.10014812257E+04  0.10020363852E+04  0.00000000000E+00 0. -1.
</event>
<event>
 4    1  0.6089441E+003  0.2166615E+02  0.7546771E-02  0.1509963E+00
          2   -1    0    0  502    0  0.00000000000E+00  0.00000000000E+00  0.19586843250E+01  0.19586843250E+01  0.00000000000E+00 0. -1.
          2   -1    0    0  501    0 -0.00000000000E+00 -0.00000000000E+00 -0.16493063979E+04  0.16493063979E+04  0.00000000000E+00 0. -1.
          2    1    1    2  501    0  0.18518386223E+01  0.21586863870E+02 -0.60381469707E+02  0.64150946072E+02  0.00000000000E+00 0. -1.
          2    1    1    2  502    0 -0.18518386223E+01 -0.21586863870E+02 -0.15869662439E+04  0.15871141362E+04  0.00000000000E+00 0. -1.
</event>
<event>
 4    1  0.6089441E+003  0.2091102E+02  0.7546771E-02  0.1520539E+00
          2   -1    0    0  502    0  0.00000000000E+00  0.00000000000E+00  0.31639698510E+02  0.31639698510E+02  0.00000000000E+00 0. -1.
          2   -1    0    0  501    0 -0.00000000000E+00 -0.00000000000E+00 -0.15635658021E+03  0.15635658021E+03  0.00000000000E+00 0. -1.
          2    1    1    2  501    0 -0.85819202582E+01  0.19068857155E+02  0.27389369129E+02  0.34459370421E+02  0.00000000000E+00 0. -1.
          2    1    1    2  502    0  0.85819202582E+01 -0.19068857155E+02 -0.15210625083E+03  0.15353690830E+03  0.00000000000E+00 0. -1.
</event>
<event>
 4    1  0.6089441E+003  0.2720511E+02  0.7546771E-02  0.1445559E+00
          2   -1    0    0  501    0  0.00000000000E+00  0.00000000000E+00  0.18301684138E+04  0.18301684138E+04  0.00000000000E+00 0. -1.
          2   -1    0    0  502    0 -0.00000000000E+00 -0.00000000000E+00 -0.32567066819E+01  0.32567066819E+01  0.00000000000E+00 0.  1.
          2    1    1    2  501    0  0.25934149130E+02 -0.82181576831E+01  0.55545225748E+02  0.61849739774E+02  0.00000000000E+00 0.  1.
          2    1    1    2  502    0 -0.25934149130E+02  0.82181576831E+01  0.17713664814E+04  0.17715753807E+04  0.00000000000E+00 0. -1.
</event>
<event>
 4    1  0.6089441E+003  0.2353316E+02  0.7546771E-02  0.1485910E+00
          2   -1    0    0  502    0  0.00000000000E+00  0.00000000000E+00  0.45653488724E+02  0.45653488724E+02  0.00000000000E+00 0. -1.
          2   -1    0    0  501    0 -0.00000000000E+00 -0.00000000000E+00 -0.24677265937E+03  0.24677265937E+03  0.00000000000E+00 0.  1.
          2    1    1    2  501    0  0.55974656926E+01 -0.22857778581E+02  0.42014471614E+02  0.48156261160E+02  0.00000000000E+00 0. -1.
          2    1    1    2  502    0 -0.55974656926E+01  0.22857778581E+02 -0.24313364226E+03  0.24426988694E+03  0.00000000000E+00 0.  1.
</event>
<event>
 4    1  0.6089441E+003  0.2393608E+02  0.7546771E-02  0.1481067E+00
          2   -1    0    0  502    0  0.00000000000E+00  0.00000000000E+00  0.19191473809E+03  0.19191473809E+03  0.00000000000E+00 0.  1.
          2   -1    0    0  501    0 -0.00000000000E+00 -0.00000000000E+00 -0.64177685276E+03  0.64177685276E+03  0.00000000000E+00 0. -1.
          2    1    1    2  501    0 -0.23225677229E+02 -0.57882365109E+01  0.19094408303E+03  0.19243850605E+03  0.00000000000E+00 0.  1.
          2    1    1    2  502    0  0.23225677229E+02  0.57882365109E+01 -0.64080619770E+03  0.64125308481E+03  0.00000000000E+00 0. -1.
</event>
<event>
 4    1  0.6089441E+003  0.3842165E+02  0.7546771E-02  0.1357992E+00
          2   -1    0    0  501    0  0.00000000000E+00  0.00000000000E+00  0.14083368223E+02  0.14083368223E+02  0.00000000000E+00 0. -1.
          2   -1    0    0  502    0 -0.00000000000E+00 -0.00000000000E+00 -0.50026698680E+03  0.50026698680E+03  0.00000000000E+00 0.  1.
          2    1    1    2  501    0  0.35462769886E+02  0.14785638428E+02 -0.47174227288E+03  0.47330433674E+03  0.00000000000E+00 0.  1.
          2    1    1    2  502    0 -0.35462769886E+02 -0.14785638428E+02 -0.14441345697E+02  0.41046018287E+02  0.00000000000E+00 0. -1.
</event>
<event>
 4    1  0.6089441E+003  0.9222539E+02  0.7546771E-02  0.1178007E+00
          2   -1    0    0  501    0  0.00000000000E+00  0.00000000000E+00  0.19255389742E+02  0.19255389742E+02  0.00000000000E+00 0.  1.
          2   -1    0    0  502    0 -0.00000000000E+00 -0.00000000000E+00 -0.38935417667E+04  0.38935417667E+04  0.00000000000E+00 0.  1.
          2    1    1    2  501    0  0.88156088569E+02 -0.27092911692E+02 -0.37792253616E+04  0.37803504938E+04  0.00000000000E+00 0.  1.
          2    1    1    2  502    0 -0.88156088569E+02  0.27092911692E+02 -0.95061015324E+02  0.13244666266E+03  0.00000000000E+00 0.  1.
</event>
<event>
 4    1  0.6089441E+003  0.2033375E+02  0.7546771E-02  0.1528993E+00
          2   -1    0    0  501    0  0.00000000000E+00  0.00000000000E+00  0.19119332913E+02  0.19119332913E+02  0.00000000000E+00 0.  1.
          2   -1    0    0  502    0 -0.00000000000E+00 -0.00000000000E+00 -0.31220918252E+03  0.31220918252E+03  0.00000000000E+00 0.  1.
          2    1    1    2  501    0  0.34777306770E+01  0.20034139811E+02 -0.30636883127E+03  0.30704286695E+03  0.00000000000E+00 0.  1.
          2    1    1    2  502    0 -0.34777306770E+01 -0.20034139811E+02  0.13278981660E+02  0.24285648489E+02  0.00000000000E+00 0.  1.
</event>
<event>
 4    1  0.6089441E+003  0.2287130E+02  0.7546771E-02  0.1494121E+00
          2   -1    0    0  502    0  0.00000000000E+00  0.00000000000E+00  0.83721698892E+03  0.83721698892E+03  0.00000000000E+00 0.  1.
          2   -1    0    0  501    0 -0.00000000000E+00 -0.00000000000E+00 -0.82739278074E+02  0.82739278074E+02  0.00000000000E+00 0.  1.
          2    1    1    2  501    0 -0.17392126711E+02 -0.14852953715E+02  0.83547694060E+03  0.83578993449E+03  0.00000000000E+00 0.  1.
          2    1    1    2  502    0  0.17392126711E+02  0.14852953715E+02 -0.80999229761E+02  0.84166332506E+02  0.00000000000E+00 0.  1.
</event>
<event>
 4    1  0.6089441E+003  0.2150136E+02  0.7546771E-02  0.1512226E+00
          2   -1    0    0  502    0  0.00000000000E+00  0.00000000000E+00  0.15709628668E+02  0.15709628668E+02  0.00000000000E+00 0. -1.
          2   -1    0    0  501    0 -0.00000000000E+00 -0.00000000000E+00 -0.11965913918E+04  0.11965913918E+04  0.00000000000E+00 0. -1.
          2    1    1    2  501    0 -0.13962525529E+02  0.16351036837E+02  0.82095510257E+01  0.23015326477E+02  0.00000000000E+00 0. -1.
          2    1    1    2  502    0  0.13962525529E+02 -0.16351036837E+02 -0.11890913142E+04  0.11892856940E+04  0.00000000000E+00 0. -1.
</event>
<event>
 4    1  0.6089441E+003  0.2090474E+02  0.7546771E-02  0.1520629E+00
          2   -1    0    0  501    0  0.00000000000E+00  0.00000000000E+00  0.88433755560E+00  0.88433755560E+00  0.00000000000E+00 0. -1.
          2   -1    0    0  502    0 -0.00000000000E+00 -0.00000000000E+00 -0.57335974864E+03  0.57335974864E+03  0.00000000000E+00 0. -1.
          2    1    1    2  501    0 -0.16875534161E+02  0.12337933482E+02 -0.39294703869E+03  0.39350271089E+03  0.00000000000E+00 0. -1.
          2    1    1    2  502    0  0.16875534161E+02 -0.12337933482E+02 -0.17952837239E+03  0.18074137531E+03  0.00000000000E+00 0. -1.
</event>
<event>
 4    1  0.6089441E+003  0.2048445E+02  0.7546771E-02  0.1526754E+00
          2   -1    0    0  502    0  0.00000000000E+00  0.00000000000E+00  0.10775078165E+03  0.10775078165E+03  0.00000000000E+00 0. -1.
          2   -1    0    0  501    0 -0.00000000000E+00 -0.00000000000E+00 -0.10809701162E+02  0.10809701162E+02  0.00000000000E+00 0. -1.
          2    1    1    2  501    0 -0.30041551004E+01  0.20262967009E+02  0.95885144081E+02  0.98048832911E+02  0.00000000000E+00 0. -1.
          2    1    1    2  502    0  0.30041551004E+01 -0.20262967009E+02  0.10559364056E+01  0.20511649899E+02  0.00000000000E+00 0. -1.
</event>
<event>
 4    1  0.6089441E+003  0.3033442E+02  0.7546771E-02  0.1416712E+00
          2   -1    0    0  502    0  0.00000000000E+00  0.00000000000E+00  0.32301413497E+02  0.32301413497E+02  0.00000000000E+00 0.  1.
          2   -1    0    0  501    0 -0.00000000000E+00 -0.00000000000E+00 -0.40674723267E+02  0.40674723267E+02  0.00000000000E+00 0.  1.
          2    1    1    2  501    0 -0.17768765526E+02  0.24585528668E+02  0.15786472232E+02  0.34196344158E+02  0.00000000000E+00 0.  1.
          2    1    1    2  502    0  0.17768765526E+02 -0.24585528668E+02 -0.24159782002E+02  0.38779792607E+02  0.00000000000E+00 0.  1.
</event>
<event>
 4    1  0.6089441E+003  0.7371358E+02  0.7546771E-02  0.1219245E+00
          2   -1    0    0  502    0  0.00000000000E+00  0.00000000000E+00  0.25391423485E+04  0.25391423485E+04  0.00000000000E+00 0. -1.
          2   -1    0    0  501    0 -0.00000000000E+00 -0.00000000000E+00 -0.85956688721E+02  0.85956688721E+02  0.00000000000E+00 0. -1.
          2    1    1    2  501    0  0.32701687720E+02  0.66062787177E+02  0.25227008028E+04  0.25237775323E+04  0.00000000000E+00 0. -1.
          2    1    1    2  502    0 -0.32701687720E+02 -0.66062787177E+02 -0.69515143066E+02  0.10132150485E+03  0.00000000000E+00 0. -1.
</event>
<event>
 4    1  0.6089441E+003  0.2271110E+02  0.7546771E-02  0.1496158E+00
          2   -1    0    0  502    0  0.00000000000E+00  0.00000000000E+00  0.80651808258E+02  0.80651808258E+02  0.00000000000E+00 0. -1.
          2   -1    0    0  501    0 -0.00000000000E+00 -0.00000000000E+00 -0.18269625280E+03  0.18269625280E+03  0.00000000000E+00 0. -1.
          2    1    1    2  501    0  0.21040258429E+02  0.85499400135E+01  0.78326641247E+02  0.81552784612E+02  0.00000000000E+00 0. -1.
          2    1    1    2  502    0 -0.21040258429E+02 -0.85499400135E+01 -0.18037108579E+03  0.18179527645E+03  0.00000000000E+00 0. -1.
</event>
<event>
 4    1  0.6089441E+003  0.5259657E+02  0.7546771E-02  0.1287291E+00
          2   -1    0    0  501    0  0.00000000000E+00  0.00000000000E+00  0.23383452899E+04  0.23383452899E+04  0.00000000000E+00 0.  1.
          2   -1    0    0  502    0 -0.00000000000E+00 -0.00000000000E+00 -0.12055965573E+01  0.12055965573E+01  0.00000000000E+00 0.  1.
          2    1    1    2  501    0  0.46332364402E+02 -0.24894003142E+02  0.10086290416E+04  0.10099994767E+04  0.00000000000E+00 0.  1.
          2    1    1    2  502    0 -0.46332364402E+02  0.24894003142E+02  0.13285106517E+04  0.13295514097E+04  0.00000000000E+00 0.  1.
</event>
<event>
 4    1  0.6089441E+003  0.2525888E+02  0.7546771E-02  0.1465928E+00
          2   -1    0    0  502    0  0.00000000000E+00  0.00000000000E+00  0.59064654158E+03  0.59064654158E+03  0.00000000000E+00 0.  1.
          2   -1    0    0  501    0 -0.00000000000E+00 -0.00000000000E+00 -0.84435391905E+01  0.84435391905E+01  0.00000000000E+00 0. -1.
          2    1    1    2  501    0 -0.13956956689E+01  0.25220289215E+02  0.57083053577E+03  0.57138910693E+03  0.00000000000E+00 0.  1.
          2    1    1    2  502    0  0.13956956689E+01 -0.25220289215E+02  0.11372466619E+02  0.27700973837E+02  0.00000000000E+00 0. -1.
</event>
<event>
 4    1  0.6089441E+003  0.2759094E+02  0.7546771E-02  0.1441761E+00
          2   -1    0    0  501    0  0.00000000000E+00  0.00000000000E+00  0.85501785503E+00  0.85501785503E+00  0.00000000000E+00 0.  1.
          2   -1    0    0  502    0 -0.00000000000E+00 -0.00000000000E+00 -0.90388680356E+03  0.90388680356E+03  0.00000000000E+00 0.  1.
          2    1    1    2  501    0 -0.78395706927E+01 -0.26453751009E+02 -0.50688860559E+03  0.50763896450E+03  0.00000000000E+00 0.  1.
          2    1    1    2  502    0  0.78395706927E+01  0.26453751009E+02 -0.39614318012E+03  0.39710285691E+03  0.00000000000E+00 0.  1.
</event>
<event>
 4    1  0.6089441E+003  0.2003780E+02  0.7546771E-02  0.1533459E+00
          2   -1    0    0  502    0  0.00000000000E+00  0.00000000000E+00  0.97345921119E+03  0.97345921119E+03  0.00000000000E+00 0. -1.
          2   -1    0    0  501    0 -0.00000000000E+00 -0.00000000000E+00 -0.12927725107E+02  0.12927725107E+02  0.00000000000E+00 0.  1.
          2    1    1    2  501    0 -0.18317043074E+02  0.81240043423E+01  0.96552773785E+03  0.96573563984E+03  0.00000000000E+00 0. -1.
          2    1    1    2  502    0  0.18317043074E+02 -0.81240043423E+01 -0.49962517637E+01  0.20651296454E+02  0.00000000000E+00 0.  1.
</event>
<event>
 4    1  0.6089441E+003  0.2809546E+02  0.7546771E-02  0.1436904E+00
          2   -1    0    0  502    0  0.00000000000E+00  0.00000000000E+00  0.33053141067E+01  0.33053141067E+01  0.00000000000E+00 0.  1.
          2   -1    0    0  501    0 -0.00000000000E+00 -0.00000000000E+00 -0.10392665836E+04  0.10392665836E+04  0.00000000000E+00 0.  1.
          2    1    1    2  501    0 -0.90183787951E+01  0.26608716856E+02 -0.60491938063E+02  0.66698047493E+02  0.00000000000E+00 0.  1.
          2    1    1    2  502    0  0.90183787951E+01 -0.26608716856E+02 -0.97546933141E+03  0.97587385020E+03  0.00000000000E+00 0.  1.
</event>
<event>
 4    1  0.6089441E+003  0.4838066E+02  0.7546771E-02  0.1305350E+00
          2   -1    0    0  502    0  0.00000000000E+00  0.00000000000E+00  0.26601811308E+03  0.26601811308E+03  0.00000000000E+00 0.  1.
          2   -1    0    0  501    0 -0.00000000000E+00 -0.00000000000E+00 -0.19862614425E+03  0.19862614425E+03  0.00000000000E+00 0. -1.
          2    1    1    2  501    0  0.56572678957E+01 -0.48048761037E+02  0.26081398277E+03  0.26526330640E+03  0.00000000000E+00 0.  1.
          2    1    1    2  502    0 -0.56572678957E+01  0.48048761037E+02 -0.19342201394E+03  0.19938095093E+03  0.00000000000E+00 0. -1.
</event>
<event>
 4    1  0.6089441E+003  0.2404994E+02  0.7546771E-02  0.1479719E+00
          2   -1    0    0  501    0  0.00000000000E+00  0.00000000000E+00  0.13162112965E+03  0.13162112965E+03  0.00000000000E+00 0. -1.
          2   -1    0    0  502    0 -0.00000000000E+00 -0.00000000000E+00 -0.96521453149E+02  0.96521453149E+02  0.00000000000E+00 0.  1.
          2    1    1    2  501    0 -0.16028143984E+01 -0.23996468246E+02 -0.93894486612E+02  0.96925611261E+02  0.00000000000E+00 0.  1.
          2    1    1    2  502    0  0.16028143984E+01  0.23996468246E+02  0.12899416311E+03  0.13121697154E+03  0.00000000000E+00 0. -1.
</event>
<event>
 4    1  0.6089441E+003  0.2653133E+02  0.7546771E-02  0.1452374E+00
          2   -1    0    0  502    0  0.00000000000E+00  0.00000000000E+00  0.58478174646E+03  0.58478174646E+03  0.00000000000E+00 0. -1.
          2   -1    0    0  501    0 -0.00000000000E+00 -0.00000000000E+00 -0.65208668831E+01  0.65208668831E+01  0.00000000000E+00 0. -1.
          2    1    1    2  501    0  0.26531230017E+02  0.71187535742E-01  0.55610299698E+03  0.55673553370E+03  0.00000000000E+00 0. -1.
          2    1    1    2  502    0 -0.26531230017E+02 -0.71187535742E-01  0.22157882597E+02  0.34567079644E+02  0.00000000000E+00 0. -1.
</event>
<event>
 4    1  0.6089441E+003  0.2043088E+02  0.7546771E-02  0.1527548E+00
          2   -1    0    0  501    0  0.00000000000E+00  0.00000000000E+00  0.25144711713E+03  0.25144711713E+03  0.00000000000E+00 0.  1.
          2   -1    0    0  502    0 -0.00000000000E+00 -0.00000000000E+00 -0.17217744121E+02  0.17217744121E+02  0.00000000000E+00 0.  1.
          2    1    1    2  501    0 -0.13095500373E+02  0.15682112524E+02 -0.10577707642E+02  0.23006709504E+02  0.00000000000E+00 0.  1.
          2    1    1    2  502    0  0.13095500373E+02 -0.15682112524E+02  0.24480708066E+03  0.24565815175E+03  0.00000000000E+00 0.  1.
</event>
<event>
 4    1  0.6089441E+003  0.2308182E+02  0.7546771E-02  0.1491473E+00
          2   -1    0    0  501    0  0.00000000000E+00  0.00000000000E+00  0.70527454672E+00  0.70527454672E+00  0.00000000000E+00 0. -1.
          2   -1    0    0  502    0 -0.00000000000E+00 -0.00000000000E+00 -0.84413425110E+03  0.84413425110E+03  0.00000000000E+00 0. -1.
          2    1    1    2  501    0  0.17218141893E+02 -0.15372244897E+02 -0.28476401685E+03  0.28569794472E+03  0.00000000000E+00 0. -1.
          2    1    1    2  502    0 -0.17218141893E+02  0.15372244897E+02 -0.55866495971E+03  0.55914158093E+03  0.00000000000E+00 0. -1.
</event>
<event>
 4    1  0.6089441E+003  0.5184196E+02  0.7546771E-02  0.1290378E+00
          2   -1    0    0  501    0  0.00000000000E+00  0.00000000000E+00  0.18986176532E+04  0.18986176532E+04  0.00000000000E+00 0. -1.
          2   -1    0    0  502    0 -0.00000000000E+00 -0.00000000000E+00 -0.22312191220E+01  0.22312191220E+01  0.00000000000E+00 0. -1.
          2    1    1    2  501    0 -0.41286175092E+02 -0.31353477290E+02  0.37354321466E+03  0.37712348377E+03  0.00000000000E+00 0. -1.
          2    1    1    2  502    0  0.41286175092E+02  0.31353477290E+02  0.15228432194E+04  0.15237253886E+04  0.00000000000E+00 0. -1.
</event>
<event>
 4    1  0.6089441E+003  0.3257538E+02  0.7546771E-02  0.1398460E+00
          2   -1    0    0  502    0  0.00000000000E+00  0.00000000000E+00  0.64207069513E+01  0.64207069513E+01  0.00000000000E+00 0.  1.
          2   -1    0    0  501    0 -0.00000000000E+00 -0.00000000000E+00 -0.22146724173E+03  0.22146724173E+03  0.00000000000E+00 0.  1.
          2    1    1    2  501    0 -0.18139407594E+01  0.32524833927E+02 -0.50126011847E+02  0.59781036013E+02  0.00000000000E+00 0.  1.
          2    1    1    2  502    0  0.18139407594E+01 -0.32524833927E+02 -0.16492052293E+03  0.16810691267E+03  0.00000000000E+00 0.  1.
</event>
<event>
 4    1  0.6089441E+003  0.3362110E+02  0.7546771E-02  0.1390525E+00
          2   -1    0    0  502    0  0.00000000000E+00  0.00000000000E+00  0.15663100686E+03  0.15663100686E+03  0.00000000000E+00 0.  1.
          2   -1    0    0  501    0 -0.00000000000E+00 -0.00000000000E+00 -0.15073570204E+03  0.15073570204E+03  0.00000000000E+00 0. -1.
          2    1    1    2  501    0  0.26591050074E+02  0.20574114101E+02  0.15290691131E+03  0.15655957857E+03  0.00000000000E+00 0.  1.
          2    1    1    2  502    0 -0.26591050074E+02 -0.20574114101E+02 -0.14701160649E+03  0.15080713033E+03  0.00000000000E+00 0. -1.
</event>
<event>
 4    1  0.6089441E+003  0.2211492E+02  0.7546771E-02  0.1503922E+00
          2   -1    0    0  501    0  0.00000000000E+00  0.00000000000E+00  0.90029724984E+02  0.90029724984E+02  0.00000000000E+00 0. -1.
          2   -1    0    0  502    0 -0.00000000000E+00 -0.00000000000E+00 -0.15417706583E+04  0.15417706583E+04  0.00000000000E+00 0.  1.
          2    1    1    2  501    0  0.20409589518E+02 -0.85157693162E+01 -0.15403320084E+04  0.15404907548E+04  0.00000000000E+00 0.  1.
          2    1    1    2  502    0 -0.20409589518E+02  0.85157693162E+01  0.88591075054E+02  0.91309628466E+02  0.00000000000E+00 0. -1.
</event>
<event>
 4    1  0.6089441E+003  0.2102004E+02  0.7546771E-02  0.1518979E+00
          2   -1    0    0  502    0  0.00000000000E+00  0.00000000000E+00  0.10111979319E+04  0.10111979319E+04  0.00000000000E+00 0.  1.
          2   -1    0    0  501    0 -0.00000000000E+00 -0.00000000000E+00 -0.15286516257E+01  0.15286516257E+01  0.00000000000E+00 0. -1.
          2    1    1    2  501    0  0.12271419643E+02 -0.17066177519E+02  0.93275217730E+03  0.93298899587E+03  0.00000000000E+00 0.  1.
          2    1    1    2  502    0 -0.12271419643E+02  0.17066177519E+02  0.76917102949E+02  0.79737587632E+02  0.00000000000E+00 0. -1.
</event>
<event>
 4    1  0.6089441E+003  0.2638646E+02  0.7546771E-02  0.1453871E+00
          2   -1    0    0  502    0  0.00000000000E+00  0.00000000000E+00  0.17154969633E+01  0.17154969633E+01  0.00000000000E+00 0.  1.
          2   -1    0    0  501    0 -0.00000000000E+00 -0.00000000000E+00 -0.62119369226E+03  0.62119369226E+03  0.00000000000E+00 0.  1.
          2    1    1    2  501    0 -0.26323639028E+02 -0.18196702764E+01 -0.12636373136E+03  0.12908926282E+03  0.00000000000E+00 0.  1.
          2    1    1    2  502    0  0.26323639028E+02  0.18196702764E+01 -0.49311446394E+03  0.49381992641E+03  0.00000000000E+00 0.  1.
</event>
<event>
 4    1  0.6089441E+003  0.2352861E+02  0.7546771E-02  0.1485965E+00
          2   -1    0    0  501    0  0.00000000000E+00  0.00000000000E+00  0.13433750064E+04  0.13433750064E+04  0.00000000000E+00 0. -1.
          2   -1    0    0  502    0 -0.00000000000E+00 -0.00000000000E+00 -0.16705410711E+01  0.16705410711E+01  0.00000000000E+00 0. -1.
          2    1    1    2  501    0  0.55511265619E+01 -0.22864393778E+02  0.87143679439E+02  0.90264147783E+02  0.00000000000E+00 0. -1.
          2    1    1    2  502    0 -0.55511265619E+01  0.22864393778E+02  0.12545607859E+04  0.12547813997E+04  0.00000000000E+00 0. -1.
</event>
<event>
 4    1  0.6089441E+003  0.3173161E+02  0.7546771E-02  0.1405123E+00
          2   -1    0    0  502    0  0.00000000000E+00  0.00000000000E+00  0.23438525024E+03  0.23438525024E+03  0.00000000000E+00 0. -1.
          2   -1    0    0  501    0 -0.00000000000E+00 -0.00000000000E+00 -0.44671480522E+01  0.44671480522E+01  0.00000000000E+00 0. -1.
          2    1    1    2  501    0  0.31714199676E+02 -0.10510022394E+01  0.13834204538E+03  0.14193455037E+03  0.00000000000E+00 0. -1.
          2    1    1    2  502    0 -0.31714199676E+02  0.10510022394E+01  0.91576056807E+02  0.96917847928E+02  0.00000000000E+00 0. -1.
</event>
<event>
 4    1  0.6089441E+003  0.2050876E+02  0.7546771E-02  0.1526395E+00
          2   -1    0    0  501    0  0.00000000000E+00  0.00000000000E+00  0.14858569761E+04  0.14858569761E+04  0.00000000000E+00 0.  1.
          2   -1    0    0  502    0 -0.00000000000E+00 -0.00000000000E+00 -0.35422604704E+00  0.35422604704E+00  0.00000000000E+00 0.  1.
          2    1    1    2  501    0 -0.20053604123E+02  0.42967699707E+01  0.40970837841E+03  0.41022136050E+03  0.00000000000E+00 0.  1.
          2    1    1    2  502    0  0.20053604123E+02 -0.42967699707E+01  0.10757943717E+04  0.10759898417E+04  0.00000000000E+00 0.  1.
</event>
<event>
 4    1  0.6089441E+003  0.2379605E+02  0.7546771E-02  0.1482737E+00
          2   -1    0    0  501    0  0.00000000000E+00  0.00000000000E+00  0.30826384431E+02  0.30826384431E+02  0.00000000000E+00 0. -1.
          2   -1    0    0  502    0 -0.00000000000E+00 -0.00000000000E+00 -0.24188763193E+03  0.24188763193E+03  0.00000000000E+00 0.  1.
          2    1    1    2  501    0  0.21309937564E+02  0.10589555047E+02 -0.23660790549E+03  0.23780149927E+03  0.00000000000E+00 0.  1.
          2    1    1    2  502    0 -0.21309937564E+02 -0.10589555047E+02  0.25546657991E+02  0.34912517090E+02  0.00000000000E+00 0. -1.
</event>
<event>
 4    1  0.6089441E+003  0.4043267E+02  0.7546771E-02  0.1345969E+00
          2   -1    0    0  502    0  0.00000000000E+00  0.00000000000E+00  0.70806522917E+03  0.70806522917E+03  0.00000000000E+00 0. -1.
          2   -1    0    0  501    0 -0.00000000000E+00 -0.00000000000E+00 -0.23161932683E+01  0.23161932683E+01  0.00000000000E+00 0.  1.
          2    1    1    2  501    0 -0.16524748315E+02 -0.36901669522E+02  0.33284450409E+03  0.33529131278E+03  0.00000000000E+00 0. -1.
          2    1    1    2  502    0  0.16524748315E+02  0.36901669522E+02  0.37290453181E+03  0.37509010966E+03  0.00000000000E+00 0.  1.
</event>
<event>
 4    1  0.6089441E+003  0.4170793E+02  0.7546771E-02  0.1338758E+00
          2   -1    0    0  502    0  0.00000000000E+00  0.00000000000E+00  0.23561054967E+02  0.23561054967E+02  0.00000000000E+00 0.  1.
          2   -1    0    0  501    0 -0.00000000000E+00 -0.00000000000E+00 -0.43725517128E+03  0.43725517128E+03  0.00000000000E+00 0.  1.
          2    1    1    2  501    0  0.35049543226E+02 -0.22607106310E+02  0.32097692408E+01  0.41831260495E+02  0.00000000000E+00 0.  1.
          2    1    1    2  502    0 -0.35049543226E+02  0.22607106310E+02 -0.41690388556E+03  0.41898496575E+03  0.00000000000E+00 0.  1.
</event>
<event>
 4    1  0.6089441E+003  0.2174599E+02  0.7546771E-02  0.1508875E+00
          2   -1    0    0  501    0  0.00000000000E+00  0.00000000000E+00  0.12566537381E+03  0.12566537381E+03  0.00000000000E+00 0.  1.
          2   -1    0    0  502    0 -0.00000000000E+00 -0.00000000000E+00 -0.36920188869E+03  0.36920188869E+03  0.00000000000E+00 0.  1.
          2    1    1    2  501    0 -0.17911994667E+02 -0.12330791590E+02 -0.36793768123E+03  0.36857974069E+03  0.00000000000E+00 0.  1.
          2    1    1    2  502    0  0.17911994667E+02  0.12330791590E+02  0.12440116636E+03  0.12628752181E+03  0.00000000000E+00 0.  1.
</event>
<event>
 4    1  0.6089441E+003  0.2056947E+02  0.7546771E-02  0.1525501E+00
          2   -1    0    0  501    0  0.00000000000E+00  0.00000000000E+00  0.16593617208E+02  0.16593617208E+02  0.00000000000E+00 0.  1.
          2   -1    0    0  502    0 -0.00000000000E+00 -0.00000000000E+00 -0.18493821331E+03  0.18493821331E+03  0.00000000000E+00 0.  1.
          2    1    1    2  501    0 -0.20460807602E+02  0.21115353767E+01 -0.17773426126E+03  0.17892057135E+03  0.00000000000E+00 0.  1.
          2    1    1    2  502    0  0.20460807602E+02 -0.21115353767E+01  0.93896651525E+01  0.22611259165E+02  0.00000000000E+00 0.  1.
</event>
<event>
 4    1  0.6089441E+003  0.2319551E+02  0.7546771E-02  0.1490058E+00
          2   -1    0    0  501    0  0.00000000000E+00  0.00000000000E+00  0.11211899286E+02  0.11211899286E+02  0.00000000000E+00 0.  1.
          2   -1    0    0  502    0 -0.00000000000E+00 -0.00000000000E+00 -0.52340075612E+02  0.52340075612E+02  0.00000000000E+00 0.  1.
          2    1    1    2  501    0  0.11199581220E+02 -0.20312579841E+02 -0.29727407240E+02  0.37706103757E+02  0.00000000000E+00 0.  1.
          2    1    1    2  502    0 -0.11199581220E+02  0.20312579841E+02 -0.11400769085E+02  0.25845871141E+02  0.00000000000E+00 0.  1.
</event>
<event>
 4    1  0.6089441E+003  0.2491794E+02  0.7546771E-02  0.1469724E+00
          2   -1    0    0  502    0  0.00000000000E+00  0.00000000000E+00  0.18056278245E+03  0.18056278245E+03  0.00000000000E+00 0.  1.
          2   -1    0    0  501    0 -0.00000000000E+00 -0.00000000000E+00 -0.22977514632E+02  0.22977514632E+02  0.00000000000E+00 0.  1.
          2    1    1    2  501    0  0.10565517399E+02  0.22567089218E+02  0.17263908183E+03  0.17442808332E+03  0.00000000000E+00 0.  1.
          2    1    1    2  502    0 -0.10565517399E+02 -0.22567089218E+02 -0.15053814017E+02  0.29112213763E+02  0.00000000000E+00 0.  1.
</event>
<event>
 4    1  0.6089441E+003  0.2422885E+02  0.7546771E-02  0.1477618E+00
          2   -1    0    0  501    0  0.00000000000E+00  0.00000000000E+00  0.27167746200E+03  0.27167746200E+03  0.00000000000E+00 0.  1.
          2   -1    0    0  502    0 -0.00000000000E+00 -0.00000000000E+00 -0.59057243375E+01  0.59057243375E+01  0.00000000000E+00 0. -1.
          2    1    1    2  501    0 -0.10937884875E+02  0.21619434977E+02  0.22363847933E+02  0.32972397375E+02  0.00000000000E+00 0. -1.
          2    1    1    2  502    0  0.10937884875E+02 -0.21619434977E+02  0.24340788973E+03  0.24461078896E+03  0.00000000000E+00 0.  1.
</event>
<event>
 4    1  0.6089441E+003  0.2065299E+02  0.7546771E-02  0.1524277E+00
          2   -1    0    0  501    0  0.00000000000E+00  0.00000000000E+00  0.20494562937E+03  0.20494562937E+03  0.00000000000E+00 0.  1.
          2   -1    0    0  502    0 -0.00000000000E+00 -0.00000000000E+00 -0.41014458382E+01  0.41014458382E+01  0.00000000000E+00 0.  1.
          2    1    1    2  501    0  0.11261134999E+02 -0.17312798310E+02  0.27065230126E+02  0.34045158665E+02  0.00000000000E+00 0.  1.
          2    1    1    2  502    0 -0.11261134999E+02  0.17312798310E+02  0.17377895340E+03  0.17500191654E+03  0.00000000000E+00 0.  1.
</event>
<event>
 4    1  0.6089441E+003  0.2298229E+02  0.7546771E-02  0.1492721E+00
          2   -1    0    0  502    0  0.00000000000E+00  0.00000000000E+00  0.12078989468E+03  0.12078989468E+03  0.00000000000E+00 0. -1.
          2   -1    0    0  501    0 -0.00000000000E+00 -0.00000000000E+00 -0.24605490772E+02  0.24605490772E+02  0.00000000000E+00 0.  1.
          2    1    1    2  501    0  0.10378469311E+02 -0.20505435422E+02  0.11401442394E+03  0.11630767118E+03  0.00000000000E+00 0. -1.
          2    1    1    2  502    0 -0.10378469311E+02  0.20505435422E+02 -0.17830020038E+02  0.29087714273E+02  0.00000000000E+00 0.  1.
</event>
<event>
 4    1  0.6089441E+003  0.2371875E+02  0.7546771E-02  0.1483665E+00
          2   -1    0    0  501    0  0.00000000000E+00  0.00000000000E+00  0.11508934685E+03  0.11508934685E+03  0.00000000000E+00 0.  1.
          2   -1    0    0  502    0 -0.00000000000E+00 -0.00000000000E+00 -0.62477260008E+03  0.62477260008E+03  0.00000000000E+00 0. -1.
          2    1    1    2  501    0 -0.62498742464E+01  0.22880524213E+02 -0.62332259562E+03  0.62377370698E+03  0.00000000000E+00 0. -1.
          2    1    1    2  502    0  0.62498742464E+01 -0.22880524213E+02  0.11363934239E+03  0.11608823995E+03  0.00000000000E+00 0.  1.
</event>
<event>
 4    1  0.6089441E+003  0.4286393E+02  0.7546771E-02  0.1332474E+00
          2   -1    0    0  502    0  0.00000000000E+00  0.00000000000E+00  0.23589398892E+03  0.23589398892E+03  0.00000000000E+00 0.  1.
          2   -1    0    0  501    0 -0.00000000000E+00 -0.00000000000E+00 -0.45695356215E+02  0.45695356215E+02  0.00000000000E+00 0.  1.
          2    1    1    2  501    0 -0.12502063120E+02  0.41000183866E+02  0.22333464958E+03  0.22741082288E+03  0.00000000000E+00 0.  1.
          2    1    1    2  502    0  0.12502063120E+02 -0.41000183866E+02 -0.33136016876E+02  0.54178522255E+02  0.00000000000E+00 0.  1.
</event>
<event>
 4    1  0.6089441E+003  0.4327728E+02  0.7546771E-02  0.1330282E+00
          2   -1    0    0  502    0  0.00000000000E+00  0.00000000000E+00  0.72711100466E+02  0.72711100466E+02  0.00000000000E+00 0.  1.
          2   -1    0    0  501    0 -0.00000000000E+00 -0.00000000000E+00 -0.56671691765E+02  0.56671691765E+02  0.00000000000E+00 0.  1.
          2    1    1    2  501    0  0.41412081842E+02 -0.12568309590E+02  0.55798580951E+02  0.70614478434E+02  0.00000000000E+00 0.  1.
          2    1    1    2  502    0 -0.41412081842E+02  0.12568309590E+02 -0.39759172250E+02  0.58768313796E+02  0.00000000000E+00 0.  1.
</event>
<event>
 4    1  0.6089441E+003  0.3357806E+02  0.7546771E-02  0.1390845E+00
          2   -1    0    0  501    0  0.00000000000E+00  0.00000000000E+00  0.22009266484E+01  0.22009266484E+01  0.00000000000E+00 0. -1.
          2   -1    0    0  502    0 -0.00000000000E+00 -0.00000000000E+00 -0.68589391906E+03  0.68589391906E+03  0.00000000000E+00 0.  1.
          2    1    1    2  501    0  0.32929098219E+02  0.65696626728E+01 -0.51494160217E+03  0.51603521161E+03  0.00000000000E+00 0.  1.
          2    1    1    2  502    0 -0.32929098219E+02 -0.65696626728E+01 -0.16875139024E+03  0.17205963409E+03  0.00000000000E+00 0. -1.
</event>
<event>
 4    1  0.6089441E+003  0.2551345E+02  0.7546771E-02  0.1463141E+00
          2   -1    0    0  501    0  0.00000000000E+00  0.00000000000E+00  0.50791199338E+03  0.50791199338E+03  0.00000000000E+00 0.  1.
          2   -1    0    0  502    0 -0.00000000000E+00 -0.00000000000E+00 -0.33243480778E+02  0.33243480778E+02  0.00000000000E+00 0.  1.
          2    1    1    2  501    0 -0.18404252541E+02  0.17669735653E+02 -0.27976606139E+02  0.37863261358E+02  0.00000000000E+00 0.  1.
          2    1    1    2  502    0  0.18404252541E+02 -0.17669735653E+02  0.50264511874E+03  0.50329221279E+03  0.00000000000E+00 0.  1.
</event>
<event>
 4    1  0.6089441E+003  0.2246506E+02  0.7546771E-02  0.1499327E+00
          2   -1    0    0  501    0  0.00000000000E+00  0.00000000000E+00  0.23994910248E+03  0.23994910248E+03  0.00000000000E+00 0.  1.
          2   -1    0    0  502    0 -0.00000000000E+00 -0.00000000000E+00 -0.40124501678E+02  0.40124501678E+02  0.00000000000E+00 0.  1.
          2    1    1    2  501    0  0.22462218716E+02  0.35718705595E+00 -0.36404826203E+02  0.42778384999E+02  0.00000000000E+00 0.  1.
          2    1    1    2  502    0 -0.22462218716E+02 -0.35718705595E+00  0.23622942701E+03  0.23729521916E+03  0.00000000000E+00 0.  1.
</event>
<event>
 4    1  0.6089441E+003  0.2113059E+02  0.7546771E-02  0.1517408E+00
          2   -1    0    0  501    0  0.00000000000E+00  0.00000000000E+00  0.71349871807E+03  0.71349871807E+03  0.00000000000E+00 0.  1.
          2   -1    0    0  502    0 -0.00000000000E+00 -0.00000000000E+00 -0.76920153759E+00  0.76920153759E+00  0.00000000000E+00 0. -1.
          2    1    1    2  501    0 -0.20422627359E+02 -0.54238537830E+01  0.20215925782E+03  0.20326058993E+03  0.00000000000E+00 0. -1.
          2    1    1    2  502    0  0.20422627359E+02  0.54238537830E+01  0.51057025872E+03  0.51100732968E+03  0.00000000000E+00 0.  1.
</event>
<event>
 4    1  0.6089441E+003  0.2084150E+02  0.7546771E-02  0.1521540E+00
          2   -1    0    0  502    0  0.00000000000E+00  0.00000000000E+00  0.18237391867E+03  0.18237391867E+03  0.00000000000E+00 0. -1.
          2   -1    0    0  501    0 -0.00000000000E+00 -0.00000000000E+00 -0.27872636485E+01  0.27872636485E+01  0.00000000000E+00 0. -1.
          2    1    1    2  501    0 -0.20783827272E+02  0.15493526768E+01  0.12510651532E+03  0.12683062779E+03  0.00000000000E+00 0. -1.
          2    1    1    2  502    0  0.20783827272E+02 -0.15493526768E+01  0.54480139698E+02  0.58330554526E+02  0.00000000000E+00 0. -1.
</event>
<event>
 4    1  0.6089441E+003  0.2015338E+02  0.7546771E-02  0.1531704E+00
          2   -1    0    0  501    0  0.00000000000E+00  0.00000000000E+00  0.28654136352E+02  0.28654136352E+02  0.00000000000E+00 0.  1.
          2   -1    0    0  502    0 -0.00000000000E+00 -0.00000000000E+00 -0.75326299400E+02  0.75326299400E+02  0.00000000000E+00 0. -1.
          2    1    1    2  501    0 -0.12510266601E+02 -0.15800373612E+02 -0.70179963402E+02  0.73016339540E+02  0.00000000000E+00 0. -1.
          2    1    1    2  502    0  0.12510266601E+02  0.15800373612E+02  0.23507800354E+02  0.30964096211E+02  0.00000000000E+00 0.  1.
</event>
<event>
 4    1  0.6089441E+003  0.2623579E+02  0.7546771E-02  0.1455440E+00
          2   -1    0    0  501    0  0.00000000000E+00  0.00000000000E+00  0.15482185055E+02  0.15482185055E+02  0.00000000000E+00 0. -1.
          2   -1    0    0  502    0 -0.00000000000E+00 -0.00000000000E+00 -0.40858059186E+03  0.40858059186E+03  0.00000000000E+00 0. -1.
          2    1    1    2  501    0 -0.23136310752E+02  0.12370438390E+02 -0.39671263232E+03  0.39757921131E+03  0.00000000000E+00 0. -1.
          2    1    1    2  502    0  0.23136310752E+02 -0.12370438390E+02  0.36142255168E+01  0.26483565607E+02  0.00000000000E+00 0. -1.
</event>
<event>
 4    1  0.6089441E+003  0.2294624E+02  0.7546771E-02  0.1493174E+00
          2   -1    0    0  501    0  0.00000000000E+00  0.00000000000E+00  0.39997284749E+02  0.39997284749E+02  0.00000000000E+00 0.  1.
          2   -1    0    0  502    0 -0.00000000000E+00 -0.00000000000E+00 -0.32128409221E+02  0.32128409221E+02  0.00000000000E+00 0.  1.
          2    1    1    2  501    0 -0.10803842852E+02  0.20243693135E+02 -0.23772171161E+02  0.33040070427E+02  0.00000000000E+00 0.  1.
          2    1    1    2  502    0  0.10803842852E+02 -0.20243693135E+02  0.31641046689E+02  0.39085623542E+02  0.00000000000E+00 0.  1.
</event>
<event>
 4    1  0.6089441E+003  0.2473355E+02  0.7546771E-02  0.1471806E+00
          2   -1    0    0  502    0  0.00000000000E+00  0.00000000000E+00  0.36401263183E+01  0.36401263183E+01  0.00000000000E+00 0. -1.
          2   -1    0    0  501    0 -0.00000000000E+00 -0.00000000000E+00 -0.31035790774E+03  0.31035790774E+03  0.00000000000E+00 0. -1.
          2    1    1    2  501    0  0.28318623265E+01  0.24570895404E+02 -0.47050017943E+02  0.53154985972E+02  0.00000000000E+00 0. -1.
          2    1    1    2  502    0 -0.28318623265E+01 -0.24570895404E+02 -0.25966776348E+03  0.26084304809E+03  0.00000000000E+00 0. -1.
</event>
<event>
 4    1  0.6089441E+003  0.2411718E+02  0.7546771E-02  0.1478927E+00
          2   -1    0    0  502    0  0.00000000000E+00  0.00000000000E+00  0.25407981308E+02  0.25407981308E+02  0.00000000000E+00 0. -1.
          2   -1    0    0  501    0 -0.00000000000E+00 -0.00000000000E+00 -0.32097560693E+02  0.32097560693E+02  0.00000000000E+00 0. -1.
          2    1    1    2  501    0  0.15549064619E+02  0.18435424120E+02  0.12053410463E+02  0.26961509172E+02  0.00000000000E+00 0. -1.
          2    1    1    2  502    0 -0.15549064619E+02 -0.18435424120E+02 -0.18742989848E+02  0.30544032829E+02  0.00000000000E+00 0. -1.
</event>
<event>
 4    1  0.6089441E+003  0.4103382E+02  0.7546771E-02  0.1342532E+00
          2   -1    0    0  502    0  0.00000000000E+00  0.00000000000E+00  0.17328331089E+03  0.17328331089E+03  0.00000000000E+00 0.  1.
          2   -1    0    0  501    0 -0.00000000000E+00 -0.00000000000E+00 -0.13298213237E+02  0.13298213237E+02  0.00000000000E+00 0.  1.
          2    1    1    2  501    0  0.24841899316E+02  0.32659677082E+02  0.12840576064E+03  0.13480287028E+03  0.00000000000E+00 0.  1.
          2    1    1    2  502    0 -0.24841899316E+02 -0.32659677082E+02  0.31579337015E+02  0.51778653855E+02  0.00000000000E+00 0.  1.
</event>
<event>
 4    1  0.6089441E+003  0.2354180E+02  0.7546771E-02  0.1485805E+00
          2   -1    0    0  502    0  0.00000000000E+00  0.00000000000E+00  0.23322585379E+01  0.23322585379E+01  0.00000000000E+00 0. -1.
          2   -1    0    0  501    0 -0.00000000000E+00 -0.00000000000E+00 -0.51935322403E+03  0.51935322403E+03  0.00000000000E+00 0.  1.
          2    1    1    2  501    0 -0.23423548412E+02 -0.23565897804E+01 -0.66396862559E+02  0.70446855809E+02  0.00000000000E+00 0. -1.
          2    1    1    2  502    0  0.23423548412E+02  0.23565897804E+01 -0.45062410293E+03  0.45123862676E+03  0.00000000000E+00 0.  1.
</event>
<event>
 4    1  0.6089441E+003  0.2489606E+02  0.7546771E-02  0.1469970E+00
          2   -1    0    0  501    0  0.00000000000E+00  0.00000000000E+00  0.78700694550E+02  0.78700694550E+02  0.00000000000E+00 0. -1.
          2   -1    0    0  502    0 -0.00000000000E+00 -0.00000000000E+00 -0.14429751954E+03  0.14429751954E+03  0.00000000000E+00 0.  1.
          2    1    1    2  501    0  0.21479317145E+02 -0.12587810367E+02 -0.14121208536E+03  0.14338991278E+03  0.00000000000E+00 0.  1.
          2    1    1    2  502    0 -0.21479317145E+02  0.12587810367E+02  0.75615260376E+02  0.79608301305E+02  0.00000000000E+00 0. -1.
</event>
<event>
 4    1  0.6089441E+003  0.3181439E+02  0.7546771E-02  0.1404458E+00
          2   -1    0    0  501    0  0.00000000000E+00  0.00000000000E+00  0.71577776779E+02  0.71577776779E+02  0.00000000000E+00 0. -1.
          2   -1    0    0  502    0 -0.00000000000E+00 -0.00000000000E+00 -0.70761495963E+03  0.70761495963E+03  0.00000000000E+00 0.  1.
          2    1    1    2  501    0  0.55139871617E+01  0.31332910084E+02 -0.70370256210E+03  0.70442135915E+03  0.00000000000E+00 0.  1.
          2    1    1    2  502    0 -0.55139871617E+01 -0.31332910084E+02  0.67665379252E+02  0.74771377264E+02  0.00000000000E+00 0. -1.
</event>
<event>
 4    1  0.6089441E+003  0.2571399E+02  0.7546771E-02  0.1460972E+00
          2   -1    0    0  502    0  0.00000000000E+00  0.00000000000E+00  0.19053283206E+04  0.19053283206E+04  0.00000000000E+00 0.  1.
          2   -1    0    0  501    0 -0.00000000000E+00 -0.00000000000E+00 -0.12922897087E+01  0.12922897087E+01  0.00000000000E+00 0.  1.
          2    1    1    2  501    0  0.13332457703E+02  0.21987610684E+02  0.17673406749E+04  0.17675277284E+04  0.00000000000E+00 0.  1.
          2    1    1    2  502    0 -0.13332457703E+02 -0.21987610684E+02  0.13669535591E+03  0.13909288184E+03  0.00000000000E+00 0.  1.
</event>
<event>
 4    1  0.6089441E+003  0.2648110E+02  0.7546771E-02  0.1452891E+00
          2   -1    0    0  502    0  0.00000000000E+00  0.00000000000E+00  0.70596683688E+03  0.70596683688E+03  0.00000000000E+00 0. -1.
          2   -1    0    0  501    0 -0.00000000000E+00 -0.00000000000E+00 -0.14515680977E+03  0.14515680977E+03  0.00000000000E+00 0. -1.
          2    1    1    2  501    0  0.37223956326E+01  0.26218173258E+02  0.70450826446E+03  0.70500577553E+03  0.00000000000E+00 0. -1.
          2    1    1    2  502    0 -0.37223956326E+01 -0.26218173258E+02 -0.14369823736E+03  0.14611787112E+03  0.00000000000E+00 0. -1.
</event>
<event>
 4    1  0.6089441E+003  0.2578076E+02  0.7546771E-02  0.1460256E+00
          2   -1    0    0  501    0  0.00000000000E+00  0.00000000000E+00  0.43172910042E+02  0.43172910042E+02  0.00000000000E+00 0.  1.
          2   -1    0    0  502    0 -0.00000000000E+00 -0.00000000000E+00 -0.32819186140E+02  0.32819186140E+02  0.00000000000E+00 0.  1.
          2    1    1    2  501    0 -0.25582361168E+02  0.31922258554E+01 -0.22508526078E+02  0.34223986545E+02  0.00000000000E+00 0.  1.
          2    1    1    2  502    0  0.25582361168E+02 -0.31922258554E+01  0.32862249980E+02  0.41768109636E+02  0.00000000000E+00 0.  1.
</event>
<event>
 4    1  0.6089441E+003  0.2058980E+02  0.7546771E-02  0.1525203E+00
          2   -1    0    0  502    0  0.00000000000E+00  0.00000000000E+00  0.85595206944E+01  0.85595206944E+01  0.00000000000E+00 0. -1.
          2   -1    0    0  501    0 -0.00000000000E+00 -0.00000000000E+00 -0.11284114055E+03  0.11284114055E+03  0.00000000000E+00 0. -1.
          2    1    1    2  501    0 -0.14870637213E+02 -0.14240927348E+02 -0.66731419646E+01  0.21644183665E+02  0.00000000000E+00 0. -1.
          2    1    1    2  502    0  0.14870637213E+02  0.14240927348E+02 -0.97608477889E+02  0.99756477578E+02  0.00000000000E+00 0. -1.
</event>
<event>
 4    1  0.6089441E+003  0.4068964E+02  0.7546771E-02  0.1344491E+00
          2   -1    0    0  501    0  0.00000000000E+00  0.00000000000E+00  0.15250457503E+02  0.15250457503E+02  0.00000000000E+00 0.  1.
          2   -1    0    0  502    0 -0.00000000000E+00 -0.00000000000E+00 -0.40722777734E+03  0.40722777734E+03  0.00000000000E+00 0.  1.
          2    1    1    2  501    0  0.40596635593E+02  0.27495410424E+01 -0.37689221793E+03  0.37908230074E+03  0.00000000000E+00 0.  1.
          2    1    1    2  502    0 -0.40596635593E+02 -0.27495410424E+01 -0.15085101912E+02  0.43395934108E+02  0.00000000000E+00 0.  1.
</event>
<event>
 4    1  0.6089441E+003  0.2641020E+02  0.7546771E-02  0.1453624E+00
          2   -1    0    0  501    0  0.00000000000E+00  0.00000000000E+00  0.52403002157E+03  0.52403002157E+03  0.00000000000E+00 0.  1.
          2   -1    0    0  502    0 -0.00000000000E+00 -0.00000000000E+00 -0.81659524579E+02  0.81659524579E+02  0.00000000000E+00 0. -1.
          2    1    1    2  501    0  0.58979410458E+00 -0.26403609213E+02 -0.79181241305E+02  0.83469559788E+02  0.00000000000E+00 0. -1.
          2    1    1    2  502    0 -0.58979410458E+00  0.26403609213E+02  0.52155173830E+03  0.52221998637E+03  0.00000000000E+00 0.  1.
</event>
<event>
 4    1  0.6089441E+003  0.2372935E+02  0.7546771E-02  0.1483537E+00
          2   -1    0    0  501    0  0.00000000000E+00  0.00000000000E+00  0.49839964621E+03  0.49839964621E+03  0.00000000000E+00 0. -1.
          2   -1    0    0  502    0 -0.00000000000E+00 -0.00000000000E+00 -0.29055209929E+01  0.29055209929E+01  0.00000000000E+00 0. -1.
          2    1    1    2  501    0  0.21559079362E+02 -0.99140348474E+01  0.51794937554E+02  0.56971901374E+02  0.00000000000E+00 0. -1.
          2    1    1    2  502    0 -0.21559079362E+02  0.99140348474E+01  0.44369918766E+03  0.44433326583E+03  0.00000000000E+00 0. -1.
</event>
<event>
 4    1  0.6089441E+003  0.2703575E+02  0.7546771E-02  0.1447249E+00
          2   -1    0    0  501    0  0.00000000000E+00  0.00000000000E+00  0.33163224378E+03  0.33163224378E+03  0.00000000000E+00 0. -1.
          2   -1    0    0  502    0 -0.00000000000E+00 -0.00000000000E+00 -0.22299346747E+01  0.22299346747E+01  0.00000000000E+00 0.  1.
          2    1    1    2  501    0  0.23088035080E+02  0.14066791440E+02  0.14671390923E+03  0.14918412499E+03  0.00000000000E+00 0.  1.
          2    1    1    2  502    0 -0.23088035080E+02 -0.14066791440E+02  0.18268839988E+03  0.18467805347E+03  0.00000000000E+00 0. -1.
</event>
<event>
 4    1  0.6089441E+003  0.3659409E+02  0.7546771E-02  0.1369690E+00
          2   -1    0    0  501    0  0.00000000000E+00  0.00000000000E+00  0.37422042490E+02  0.37422042490E+02  0.00000000000E+00 0. -1.
          2   -1    0    0  502    0 -0.00000000000E+00 -0.00000000000E+00 -0.41452580682E+03  0.41452580682E+03  0.00000000000E+00 0. -1.
          2    1    1    2  501    0 -0.11981247936E+02  0.34577115322E+02 -0.40455195974E+03  0.40620366239E+03  0.00000000000E+00 0. -1.
          2    1    1    2  502    0  0.11981247936E+02 -0.34577115322E+02  0.27448195410E+02  0.45744186924E+02  0.00000000000E+00 0. -1.
</event>
<event>
 4    1  0.6089441E+003  0.2175154E+02  0.7546771E-02  0.1508800E+00
          2   -1    0    0  501    0  0.00000000000E+00  0.00000000000E+00  0.48005971792E+03  0.48005971792E+03  0.00000000000E+00 0. -1.
          2   -1    0    0  502    0 -0.00000000000E+00 -0.00000000000E+00 -0.39858981190E+03  0.39858981190E+03  0.00000000000E+00 0.  1.
          2    1    1    2  501    0 -0.21328175750E+02  0.42706378407E+01 -0.39804633273E+03  0.39864020423E+03  0.00000000000E+00 0.  1.
          2    1    1    2  502    0  0.21328175750E+02 -0.42706378407E+01  0.47951623875E+03  0.48000932559E+03  0.00000000000E+00 0. -1.
</event>
<event>
 4    1  0.6089441E+003  0.3123631E+02  0.7546771E-02  0.1409149E+00
          2   -1    0    0  501    0  0.00000000000E+00  0.00000000000E+00  0.91075249045E+02  0.91075249045E+02  0.00000000000E+00 0.  1.
          2   -1    0    0  502    0 -0.00000000000E+00 -0.00000000000E+00 -0.22696462877E+04  0.22696462877E+04  0.00000000000E+00 0. -1.
          2    1    1    2  501    0  0.27254336684E+02 -0.15261331846E+02 -0.22668572198E+04  0.22670724210E+04  0.00000000000E+00 0. -1.
          2    1    1    2  502    0 -0.27254336684E+02  0.15261331846E+02  0.88286181090E+02  0.93649115795E+02  0.00000000000E+00 0.  1.
</event>
<event>
 4    1  0.6089441E+003  0.2226150E+02  0.7546771E-02  0.1501986E+00
          2   -1    0    0  502    0  0.00000000000E+00  0.00000000000E+00  0.37083238704E+03  0.37083238704E+03  0.00000000000E+00 0. -1.
          2   -1    0    0  501    0 -0.00000000000E+00 -0.00000000000E+00 -0.15183299448E+01  0.15183299448E+01  0.00000000000E+00 0.  1.
          2    1    1    2  501    0 -0.12410924940E+02  0.18480891506E+02  0.12020887141E+03  0.12225280027E+03  0.00000000000E+00 0.  1.
          2    1    1    2  502    0  0.12410924940E+02 -0.18480891506E+02  0.24910518568E+03  0.25009791671E+03  0.00000000000E+00 0. -1.
</event>
<event>
 4    1  0.6089441E+003  0.2903642E+02  0.7546771E-02  0.1428159E+00
          2   -1    0    0  502    0  0.00000000000E+00  0.00000000000E+00  0.89172095754E+02  0.89172095754E+02  0.00000000000E+00 0.  1.
          2   -1    0    0  501    0 -0.00000000000E+00 -0.00000000000E+00 -0.40926176349E+02  0.40926176349E+02  0.00000000000E+00 0. -1.
          2    1    1    2  501    0  0.22983040985E+02 -0.17745233669E+02  0.81165401336E+02  0.86202876199E+02  0.00000000000E+00 0.  1.
          2    1    1    2  502    0 -0.22983040985E+02  0.17745233669E+02 -0.32919481932E+02  0.43895395904E+02  0.00000000000E+00 0. -1.
</event>
<event>
 4    1  0.6089441E+003  0.3540439E+02  0.7546771E-02  0.1377742E+00
          2   -1    0    0  502    0  0.00000000000E+00  0.00000000000E+00  0.18982614794E+03  0.18982614794E+03  0.00000000000E+00 0. -1.
          2   -1    0    0  501    0 -0.00000000000E+00 -0.00000000000E+00 -0.82040309405E+01  0.82040309405E+01  0.00000000000E+00 0.  1.
          2    1    1    2  501    0 -0.29908221562E+02 -0.18946486542E+02  0.13454841981E+03  0.13912853174E+03  0.00000000000E+00 0. -1.
          2    1    1    2  502    0  0.29908221562E+02  0.18946486542E+02  0.47073697183E+02  0.58901647140E+02  0.00000000000E+00 0.  1.
</event>
<event>
 4    1  0.6089441E+003  0.2205914E+02  0.7546771E-02  0.1504663E+00
          2   -1    0    0  502    0  0.00000000000E+00  0.00000000000E+00  0.67904495690E+00  0.67904495690E+00  0.00000000000E+00 0. -1.
          2   -1    0    0  501    0 -0.00000000000E+00 -0.00000000000E+00 -0.18219362557E+04  0.18219362557E+04  0.00000000000E+00 0.  1.
          2    1    1    2  501    0 -0.37833633129E+01  0.21732278274E+02 -0.20081386257E+03  0.20202181357E+03  0.00000000000E+00 0. -1.
          2    1    1    2  502    0  0.37833633129E+01 -0.21732278274E+02 -0.16204433481E+04  0.16205934870E+04  0.00000000000E+00 0.  1.
</event>
<event>
 4    1  0.6089441E+003  0.3440190E+02  0.7546771E-02  0.1384817E+00
          2   -1    0    0  502    0  0.00000000000E+00  0.00000000000E+00  0.18594709744E+03  0.18594709744E+03  0.00000000000E+00 0.  1.
          2   -1    0    0  501    0 -0.00000000000E+00 -0.00000000000E+00 -0.61481996738E+02  0.61481996738E+02  0.00000000000E+00 0.  1.
          2    1    1    2  501    0  0.63378291989E+01 -0.33813055653E+02  0.17936868370E+03  0.18263793555E+03  0.00000000000E+00 0.  1.
          2    1    1    2  502    0 -0.63378291989E+01  0.33813055653E+02 -0.54903582990E+02  0.64791158630E+02  0.00000000000E+00 0.  1.
</event>
<event>
 4    1  0.6089441E+003  0.3467420E+02  0.7546771E-02  0.1382868E+00
          2   -1    0    0  502    0  0.00000000000E+00  0.00000000000E+00  0.17721672729E+02  0.17721672729E+02  0.00000000000E+00 0.  1.
          2   -1    0    0  501    0 -0.00000000000E+00 -0.00000000000E+00 -0.67903228224E+02  0.67903228224E+02  0.00000000000E+00 0.  1.
          2    1    1    2  501    0  0.12178156007E+02 -0.32465247833E+02 -0.23820736302E+02  0.42068126634E+02  0.00000000000E+00 0.  1.
          2    1    1    2  502    0 -0.12178156007E+02  0.32465247833E+02 -0.26360819193E+02  0.43556774319E+02  0.00000000000E+00 0.  1.
</event>
<event>
 4    1  0.6089441E+003  0.2417192E+02  0.7546771E-02  0.1478284E+00
          2   -1    0    0  502    0  0.00000000000E+00  0.00000000000E+00  0.11130808384E+03  0.11130808384E+03  0.00000000000E+00 0. -1.
          2   -1    0    0  501    0 -0.00000000000E+00 -0.00000000000E+00 -0.59439697820E+01  0.59439697820E+01  0.00000000000E+00 0.  1.
          2    1    1    2  501    0 -0.14744649676E+02  0.19154037133E+02  0.72725068280E+02  0.76636919229E+02  0.00000000000E+00 0. -1.
          2    1    1    2  502    0  0.14744649676E+02 -0.19154037133E+02  0.32639045783E+02  0.40615134398E+02  0.00000000000E+00 0.  1.
</event>
<event>
 4    1  0.6089441E+003  0.4681460E+02  0.7546771E-02  0.1312607E+00
          2   -1    0    0  501    0  0.00000000000E+00  0.00000000000E+00  0.19316370399E+03  0.19316370399E+03  0.00000000000E+00 0.  1.
          2   -1    0    0  502    0 -0.00000000000E+00 -0.00000000000E+00 -0.11348094755E+02  0.11348094755E+02  0.00000000000E+00 0. -1.
          2    1    1    2  501    0 -0.57431125314E+01  0.46460984108E+02  0.89469589237E+02  0.10097729341E+03  0.00000000000E+00 0.  1.
          2    1    1    2  502    0  0.57431125314E+01 -0.46460984108E+02  0.92346019995E+02  0.10353450533E+03  0.00000000000E+00 0. -1.
</event>
<event>
 4    1  0.6089441E+003  0.5813558E+02  0.7546771E-02  0.1266302E+00
          2   -1    0    0  502    0  0.00000000000E+00  0.00000000000E+00  0.45156724039E+02  0.45156724039E+02  0.00000000000E+00 0.  1.
          2   -1    0    0  501    0 -0.00000000000E+00 -0.00000000000E+00 -0.62089691586E+03  0.62089691586E+03  0.00000000000E+00 0. -1.
          2    1    1    2  501    0  0.20412716279E+02  0.54434060051E+02  0.24440347585E+02  0.63064066390E+02  0.00000000000E+00 0.  1.
          2    1    1    2  502    0 -0.20412716279E+02 -0.54434060051E+02 -0.60018053941E+03  0.60298957351E+03  0.00000000000E+00 0. -1.
</event>
<event>
 4    1  0.6089441E+003  0.2355058E+02  0.7546771E-02  0.1485698E+00
          2   -1    0    0  501    0  0.00000000000E+00  0.00000000000E+00  0.41077463282E+01  0.41077463282E+01  0.00000000000E+00 0. -1.
          2   -1    0    0  502    0 -0.00000000000E+00 -0.00000000000E+00 -0.11077152895E+04  0.11077152895E+04  0.00000000000E+00 0. -1.
          2    1    1    2  501    0  0.22778324579E+02  0.59814377038E+01 -0.10727344182E+04  0.10729928992E+04  0.00000000000E+00 0. -1.
          2    1    1    2  502    0 -0.22778324579E+02 -0.59814377038E+01 -0.30873124965E+02  0.38830136656E+02  0.00000000000E+00 0. -1.
</event>
<event>
 4    1  0.6089441E+003  0.5789698E+02  0.7546771E-02  0.1267150E+00
          2   -1    0    0  501    0  0.00000000000E+00  0.00000000000E+00  0.59638369528E+03  0.59638369528E+03  0.00000000000E+00 0. -1.
          2   -1    0    0  502    0 -0.00000000000E+00 -0.00000000000E+00 -0.81105981727E+01  0.81105981727E+01  0.00000000000E+00 0.  1.
          2    1    1    2  501    0 -0.57811464639E+02 -0.31456948341E+01  0.46160437565E+03  0.46522108772E+03  0.00000000000E+00 0. -1.
          2    1    1    2  502    0  0.57811464639E+02  0.31456948341E+01  0.12666872146E+03  0.13927320574E+03  0.00000000000E+00 0.  1.
</event>
<event>
 4    1  0.6089441E+003  0.2004398E+02  0.7546771E-02  0.1533364E+00
          2   -1    0    0  501    0  0.00000000000E+00  0.00000000000E+00  0.31445926284E+01  0.31445926284E+01  0.00000000000E+00 0.  1.
          2   -1    0    0  502    0 -0.00000000000E+00 -0.00000000000E+00 -0.56723535359E+03  0.56723535359E+03  0.00000000000E+00 0. -1.
          2    1    1    2  501    0 -0.11359291675E+02 -0.16514468533E+02 -0.53307132398E+03  0.53344802711E+03  0.00000000000E+00 0. -1.
          2    1    1    2  502    0  0.11359291675E+02  0.16514468533E+02 -0.31019436979E+02  0.36931919105E+02  0.00000000000E+00 0.  1.
</event>
<event>
 4    1  0.6089441E+003  0.5492997E+02  0.7546771E-02  0.1278105E+00
          2   -1    0    0  502    0  0.00000000000E+00  0.00000000000E+00  0.66043145269E+01  0.66043145269E+01  0.00000000000E+00 0. -1.
          2   -1    0    0  501    0 -0.00000000000E+00 -0.00000000000E+00 -0.22219160877E+04  0.22219160877E+04  0.00000000000E+00 0. -1.
          2    1    1    2  501    0 -0.42956639302E+02  0.34234910111E+02 -0.11453749084E+03  0.12702810216E+03  0.00000000000E+00 0. -1.
          2    1    1    2  502    0  0.42956639302E+02 -0.34234910111E+02 -0.21007742823E+04  0.21014923001E+04  0.00000000000E+00 0. -1.
</event>
<event>
 4    1  0.6089441E+003  0.2177542E+02  0.7546771E-02  0.1508476E+00
          2   -1    0    0  502    0  0.00000000000E+00  0.00000000000E+00  0.44398122618E+02  0.44398122618E+02  0.00000000000E+00 0. -1.
          2   -1    0    0  501    0 -0.00000000000E+00 -0.00000000000E+00 -0.23151557871E+02  0.23151557871E+02  0.00000000000E+00 0. -1.
          2    1    1    2  501    0 -0.16349097120E+02  0.14383182187E+02  0.35412609580E+02  0.41571887421E+02  0.00000000000E+00 0. -1.
          2    1    1    2  502    0  0.16349097120E+02 -0.14383182187E+02 -0.14166044833E+02  0.25977793068E+02  0.00000000000E+00 0. -1.
</event>
<event>
 4    1  0.6089441E+003  0.2118409E+02  0.7546771E-02  0.1516653E+00
          2   -1    0    0  502    0  0.00000000000E+00  0.00000000000E+00  0.11522967621E+03  0.11522967621E+03  0.00000000000E+00 0. -1.
          2   -1    0    0  501    0 -0.00000000000E+00 -0.00000000000E+00 -0.26207981307E+02  0.26207981307E+02  0.00000000000E+00 0.  1.
          2    1    1    2  501    0 -0.14771912475E+02 -0.15184076648E+02  0.10976402069E+03  0.11178956043E+03  0.00000000000E+00 0. -1.
          2    1    1    2  502    0  0.14771912475E+02  0.15184076648E+02 -0.20742325791E+02  0.29648097090E+02  0.00000000000E+00 0.  1.
</event>
<event>
 4    1  0.6089441E+003  0.2067755E+02  0.7546771E-02  0.1523919E+00
          2   -1    0    0  501    0  0.00000000000E+00  0.00000000000E+00  0.76916855871E+03  0.76916855871E+03  0.00000000000E+00 0.  1.
          2   -1    0    0  502    0 -0.00000000000E+00 -0.00000000000E+00 -0.20805483729E+03  0.20805483729E+03  0.00000000000E+00 0.  1.
          2    1    1    2  501    0 -0.14505840446E+02 -0.14735722876E+02 -0.20740167227E+03  0.20842987933E+03  0.00000000000E+00 0.  1.
          2    1    1    2  502    0  0.14505840446E+02  0.14735722876E+02  0.76851539369E+03  0.76879351667E+03  0.00000000000E+00 0.  1.
</event>
<event>
 4    1  0.6089441E+003  0.3719031E+02  0.7546771E-02  0.1365787E+00
          2   -1    0    0  501    0  0.00000000000E+00  0.00000000000E+00  0.50316579767E+02  0.50316579767E+02  0.00000000000E+00 0.  1.
          2   -1    0    0  502    0 -0.00000000000E+00 -0.00000000000E+00 -0.35874782483E+03  0.35874782483E+03  0.00000000000E+00 0. -1.
          2    1    1    2  501    0  0.20405856359E+02  0.31092122211E+02 -0.35075574405E+03  0.35272186071E+03  0.00000000000E+00 0. -1.
          2    1    1    2  502    0 -0.20405856359E+02 -0.31092122211E+02  0.42324498987E+02  0.56342543888E+02  0.00000000000E+00 0.  1.
</event>
<event>
 4    1  0.6089441E+003  0.2159322E+02  0.7546771E-02  0.1510961E+00
          2   -1    0    0  502    0  0.00000000000E+00  0.00000000000E+00  0.45489039854E+01  0.45489039854E+01  0.00000000000E+00 0. -1.
          2   -1    0    0  501    0 -0.00000000000E+00 -0.00000000000E+00 -0.55001739577E+03  0.55001739577E+03  0.00000000000E+00 0.  1.
          2    1    1    2  501    0 -0.17646549413E+02  0.12444542387E+02 -0.22619252036E+02  0.31271359166E+02  0.00000000000E+00 0. -1.
          2    1    1    2  502    0  0.17646549413E+02 -0.12444542387E+02 -0.52284923974E+03  0.52329494059E+03  0.00000000000E+00 0.  1.
</event>
<event>
 4    1  0.6089441E+003  0.2108429E+02  0.7546771E-02  0.1518065E+00
          2   -1    0    0  501    0  0.00000000000E+00  0.00000000000E+00  0.59273953785E+03  0.59273953785E+03  0.00000000000E+00 0.  1.
          2   -1    0    0  502    0 -0.00000000000E+00 -0.00000000000E+00 -0.11827004579E+03  0.11827004579E+03  0.00000000000E+00 0. -1.
          2    1    1    2  501    0 -0.16561320846E+01  0.21019144995E+02 -0.11714106942E+03  0.11902343204E+03  0.00000000000E+00 0. -1.
          2    1    1    2  502    0  0.16561320846E+01 -0.21019144995E+02  0.59161056148E+03  0.59198615160E+03  0.00000000000E+00 0.  1.
</event>
<event>
 4    1  0.6089441E+003  0.3073792E+02  0.7546771E-02  0.1413290E+00
          2   -1    0    0  501    0  0.00000000000E+00  0.00000000000E+00  0.58648384274E+01  0.58648384274E+01  0.00000000000E+00 0. -1.
          2   -1    0    0  502    0 -0.00000000000E+00 -0.00000000000E+00 -0.49611733645E+03  0.49611733645E+03  0.00000000000E+00 0. -1.
          2    1    1    2  501    0 -0.23588768303E+02  0.19707607118E+02 -0.45137929424E+03  0.45242467554E+03  0.00000000000E+00 0. -1.
          2    1    1    2  502    0  0.23588768303E+02 -0.19707607118E+02 -0.38873203786E+02  0.49557499342E+02  0.00000000000E+00 0. -1.
</event>
<event>
 4    1  0.6089441E+003  0.2924007E+02  0.7546771E-02  0.1426317E+00
          2   -1    0    0  501    0  0.00000000000E+00  0.00000000000E+00  0.10241171927E+04  0.10241171927E+04  0.00000000000E+00 0.  1.
          2   -1    0    0  502    0 -0.00000000000E+00 -0.00000000000E+00 -0.10149423328E+01  0.10149423328E+01  0.00000000000E+00 0.  1.
          2    1    1    2  501    0 -0.10887568985E+02 -0.27137473762E+02  0.29563760472E+03  0.29708008173E+03  0.00000000000E+00 0.  1.
          2    1    1    2  502    0  0.10887568985E+02  0.27137473762E+02  0.72746464565E+03  0.72805205330E+03  0.00000000000E+00 0.  1.
</event>
<event>
 4    1  0.6089441E+003  0.2009051E+02  0.7546771E-02  0.1532657E+00
          2   -1    0    0  502    0  0.00000000000E+00  0.00000000000E+00  0.58257118324E+03  0.58257118324E+03  0.00000000000E+00 0. -1.
          2   -1    0    0  501    0 -0.00000000000E+00 -0.00000000000E+00 -0.32476634407E+01  0.32476634407E+01  0.00000000000E+00 0. -1.
          2    1    1    2  501    0  0.19641225962E+02  0.42250400846E+01  0.54945525145E+03  0.54982242776E+03  0.00000000000E+00 0. -1.
          2    1    1    2  502    0 -0.19641225962E+02 -0.42250400846E+01  0.29868268350E+02  0.35996418923E+02  0.00000000000E+00 0. -1.
</event>
<event>
 4    1  0.6089441E+003  0.2083752E+02  0.7546771E-02  0.1521597E+00
          2   -1    0    0  502    0  0.00000000000E+00  0.00000000000E+00  0.12435651099E+03  0.12435651099E+03  0.00000000000E+00 0. -1.
          2   -1    0    0  501    0 -0.00000000000E+00 -0.00000000000E+00 -0.73348547042E+03  0.73348547042E+03  0.00000000000E+00 0. -1.
          2    1    1    2  501    0  0.15717075031E+02 -0.13681226449E+02  0.12333440190E+03  0.12508228131E+03  0.00000000000E+00 0. -1.
          2    1    1    2  502    0 -0.15717075031E+02  0.13681226449E+02 -0.73246336133E+03  0.73275970011E+03  0.00000000000E+00 0. -1.
</event>
<event>
 4    1  0.6089441E+003  0.2186560E+02  0.7546771E-02  0.1507256E+00
          2   -1    0    0  502    0  0.00000000000E+00  0.00000000000E+00  0.88943026335E+03  0.88943026335E+03  0.00000000000E+00 0. -1.
          2   -1    0    0  501    0 -0.00000000000E+00 -0.00000000000E+00 -0.13319407071E+02  0.13319407071E+02  0.00000000000E+00 0.  1.
          2    1    1    2  501    0 -0.12201509410E+02  0.18144636371E+02  0.88022824380E+03  0.88049978186E+03  0.00000000000E+00 0. -1.
          2    1    1    2  502    0  0.12201509410E+02 -0.18144636371E+02 -0.41173875276E+01  0.22249888561E+02  0.00000000000E+00 0.  1.
</event>
<event>
 4    1  0.6089441E+003  0.2396447E+02  0.7546771E-02  0.1480730E+00
          2   -1    0    0  501    0  0.00000000000E+00  0.00000000000E+00  0.19169631931E+02  0.19169631931E+02  0.00000000000E+00 0.  1.
          2   -1    0    0  502    0 -0.00000000000E+00 -0.00000000000E+00 -0.37313265135E+03  0.37313265135E+03  0.00000000000E+00 0. -1.
          2    1    1    2  501    0 -0.91024370333E-01  0.23964301696E+02 -0.36509347067E+03  0.36587913082E+03  0.00000000000E+00 0. -1.
          2    1    1    2  502    0  0.91024370333E-01 -0.23964301696E+02  0.11130451250E+02  0.26423152466E+02  0.00000000000E+00 0.  1.
</event>
<event>
 4    1  0.6089441E+003  0.6745457E+02  0.7546771E-02  0.1236412E+00
          2   -1    0    0  502    0  0.00000000000E+00  0.00000000000E+00  0.20038977967E+04  0.20038977967E+04  0.00000000000E+00 0.  1.
          2   -1    0    0  501    0 -0.00000000000E+00 -0.00000000000E+00 -0.35055272686E+04  0.35055272686E+04  0.00000000000E+00 0. -1.
          2    1    1    2  501    0  0.37586982268E+01 -0.67349767348E+02  0.20030054976E+04  0.20041409987E+04  0.00000000000E+00 0.  1.
          2    1    1    2  502    0 -0.37586982268E+01  0.67349767348E+02 -0.35046349695E+04  0.35052840667E+04  0.00000000000E+00 0. -1.
</event>
<event>
 4    1  0.6089441E+003  0.2613420E+02  0.7546771E-02  0.1456505E+00
          2   -1    0    0  502    0  0.00000000000E+00  0.00000000000E+00  0.15011436524E+01  0.15011436524E+01  0.00000000000E+00 0.  1.
          2   -1    0    0  501    0 -0.00000000000E+00 -0.00000000000E+00 -0.56844621632E+03  0.56844621632E+03  0.00000000000E+00 0.  1.
          2    1    1    2  501    0 -0.23954009156E+02 -0.10449975556E+02 -0.15615581778E+03  0.15832762226E+03  0.00000000000E+00 0.  1.
          2    1    1    2  502    0  0.23954009156E+02  0.10449975556E+02 -0.41078925489E+03  0.41161973772E+03  0.00000000000E+00 0.  1.
</event>
<event>
 4    1  0.6089441E+003  0.2371824E+02  0.7546771E-02  0.1483671E+00
          2   -1    0    0  501    0  0.00000000000E+00  0.00000000000E+00  0.71472827193E+03  0.71472827193E+03  0.00000000000E+00 0.  1.
          2   -1    0    0  502    0 -0.00000000000E+00 -0.00000000000E+00 -0.19305179552E+02  0.19305179552E+02  0.00000000000E+00 0.  1.
          2    1    1    2  501    0  0.63383174194E+01  0.22855643373E+02 -0.11745529218E+02  0.26467190223E+02  0.00000000000E+00 0.  1.
          2    1    1    2  502    0 -0.63383174194E+01 -0.22855643373E+02  0.70716862160E+03  0.70756626126E+03  0.00000000000E+00 0.  1.
</event>
<event>
 4    1  0.6089441E+003  0.2329154E+02  0.7546771E-02  0.1488869E+00
          2   -1    0    0  501    0  0.00000000000E+00  0.00000000000E+00  0.22511091433E+01  0.22511091433E+01  0.00000000000E+00 0.  1.
          2   -1    0    0  502    0 -0.00000000000E+00 -0.00000000000E+00 -0.64617806073E+03  0.64617806073E+03  0.00000000000E+00 0. -1.
          2    1    1    2  501    0  0.23283343417E+02 -0.61803556420E+00 -0.57869811257E+03  0.57916664402E+03  0.00000000000E+00 0. -1.
          2    1    1    2  502    0 -0.23283343417E+02  0.61803556420E+00 -0.65228839013E+02  0.69262525854E+02  0.00000000000E+00 0.  1.
</event>
<event>
 4    1  0.6089441E+003  0.2306083E+02  0.7546771E-02  0.1491736E+00
          2   -1    0    0  501    0  0.00000000000E+00  0.00000000000E+00  0.30098393719E+02  0.30098393719E+02  0.00000000000E+00 0.  1.
          2   -1    0    0  502    0 -0.00000000000E+00 -0.00000000000E+00 -0.12070211548E+04  0.12070211548E+04  0.00000000000E+00 0.  1.
          2    1    1    2  501    0 -0.35888714109E+01  0.22779854432E+02 -0.12024771227E+04  0.12026982300E+04  0.00000000000E+00 0.  1.
          2    1    1    2  502    0  0.35888714109E+01 -0.22779854432E+02  0.25554361675E+02  0.34421318490E+02  0.00000000000E+00 0.  1.
</event>
<event>
 4    1  0.6089441E+003  0.2277399E+02  0.7546771E-02  0.1495356E+00
          2   -1    0    0  501    0  0.00000000000E+00  0.00000000000E+00  0.16998734806E+04  0.16998734806E+04  0.00000000000E+00 0. -1.
          2   -1    0    0  502    0 -0.00000000000E+00 -0.00000000000E+00 -0.98297192590E+00  0.98297192590E+00  0.00000000000E+00 0. -1.
          2    1    1    2  501    0 -0.74979261397E+01 -0.21504318536E+02  0.14323087092E+03  0.14503012445E+03  0.00000000000E+00 0. -1.
          2    1    1    2  502    0  0.74979261397E+01  0.21504318536E+02  0.15556596377E+04  0.15558263281E+04  0.00000000000E+00 0. -1.
</event>
<event>
 4    1  0.6089441E+003  0.2272042E+02  0.7546771E-02  0.1496039E+00
          2   -1    0    0  501    0  0.00000000000E+00  0.00000000000E+00  0.18960122552E+03  0.18960122552E+03  0.00000000000E+00 0. -1.
          2   -1    0    0  502    0 -0.00000000000E+00 -0.00000000000E+00 -0.72290373898E+02  0.72290373898E+02  0.00000000000E+00 0.  1.
          2    1    1    2  501    0 -0.22304031205E+02 -0.43298601854E+01 -0.69800823907E+02  0.73405534637E+02  0.00000000000E+00 0.  1.
          2    1    1    2  502    0  0.22304031205E+02  0.43298601854E+01  0.18711167553E+03  0.18848606478E+03  0.00000000000E+00 0. -1.
</event>
<event>
 4    1  0.6089441E+003  0.2005399E+02  0.7546771E-02  0.1533212E+00
          2   -1    0    0  502    0  0.00000000000E+00  0.00000000000E+00  0.62004542457E+03  0.62004542457E+03  0.00000000000E+00 0.  1.
          2   -1    0    0  501    0 -0.00000000000E+00 -0.00000000000E+00 -0.47413682024E+01  0.47413682024E+01  0.00000000000E+00 0.  1.
          2    1    1    2  501    0  0.19916279738E+02 -0.23460928472E+01  0.59789285449E+03  0.59822907636E+03  0.00000000000E+00 0.  1.
          2    1    1    2  502    0 -0.19916279738E+02  0.23460928472E+01  0.17411201874E+02  0.26557716411E+02  0.00000000000E+00 0.  1.
</event>
<event>
 4    1  0.6089441E+003  0.3383608E+02  0.7546771E-02  0.1388936E+00
          2   -1    0    0  501    0  0.00000000000E+00  0.00000000000E+00  0.18938589165E+03  0.18938589165E+03  0.00000000000E+00 0. -1.
          2   -1    0    0  502    0 -0.00000000000E+00 -0.00000000000E+00 -0.28615101218E+03  0.28615101218E+03  0.00000000000E+00 0.  1.
          2    1    1    2  501    0 -0.15920846477E+02  0.29856441877E+02 -0.28362605750E+03  0.28563721915E+03  0.00000000000E+00 0.  1.
          2    1    1    2  502    0  0.15920846477E+02 -0.29856441877E+02  0.18686093697E+03  0.18989968467E+03  0.00000000000E+00 0. -1.
</event>
<event>
 4    1  0.6089441E+003  0.2203732E+02  0.7546771E-02  0.1504954E+00
          2   -1    0    0  502    0  0.00000000000E+00  0.00000000000E+00  0.48251005670E+03  0.48251005670E+03  0.00000000000E+00 0. -1.
          2   -1    0    0  501    0 -0.00000000000E+00 -0.00000000000E+00 -0.10212466585E+01  0.10212466585E+01  0.00000000000E+00 0. -1.
          2    1    1    2  501    0 -0.19973710267E+02 -0.93109726345E+01  0.26980265237E+03  0.27070115356E+03  0.00000000000E+00 0. -1.
          2    1    1    2  502    0  0.19973710267E+02  0.93109726345E+01  0.21168615767E+03  0.21283014980E+03  0.00000000000E+00 0. -1.
</event>
<event>
 4    1  0.6089441E+003  0.7342753E+02  0.7546771E-02  0.1219987E+00
          2   -1    0    0  501    0  0.00000000000E+00  0.00000000000E+00  0.48424443956E+03  0.48424443956E+03  0.00000000000E+00 0.  1.
          2   -1    0    0  502    0 -0.00000000000E+00 -0.00000000000E+00 -0.18343078437E+02  0.18343078437E+02  0.00000000000E+00 0. -1.
          2    1    1    2  501    0 -0.31742222874E+02  0.66212039014E+02  0.75413199501E+02  0.10525565772E+03  0.00000000000E+00 0. -1.
          2    1    1    2  502    0  0.31742222874E+02 -0.66212039014E+02  0.39048816162E+03  0.39733186028E+03  0.00000000000E+00 0.  1.
</event>
<event>
 4    1  0.6089441E+003  0.2642700E+02  0.7546771E-02  0.1453451E+00
          2   -1    0    0  502    0  0.00000000000E+00  0.00000000000E+00  0.10882604580E+02  0.10882604580E+02  0.00000000000E+00 0.  1.
          2   -1    0    0  501    0 -0.00000000000E+00 -0.00000000000E+00 -0.92696522639E+02  0.92696522639E+02  0.00000000000E+00 0. -1.
          2    1    1    2  501    0  0.16680335432E+01 -0.26374300639E+02 -0.12179286814E+02  0.29098472423E+02  0.00000000000E+00 0.  1.
          2    1    1    2  502    0 -0.16680335432E+01  0.26374300639E+02 -0.69634631245E+02  0.74480654795E+02  0.00000000000E+00 0. -1.
</event>
<event>
 4    1  0.6089441E+003  0.2751802E+02  0.7546771E-02  0.1442473E+00
          2   -1    0    0  501    0  0.00000000000E+00  0.00000000000E+00  0.11575453339E+02  0.11575453339E+02  0.00000000000E+00 0. -1.
          2   -1    0    0  502    0 -0.00000000000E+00 -0.00000000000E+00 -0.73265923136E+03  0.73265923136E+03  0.00000000000E+00 0.  1.
          2    1    1    2  501    0 -0.33848904024E+01  0.27309044686E+02 -0.71565800349E+03  0.71618686064E+03  0.00000000000E+00 0.  1.
          2    1    1    2  502    0  0.33848904024E+01 -0.27309044686E+02 -0.54257745301E+01  0.28047824051E+02  0.00000000000E+00 0. -1.
</event>
<event>
 4    1  0.6089441E+003  0.3838177E+02  0.7546771E-02  0.1358239E+00
          2   -1    0    0  502    0  0.00000000000E+00  0.00000000000E+00  0.10243351248E+04  0.10243351248E+04  0.00000000000E+00 0. -1.
          2   -1    0    0  501    0 -0.00000000000E+00 -0.00000000000E+00 -0.38003991036E+01  0.38003991036E+01  0.00000000000E+00 0. -1.
          2    1    1    2  501    0 -0.35499762359E+02 -0.14592019509E+02  0.91555884970E+03  0.91636301073E+03  0.00000000000E+00 0. -1.
          2    1    1    2  502    0  0.35499762359E+02  0.14592019509E+02  0.10497587599E+03  0.11177251317E+03  0.00000000000E+00 0. -1.
</event>
<event>
 4    1  0.6089441E+003  0.3586430E+02  0.7546771E-02  0.1374587E+00
          2   -1    0    0  501    0  0.00000000000E+00  0.00000000000E+00  0.10848010885E+04  0.10848010885E+04  0.00000000000E+00 0.  1.
          2   -1    0    0  502    0 -0.00000000000E+00 -0.00000000000E+00 -0.13372517541E+01  0.13372517541E+01  0.00000000000E+00 0.  1.
          2    1    1    2  501    0  0.21389413364E+02 -0.28787868246E+02  0.35890951019E+03  0.36069694325E+03  0.00000000000E+00 0.  1.
          2    1    1    2  502    0 -0.21389413364E+02  0.28787868246E+02  0.72455432659E+03  0.72544139704E+03  0.00000000000E+00 0.  1.
</event>
<event>
 4    1  0.6089441E+003  0.2955502E+02  0.7546771E-02  0.1423503E+00
          2   -1    0    0  501    0  0.00000000000E+00  0.00000000000E+00  0.40691569736E+02  0.40691569736E+02  0.00000000000E+00 0.  1.
          2   -1    0    0  502    0 -0.00000000000E+00 -0.00000000000E+00 -0.47428932395E+02  0.47428932395E+02  0.00000000000E+00 0. -1.
          2    1    1    2  501    0 -0.27067045926E+02 -0.11869038674E+02 -0.35967309483E+02  0.46552619751E+02  0.00000000000E+00 0. -1.
          2    1    1    2  502    0  0.27067045926E+02  0.11869038674E+02  0.29229946824E+02  0.41567882380E+02  0.00000000000E+00 0.  1.
</event>
<event>
 4    1  0.6089441E+003  0.2164575E+02  0.7546771E-02  0.1510242E+00
          2   -1    0    0  502    0  0.00000000000E+00  0.00000000000E+00  0.59194204279E+02  0.59194204279E+02  0.00000000000E+00 0. -1.
          2   -1    0    0  501    0 -0.00000000000E+00 -0.00000000000E+00 -0.10300114522E+04  0.10300114522E+04  0.00000000000E+00 0.  1.
          2    1    1    2  501    0 -0.15470147791E+02  0.15139787600E+02  0.57097627191E+02  0.61062899310E+02  0.00000000000E+00 0. -1.
          2    1    1    2  502    0  0.15470147791E+02 -0.15139787600E+02 -0.10279148751E+04  0.10281427572E+04  0.00000000000E+00 0.  1.
</event>
<event>
 4    1  0.6089441E+003  0.8158522E+02  0.7546771E-02  0.1200215E+00
          2   -1    0    0  502    0  0.00000000000E+00  0.00000000000E+00  0.13378462833E+03  0.13378462833E+03  0.00000000000E+00 0.  1.
          2   -1    0    0  501    0 -0.00000000000E+00 -0.00000000000E+00 -0.39163302439E+03  0.39163302439E+03  0.00000000000E+00 0. -1.
          2    1    1    2  501    0  0.19113228108E+02 -0.79314771723E+02  0.11653089908E+03  0.14225188555E+03  0.00000000000E+00 0.  1.
          2    1    1    2  502    0 -0.19113228108E+02  0.79314771723E+02 -0.37437929514E+03  0.38316576717E+03  0.00000000000E+00 0. -1.
</event>
<event>
 4    1  0.6089441E+003  0.2436424E+02  0.7546771E-02  0.1476043E+00
          2   -1    0    0  502    0  0.00000000000E+00  0.00000000000E+00  0.22403541161E+03  0.22403541161E+03  0.00000000000E+00 0. -1.
          2   -1    0    0  501    0 -0.00000000000E+00 -0.00000000000E+00 -0.65929021946E+02  0.65929021946E+02  0.00000000000E+00 0.  1.
          2    1    1    2  501    0 -0.24219480595E+02 -0.26519558551E+01  0.22109215651E+03  0.22243056845E+03  0.00000000000E+00 0. -1.
          2    1    1    2  502    0  0.24219480595E+02  0.26519558551E+01 -0.62985766849E+02  0.67533865103E+02  0.00000000000E+00 0.  1.
</event>
<event>
 4    1  0.6089441E+003  0.4230929E+02  0.7546771E-02  0.1335460E+00
          2   -1    0    0  502    0  0.00000000000E+00  0.00000000000E+00  0.18399249288E+03  0.18399249288E+03  0.00000000000E+00 0.  1.
          2   -1    0    0  501    0 -0.00000000000E+00 -0.00000000000E+00 -0.32434800391E+02  0.32434800391E+02  0.00000000000E+00 0. -1.
          2    1    1    2  501    0 -0.15304377436E+02  0.39444292590E+02  0.16631960674E+03  0.17161668851E+03  0.00000000000E+00 0.  1.
          2    1    1    2  502    0  0.15304377436E+02 -0.39444292590E+02 -0.14761914257E+02  0.44810604762E+02  0.00000000000E+00 0. -1.
</event>
<event>
 4    1  0.6089441E+003  0.2665176E+02  0.7546771E-02  0.1451138E+00
          2   -1    0    0  502    0  0.00000000000E+00  0.00000000000E+00  0.85889704563E+03  0.85889704563E+03  0.00000000000E+00 0.  1.
          2   -1    0    0  501    0 -0.00000000000E+00 -0.00000000000E+00 -0.14147779502E+01  0.14147779502E+01  0.00000000000E+00 0.  1.
          2    1    1    2  501    0  0.14775559451E+02  0.22181054830E+02  0.70599955525E+03  0.70650243337E+03  0.00000000000E+00 0.  1.
          2    1    1    2  502    0 -0.14775559451E+02 -0.22181054830E+02  0.15148271243E+03  0.15380939021E+03  0.00000000000E+00 0.  1.
</event>
<event>
 4    1  0.6089441E+003  0.2212360E+02  0.7546771E-02  0.1503806E+00
          2   -1    0    0  502    0  0.00000000000E+00  0.00000000000E+00  0.21957946554E+03  0.21957946554E+03  0.00000000000E+00 0. -1.
          2   -1    0    0  501    0 -0.00000000000E+00 -0.00000000000E+00 -0.49775304954E+03  0.49775304954E+03  0.00000000000E+00 0. -1.
          2    1    1    2  501    0  0.26438793151E+00  0.22122020649E+02  0.21877547021E+03  0.21989124600E+03  0.00000000000E+00 0. -1.
          2    1    1    2  502    0 -0.26438793151E+00 -0.22122020649E+02 -0.49694905422E+03  0.49744126908E+03  0.00000000000E+00 0. -1.
</event>
<event>
 4    1  0.6089441E+003  0.2291840E+02  0.7546771E-02  0.1493525E+00
          2   -1    0    0  501    0  0.00000000000E+00  0.00000000000E+00  0.15958646347E+04  0.15958646347E+04  0.00000000000E+00 0.  1.
          2   -1    0    0  502    0 -0.00000000000E+00 -0.00000000000E+00 -0.20438077080E+02  0.20438077080E+02  0.00000000000E+00 0.  1.
          2    1    1    2  501    0 -0.18176519716E+02  0.13959479200E+02 -0.13904451726E+02  0.26806467621E+02  0.00000000000E+00 0.  1.
          2    1    1    2  502    0  0.18176519716E+02 -0.13959479200E+02  0.15893310094E+04  0.15894962442E+04  0.00000000000E+00 0.  1.
</event>
<event>
 4    1  0.6089441E+003  0.2849309E+02  0.7546771E-02  0.1433160E+00
          2   -1    0    0  501    0  0.00000000000E+00  0.00000000000E+00  0.80481627613E+02  0.80481627613E+02  0.00000000000E+00 0. -1.
          2   -1    0    0  502    0 -0.00000000000E+00 -0.00000000000E+00 -0.12046436557E+02  0.12046436557E+02  0.00000000000E+00 0. -1.
          2    1    1    2  501    0 -0.22470332998E+02  0.17519709162E+02  0.15561206206E+02  0.32465477245E+02  0.00000000000E+00 0. -1.
          2    1    1    2  502    0  0.22470332998E+02 -0.17519709162E+02  0.52873984851E+02  0.60062586925E+02  0.00000000000E+00 0. -1.
</event>
<event>
 4    1  0.6089441E+003  0.2089614E+02  0.7546771E-02  0.1520753E+00
          2   -1    0    0  501    0  0.00000000000E+00  0.00000000000E+00  0.53670122898E+03  0.53670122898E+03  0.00000000000E+00 0. -1.
          2   -1    0    0  502    0 -0.00000000000E+00 -0.00000000000E+00 -0.12615434862E+04  0.12615434862E+04  0.00000000000E+00 0. -1.
          2    1    1    2  501    0 -0.19914752236E+02  0.63286269059E+01 -0.12612535140E+04  0.12614266033E+04  0.00000000000E+00 0. -1.
          2    1    1    2  502    0  0.19914752236E+02 -0.63286269059E+01  0.53641125678E+03  0.53681811191E+03  0.00000000000E+00 0. -1.
</event>
<event>
 4    1  0.6089441E+003  0.2235682E+02  0.7546771E-02  0.1500736E+00
          2   -1    0    0  502    0  0.00000000000E+00  0.00000000000E+00  0.64721503866E+02  0.64721503866E+02  0.00000000000E+00 0. -1.
          2   -1    0    0  501    0 -0.00000000000E+00 -0.00000000000E+00 -0.69833305694E+02  0.69833305694E+02  0.00000000000E+00 0.  1.
          2    1    1    2  501    0 -0.65974449403E+01 -0.21361202056E+02  0.60892499612E+02  0.64866969576E+02  0.00000000000E+00 0. -1.
          2    1    1    2  502    0  0.65974449403E+01  0.21361202056E+02 -0.66004301440E+02  0.69687839983E+02  0.00000000000E+00 0.  1.
</event>
<event>
 4    1  0.6089441E+003  0.2315910E+02  0.7546771E-02  0.1490510E+00
          2   -1    0    0  502    0  0.00000000000E+00  0.00000000000E+00  0.15156033989E+04  0.15156033989E+04  0.00000000000E+00 0. -1.
          2   -1    0    0  501    0 -0.00000000000E+00 -0.00000000000E+00 -0.40083470111E+01  0.40083470111E+01  0.00000000000E+00 0. -1.
          2    1    1    2  501    0 -0.38790260491E+01 -0.22831928835E+02  0.14812883621E+04  0.14814693906E+04  0.00000000000E+00 0. -1.
          2    1    1    2  502    0  0.38790260491E+01  0.22831928835E+02  0.30306689822E+02  0.38142355269E+02  0.00000000000E+00 0. -1.
</event>
<event>
 4    1  0.6089441E+003  0.3230602E+02  0.7546771E-02  0.1400561E+00
          2   -1    0    0  502    0  0.00000000000E+00  0.00000000000E+00  0.62783389056E+02  0.62783389056E+02  0.00000000000E+00 0.  1.
          2   -1    0    0  501    0 -0.00000000000E+00 -0.00000000000E+00 -0.16887759567E+02  0.16887759567E+02  0.00000000000E+00 0.  1.
          2    1    1    2  501    0 -0.14276900960E+02  0.28980153492E+02  0.17964634667E+02  0.36964946858E+02  0.00000000000E+00 0.  1.
          2    1    1    2  502    0  0.14276900960E+02 -0.28980153492E+02  0.27930994823E+02  0.42706201766E+02  0.00000000000E+00 0.  1.
</event>
<event>
 4    1  0.6089441E+003  0.3847713E+02  0.7546771E-02  0.1357648E+00
          2   -1    0    0  502    0  0.00000000000E+00  0.00000000000E+00  0.10799739412E+02  0.10799739412E+02  0.00000000000E+00 0.  1.
          2   -1    0    0  501    0 -0.00000000000E+00 -0.00000000000E+00 -0.16443049264E+04  0.16443049264E+04  0.00000000000E+00 0.  1.
          2    1    1    2  501    0  0.46579618013E+01  0.38194152615E+02 -0.24447404593E+02  0.45586900459E+02  0.00000000000E+00 0.  1.
          2    1    1    2  502    0 -0.46579618013E+01 -0.38194152615E+02 -0.16090577824E+04  0.16095177654E+04  0.00000000000E+00 0.  1.
</event>
<event>
 4    1  0.6089441E+003  0.3217367E+02  0.7546771E-02  0.1401602E+00
          2   -1    0    0  502    0  0.00000000000E+00  0.00000000000E+00  0.17165302422E+04  0.17165302422E+04  0.00000000000E+00 0. -1.
          2   -1    0    0  501    0 -0.00000000000E+00 -0.00000000000E+00 -0.99598968989E+02  0.99598968989E+02  0.00000000000E+00 0. -1.
          2    1    1    2  501    0 -0.25684428577E+02 -0.19376664628E+02  0.17137770247E+04  0.17140790050E+04  0.00000000000E+00 0. -1.
          2    1    1    2  502    0  0.25684428577E+02  0.19376664628E+02 -0.96845751483E+02  0.10205020619E+03  0.00000000000E+00 0. -1.
</event>
<event>
 4    1  0.6089441E+003  0.2359307E+02  0.7546771E-02  0.1485182E+00
          2   -1    0    0  502    0  0.00000000000E+00  0.00000000000E+00  0.12135559731E+03  0.12135559731E+03  0.00000000000E+00 0.  1.
          2   -1    0    0  501    0 -0.00000000000E+00 -0.00000000000E+00 -0.38436461213E+03  0.38436461213E+03  0.00000000000E+00 0.  1.
          2    1    1    2  501    0 -0.82068046733E+00 -0.23578791193E+02  0.11984232361E+03  0.12214260289E+03  0.00000000000E+00 0.  1.
          2    1    1    2  502    0  0.82068046733E+00  0.23578791193E+02 -0.38285133844E+03  0.38357760656E+03  0.00000000000E+00 0.  1.
</event>
<event>
 4    1  0.6089441E+003  0.4411035E+02  0.7546771E-02  0.1325948E+00
          2   -1    0    0  501    0  0.00000000000E+00  0.00000000000E+00  0.75068646693E+03  0.75068646693E+03  0.00000000000E+00 0. -1.
          2   -1    0    0  502    0 -0.00000000000E+00 -0.00000000000E+00 -0.17940307213E+02  0.17940307213E+02  0.00000000000E+00 0. -1.
          2    1    1    2  501    0  0.49978794723E+01  0.43826293670E+02  0.10903957718E+02  0.45438079955E+02  0.00000000000E+00 0. -1.
          2    1    1    2  502    0 -0.49978794723E+01 -0.43826293670E+02  0.72184220200E+03  0.72318869419E+03  0.00000000000E+00 0. -1.
</event>
<event>
 4    1  0.6089441E+003  0.2260870E+02  0.7546771E-02  0.1497471E+00
          2   -1    0    0  501    0  0.00000000000E+00  0.00000000000E+00  0.24875521346E+03  0.24875521346E+03  0.00000000000E+00 0.  1.
          2   -1    0    0  502    0 -0.00000000000E+00 -0.00000000000E+00 -0.24508385446E+01  0.24508385446E+01  0.00000000000E+00 0.  1.
          2    1    1    2  501    0 -0.10254396529E+02  0.20149457596E+02  0.72664315868E+02  0.76100302825E+02  0.00000000000E+00 0.  1.
          2    1    1    2  502    0  0.10254396529E+02 -0.20149457596E+02  0.17364005904E+03  0.17510574918E+03  0.00000000000E+00 0.  1.
</event>
<event>
 4    1  0.6089441E+003  0.2583725E+02  0.7546771E-02  0.1459651E+00
          2   -1    0    0  502    0  0.00000000000E+00  0.00000000000E+00  0.10527003279E+02  0.10527003279E+02  0.00000000000E+00 0.  1.
          2   -1    0    0  501    0 -0.00000000000E+00 -0.00000000000E+00 -0.64389434138E+02  0.64389434138E+02  0.00000000000E+00 0.  1.
          2    1    1    2  501    0 -0.16177665024E+02  0.20145641821E+02 -0.31540642083E+02  0.40772243414E+02  0.00000000000E+00 0.  1.
          2    1    1    2  502    0  0.16177665024E+02 -0.20145641821E+02 -0.22321788776E+02  0.34144194004E+02  0.00000000000E+00 0.  1.
</event>
<event>
 4    1  0.6089441E+003  0.2050223E+02  0.7546771E-02  0.1526492E+00
          2   -1    0    0  502    0  0.00000000000E+00  0.00000000000E+00  0.80364172062E+03  0.80364172062E+03  0.00000000000E+00 0. -1.
          2   -1    0    0  501    0 -0.00000000000E+00 -0.00000000000E+00 -0.10346618303E+03  0.10346618303E+03  0.00000000000E+00 0. -1.
          2    1    1    2  501    0  0.20486262304E+02 -0.80908393737E+00  0.80249385698E+03  0.80275571132E+03  0.00000000000E+00 0. -1.
          2    1    1    2  502    0 -0.20486262304E+02  0.80908393737E+00 -0.10231831939E+03  0.10435219233E+03  0.00000000000E+00 0. -1.
</event>
<event>
 4    1  0.6089441E+003  0.2098636E+02  0.7546771E-02  0.1519460E+00
          2   -1    0    0  501    0  0.00000000000E+00  0.00000000000E+00  0.25150923873E+02  0.25150923873E+02  0.00000000000E+00 0.  1.
          2   -1    0    0  502    0 -0.00000000000E+00 -0.00000000000E+00 -0.62662305836E+02  0.62662305836E+02  0.00000000000E+00 0. -1.
          2    1    1    2  501    0  0.13276256931E+02 -0.16253251690E+02 -0.56025754811E+02  0.59827354870E+02  0.00000000000E+00 0. -1.
          2    1    1    2  502    0 -0.13276256931E+02  0.16253251690E+02  0.18514372847E+02  0.27985874839E+02  0.00000000000E+00 0.  1.
</event>
<event>
 4    1  0.6089441E+003  0.2087617E+02  0.7546771E-02  0.1521040E+00
          2   -1    0    0  501    0  0.00000000000E+00  0.00000000000E+00  0.27573287951E+03  0.27573287951E+03  0.00000000000E+00 0.  1.
          2   -1    0    0  502    0 -0.00000000000E+00 -0.00000000000E+00 -0.61098286902E+03  0.61098286902E+03  0.00000000000E+00 0.  1.
          2    1    1    2  501    0  0.12564679227E+02  0.16671633689E+02 -0.61040903050E+03  0.61076591183E+03  0.00000000000E+00 0.  1.
          2    1    1    2  502    0 -0.12564679227E+02 -0.16671633689E+02  0.27515904099E+03  0.27594983670E+03  0.00000000000E+00 0.  1.
</event>
<event>
 4    1  0.6089441E+003  0.2002443E+02  0.7546771E-02  0.1533663E+00
          2   -1    0    0  502    0  0.00000000000E+00  0.00000000000E+00  0.87018594413E+02  0.87018594413E+02  0.00000000000E+00 0.  1.
          2   -1    0    0  501    0 -0.00000000000E+00 -0.00000000000E+00 -0.66351692404E+02  0.66351692404E+02  0.00000000000E+00 0. -1.
          2    1    1    2  501    0 -0.19736775260E+02 -0.33819164794E+01  0.84307892219E+02  0.86653322771E+02  0.00000000000E+00 0.  1.
          2    1    1    2  502    0  0.19736775260E+02  0.33819164794E+01 -0.63640990210E+02  0.66716964047E+02  0.00000000000E+00 0. -1.
</event>
<event>
 4    1  0.6089441E+003  0.2347136E+02  0.7546771E-02  0.1486663E+00
          2   -1    0    0  501    0  0.00000000000E+00  0.00000000000E+00  0.39892705000E+02  0.39892705000E+02  0.00000000000E+00 0. -1.
          2   -1    0    0  502    0 -0.00000000000E+00 -0.00000000000E+00 -0.24559148192E+03  0.24559148192E+03  0.00000000000E+00 0.  1.
          2    1    1    2  501    0  0.23098514039E+02 -0.41669419587E+01 -0.24152021261E+03  0.24265802657E+03  0.00000000000E+00 0.  1.
          2    1    1    2  502    0 -0.23098514039E+02  0.41669419587E+01  0.35821435690E+02  0.42826160358E+02  0.00000000000E+00 0. -1.
</event>
<event>
 4    1  0.6089441E+003  0.2058066E+02  0.7546771E-02  0.1525337E+00
          2   -1    0    0  501    0  0.00000000000E+00  0.00000000000E+00  0.34608149049E+03  0.34608149049E+03  0.00000000000E+00 0.  1.
          2   -1    0    0  502    0 -0.00000000000E+00 -0.00000000000E+00 -0.58539283085E+01  0.58539283085E+01  0.00000000000E+00 0.  1.
          2    1    1    2  501    0  0.20467705682E+02 -0.21532482025E+01  0.13618273771E+02  0.24678347478E+02  0.00000000000E+00 0.  1.
          2    1    1    2  502    0 -0.20467705682E+02  0.21532482025E+01  0.32660928841E+03  0.32725707132E+03  0.00000000000E+00 0.  1.
</event>
<event>
 4    1  0.6089441E+003  0.2264175E+02  0.7546771E-02  0.1497046E+00
          2   -1    0    0  501    0  0.00000000000E+00  0.00000000000E+00  0.60344103190E+01  0.60344103190E+01  0.00000000000E+00 0. -1.
          2   -1    0    0  502    0 -0.00000000000E+00 -0.00000000000E+00 -0.12419325017E+04  0.12419325017E+04  0.00000000000E+00 0. -1.
          2    1    1    2  501    0  0.90819706867E+01 -0.20740460012E+02 -0.12202127268E+04  0.12204227741E+04  0.00000000000E+00 0. -1.
          2    1    1    2  502    0 -0.90819706867E+01  0.20740460012E+02 -0.15685364618E+02  0.27544137966E+02  0.00000000000E+00 0. -1.
</event>
<event>
 4    1  0.6089441E+003  0.2602041E+02  0.7546771E-02  0.1457704E+00
          2   -1    0    0  501    0  0.00000000000E+00  0.00000000000E+00  0.13243427470E+04  0.13243427470E+04  0.00000000000E+00 0. -1.
          2   -1    0    0  502    0 -0.00000000000E+00 -0.00000000000E+00 -0.71896006829E+01  0.71896006829E+01  0.00000000000E+00 0. -1.
          2    1    1    2  501    0 -0.21607838452E+02  0.14497008902E+02  0.16917773875E+02  0.31036640001E+02  0.00000000000E+00 0. -1.
          2    1    1    2  502    0  0.21607838452E+02 -0.14497008902E+02  0.13002353725E+04  0.13004957077E+04  0.00000000000E+00 0. -1.
</event>
<event>
 4    1  0.6089441E+003  0.2030940E+02  0.7546771E-02  0.1529357E+00
          2   -1    0    0  501    0  0.00000000000E+00  0.00000000000E+00  0.79614322406E+03  0.79614322406E+03  0.00000000000E+00 0. -1.
          2   -1    0    0  502    0 -0.00000000000E+00 -0.00000000000E+00 -0.22859106289E+02  0.22859106289E+02  0.00000000000E+00 0.  1.
          2    1    1    2  501    0  0.20307480797E+02  0.27917619981E+00 -0.18191966555E+02  0.27265717720E+02  0.00000000000E+00 0.  1.
          2    1    1    2  502    0 -0.20307480797E+02 -0.27917619981E+00  0.79147608432E+03  0.79173661262E+03  0.00000000000E+00 0. -1.
</event>
<event>
 4    1  0.6089441E+003  0.2322364E+02  0.7546771E-02  0.1489709E+00
          2   -1    0    0  502    0  0.00000000000E+00  0.00000000000E+00  0.77355289790E+01  0.77355289790E+01  0.00000000000E+00 0. -1.
          2   -1    0    0  501    0 -0.00000000000E+00 -0.00000000000E+00 -0.99231965639E+03  0.99231965639E+03  0.00000000000E+00 0.  1.
          2    1    1    2  501    0 -0.13553240825E+02 -0.18858611155E+02 -0.10150783853E+02  0.25345136898E+02  0.00000000000E+00 0. -1.
          2    1    1    2  502    0  0.13553240825E+02  0.18858611155E+02 -0.97443334356E+03  0.97471004847E+03  0.00000000000E+00 0.  1.
</event>
<event>
 4    1  0.6089441E+003  0.3881390E+02  0.7546771E-02  0.1355580E+00
          2   -1    0    0  502    0  0.00000000000E+00  0.00000000000E+00  0.21717534708E+03  0.21717534708E+03  0.00000000000E+00 0. -1.
          2   -1    0    0  501    0 -0.00000000000E+00 -0.00000000000E+00 -0.11426930343E+03  0.11426930343E+03  0.00000000000E+00 0.  1.
          2    1    1    2  501    0 -0.79486620850E+01 -0.37991278375E+02  0.21206639528E+03  0.21558913347E+03  0.00000000000E+00 0. -1.
          2    1    1    2  502    0  0.79486620850E+01  0.37991278375E+02 -0.10916035163E+03  0.11585551705E+03  0.00000000000E+00 0.  1.
</event>
<event>
 4    1  0.6089441E+003  0.3015579E+02  0.7546771E-02  0.1418247E+00
          2   -1    0    0  502    0  0.00000000000E+00  0.00000000000E+00  0.10454496309E+04  0.10454496309E+04  0.00000000000E+00 0. -1.
          2   -1    0    0  501    0 -0.00000000000E+00 -0.00000000000E+00 -0.27072102034E+02  0.27072102034E+02  0.00000000000E+00 0.  1.
          2    1    1    2  501    0 -0.26488152504E+01  0.30039231330E+02  0.10367641526E+04  0.10372026223E+04  0.00000000000E+00 0. -1.
          2    1    1    2  502    0  0.26488152504E+01 -0.30039231330E+02 -0.18386623740E+02  0.35319110602E+02  0.00000000000E+00 0.  1.
</event>
<event>
 4    1  0.6089441E+003  0.2451620E+02  0.7546771E-02  0.1474289E+00
          2   -1    0    0  501    0  0.00000000000E+00  0.00000000000E+00  0.10337093575E+04  0.10337093575E+04  0.00000000000E+00 0. -1.
          2   -1    0    0  502    0 -0.00000000000E+00 -0.00000000000E+00 -0.17985592391E+01  0.17985592391E+01  0.00000000000E+00 0. -1.
          2    1    1    2  501    0  0.14858504497E+02 -0.19500485370E+02  0.90036503511E+02  0.93314607913E+02  0.00000000000E+00 0. -1.
          2    1    1    2  502    0 -0.14858504497E+02  0.19500485370E+02  0.94187429474E+03  0.94219330882E+03  0.00000000000E+00 0. -1.
</event>
<event>
 4    1  0.6089441E+003  0.3372238E+02  0.7546771E-02  0.1389775E+00
          2   -1    0    0  501    0  0.00000000000E+00  0.00000000000E+00  0.64894462813E+03  0.64894462813E+03  0.00000000000E+00 0.  1.
          2   -1    0    0  502    0 -0.00000000000E+00 -0.00000000000E+00 -0.75631495430E+01  0.75631495430E+01  0.00000000000E+00 0. -1.
          2    1    1    2  501    0 -0.31179759303E+02 -0.12846060230E+02  0.32967261925E+02  0.47159718112E+02  0.00000000000E+00 0. -1.
          2    1    1    2  502    0  0.31179759303E+02  0.12846060230E+02  0.60841421666E+03  0.60934805956E+03  0.00000000000E+00 0.  1.
</event>
<event>
 4    1  0.6089441E+003  0.2302041E+02  0.7546771E-02  0.1492242E+00
          2   -1    0    0  502    0  0.00000000000E+00  0.00000000000E+00  0.65618169078E+01  0.65618169078E+01  0.00000000000E+00 0.  1.
          2   -1    0    0  501    0 -0.00000000000E+00 -0.00000000000E+00 -0.22351749629E+03  0.22351749629E+03  0.00000000000E+00 0.  1.
          2    1    1    2  501    0 -0.83972947534E+01  0.21434199523E+02 -0.16540989189E+02  0.28346848003E+02  0.00000000000E+00 0.  1.
          2    1    1    2  502    0  0.83972947534E+01 -0.21434199523E+02 -0.20041469019E+03  0.20173246519E+03  0.00000000000E+00 0.  1.
</event>
<event>
 4    1  0.6166219E+003  0.4143455E+02  0.7546771E-02  0.1340278E+00
          2   -1    0    0  501    0  0.00000000000E+00  0.00000000000E+00  0.27414923280E+04  0.27414923280E+04  0.00000000000E+00 0. -1.
          2   -1    0    0  502    0 -0.00000000000E+00 -0.00000000000E+00 -0.11419756832E+04  0.11419756832E+04  0.00000000000E+00 0. -1.
          2    1    1    2  501    0  0.36775526595E+02  0.19088817530E+02 -0.11414432063E+04  0.11421949989E+04  0.00000000000E+00 0. -1.
          2    1    1    2  502    0 -0.36775526595E+02 -0.19088817530E+02  0.27409598512E+04  0.27412730123E+04  0.00000000000E+00 0. -1.
</event>
<event>
 4    1  0.6089441E+003  0.2253713E+02  0.7546771E-02  0.1498394E+00
          2   -1    0    0  501    0  0.00000000000E+00  0.00000000000E+00  0.68607980432E+02  0.68607980432E+02  0.00000000000E+00 0.  1.
          2   -1    0    0  502    0 -0.00000000000E+00 -0.00000000000E+00 -0.95722703477E+01  0.95722703477E+01  0.00000000000E+00 0.  1.
          2    1    1    2  501    0  0.65249725350E+01  0.21571898454E+02  0.48125497078E+02  0.53141184956E+02  0.00000000000E+00 0.  1.
          2    1    1    2  502    0 -0.65249725350E+01 -0.21571898454E+02  0.10910213006E+02  0.25039065824E+02  0.00000000000E+00 0.  1.
</event>
<event>
 4    1  0.6089441E+003  0.2167121E+02  0.7546771E-02  0.1509894E+00
          2   -1    0    0  501    0  0.00000000000E+00  0.00000000000E+00  0.20133960018E+02  0.20133960018E+02  0.00000000000E+00 0. -1.
          2   -1    0    0  502    0 -0.00000000000E+00 -0.00000000000E+00 -0.57256002898E+03  0.57256002898E+03  0.00000000000E+00 0. -1.
          2    1    1    2  501    0 -0.19455338899E+02  0.95462722316E+01 -0.56646074042E+03  0.56687512907E+03  0.00000000000E+00 0. -1.
          2    1    1    2  502    0  0.19455338899E+02 -0.95462722316E+01  0.14034671453E+02  0.25818859929E+02  0.00000000000E+00 0. -1.
</event>
<event>
 4    1  0.6089441E+003  0.2186436E+02  0.7546771E-02  0.1507273E+00
          2   -1    0    0  501    0  0.00000000000E+00  0.00000000000E+00  0.11233030986E+04  0.11233030986E+04  0.00000000000E+00 0.  1.
          2   -1    0    0  502    0 -0.00000000000E+00 -0.00000000000E+00 -0.17580310979E+01  0.17580310979E+01  0.00000000000E+00 0. -1.
          2    1    1    2  501    0 -0.69179354162E+00  0.21853408558E+02  0.71039662826E+02  0.74328216300E+02  0.00000000000E+00 0. -1.
          2    1    1    2  502    0  0.69179354162E+00 -0.21853408558E+02  0.10505054047E+04  0.10507329134E+04  0.00000000000E+00 0.  1.
</event>
<event>
 4    1  0.6089441E+003  0.4268449E+02  0.7546771E-02  0.1333434E+00
          2   -1    0    0  501    0  0.00000000000E+00  0.00000000000E+00  0.11366313579E+04  0.11366313579E+04  0.00000000000E+00 0. -1.
          2   -1    0    0  502    0 -0.00000000000E+00 -0.00000000000E+00 -0.57355614281E+02  0.57355614281E+02  0.00000000000E+00 0. -1.
          2    1    1    2  501    0  0.14740632449E+02  0.40058447515E+02 -0.48954230097E+02  0.64949843007E+02  0.00000000000E+00 0. -1.
          2    1    1    2  502    0 -0.14740632449E+02 -0.40058447515E+02  0.11282299737E+04  0.11290371291E+04  0.00000000000E+00 0. -1.
</event>
<event>
 4    1  0.6089441E+003  0.3312257E+02  0.7546771E-02  0.1394265E+00
          2   -1    0    0  501    0  0.00000000000E+00  0.00000000000E+00  0.16500460881E+04  0.16500460881E+04  0.00000000000E+00 0. -1.
          2   -1    0    0  502    0 -0.00000000000E+00 -0.00000000000E+00 -0.41812316293E+02  0.41812316293E+02  0.00000000000E+00 0. -1.
          2    1    1    2  501    0  0.21940578249E+02 -0.24813614602E+02 -0.35059442968E+02  0.48231410769E+02  0.00000000000E+00 0. -1.
          2    1    1    2  502    0 -0.21940578249E+02  0.24813614602E+02  0.16432932147E+04  0.16436269936E+04  0.00000000000E+00 0. -1.
</event>
<event>
 4    1  0.6089441E+003  0.2396385E+02  0.7546771E-02  0.1480737E+00
          2   -1    0    0  502    0  0.00000000000E+00  0.00000000000E+00  0.53023373101E+01  0.53023373101E+01  0.00000000000E+00 0.  1.
          2   -1    0    0  501    0 -0.00000000000E+00 -0.00000000000E+00 -0.88988943942E+03  0.88988943942E+03  0.00000000000E+00 0. -1.
          2    1    1    2  501    0  0.12626355637E+02  0.20367654488E+02 -0.22818443338E+02  0.33089991876E+02  0.00000000000E+00 0.  1.
          2    1    1    2  502    0 -0.12626355637E+02 -0.20367654488E+02 -0.86176865878E+03  0.86210178486E+03  0.00000000000E+00 0. -1.
</event>
<event>
 4    1  0.6089441E+003  0.3821860E+02  0.7546771E-02  0.1359253E+00
          2   -1    0    0  502    0  0.00000000000E+00  0.00000000000E+00  0.42028334045E+02  0.42028334045E+02  0.00000000000E+00 0. -1.
          2   -1    0    0  501    0 -0.00000000000E+00 -0.00000000000E+00 -0.50760936436E+03  0.50760936436E+03  0.00000000000E+00 0.  1.
          2    1    1    2  501    0 -0.11938182105E+02  0.36306216710E+02  0.32453606319E+02  0.50138788645E+02  0.00000000000E+00 0. -1.
          2    1    1    2  502    0  0.11938182105E+02 -0.36306216710E+02 -0.49803463664E+03  0.49949890976E+03  0.00000000000E+00 0.  1.
</event>
<event>
 4    1  0.6089441E+003  0.6784767E+02  0.7546771E-02  0.1235272E+00
          2   -1    0    0  501    0  0.00000000000E+00  0.00000000000E+00  0.83079723336E+03  0.83079723336E+03  0.00000000000E+00 0.  1.
          2   -1    0    0  502    0 -0.00000000000E+00 -0.00000000000E+00 -0.17324842675E+04  0.17324842675E+04  0.00000000000E+00 0. -1.
          2    1    1    2  501    0 -0.67119380763E+02 -0.99143777100E+01 -0.17304331549E+04  0.17317627464E+04  0.00000000000E+00 0. -1.
          2    1    1    2  502    0  0.67119380763E+02  0.99143777100E+01  0.82874612082E+03  0.83151875441E+03  0.00000000000E+00 0.  1.
</event>
<event>
 4    1  0.6089441E+003  0.2223750E+02  0.7546771E-02  0.1502301E+00
          2   -1    0    0  501    0  0.00000000000E+00  0.00000000000E+00  0.81667749231E+02  0.81667749231E+02  0.00000000000E+00 0.  1.
          2   -1    0    0  502    0 -0.00000000000E+00 -0.00000000000E+00 -0.61632830387E+01  0.61632830387E+01  0.00000000000E+00 0.  1.
          2    1    1    2  501    0 -0.56105906568E+01  0.21518074615E+02  0.31933953154E+02  0.38913797382E+02  0.00000000000E+00 0.  1.
          2    1    1    2  502    0  0.56105906568E+01 -0.21518074615E+02  0.43570513038E+02  0.48917234888E+02  0.00000000000E+00 0.  1.
</event>
<event>
 4    1  0.6089441E+003  0.2493946E+02  0.7546771E-02  0.1469482E+00
          2   -1    0    0  501    0  0.00000000000E+00  0.00000000000E+00  0.28387062220E+02  0.28387062220E+02  0.00000000000E+00 0.  1.
          2   -1    0    0  502    0 -0.00000000000E+00 -0.00000000000E+00 -0.82786842715E+03  0.82786842715E+03  0.00000000000E+00 0. -1.
          2    1    1    2  501    0 -0.17617278779E+02  0.17652421460E+02 -0.82216497159E+03  0.82254313991E+03  0.00000000000E+00 0. -1.
          2    1    1    2  502    0  0.17617278779E+02 -0.17652421460E+02  0.22683606663E+02  0.33712349462E+02  0.00000000000E+00 0.  1.
</event>
<event>
 4    1  0.6089441E+003  0.2700621E+02  0.7546771E-02  0.1447546E+00
          2   -1    0    0  501    0  0.00000000000E+00  0.00000000000E+00  0.14530062422E+01  0.14530062422E+01  0.00000000000E+00 0. -1.
          2   -1    0    0  502    0 -0.00000000000E+00 -0.00000000000E+00 -0.55912431633E+03  0.55912431633E+03  0.00000000000E+00 0. -1.
          2    1    1    2  501    0 -0.78563469099E+01  0.25838206896E+02 -0.36846606577E+03  0.36945443122E+03  0.00000000000E+00 0. -1.
          2    1    1    2  502    0  0.78563469099E+01 -0.25838206896E+02 -0.18920524432E+03  0.19112289135E+03  0.00000000000E+00 0. -1.
</event>
<event>
 4    1  0.6089441E+003  0.2672012E+02  0.7546771E-02  0.1450440E+00
          2   -1    0    0  501    0  0.00000000000E+00  0.00000000000E+00  0.12589663707E+03  0.12589663707E+03  0.00000000000E+00 0.  1.
          2   -1    0    0  502    0 -0.00000000000E+00 -0.00000000000E+00 -0.37222692244E+03  0.37222692244E+03  0.00000000000E+00 0. -1.
          2    1    1    2  501    0  0.16318417934E+02  0.21158303284E+02 -0.37032235861E+03  0.37128508433E+03  0.00000000000E+00 0. -1.
          2    1    1    2  502    0 -0.16318417934E+02 -0.21158303284E+02  0.12399207324E+03  0.12683847518E+03  0.00000000000E+00 0.  1.
</event>
<event>
 4    1  0.6089441E+003  0.2755395E+02  0.7546771E-02  0.1442122E+00
          2   -1    0    0  502    0  0.00000000000E+00  0.00000000000E+00  0.74362066122E+00  0.74362066122E+00  0.00000000000E+00 0. -1.
          2   -1    0    0  501    0 -0.00000000000E+00 -0.00000000000E+00 -0.18263884071E+04  0.18263884071E+04  0.00000000000E+00 0.  1.
          2    1    1    2  501    0 -0.19961521862E+02  0.18993627054E+02 -0.30615308695E+03  0.30739052177E+03  0.00000000000E+00 0. -1.
          2    1    1    2  502    0  0.19961521862E+02 -0.18993627054E+02 -0.15194916995E+04  0.15197415060E+04  0.00000000000E+00 0.  1.
</event>
<event>
 4    1  0.6089441E+003  0.2254049E+02  0.7546771E-02  0.1498350E+00
          2   -1    0    0  501    0  0.00000000000E+00  0.00000000000E+00  0.74176952873E+03  0.74176952873E+03  0.00000000000E+00 0.  1.
          2   -1    0    0  502    0 -0.00000000000E+00 -0.00000000000E+00 -0.12290972910E+01  0.12290972910E+01  0.00000000000E+00 0. -1.
          2    1    1    2  501    0  0.79983374712E+01  0.21073687248E+02  0.12308423150E+03  0.12513113818E+03  0.00000000000E+00 0. -1.
          2    1    1    2  502    0 -0.79983374712E+01 -0.21073687248E+02  0.61745619993E+03  0.61786748784E+03  0.00000000000E+00 0.  1.
</event>
<event>
 4    1  0.6089441E+003  0.2175473E+02  0.7546771E-02  0.1508756E+00
          2   -1    0    0  501    0  0.00000000000E+00  0.00000000000E+00  0.59691300785E+00  0.59691300785E+00  0.00000000000E+00 0. -1.
          2   -1    0    0  502    0 -0.00000000000E+00 -0.00000000000E+00 -0.11639307666E+04  0.11639307666E+04  0.00000000000E+00 0. -1.
          2    1    1    2  501    0 -0.10107997144E+02  0.19263872034E+02 -0.91043125594E+03  0.91069113325E+03  0.00000000000E+00 0. -1.
          2    1    1    2  502    0  0.10107997144E+02 -0.19263872034E+02 -0.25290259764E+03  0.25383654635E+03  0.00000000000E+00 0. -1.
</event>
<event>
 4    1  0.6089441E+003  0.2424943E+02  0.7546771E-02  0.1477378E+00
          2   -1    0    0  501    0  0.00000000000E+00  0.00000000000E+00  0.38674314762E+01  0.38674314762E+01  0.00000000000E+00 0.  1.
          2   -1    0    0  502    0 -0.00000000000E+00 -0.00000000000E+00 -0.15618565201E+03  0.15618565201E+03  0.00000000000E+00 0.  1.
          2    1    1    2  501    0 -0.65783154497E+01  0.23340104430E+02 -0.89184700531E+02  0.92422646131E+02  0.00000000000E+00 0.  1.
          2    1    1    2  502    0  0.65783154497E+01 -0.23340104430E+02 -0.63133520003E+02  0.67630437356E+02  0.00000000000E+00 0.  1.
</event>
<event>
 4    1  0.6089441E+003  0.2281415E+02  0.7546771E-02  0.1494845E+00
          2   -1    0    0  501    0  0.00000000000E+00  0.00000000000E+00  0.29606698290E+01  0.29606698290E+01  0.00000000000E+00 0. -1.
          2   -1    0    0  502    0 -0.00000000000E+00 -0.00000000000E+00 -0.61527759060E+03  0.61527759060E+03  0.00000000000E+00 0. -1.
          2    1    1    2  501    0 -0.22363863801E+02 -0.45103030657E+01 -0.56740995746E+03  0.56786842231E+03  0.00000000000E+00 0. -1.
          2    1    1    2  502    0  0.22363863801E+02  0.45103030657E+01 -0.44906963314E+02  0.50369838117E+02  0.00000000000E+00 0. -1.
</event>
<event>
 4    1  0.6089441E+003  0.2222963E+02  0.7546771E-02  0.1502405E+00
          2   -1    0    0  501    0  0.00000000000E+00  0.00000000000E+00  0.15491854025E+04  0.15491854025E+04  0.00000000000E+00 0.  1.
          2   -1    0    0  502    0 -0.00000000000E+00 -0.00000000000E+00 -0.11744037054E+01  0.11744037054E+01  0.00000000000E+00 0.  1.
          2    1    1    2  501    0 -0.22007952158E+02 -0.31315666604E+01  0.11242172202E+03  0.11459843040E+03  0.00000000000E+00 0.  1.
          2    1    1    2  502    0  0.22007952158E+02  0.31315666604E+01  0.14355892768E+04  0.14357613758E+04  0.00000000000E+00 0.  1.
</event>
<event>
 4    1  0.6089441E+003  0.2635438E+02  0.7546771E-02  0.1454204E+00
          2   -1    0    0  501    0  0.00000000000E+00  0.00000000000E+00  0.70685457230E+01  0.70685457230E+01  0.00000000000E+00 0.  1.
          2   -1    0    0  502    0 -0.00000000000E+00 -0.00000000000E+00 -0.12952765346E+03  0.12952765346E+03  0.00000000000E+00 0.  1.
          2    1    1    2  501    0  0.30481035306E+00 -0.26352616547E+02 -0.94786078466E+02  0.98381675017E+02  0.00000000000E+00 0.  1.
          2    1    1    2  502    0 -0.30481035306E+00  0.26352616547E+02 -0.27673029271E+02  0.38214524166E+02  0.00000000000E+00 0.  1.
</event>
<event>
 4    1  0.6089441E+003  0.2776308E+02  0.7546771E-02  0.1440090E+00
          2   -1    0    0  502    0  0.00000000000E+00  0.00000000000E+00  0.12038938884E+04  0.12038938884E+04  0.00000000000E+00 0. -1.
          2   -1    0    0  501    0 -0.00000000000E+00 -0.00000000000E+00 -0.33819149604E+01  0.33819149604E+01  0.00000000000E+00 0. -1.
          2    1    1    2  501    0 -0.62389279273E+00 -0.27756072768E+02  0.11437598424E+04  0.11440967467E+04  0.00000000000E+00 0. -1.
          2    1    1    2  502    0  0.62389279273E+00  0.27756072768E+02  0.56752131039E+02  0.63179056619E+02  0.00000000000E+00 0. -1.
</event>
<event>
 4    1  0.6089441E+003  0.2867884E+02  0.7546771E-02  0.1431436E+00
          2   -1    0    0  501    0  0.00000000000E+00  0.00000000000E+00  0.14028971763E+04  0.14028971763E+04  0.00000000000E+00 0.  1.
          2   -1    0    0  502    0 -0.00000000000E+00 -0.00000000000E+00 -0.15704301719E+01  0.15704301719E+01  0.00000000000E+00 0.  1.
          2    1    1    2  501    0 -0.97177971617E+01 -0.26982225026E+02  0.14475222427E+03  0.14756585811E+03  0.00000000000E+00 0.  1.
          2    1    1    2  502    0  0.97177971617E+01  0.26982225026E+02  0.12565745218E+04  0.12569017483E+04  0.00000000000E+00 0.  1.
</event>
<event>
 4    1  0.6089441E+003  0.3967342E+02  0.7546771E-02  0.1350410E+00
          2   -1    0    0  502    0  0.00000000000E+00  0.00000000000E+00  0.39903012904E+02  0.39903012904E+02  0.00000000000E+00 0.  1.
          2   -1    0    0  501    0 -0.00000000000E+00 -0.00000000000E+00 -0.58419578141E+03  0.58419578141E+03  0.00000000000E+00 0.  1.
          2    1    1    2  501    0 -0.34708985803E+02 -0.19216299432E+02  0.29184062516E+02  0.49251287946E+02  0.00000000000E+00 0.  1.
          2    1    1    2  502    0  0.34708985803E+02  0.19216299432E+02 -0.57347683102E+03  0.57484750637E+03  0.00000000000E+00 0.  1.
</event>
<event>
 4    1  0.6089441E+003  0.3567219E+02  0.7546771E-02  0.1375898E+00
          2   -1    0    0  501    0  0.00000000000E+00  0.00000000000E+00  0.12565487946E+03  0.12565487946E+03  0.00000000000E+00 0.  1.
          2   -1    0    0  502    0 -0.00000000000E+00 -0.00000000000E+00 -0.17507997202E+02  0.17507997202E+02  0.00000000000E+00 0. -1.
          2    1    1    2  501    0  0.34481788337E+02  0.91384577523E+01  0.75962220466E+01  0.36472012920E+02  0.00000000000E+00 0. -1.
          2    1    1    2  502    0 -0.34481788337E+02 -0.91384577523E+01  0.10055066021E+03  0.10669086374E+03  0.00000000000E+00 0.  1.
</event>
<event>
 4    1  0.6089441E+003  0.2670893E+02  0.7546771E-02  0.1450554E+00
          2   -1    0    0  501    0  0.00000000000E+00  0.00000000000E+00  0.60450714543E+03  0.60450714543E+03  0.00000000000E+00 0. -1.
          2   -1    0    0  502    0 -0.00000000000E+00 -0.00000000000E+00 -0.17680756113E+02  0.17680756113E+02  0.00000000000E+00 0. -1.
          2    1    1    2  501    0  0.11629844077E+02  0.24043990903E+02 -0.71197037760E+01  0.27641580159E+02  0.00000000000E+00 0. -1.
          2    1    1    2  502    0 -0.11629844077E+02 -0.24043990903E+02  0.59394609310E+03  0.59454632139E+03  0.00000000000E+00 0. -1.
</event>
<event>
 4    1  0.6089441E+003  0.2384949E+02  0.7546771E-02  0.1482098E+00
          2   -1    0    0  502    0  0.00000000000E+00  0.00000000000E+00  0.58379075508E+00  0.58379075508E+00  0.00000000000E+00 0.  1.
          2   -1    0    0  501    0 -0.00000000000E+00 -0.00000000000E+00 -0.10126311680E+04  0.10126311680E+04  0.00000000000E+00 0. -1.
          2    1    1    2  501    0 -0.18469988868E+02 -0.15088325974E+02 -0.40748250717E+03  0.40817985218E+03  0.00000000000E+00 0.  1.
          2    1    1    2  502    0  0.18469988868E+02  0.15088325974E+02 -0.60456487007E+03  0.60503510657E+03  0.00000000000E+00 0. -1.
</event>
<event>
 4    1  0.6089441E+003  0.2144398E+02  0.7546771E-02  0.1513019E+00
          2   -1    0    0  501    0  0.00000000000E+00  0.00000000000E+00  0.82286038569E+03  0.82286038569E+03  0.00000000000E+00 0.  1.
          2   -1    0    0  502    0 -0.00000000000E+00 -0.00000000000E+00 -0.46072242353E+03  0.46072242353E+03  0.00000000000E+00 0. -1.
          2    1    1    2  501    0 -0.28449014041E+01  0.21254434344E+02 -0.46033307271E+03  0.46083227130E+03  0.00000000000E+00 0. -1.
          2    1    1    2  502    0  0.28449014041E+01 -0.21254434344E+02  0.82247103487E+03  0.82275053792E+03  0.00000000000E+00 0.  1.
</event>
<event>
 4    1  0.6089441E+003  0.4239451E+02  0.7546771E-02  0.1334998E+00
          2   -1    0    0  502    0  0.00000000000E+00  0.00000000000E+00  0.10853086816E+04  0.10853086816E+04  0.00000000000E+00 0.  1.
          2   -1    0    0  501    0 -0.00000000000E+00 -0.00000000000E+00 -0.69223770825E+01  0.69223770825E+01  0.00000000000E+00 0.  1.
          2    1    1    2  501    0 -0.39915794435E+02  0.14283693622E+02  0.10155275976E+04  0.10164121192E+04  0.00000000000E+00 0.  1.
          2    1    1    2  502    0  0.39915794435E+02 -0.14283693622E+02  0.62858706858E+02  0.75818939433E+02  0.00000000000E+00 0.  1.
</event>
<event>
 4    1  0.6089441E+003  0.2574829E+02  0.7546771E-02  0.1460604E+00
          2   -1    0    0  502    0  0.00000000000E+00  0.00000000000E+00  0.72247480142E+02  0.72247480142E+02  0.00000000000E+00 0.  1.
          2   -1    0    0  501    0 -0.00000000000E+00 -0.00000000000E+00 -0.14020305452E+04  0.14020305452E+04  0.00000000000E+00 0. -1.
          2    1    1    2  501    0  0.21087348728E+02  0.14774910569E+02  0.69831194554E+02  0.74426943989E+02  0.00000000000E+00 0.  1.
          2    1    1    2  502    0 -0.21087348728E+02 -0.14774910569E+02 -0.13996142596E+04  0.13998510813E+04  0.00000000000E+00 0. -1.
</event>
<event>
 4    1  0.6089441E+003  0.2739959E+02  0.7546771E-02  0.1443635E+00
          2   -1    0    0  502    0  0.00000000000E+00  0.00000000000E+00  0.89725186626E+01  0.89725186626E+01  0.00000000000E+00 0.  1.
          2   -1    0    0  501    0 -0.00000000000E+00 -0.00000000000E+00 -0.32320394049E+03  0.32320394049E+03  0.00000000000E+00 0.  1.
          2    1    1    2  501    0  0.18605330061E+02 -0.20114151842E+02 -0.14133049276E+02  0.30829863653E+02  0.00000000000E+00 0.  1.
          2    1    1    2  502    0 -0.18605330061E+02  0.20114151842E+02 -0.30009837255E+03  0.30134659550E+03  0.00000000000E+00 0.  1.
</event>
<event>
 4    1  0.6089441E+003  0.2081810E+02  0.7546771E-02  0.1521878E+00
          2   -1    0    0  501    0  0.00000000000E+00  0.00000000000E+00  0.18070227281E+03  0.18070227281E+03  0.00000000000E+00 0. -1.
          2   -1    0    0  502    0 -0.00000000000E+00 -0.00000000000E+00 -0.74936730009E+02  0.74936730009E+02  0.00000000000E+00 0.  1.
          2    1    1    2  501    0  0.19764439210E+02  0.65391331922E+01 -0.72874636312E+02  0.75789880181E+02  0.00000000000E+00 0.  1.
          2    1    1    2  502    0 -0.19764439210E+02 -0.65391331922E+01  0.17864017911E+03  0.17984912264E+03  0.00000000000E+00 0. -1.
</event>
<event>
 4    1  0.6089441E+003  0.2330912E+02  0.7546771E-02  0.1488653E+00
          2   -1    0    0  501    0  0.00000000000E+00  0.00000000000E+00  0.12300581356E+04  0.12300581356E+04  0.00000000000E+00 0.  1.
          2   -1    0    0  502    0 -0.00000000000E+00 -0.00000000000E+00 -0.42957914965E+01  0.42957914965E+01  0.00000000000E+00 0.  1.
          2    1    1    2  501    0  0.35996089249E+01 -0.23029505420E+02  0.28294131168E+02  0.36658875635E+02  0.00000000000E+00 0.  1.
          2    1    1    2  502    0 -0.35996089249E+01  0.23029505420E+02  0.11974682129E+04  0.11976950514E+04  0.00000000000E+00 0.  1.
</event>
<event>
 4    1  0.6089441E+003  0.2975141E+02  0.7546771E-02  0.1421769E+00
          2   -1    0    0  501    0  0.00000000000E+00  0.00000000000E+00  0.30684771415E+03  0.30684771415E+03  0.00000000000E+00 0.  1.
          2   -1    0    0  502    0 -0.00000000000E+00 -0.00000000000E+00 -0.47560052271E+01  0.47560052271E+01  0.00000000000E+00 0. -1.
          2    1    1    2  501    0  0.97076216542E+01  0.28123090329E+02  0.53315291906E+02  0.61054618817E+02  0.00000000000E+00 0. -1.
          2    1    1    2  502    0 -0.97076216542E+01 -0.28123090329E+02  0.24877641702E+03  0.25054910056E+03  0.00000000000E+00 0.  1.
</event>
<event>
 4    1  0.6089441E+003  0.2183396E+02  0.7546771E-02  0.1507683E+00
          2   -1    0    0  502    0  0.00000000000E+00  0.00000000000E+00  0.24948017787E+03  0.24948017787E+03  0.00000000000E+00 0. -1.
          2   -1    0    0  501    0 -0.00000000000E+00 -0.00000000000E+00 -0.14423510536E+02  0.14423510536E+02  0.00000000000E+00 0. -1.
          2    1    1    2  501    0  0.21662887456E+02 -0.27278610567E+01  0.24042910777E+03  0.24141847026E+03  0.00000000000E+00 0. -1.
          2    1    1    2  502    0 -0.21662887456E+02  0.27278610567E+01 -0.53724404358E+01  0.22485218147E+02  0.00000000000E+00 0. -1.
</event>
<event>
 4    1  0.6089441E+003  0.2005349E+02  0.7546771E-02  0.1533220E+00
          2   -1    0    0  501    0  0.00000000000E+00  0.00000000000E+00  0.28631262694E+02  0.28631262694E+02  0.00000000000E+00 0.  1.
          2   -1    0    0  502    0 -0.00000000000E+00 -0.00000000000E+00 -0.45065780481E+02  0.45065780481E+02  0.00000000000E+00 0. -1.
          2    1    1    2  501    0 -0.14797626983E+02  0.13534136004E+02 -0.38788913301E+02  0.43666032528E+02  0.00000000000E+00 0. -1.
          2    1    1    2  502    0  0.14797626983E+02 -0.13534136004E+02  0.22354395513E+02  0.30031010647E+02  0.00000000000E+00 0.  1.
</event>
<event>
 4    1  0.8118426E+003  0.2492320E+02  0.7546771E-02  0.1469664E+00
          2   -1    0    0  502    0  0.00000000000E+00  0.00000000000E+00  0.26567284439E+03  0.26567284439E+03  0.00000000000E+00 0.  1.
          2   -1    0    0  501    0 -0.00000000000E+00 -0.00000000000E+00 -0.13314858263E+04  0.13314858263E+04  0.00000000000E+00 0.  1.
          2    1    1    2  501    0  0.17746603590E+02 -0.17499250587E+02  0.26497138487E+03  0.26614094107E+03  0.00000000000E+00 0.  1.
          2    1    1    2  502    0 -0.17746603590E+02  0.17499250587E+02 -0.13307843668E+04  0.13310177296E+04  0.00000000000E+00 0.  1.
</event>
<event>
 4    1  0.6089441E+003  0.2209362E+02  0.7546771E-02  0.1504204E+00
          2   -1    0    0  501    0  0.00000000000E+00  0.00000000000E+00  0.11549140600E+01  0.11549140600E+01  0.00000000000E+00 0. -1.
          2   -1    0    0  502    0 -0.00000000000E+00 -0.00000000000E+00 -0.11181532785E+04  0.11181532785E+04  0.00000000000E+00 0. -1.
          2    1    1    2  501    0  0.18824718940E+02 -0.11565387009E+02 -0.99988419401E+03  0.10001282566E+04  0.00000000000E+00 0. -1.
          2    1    1    2  502    0 -0.18824718940E+02  0.11565387009E+02 -0.11711417044E+03  0.11917993597E+03  0.00000000000E+00 0. -1.
</event>
<event>
 4    1  0.6089441E+003  0.2315936E+02  0.7546771E-02  0.1490507E+00
          2   -1    0    0  502    0  0.00000000000E+00  0.00000000000E+00  0.12250090520E+03  0.12250090520E+03  0.00000000000E+00 0. -1.
          2   -1    0    0  501    0 -0.00000000000E+00 -0.00000000000E+00 -0.15530610103E+02  0.15530610103E+02  0.00000000000E+00 0.  1.
          2    1    1    2  501    0 -0.13448814557E+02 -0.18854313993E+02  0.11196884499E+03  0.11433887361E+03  0.00000000000E+00 0. -1.
          2    1    1    2  502    0  0.13448814557E+02  0.18854313993E+02 -0.49985499009E+01  0.23692641690E+02  0.00000000000E+00 0.  1.
</event>
<event>
 4    1  0.6089441E+003  0.3658845E+02  0.7546771E-02  0.1369727E+00
          2   -1    0    0  502    0  0.00000000000E+00  0.00000000000E+00  0.20531684404E+03  0.20531684404E+03  0.00000000000E+00 0.  1.
          2   -1    0    0  501    0 -0.00000000000E+00 -0.00000000000E+00 -0.27152029466E+02  0.27152029466E+02  0.00000000000E+00 0. -1.
          2    1    1    2  501    0 -0.97561293758E+01  0.35263757016E+02  0.19040403094E+03  0.19388762111E+03  0.00000000000E+00 0.  1.
          2    1    1    2  502    0  0.97561293758E+01 -0.35263757016E+02 -0.12239216370E+02  0.38581252398E+02  0.00000000000E+00 0. -1.
</event>
<event>
 4    1  0.6089441E+003  0.2465865E+02  0.7546771E-02  0.1472658E+00
          2   -1    0    0  501    0  0.00000000000E+00  0.00000000000E+00  0.55248168299E+01  0.55248168299E+01  0.00000000000E+00 0. -1.
          2   -1    0    0  502    0 -0.00000000000E+00 -0.00000000000E+00 -0.24133380161E+03  0.24133380161E+03  0.00000000000E+00 0.  1.
          2    1    1    2  501    0 -0.45288355660E+01 -0.24239198670E+02 -0.20893813401E+03  0.21038819584E+03  0.00000000000E+00 0.  1.
          2    1    1    2  502    0  0.45288355660E+01  0.24239198670E+02 -0.26870850768E+02  0.36470422601E+02  0.00000000000E+00 0. -1.
</event>
<event>
 4    1  0.6089441E+003  0.2067541E+02  0.7546771E-02  0.1523950E+00
          2   -1    0    0  501    0  0.00000000000E+00  0.00000000000E+00  0.45095584053E+03  0.45095584053E+03  0.00000000000E+00 0.  1.
          2   -1    0    0  502    0 -0.00000000000E+00 -0.00000000000E+00 -0.20745227444E+02  0.20745227444E+02  0.00000000000E+00 0. -1.
          2    1    1    2  501    0  0.55520232628E+01 -0.19916017963E+02 -0.15293784969E+02  0.25717165328E+02  0.00000000000E+00 0. -1.
          2    1    1    2  502    0 -0.55520232628E+01  0.19916017963E+02  0.44550439806E+03  0.44598390265E+03  0.00000000000E+00 0.  1.
</event>
<event>
 4    1  0.6089441E+003  0.2053721E+02  0.7546771E-02  0.1525976E+00
          2   -1    0    0  501    0  0.00000000000E+00  0.00000000000E+00  0.24354089965E+01  0.24354089965E+01  0.00000000000E+00 0.  1.
          2   -1    0    0  502    0 -0.00000000000E+00 -0.00000000000E+00 -0.12853294824E+04  0.12853294824E+04  0.00000000000E+00 0. -1.
          2    1    1    2  501    0  0.13813931558E+02  0.15197115866E+02 -0.12403823193E+04  0.12405523266E+04  0.00000000000E+00 0. -1.
          2    1    1    2  502    0 -0.13813931558E+02 -0.15197115866E+02 -0.42511754037E+02  0.47212564716E+02  0.00000000000E+00 0.  1.
</event>
<event>
 4    1  0.6089441E+003  0.3593967E+02  0.7546771E-02  0.1374075E+00
          2   -1    0    0  501    0  0.00000000000E+00  0.00000000000E+00  0.19239143713E+03  0.19239143713E+03  0.00000000000E+00 0.  1.
          2   -1    0    0  502    0 -0.00000000000E+00 -0.00000000000E+00 -0.10813683619E+02  0.10813683619E+02  0.00000000000E+00 0. -1.
          2    1    1    2  501    0  0.16042817674E+02  0.32160345430E+02  0.28227184005E+02  0.45699384394E+02  0.00000000000E+00 0. -1.
          2    1    1    2  502    0 -0.16042817674E+02 -0.32160345430E+02  0.15335056951E+03  0.15750573636E+03  0.00000000000E+00 0.  1.
</event>
<event>
 4    1  0.6089441E+003  0.4340971E+02  0.7546771E-02  0.1329586E+00
          2   -1    0    0  501    0  0.00000000000E+00  0.00000000000E+00  0.44737062787E+03  0.44737062787E+03  0.00000000000E+00 0. -1.
          2   -1    0    0  502    0 -0.00000000000E+00 -0.00000000000E+00 -0.83011065007E+01  0.83011065007E+01  0.00000000000E+00 0. -1.
          2    1    1    2  501    0  0.16018761465E+02 -0.40346031990E+02  0.59630858759E+02  0.73757998431E+02  0.00000000000E+00 0. -1.
          2    1    1    2  502    0 -0.16018761465E+02  0.40346031990E+02  0.37943866261E+03  0.38191373594E+03  0.00000000000E+00 0. -1.
</event>
<event>
 4    1  0.6089441E+003  0.2513219E+02  0.7546771E-02  0.1467330E+00
          2   -1    0    0  501    0  0.00000000000E+00  0.00000000000E+00  0.33321104732E+02  0.33321104732E+02  0.00000000000E+00 0. -1.
          2   -1    0    0  502    0 -0.00000000000E+00 -0.00000000000E+00 -0.56977541076E+03  0.56977541076E+03  0.00000000000E+00 0.  1.
          2    1    1    2  501    0 -0.19064074926E+02 -0.16376451282E+02 -0.56471690173E+03  0.56527586735E+03  0.00000000000E+00 0.  1.
          2    1    1    2  502    0  0.19064074926E+02  0.16376451282E+02  0.28262595706E+02  0.37820648136E+02  0.00000000000E+00 0. -1.
</event>
<event>
 4    1  0.6089441E+003  0.3545517E+02  0.7546771E-02  0.1377391E+00
          2   -1    0    0  501    0  0.00000000000E+00  0.00000000000E+00  0.10405586955E+02  0.10405586955E+02  0.00000000000E+00 0.  1.
          2   -1    0    0  502    0 -0.00000000000E+00 -0.00000000000E+00 -0.46162980386E+03  0.46162980386E+03  0.00000000000E+00 0. -1.
          2    1    1    2  501    0  0.87660172002E+01  0.34354417126E+02 -0.42840927781E+03  0.42987390982E+03  0.00000000000E+00 0. -1.
          2    1    1    2  502    0 -0.87660172002E+01 -0.34354417126E+02 -0.22814939099E+02  0.42161480995E+02  0.00000000000E+00 0.  1.
</event>
<event>
 4    1  0.6089441E+003  0.3885549E+02  0.7546771E-02  0.1355326E+00
          2   -1    0    0  502    0  0.00000000000E+00  0.00000000000E+00  0.60310381745E+03  0.60310381745E+03  0.00000000000E+00 0. -1.
          2   -1    0    0  501    0 -0.00000000000E+00 -0.00000000000E+00 -0.20981281873E+02  0.20981281873E+02  0.00000000000E+00 0.  1.
          2    1    1    2  501    0  0.24140427840E+02 -0.30446485581E+02  0.58389769354E+03  0.58518908505E+03  0.00000000000E+00 0. -1.
          2    1    1    2  502    0 -0.24140427840E+02  0.30446485581E+02 -0.17751579629E+01  0.38896014273E+02  0.00000000000E+00 0.  1.
</event>
<event>
 4    1  0.6089441E+003  0.3281823E+02  0.7546771E-02  0.1396587E+00
          2   -1    0    0  502    0  0.00000000000E+00  0.00000000000E+00  0.16174679833E+03  0.16174679833E+03  0.00000000000E+00 0. -1.
          2   -1    0    0  501    0 -0.00000000000E+00 -0.00000000000E+00 -0.88392030376E+02  0.88392030376E+02  0.00000000000E+00 0. -1.
          2    1    1    2  501    0 -0.59753496439E+01 -0.32269666610E+02  0.15694368371E+03  0.16033825508E+03  0.00000000000E+00 0. -1.
          2    1    1    2  502    0  0.59753496439E+01  0.32269666610E+02 -0.83588915754E+02  0.89800573626E+02  0.00000000000E+00 0. -1.
</event>
<event>
 4    1  0.6089441E+003  0.2308145E+02  0.7546771E-02  0.1491478E+00
          2   -1    0    0  501    0  0.00000000000E+00  0.00000000000E+00  0.17304019517E+01  0.17304019517E+01  0.00000000000E+00 0.  1.
          2   -1    0    0  502    0 -0.00000000000E+00 -0.00000000000E+00 -0.35160685250E+03  0.35160685250E+03  0.00000000000E+00 0. -1.
          2    1    1    2  501    0 -0.22769807314E+02 -0.37801090667E+01 -0.11263465669E+03  0.11497529838E+03  0.00000000000E+00 0.  1.
          2    1    1    2  502    0  0.22769807314E+02  0.37801090667E+01 -0.23724179386E+03  0.23836195608E+03  0.00000000000E+00 0. -1.
</event>
<event>
 4    1  0.6089441E+003  0.2390062E+02  0.7546771E-02  0.1481488E+00
          2   -1    0    0  501    0  0.00000000000E+00  0.00000000000E+00  0.38580590770E+01  0.38580590770E+01  0.00000000000E+00 0. -1.
          2   -1    0    0  502    0 -0.00000000000E+00 -0.00000000000E+00 -0.44238984592E+03  0.44238984592E+03  0.00000000000E+00 0. -1.
          2    1    1    2  501    0  0.16559471694E+02  0.17234370230E+02 -0.40126021068E+03  0.40197138741E+03  0.00000000000E+00 0. -1.
          2    1    1    2  502    0 -0.16559471694E+02 -0.17234370230E+02 -0.37271576155E+02  0.44276517581E+02  0.00000000000E+00 0. -1.
</event>
<event>
 4    1  0.6089441E+003  0.3661297E+02  0.7546771E-02  0.1369565E+00
          2   -1    0    0  501    0  0.00000000000E+00  0.00000000000E+00  0.71798281452E+01  0.71798281452E+01  0.00000000000E+00 0.  1.
          2   -1    0    0  502    0 -0.00000000000E+00 -0.00000000000E+00 -0.37244258683E+03  0.37244258683E+03  0.00000000000E+00 0.  1.
          2    1    1    2  501    0  0.15357122977E+02  0.33236554668E+02 -0.31667374615E+03  0.31878326696E+03  0.00000000000E+00 0.  1.
          2    1    1    2  502    0 -0.15357122977E+02 -0.33236554668E+02 -0.48589012539E+02  0.60839148020E+02  0.00000000000E+00 0.  1.
</event>
<event>
 4    1  0.6089441E+003  0.3306406E+02  0.7546771E-02  0.1394709E+00
          2   -1    0    0  501    0  0.00000000000E+00  0.00000000000E+00  0.19976565258E+04  0.19976565258E+04  0.00000000000E+00 0.  1.
          2   -1    0    0  502    0 -0.00000000000E+00 -0.00000000000E+00 -0.34071020945E+02  0.34071020945E+02  0.00000000000E+00 0. -1.
          2    1    1    2  501    0 -0.71110840567E+01 -0.32290312850E+02 -0.25879466705E+02  0.41987838922E+02  0.00000000000E+00 0. -1.
          2    1    1    2  502    0  0.71110840567E+01  0.32290312850E+02  0.19894649715E+04  0.19897397078E+04  0.00000000000E+00 0.  1.
</event>
<event>
 4    1  0.6089441E+003  0.2007667E+02  0.7546771E-02  0.1532867E+00
          2   -1    0    0  502    0  0.00000000000E+00  0.00000000000E+00  0.67014056527E+03  0.67014056527E+03  0.00000000000E+00 0. -1.
          2   -1    0    0  501    0 -0.00000000000E+00 -0.00000000000E+00 -0.28376058464E+02  0.28376058464E+02  0.00000000000E+00 0. -1.
          2    1    1    2  501    0 -0.10445148685E+02 -0.17145594959E+02  0.66641920338E+03  0.66672155147E+03  0.00000000000E+00 0. -1.
          2    1    1    2  502    0  0.10445148685E+02  0.17145594959E+02 -0.24654696571E+02  0.31795072269E+02  0.00000000000E+00 0. -1.
</event>
<event>
 4    1  0.6089441E+003  0.6660685E+02  0.7546771E-02  0.1238899E+00
          2   -1    0    0  501    0  0.00000000000E+00  0.00000000000E+00  0.17198722892E+03  0.17198722892E+03  0.00000000000E+00 0.  1.
          2   -1    0    0  502    0 -0.00000000000E+00 -0.00000000000E+00 -0.29035923320E+02  0.29035923320E+02  0.00000000000E+00 0.  1.
          2    1    1    2  501    0  0.62592039755E+02 -0.22775190027E+02  0.37897374303E+02  0.76633437222E+02  0.00000000000E+00 0.  1.
          2    1    1    2  502    0 -0.62592039755E+02  0.22775190027E+02  0.10505393130E+03  0.12438971502E+03  0.00000000000E+00 0.  1.
</event>
<event>
 4    1  0.6089441E+003  0.4414482E+02  0.7546771E-02  0.1325771E+00
          2   -1    0    0  501    0  0.00000000000E+00  0.00000000000E+00  0.34222800675E+03  0.34222800675E+03  0.00000000000E+00 0.  1.
          2   -1    0    0  502    0 -0.00000000000E+00 -0.00000000000E+00 -0.46868345079E+03  0.46868345079E+03  0.00000000000E+00 0.  1.
          2    1    1    2  501    0  0.37436791452E+02 -0.23393418926E+02 -0.46621284745E+03  0.46829817908E+03  0.00000000000E+00 0.  1.
          2    1    1    2  502    0 -0.37436791452E+02  0.23393418926E+02  0.33975740341E+03  0.34261327846E+03  0.00000000000E+00 0.  1.
</event>
<event>
 4    1  0.6089441E+003  0.5222101E+02  0.7546771E-02  0.1288820E+00
          2   -1    0    0  501    0  0.00000000000E+00  0.00000000000E+00  0.15455816238E+02  0.15455816238E+02  0.00000000000E+00 0.  1.
          2   -1    0    0  502    0 -0.00000000000E+00 -0.00000000000E+00 -0.21697428549E+03  0.21697428549E+03  0.00000000000E+00 0. -1.
          2    1    1    2  501    0  0.52186930561E+02  0.18863470786E+01 -0.15098957303E+03  0.15976509378E+03  0.00000000000E+00 0. -1.
          2    1    1    2  502    0 -0.52186930561E+02 -0.18863470786E+01 -0.50528896224E+02  0.72665007949E+02  0.00000000000E+00 0.  1.
</event>
<event>
 4    1  0.6089441E+003  0.3348854E+02  0.7546771E-02  0.1391512E+00
          2   -1    0    0  501    0  0.00000000000E+00  0.00000000000E+00  0.88266262075E+02  0.88266262075E+02  0.00000000000E+00 0.  1.
          2   -1    0    0  502    0 -0.00000000000E+00 -0.00000000000E+00 -0.60909110396E+02  0.60909110396E+02  0.00000000000E+00 0.  1.
          2    1    1    2  501    0 -0.16821912119E+02  0.28956964394E+02 -0.52675101813E+02  0.62419138614E+02  0.00000000000E+00 0.  1.
          2    1    1    2  502    0  0.16821912119E+02 -0.28956964394E+02  0.80032253492E+02  0.86756233858E+02  0.00000000000E+00 0.  1.
</event>
<event>
 4    1  0.6089441E+003  0.2493438E+02  0.7546771E-02  0.1469539E+00
          2   -1    0    0  502    0  0.00000000000E+00  0.00000000000E+00  0.73222052406E+03  0.73222052406E+03  0.00000000000E+00 0. -1.
          2   -1    0    0  501    0 -0.00000000000E+00 -0.00000000000E+00 -0.26313031296E+01  0.26313031296E+01  0.00000000000E+00 0. -1.
          2    1    1    2  501    0 -0.16310821138E+02 -0.18859493181E+02  0.66718207776E+03  0.66764784749E+03  0.00000000000E+00 0. -1.
          2    1    1    2  502    0  0.16310821138E+02  0.18859493181E+02  0.62407143171E+02  0.67203979704E+02  0.00000000000E+00 0. -1.
</event>
<event>
 4    1  0.6089441E+003  0.3615150E+02  0.7546771E-02  0.1372644E+00
          2   -1    0    0  502    0  0.00000000000E+00  0.00000000000E+00  0.18340857650E+02  0.18340857650E+02  0.00000000000E+00 0.  1.
          2   -1    0    0  501    0 -0.00000000000E+00 -0.00000000000E+00 -0.78217426507E+02  0.78217426507E+02  0.00000000000E+00 0.  1.
          2    1    1    2  501    0 -0.34839754434E+02 -0.96500091032E+01 -0.15537128604E+02  0.39348869488E+02  0.00000000000E+00 0.  1.
          2    1    1    2  502    0  0.34839754434E+02  0.96500091032E+01 -0.44339440254E+02  0.57209414669E+02  0.00000000000E+00 0.  1.
</event>
<event>
 4    1  0.6089441E+003  0.3115642E+02  0.7546771E-02  0.1409806E+00
          2   -1    0    0  501    0  0.00000000000E+00  0.00000000000E+00  0.24512790377E+04  0.24512790377E+04  0.00000000000E+00 0. -1.
          2   -1    0    0  502    0 -0.00000000000E+00 -0.00000000000E+00 -0.68216506297E+00  0.68216506297E+00  0.00000000000E+00 0.  1.
          2    1    1    2  501    0  0.30494055211E+02  0.63902182627E+01  0.43125862389E+03  0.43238261178E+03  0.00000000000E+00 0.  1.
          2    1    1    2  502    0 -0.30494055211E+02 -0.63902182627E+01  0.20193382488E+04  0.20195785910E+04  0.00000000000E+00 0. -1.
</event>
<event>
 4    1  0.6089441E+003  0.4181648E+02  0.7546771E-02  0.1338158E+00
          2   -1    0    0  501    0  0.00000000000E+00  0.00000000000E+00  0.19784042838E+02  0.19784042838E+02  0.00000000000E+00 0. -1.
          2   -1    0    0  502    0 -0.00000000000E+00 -0.00000000000E+00 -0.23403894978E+03  0.23403894978E+03  0.00000000000E+00 0. -1.
          2    1    1    2  501    0 -0.41555192372E+02 -0.46673450406E+01 -0.20724670935E+03  0.21142331153E+03  0.00000000000E+00 0. -1.
          2    1    1    2  502    0  0.41555192372E+02  0.46673450406E+01 -0.70081975943E+01  0.42399681087E+02  0.00000000000E+00 0. -1.
</event>
<event>
 4    1  0.6089441E+003  0.4636313E+02  0.7546771E-02  0.1314761E+00
          2   -1    0    0  501    0  0.00000000000E+00  0.00000000000E+00  0.40347854924E+03  0.40347854924E+03  0.00000000000E+00 0. -1.
          2   -1    0    0  502    0 -0.00000000000E+00 -0.00000000000E+00 -0.22520128447E+03  0.22520128447E+03  0.00000000000E+00 0. -1.
          2    1    1    2  501    0 -0.11776814995E+02  0.44842463908E+02 -0.22146090791E+03  0.22626195807E+03  0.00000000000E+00 0. -1.
          2    1    1    2  502    0  0.11776814995E+02 -0.44842463908E+02  0.39973817267E+03  0.40241787564E+03  0.00000000000E+00 0. -1.
</event>
<event>
 4    1  0.6089441E+003  0.2120012E+02  0.7546771E-02  0.1516427E+00
          2   -1    0    0  501    0  0.00000000000E+00  0.00000000000E+00  0.28968861933E+01  0.28968861933E+01  0.00000000000E+00 0. -1.
          2   -1    0    0  502    0 -0.00000000000E+00 -0.00000000000E+00 -0.46345169448E+03  0.46345169448E+03  0.00000000000E+00 0.  1.
          2    1    1    2  501    0  0.18351279908E+02  0.10614875131E+02 -0.42045880694E+03  0.42099293745E+03  0.00000000000E+00 0.  1.
          2    1    1    2  502    0 -0.18351279908E+02 -0.10614875131E+02 -0.40096001345E+02  0.45355643223E+02  0.00000000000E+00 0. -1.
</event>
<event>
 4    1  0.6089441E+003  0.2899939E+02  0.7546771E-02  0.1428495E+00
          2   -1    0    0  502    0  0.00000000000E+00  0.00000000000E+00  0.14338895541E+02  0.14338895541E+02  0.00000000000E+00 0.  1.
          2   -1    0    0  501    0 -0.00000000000E+00 -0.00000000000E+00 -0.58740868505E+02  0.58740868505E+02  0.00000000000E+00 0.  1.
          2    1    1    2  501    0  0.13736274279E+02  0.25539765144E+02 -0.23644408855E+02  0.37416879945E+02  0.00000000000E+00 0.  1.
          2    1    1    2  502    0 -0.13736274279E+02 -0.25539765144E+02 -0.20757564109E+02  0.35662884102E+02  0.00000000000E+00 0.  1.
</event>
<event>
 4    1  0.6089441E+003  0.8861991E+02  0.7546771E-02  0.1185138E+00
          2   -1    0    0  501    0  0.00000000000E+00  0.00000000000E+00  0.23027965273E+04  0.23027965273E+04  0.00000000000E+00 0.  1.
          2   -1    0    0  502    0 -0.00000000000E+00 -0.00000000000E+00 -0.44030039919E+01  0.44030039919E+01  0.00000000000E+00 0.  1.
          2    1    1    2  501    0 -0.66091911380E+02  0.59036833734E+02  0.60146785295E+03  0.60796140225E+03  0.00000000000E+00 0.  1.
          2    1    1    2  502    0  0.66091911380E+02 -0.59036833734E+02  0.16969256704E+04  0.16992381291E+04  0.00000000000E+00 0.  1.
</event>
<event>
 4    1  0.6089441E+003  0.2043095E+02  0.7546771E-02  0.1527547E+00
          2   -1    0    0  501    0  0.00000000000E+00  0.00000000000E+00  0.11164106214E+03  0.11164106214E+03  0.00000000000E+00 0. -1.
          2   -1    0    0  502    0 -0.00000000000E+00 -0.00000000000E+00 -0.43824484274E+03  0.43824484274E+03  0.00000000000E+00 0.  1.
          2    1    1    2  501    0  0.46943492575E+01  0.19884333028E+02 -0.43706946318E+03  0.43754672809E+03  0.00000000000E+00 0.  1.
          2    1    1    2  502    0 -0.46943492575E+01 -0.19884333028E+02  0.11046568257E+03  0.11233917679E+03  0.00000000000E+00 0. -1.
</event>
<event>
 4    1  0.6089441E+003  0.2208852E+02  0.7546771E-02  0.1504272E+00
          2   -1    0    0  501    0  0.00000000000E+00  0.00000000000E+00  0.58654018263E+03  0.58654018263E+03  0.00000000000E+00 0. -1.
          2   -1    0    0  502    0 -0.00000000000E+00 -0.00000000000E+00 -0.30445285751E+03  0.30445285751E+03  0.00000000000E+00 0.  1.
          2    1    1    2  501    0 -0.11001220434E+02  0.19154002564E+02 -0.30384384441E+03  0.30464567033E+03  0.00000000000E+00 0.  1.
          2    1    1    2  502    0  0.11001220434E+02 -0.19154002564E+02  0.58593116953E+03  0.58634736981E+03  0.00000000000E+00 0. -1.
</event>
<event>
 4    1  0.6089441E+003  0.4039337E+02  0.7546771E-02  0.1346196E+00
          2   -1    0    0  501    0  0.00000000000E+00  0.00000000000E+00  0.33558488194E+02  0.33558488194E+02  0.00000000000E+00 0.  1.
          2   -1    0    0  502    0 -0.00000000000E+00 -0.00000000000E+00 -0.23883905134E+04  0.23883905134E+04  0.00000000000E+00 0.  1.
          2    1    1    2  501    0 -0.19822176772E+01  0.40344703349E+02 -0.23760012717E+04  0.23763446019E+04  0.00000000000E+00 0.  1.
          2    1    1    2  502    0  0.19822176772E+01 -0.40344703349E+02  0.21169246427E+02  0.45604399673E+02  0.00000000000E+00 0.  1.
</event>
<event>
 4    1  0.6089441E+003  0.3602134E+02  0.7546771E-02  0.1373522E+00
          2   -1    0    0  502    0  0.00000000000E+00  0.00000000000E+00  0.42719170679E+02  0.42719170679E+02  0.00000000000E+00 0. -1.
          2   -1    0    0  501    0 -0.00000000000E+00 -0.00000000000E+00 -0.77126667446E+03  0.77126667446E+03  0.00000000000E+00 0.  1.
          2    1    1    2  501    0 -0.34078774777E+02 -0.11669353420E+02  0.34624680734E+02  0.49964039223E+02  0.00000000000E+00 0. -1.
          2    1    1    2  502    0  0.34078774777E+02  0.11669353420E+02 -0.76317218452E+03  0.76402180592E+03  0.00000000000E+00 0.  1.
</event>
<event>
 4    1  0.6089441E+003  0.3751570E+02  0.7546771E-02  0.1363693E+00
          2   -1    0    0  501    0  0.00000000000E+00  0.00000000000E+00  0.98653200311E+03  0.98653200311E+03  0.00000000000E+00 0.  1.
          2   -1    0    0  502    0 -0.00000000000E+00 -0.00000000000E+00 -0.43336400423E+03  0.43336400423E+03  0.00000000000E+00 0.  1.
          2    1    1    2  501    0  0.31080851333E+02  0.21009715710E+02 -0.43219446060E+03  0.43381963908E+03  0.00000000000E+00 0.  1.
          2    1    1    2  502    0 -0.31080851333E+02 -0.21009715710E+02  0.98536245949E+03  0.98607636826E+03  0.00000000000E+00 0.  1.
</event>
<event>
 4    1  0.6089441E+003  0.2255038E+02  0.7546771E-02  0.1498223E+00
          2   -1    0    0  501    0  0.00000000000E+00  0.00000000000E+00  0.27029295366E+03  0.27029295366E+03  0.00000000000E+00 0. -1.
          2   -1    0    0  502    0 -0.00000000000E+00 -0.00000000000E+00 -0.21749937963E+03  0.21749937963E+03  0.00000000000E+00 0.  1.
          2    1    1    2  501    0  0.11600043417E+02  0.19338005243E+02 -0.21644224081E+03  0.21761379336E+03  0.00000000000E+00 0.  1.
          2    1    1    2  502    0 -0.11600043417E+02 -0.19338005243E+02  0.26923581483E+03  0.27017853994E+03  0.00000000000E+00 0. -1.
</event>
<event>
 4    1  0.6089441E+003  0.2231267E+02  0.7546771E-02  0.1501314E+00
          2   -1    0    0  501    0  0.00000000000E+00  0.00000000000E+00  0.89674729021E+03  0.89674729021E+03  0.00000000000E+00 0.  1.
          2   -1    0    0  502    0 -0.00000000000E+00 -0.00000000000E+00 -0.18118033903E+01  0.18118033903E+01  0.00000000000E+00 0.  1.
          2    1    1    2  501    0 -0.22277097920E+02 -0.12593389102E+01  0.73302104323E+02  0.76622800291E+02  0.00000000000E+00 0.  1.
          2    1    1    2  502    0  0.22277097920E+02  0.12593389102E+01  0.82163338250E+03  0.82193629331E+03  0.00000000000E+00 0.  1.
</event>
<event>
 4    1  0.6089441E+003  0.2474918E+02  0.7546771E-02  0.1471629E+00
          2   -1    0    0  502    0  0.00000000000E+00  0.00000000000E+00  0.58927766900E+00  0.58927766900E+00  0.00000000000E+00 0. -1.
          2   -1    0    0  501    0 -0.00000000000E+00 -0.00000000000E+00 -0.13326515092E+04  0.13326515092E+04  0.00000000000E+00 0. -1.
          2    1    1    2  501    0 -0.22238940051E+02 -0.10860543345E+02 -0.97871603701E+03  0.97902890813E+03  0.00000000000E+00 0. -1.
          2    1    1    2  502    0  0.22238940051E+02  0.10860543345E+02 -0.35334619451E+03  0.35421187872E+03  0.00000000000E+00 0. -1.
</event>
<event>
 4    1  0.6089441E+003  0.2668039E+02  0.7546771E-02  0.1450845E+00
          2   -1    0    0  502    0  0.00000000000E+00  0.00000000000E+00  0.25523547467E+03  0.25523547467E+03  0.00000000000E+00 0. -1.
          2   -1    0    0  501    0 -0.00000000000E+00 -0.00000000000E+00 -0.88710969255E+02  0.88710969255E+02  0.00000000000E+00 0.  1.
          2    1    1    2  501    0 -0.27908392546E+01 -0.26534020847E+02  0.25251057132E+03  0.25391619026E+03  0.00000000000E+00 0. -1.
          2    1    1    2  502    0  0.27908392546E+01  0.26534020847E+02 -0.85986065904E+02  0.90030253669E+02  0.00000000000E+00 0.  1.
</event>
<event>
 4    1  0.6089441E+003  0.2099266E+02  0.7546771E-02  0.1519370E+00
          2   -1    0    0  501    0  0.00000000000E+00  0.00000000000E+00  0.75592419069E+00  0.75592419069E+00  0.00000000000E+00 0. -1.
          2   -1    0    0  502    0 -0.00000000000E+00 -0.00000000000E+00 -0.12456507104E+04  0.12456507104E+04  0.00000000000E+00 0.  1.
          2    1    1    2  501    0 -0.20671353621E+02  0.36587883973E+01 -0.10769948616E+04  0.10771994353E+04  0.00000000000E+00 0.  1.
          2    1    1    2  502    0  0.20671353621E+02 -0.36587883973E+01 -0.16789992462E+03  0.16920719926E+03  0.00000000000E+00 0. -1.
</event>
<event>
 4    1  0.6089441E+003  0.2081947E+02  0.7546771E-02  0.1521858E+00
          2   -1    0    0  502    0  0.00000000000E+00  0.00000000000E+00  0.60522489878E+01  0.60522489878E+01  0.00000000000E+00 0.  1.
          2   -1    0    0  501    0 -0.00000000000E+00 -0.00000000000E+00 -0.72348613843E+03  0.72348613843E+03  0.00000000000E+00 0. -1.
          2    1    1    2  501    0 -0.16812790149E+02  0.12279264970E+02 -0.12472426011E+02  0.24269562654E+02  0.00000000000E+00 0.  1.
          2    1    1    2  502    0  0.16812790149E+02 -0.12279264970E+02 -0.70496146343E+03  0.70526882476E+03  0.00000000000E+00 0. -1.
</event>
<event>
 4    1  0.6089441E+003  0.2303007E+02  0.7546771E-02  0.1492121E+00
          2   -1    0    0  501    0  0.00000000000E+00  0.00000000000E+00  0.36223906917E+01  0.36223906917E+01  0.00000000000E+00 0.  1.
          2   -1    0    0  502    0 -0.00000000000E+00 -0.00000000000E+00 -0.12189348009E+04  0.12189348009E+04  0.00000000000E+00 0.  1.
          2    1    1    2  501    0 -0.23026381035E+02 -0.41203071135E+00 -0.11810473194E+04  0.11812718378E+04  0.00000000000E+00 0.  1.
          2    1    1    2  502    0  0.23026381035E+02  0.41203071135E+00 -0.34265090730E+02  0.41285353766E+02  0.00000000000E+00 0.  1.
</event>
<event>
 4    1  0.6089441E+003  0.2151995E+02  0.7546771E-02  0.1511969E+00
          2   -1    0    0  502    0  0.00000000000E+00  0.00000000000E+00  0.65578473518E+00  0.65578473518E+00  0.00000000000E+00 0. -1.
          2   -1    0    0  501    0 -0.00000000000E+00 -0.00000000000E+00 -0.15014622103E+04  0.15014622103E+04  0.00000000000E+00 0. -1.
          2    1    1    2  501    0 -0.18654739226E+02  0.10728890387E+02 -0.20379663633E+03  0.20492968883E+03  0.00000000000E+00 0. -1.
          2    1    1    2  502    0  0.18654739226E+02 -0.10728890387E+02 -0.12970097893E+04  0.12971883062E+04  0.00000000000E+00 0. -1.
</event>
<event>
 4    1  0.6089441E+003  0.3708813E+02  0.7546771E-02  0.1366449E+00
          2   -1    0    0  501    0  0.00000000000E+00  0.00000000000E+00  0.56663577512E+03  0.56663577512E+03  0.00000000000E+00 0.  1.
          2   -1    0    0  502    0 -0.00000000000E+00 -0.00000000000E+00 -0.55858659704E+01  0.55858659704E+01  0.00000000000E+00 0. -1.
          2    1    1    2  501    0  0.36981536168E+02  0.28099011921E+01  0.65386681195E+02  0.75172785234E+02  0.00000000000E+00 0. -1.
          2    1    1    2  502    0 -0.36981536168E+02 -0.28099011921E+01  0.49566322795E+03  0.49704885586E+03  0.00000000000E+00 0.  1.
</event>
<event>
 4    1  0.6089441E+003  0.2258722E+02  0.7546771E-02  0.1497748E+00
          2   -1    0    0  502    0  0.00000000000E+00  0.00000000000E+00  0.17871072945E+02  0.17871072945E+02  0.00000000000E+00 0.  1.
          2   -1    0    0  501    0 -0.00000000000E+00 -0.00000000000E+00 -0.29904429529E+02  0.29904429529E+02  0.00000000000E+00 0.  1.
          2    1    1    2  501    0 -0.64868988108E+01  0.21635680674E+02 -0.92906852037E+00  0.22606319973E+02  0.00000000000E+00 0.  1.
          2    1    1    2  502    0  0.64868988108E+01 -0.21635680674E+02 -0.11104288064E+02  0.25169182501E+02  0.00000000000E+00 0.  1.
</event>
<event>
 4    1  0.6089441E+003  0.2191085E+02  0.7546771E-02  0.1506647E+00
          2   -1    0    0  501    0  0.00000000000E+00  0.00000000000E+00  0.16665437637E+04  0.16665437637E+04  0.00000000000E+00 0. -1.
          2   -1    0    0  502    0 -0.00000000000E+00 -0.00000000000E+00 -0.24524720606E+01  0.24524720606E+01  0.00000000000E+00 0.  1.
          2    1    1    2  501    0 -0.11033000328E+02 -0.18930352495E+02  0.48088991074E+02  0.52845400976E+02  0.00000000000E+00 0.  1.
          2    1    1    2  502    0  0.11033000328E+02  0.18930352495E+02  0.16160023005E+04  0.16161508347E+04  0.00000000000E+00 0. -1.
</event>
<event>
 4    1  0.6089441E+003  0.2196969E+02  0.7546771E-02  0.1505858E+00
          2   -1    0    0  501    0  0.00000000000E+00  0.00000000000E+00  0.17647552637E+01  0.17647552637E+01  0.00000000000E+00 0. -1.
          2   -1    0    0  502    0 -0.00000000000E+00 -0.00000000000E+00 -0.27695550770E+03  0.27695550770E+03  0.00000000000E+00 0. -1.
          2    1    1    2  501    0 -0.14673073678E+02 -0.16351393286E+02 -0.15315341060E+03  0.15472115024E+03  0.00000000000E+00 0. -1.
          2    1    1    2  502    0  0.14673073678E+02  0.16351393286E+02 -0.12203734184E+03  0.12399911273E+03  0.00000000000E+00 0. -1.
</event>
<event>
 4    1  0.6089441E+003  0.2934941E+02  0.7546771E-02  0.1425336E+00
          2   -1    0    0  501    0  0.00000000000E+00  0.00000000000E+00  0.10167599511E+02  0.10167599511E+02  0.00000000000E+00 0.  1.
          2   -1    0    0  502    0 -0.00000000000E+00 -0.00000000000E+00 -0.20811278076E+03  0.20811278076E+03  0.00000000000E+00 0. -1.
          2    1    1    2  501    0  0.28193605202E+02  0.81552859961E+01 -0.18301182821E+03  0.18535025581E+03  0.00000000000E+00 0. -1.
          2    1    1    2  502    0 -0.28193605202E+02 -0.81552859961E+01 -0.14933353036E+02  0.32930124459E+02  0.00000000000E+00 0.  1.
</event>
<event>
 4    1  0.6089441E+003  0.2004919E+02  0.7546771E-02  0.1533285E+00
          2   -1    0    0  502    0  0.00000000000E+00  0.00000000000E+00  0.28054365227E+03  0.28054365227E+03  0.00000000000E+00 0. -1.
          2   -1    0    0  501    0 -0.00000000000E+00 -0.00000000000E+00 -0.61477991656E+02  0.61477991656E+02  0.00000000000E+00 0. -1.
          2    1    1    2  501    0  0.19786103065E+02  0.32372855268E+01  0.27853908857E+03  0.27925972454E+03  0.00000000000E+00 0. -1.
          2    1    1    2  502    0 -0.19786103065E+02 -0.32372855268E+01 -0.59473427954E+02  0.62761919383E+02  0.00000000000E+00 0. -1.
</event>
<event>
 4    1  0.6089441E+003  0.3287935E+02  0.7546771E-02  0.1396118E+00
          2   -1    0    0  501    0  0.00000000000E+00  0.00000000000E+00  0.11465790911E+04  0.11465790911E+04  0.00000000000E+00 0.  1.
          2   -1    0    0  502    0 -0.00000000000E+00 -0.00000000000E+00 -0.98616057620E+00  0.98616057620E+00  0.00000000000E+00 0. -1.
          2    1    1    2  501    0 -0.32865557425E+02  0.95213709270E+00  0.69304324900E+03  0.69382274135E+03  0.00000000000E+00 0.  1.
          2    1    1    2  502    0  0.32865557425E+02 -0.95213709270E+00  0.45254968153E+03  0.45374251033E+03  0.00000000000E+00 0. -1.
</event>
<event>
 4    1  0.6089441E+003  0.4675043E+02  0.7546771E-02  0.1312912E+00
          2   -1    0    0  502    0  0.00000000000E+00  0.00000000000E+00  0.18132615974E+02  0.18132615974E+02  0.00000000000E+00 0. -1.
          2   -1    0    0  501    0 -0.00000000000E+00 -0.00000000000E+00 -0.68326491220E+03  0.68326491220E+03  0.00000000000E+00 0.  1.
          2    1    1    2  501    0 -0.38387714993E+02 -0.26683066134E+02 -0.14300375447E+02  0.48888683953E+02  0.00000000000E+00 0. -1.
          2    1    1    2  502    0  0.38387714993E+02  0.26683066134E+02 -0.65083192078E+03  0.65250884422E+03  0.00000000000E+00 0.  1.
</event>
<event>
 4    1  0.6089441E+003  0.2544757E+02  0.7546771E-02  0.1463858E+00
          2   -1    0    0  501    0  0.00000000000E+00  0.00000000000E+00  0.10038168099E+03  0.10038168099E+03  0.00000000000E+00 0.  1.
          2   -1    0    0  502    0 -0.00000000000E+00 -0.00000000000E+00 -0.97911243602E+01  0.97911243602E+01  0.00000000000E+00 0. -1.
          2    1    1    2  501    0  0.25148817323E+02  0.38878919296E+01  0.13121744402E+02  0.28631431899E+02  0.00000000000E+00 0. -1.
          2    1    1    2  502    0 -0.25148817323E+02 -0.38878919296E+01  0.77468812223E+02  0.81541373447E+02  0.00000000000E+00 0.  1.
</event>
<event>
 4    1  0.6089441E+003  0.2293880E+02  0.7546771E-02  0.1493268E+00
          2   -1    0    0  502    0  0.00000000000E+00  0.00000000000E+00  0.13946310928E+03  0.13946310928E+03  0.00000000000E+00 0. -1.
          2   -1    0    0  501    0 -0.00000000000E+00 -0.00000000000E+00 -0.44589407719E+03  0.44589407719E+03  0.00000000000E+00 0. -1.
          2    1    1    2  501    0 -0.22549801592E+02  0.42065409182E+01  0.13822222029E+03  0.14011270720E+03  0.00000000000E+00 0. -1.
          2    1    1    2  502    0  0.22549801592E+02 -0.42065409182E+01 -0.44465318820E+03  0.44524447926E+03  0.00000000000E+00 0. -1.
</event>
