<event>
 4    1  0.6769686E+001  0.2497475E+02  0.7546771E-02  0.1469086E+00
          2   -1    0    0  502    0  0.00000000000E+00  0.00000000000E+00  0.10270184009E+03  0.10270184009E+03  0.00000000000E+00 0.  1.
         -2   -1    0    0    0  501 -0.00000000000E+00 -0.00000000000E+00 -0.61685436398E+01  0.61685436398E+01  0.00000000000E+00 0. -1.
          1    1    1    2  502    0 -0.21165482660E+02  0.13257477697E+02  0.41502357178E+02  0.48437423781E+02  0.00000000000E+00 0. -1.
         -1    1    1    2    0  501  0.21165482660E+02 -0.13257477697E+02  0.55030939276E+02  0.60432959953E+02  0.00000000000E+00 0.  1.
</event>
<event>
 4    1  0.6769686E+001  0.3622649E+02  0.7546771E-02  0.1372140E+00
          2   -1    0    0  502    0  0.00000000000E+00  0.00000000000E+00  0.62753536212E+03  0.62753536212E+03  0.00000000000E+00 0. -1.
         -2   -1    0    0    0  501 -0.00000000000E+00 -0.00000000000E+00 -0.24270566403E+01  0.24270566403E+01  0.00000000000E+00 0.  1.
          1    1    1    2  502    0  0.15692944754E+02 -0.32651030204E+02  0.42970990208E+03  0.43123422665E+03  0.00000000000E+00 0. -1.
         -1    1    1    2    0  501 -0.15692944754E+02  0.32651030204E+02  0.19539840340E+03  0.19872819211E+03  0.00000000000E+00 0.  1.
</event>
<event>
 4    1  0.6769686E+001  0.3301006E+02  0.7546771E-02  0.1395120E+00
          2   -1    0    0  502    0  0.00000000000E+00  0.00000000000E+00  0.14677209873E+03  0.14677209873E+03  0.00000000000E+00 0. -1.
         -2   -1    0    0    0  501 -0.00000000000E+00 -0.00000000000E+00 -0.86679032605E+01  0.86679032605E+01  0.00000000000E+00 0.  1.
          1    1    1    2  502    0  0.11252648799E+02 -0.31032921688E+02  0.39612257890E+02  0.51563507528E+02  0.00000000000E+00 0.  1.
         -1    1    1    2    0  501 -0.11252648799E+02  0.31032921688E+02  0.98491937579E+02  0.10387649446E+03  0.00000000000E+00 0. -1.
</event>
<event>
 4    1  0.6769686E+001  0.2012702E+02  0.7546771E-02  0.1532103E+00
          2   -1    0    0  502    0  0.00000000000E+00  0.00000000000E+00  0.12258266229E+04  0.12258266229E+04  0.00000000000E+00 0. -1.
         -2   -1    0    0    0  501 -0.00000000000E+00 -0.00000000000E+00 -0.33748513506E+00  0.33748513506E+00  0.00000000000E+00 0.  1.
          1    1    1    2  502    0 -0.86949668738E+01 -0.18151981977E+02  0.70114623235E+03  0.70143505475E+03  0.00000000000E+00 0. -1.
         -1    1    1    2    0  501  0.86949668738E+01  0.18151981977E+02  0.52434290543E+03  0.52472905329E+03  0.00000000000E+00 0.  1.
</event>
<event>
 4    1  0.6769686E+001  0.2477253E+02  0.7546771E-02  0.1471364E+00
          2   -1    0    0  502    0  0.00000000000E+00  0.00000000000E+00  0.39767522258E+02  0.39767522258E+02  0.00000000000E+00 0. -1.
         -2   -1    0    0    0  501 -0.00000000000E+00 -0.00000000000E+00 -0.16889757491E+02  0.16889757491E+02  0.00000000000E+00 0.  1.
          1    1    1    2  502    0 -0.24636445554E+02 -0.25929963398E+01  0.19762465200E+02  0.31689637270E+02  0.00000000000E+00 0.  1.
         -1    1    1    2    0  501  0.24636445554E+02  0.25929963398E+01  0.31152995672E+01  0.24967642478E+02  0.00000000000E+00 0. -1.
</event>
<event>
 4    1  0.6769686E+001  0.4151059E+02  0.7546771E-02  0.1339854E+00
          2   -1    0    0  502    0  0.00000000000E+00  0.00000000000E+00  0.17105978249E+04  0.17105978249E+04  0.00000000000E+00 0.  1.
         -2   -1    0    0    0  501 -0.00000000000E+00 -0.00000000000E+00 -0.11597604401E+01  0.11597604401E+01  0.00000000000E+00 0. -1.
          1    1    1    2  502    0 -0.27601970391E+02  0.31004202192E+02  0.11650105863E+04  0.11657498855E+04  0.00000000000E+00 0.  1.
         -1    1    1    2    0  501  0.27601970391E+02 -0.31004202192E+02  0.54442747820E+03  0.54600769989E+03  0.00000000000E+00 0. -1.
</event>
<event>
 4    1  0.6769686E+001  0.2766214E+02  0.7546771E-02  0.1441068E+00
          2   -1    0    0  502    0  0.00000000000E+00  0.00000000000E+00  0.47622573406E+02  0.47622573406E+02  0.00000000000E+00 0. -1.
         -2   -1    0    0    0  501 -0.00000000000E+00 -0.00000000000E+00 -0.17044453931E+02  0.17044453931E+02  0.00000000000E+00 0.  1.
          1    1    1    2  502    0 -0.26338187223E+02  0.84554115325E+01  0.23028553226E+02  0.35993170936E+02  0.00000000000E+00 0.  1.
         -1    1    1    2    0  501  0.26338187223E+02 -0.84554115325E+01  0.75495662491E+01  0.28673856401E+02  0.00000000000E+00 0. -1.
</event>
<event>
 4    1  0.6769686E+001  0.3733771E+02  0.7546771E-02  0.1364835E+00
          2   -1    0    0  502    0  0.00000000000E+00  0.00000000000E+00  0.10500993655E+03  0.10500993655E+03  0.00000000000E+00 0. -1.
         -2   -1    0    0    0  501 -0.00000000000E+00 -0.00000000000E+00 -0.30637962700E+02  0.30637962700E+02  0.00000000000E+00 0.  1.
          1    1    1    2  502    0  0.10487901655E+02 -0.35834463204E+02 -0.13870789140E+02  0.39830938046E+02  0.00000000000E+00 0.  1.
         -1    1    1    2    0  501 -0.10487901655E+02  0.35834463204E+02  0.88242762988E+02  0.95816961202E+02  0.00000000000E+00 0. -1.
</event>
<event>
 4    1  0.6769686E+001  0.2643228E+02  0.7546771E-02  0.1453396E+00
          2   -1    0    0  502    0  0.00000000000E+00  0.00000000000E+00  0.10673232817E+03  0.10673232817E+03  0.00000000000E+00 0. -1.
         -2   -1    0    0    0  501 -0.00000000000E+00 -0.00000000000E+00 -0.66028690256E+01  0.66028690256E+01  0.00000000000E+00 0.  1.
          1    1    1    2  502    0 -0.21458500896E+02 -0.15433670675E+02  0.55325660605E+02  0.61315529620E+02  0.00000000000E+00 0. -1.
         -1    1    1    2    0  501  0.21458500896E+02  0.15433670675E+02  0.44803798543E+02  0.52019667580E+02  0.00000000000E+00 0.  1.
</event>
<event>
 4    1  0.6769686E+001  0.2408086E+02  0.7546771E-02  0.1479354E+00
          2   -1    0    0  502    0  0.00000000000E+00  0.00000000000E+00  0.14639363851E+04  0.14639363851E+04  0.00000000000E+00 0.  1.
         -2   -1    0    0    0  501 -0.00000000000E+00 -0.00000000000E+00 -0.68907057034E+00  0.68907057034E+00  0.00000000000E+00 0. -1.
          1    1    1    2  502    0  0.22348295616E+02 -0.89689196398E+01  0.25413256992E+03  0.25527093633E+03  0.00000000000E+00 0. -1.
         -1    1    1    2    0  501 -0.22348295616E+02  0.89689196398E+01  0.12091147446E+04  0.12093545193E+04  0.00000000000E+00 0.  1.
</event>
<event>
 4    1  0.6769686E+001  0.5071069E+02  0.7546771E-02  0.1295120E+00
          2   -1    0    0  502    0  0.00000000000E+00  0.00000000000E+00  0.29521448882E+03  0.29521448882E+03  0.00000000000E+00 0. -1.
         -2   -1    0    0    0  501 -0.00000000000E+00 -0.00000000000E+00 -0.14604448399E+02  0.14604448399E+02  0.00000000000E+00 0.  1.
          1    1    1    2  502    0 -0.49714127273E+02  0.10003959766E+02  0.41898224938E+02  0.65780201539E+02  0.00000000000E+00 0. -1.
         -1    1    1    2    0  501  0.49714127273E+02 -0.10003959766E+02  0.23871181548E+03  0.24403873568E+03  0.00000000000E+00 0.  1.
</event>
<event>
 4    1  0.6769686E+001  0.3955242E+02  0.7546771E-02  0.1351129E+00
          2   -1    0    0  502    0  0.00000000000E+00  0.00000000000E+00  0.40070424955E+03  0.40070424955E+03  0.00000000000E+00 0. -1.
         -2   -1    0    0    0  501 -0.00000000000E+00 -0.00000000000E+00 -0.39719148201E+01  0.39719148201E+01  0.00000000000E+00 0.  1.
          1    1    1    2  502    0 -0.17993608736E+02 -0.35222492309E+02  0.17192964427E+03  0.17642051043E+03  0.00000000000E+00 0.  1.
         -1    1    1    2    0  501  0.17993608736E+02  0.35222492309E+02  0.22480269046E+03  0.22825565394E+03  0.00000000000E+00 0. -1.
</event>
<event>
 4    1  0.6769686E+001  0.2557332E+02  0.7546771E-02  0.1462491E+00
          2   -1    0    0  502    0  0.00000000000E+00  0.00000000000E+00  0.80498638745E+02  0.80498638745E+02  0.00000000000E+00 0. -1.
         -2   -1    0    0    0  501 -0.00000000000E+00 -0.00000000000E+00 -0.13808750492E+02  0.13808750492E+02  0.00000000000E+00 0.  1.
          1    1    1    2  502    0 -0.14282861731E+02  0.21213069208E+02  0.30909243659E+01  0.25759430465E+02  0.00000000000E+00 0.  1.
         -1    1    1    2    0  501  0.14282861731E+02 -0.21213069208E+02  0.63598963887E+02  0.68547958773E+02  0.00000000000E+00 0. -1.
</event>
<event>
 4    1  0.6769686E+001  0.2126363E+02  0.7546771E-02  0.1515534E+00
          2   -1    0    0  502    0  0.00000000000E+00  0.00000000000E+00  0.91391843077E+01  0.91391843077E+01  0.00000000000E+00 0.  1.
         -2   -1    0    0    0  501 -0.00000000000E+00 -0.00000000000E+00 -0.49820644543E+02  0.49820644543E+02  0.00000000000E+00 0. -1.
          1    1    1    2  502    0  0.21262214707E+02  0.24575897973E+00 -0.22803572686E+02  0.31179241475E+02  0.00000000000E+00 0.  1.
         -1    1    1    2    0  501 -0.21262214707E+02 -0.24575897973E+00 -0.17877887549E+02  0.27780587375E+02  0.00000000000E+00 0. -1.
</event>
<event>
 4    1  0.6769686E+001  0.3127006E+02  0.7546771E-02  0.1408871E+00
          2   -1    0    0  502    0  0.00000000000E+00  0.00000000000E+00  0.15448862744E+04  0.15448862744E+04  0.00000000000E+00 0.  1.
         -2   -1    0    0    0  501 -0.00000000000E+00 -0.00000000000E+00 -0.68244942801E+00  0.68244942801E+00  0.00000000000E+00 0. -1.
          1    1    1    2  502    0  0.18856073443E+02  0.24945248914E+02  0.56395182001E+03  0.56481808774E+03  0.00000000000E+00 0.  1.
         -1    1    1    2    0  501 -0.18856073443E+02 -0.24945248914E+02  0.98025200494E+03  0.98075063606E+03  0.00000000000E+00 0. -1.
</event>
<event>
 4    1  0.6769686E+001  0.4041420E+02  0.7546771E-02  0.1346076E+00
          2   -1    0    0  502    0  0.00000000000E+00  0.00000000000E+00  0.51362651934E+02  0.51362651934E+02  0.00000000000E+00 0.  1.
         -2   -1    0    0    0  501 -0.00000000000E+00 -0.00000000000E+00 -0.46174197790E+02  0.46174197790E+02  0.00000000000E+00 0. -1.
          1    1    1    2  502    0 -0.40261301634E+02  0.35121937306E+01  0.29804822120E+02  0.50215887283E+02  0.00000000000E+00 0. -1.
         -1    1    1    2    0  501  0.40261301634E+02 -0.35121937306E+01 -0.24616367975E+02  0.47320962441E+02  0.00000000000E+00 0.  1.
</event>
<event>
 4    1  0.6769686E+001  0.4143917E+02  0.7546771E-02  0.1340253E+00
          2   -1    0    0  502    0  0.00000000000E+00  0.00000000000E+00  0.10706584319E+04  0.10706584319E+04  0.00000000000E+00 0.  1.
         -2   -1    0    0    0  501 -0.00000000000E+00 -0.00000000000E+00 -0.22955548679E+01  0.22955548679E+01  0.00000000000E+00 0. -1.
          1    1    1    2  502    0  0.24167689359E+01  0.41368636648E+02  0.23969922080E+03  0.24325484851E+03  0.00000000000E+00 0. -1.
         -1    1    1    2    0  501 -0.24167689359E+01 -0.41368636648E+02  0.82866365618E+03  0.82969913821E+03  0.00000000000E+00 0.  1.
</event>
<event>
 4    1  0.6769686E+001  0.2168964E+02  0.7546771E-02  0.1509642E+00
          2   -1    0    0  502    0  0.00000000000E+00  0.00000000000E+00  0.24969691049E+03  0.24969691049E+03  0.00000000000E+00 0.  1.
         -2   -1    0    0    0  501 -0.00000000000E+00 -0.00000000000E+00 -0.41624095574E+01  0.41624095574E+01  0.00000000000E+00 0. -1.
          1    1    1    2  502    0 -0.21171968609E+02 -0.47104512195E+01  0.28859341340E+02  0.36101276820E+02  0.00000000000E+00 0. -1.
         -1    1    1    2    0  501  0.21171968609E+02  0.47104512195E+01  0.21667515959E+03  0.21775804323E+03  0.00000000000E+00 0.  1.
</event>
<event>
 4    1  0.6769686E+001  0.2119229E+02  0.7546771E-02  0.1516537E+00
          2   -1    0    0  502    0  0.00000000000E+00  0.00000000000E+00  0.15002836225E+02  0.15002836225E+02  0.00000000000E+00 0.  1.
         -2   -1    0    0    0  501 -0.00000000000E+00 -0.00000000000E+00 -0.30864627599E+02  0.30864627599E+02  0.00000000000E+00 0. -1.
          1    1    1    2  502    0 -0.21472770307E-01  0.21192277799E+02 -0.39512085242E+01  0.21557484738E+02  0.00000000000E+00 0.  1.
         -1    1    1    2    0  501  0.21472770307E-01 -0.21192277799E+02 -0.11910582850E+02  0.24309979087E+02  0.00000000000E+00 0. -1.
</event>
<event>
 4    1  0.6769686E+001  0.2013793E+02  0.7546771E-02  0.1531938E+00
          2   -1    0    0  502    0  0.00000000000E+00  0.00000000000E+00  0.61976904374E+03  0.61976904374E+03  0.00000000000E+00 0. -1.
         -2   -1    0    0    0  501 -0.00000000000E+00 -0.00000000000E+00 -0.12211678286E+01  0.12211678286E+01  0.00000000000E+00 0.  1.
          1    1    1    2  502    0  0.23212674466E+01  0.20003699257E+02  0.52081504425E+03  0.52120422732E+03  0.00000000000E+00 0. -1.
         -1    1    1    2    0  501 -0.23212674466E+01 -0.20003699257E+02  0.97732831664E+02  0.99785984244E+02  0.00000000000E+00 0.  1.
</event>
<event>
 4    1  0.6769686E+001  0.2069666E+02  0.7546771E-02  0.1523640E+00
          2   -1    0    0  502    0  0.00000000000E+00  0.00000000000E+00  0.11443364038E+03  0.11443364038E+03  0.00000000000E+00 0.  1.
         -2   -1    0    0    0  501 -0.00000000000E+00 -0.00000000000E+00 -0.48758348897E+01  0.48758348897E+01  0.00000000000E+00 0. -1.
          1    1    1    2  502    0  0.75150333393E+01 -0.19284088061E+02  0.83530308691E+02  0.86056169148E+02  0.00000000000E+00 0.  1.
         -1    1    1    2    0  501 -0.75150333393E+01  0.19284088061E+02  0.26027496803E+02  0.33253306125E+02  0.00000000000E+00 0. -1.
</event>
<event>
 4    1  0.6769686E+001  0.2490194E+02  0.7546771E-02  0.1469903E+00
          2   -1    0    0  502    0  0.00000000000E+00  0.00000000000E+00  0.13802733970E+01  0.13802733970E+01  0.00000000000E+00 0.  1.
         -2   -1    0    0    0  501 -0.00000000000E+00 -0.00000000000E+00 -0.56358741681E+03  0.56358741681E+03  0.00000000000E+00 0. -1.
          1    1    1    2  502    0 -0.20785770005E+02  0.13713430178E+02 -0.15387589523E+03  0.15587782887E+03  0.00000000000E+00 0.  1.
         -1    1    1    2    0  501  0.20785770005E+02 -0.13713430178E+02 -0.40833124818E+03  0.40908986133E+03  0.00000000000E+00 0. -1.
</event>
<event>
 4    1  0.6769686E+001  0.2520657E+02  0.7546771E-02  0.1466506E+00
          2   -1    0    0  502    0  0.00000000000E+00  0.00000000000E+00  0.16126363731E+04  0.16126363731E+04  0.00000000000E+00 0. -1.
         -2   -1    0    0    0  501 -0.00000000000E+00 -0.00000000000E+00 -0.41872350451E+00  0.41872350451E+00  0.00000000000E+00 0.  1.
          1    1    1    2  502    0 -0.25193127907E+02  0.82310845248E+00  0.10021067877E+04  0.10024237553E+04  0.00000000000E+00 0. -1.
         -1    1    1    2    0  501  0.25193127907E+02 -0.82310845248E+00  0.61011086191E+03  0.61063134133E+03  0.00000000000E+00 0.  1.
</event>
<event>
 4    1  0.6769686E+001  0.2006845E+02  0.7546771E-02  0.1532992E+00
          2   -1    0    0  502    0  0.00000000000E+00  0.00000000000E+00  0.80746546547E+03  0.80746546547E+03  0.00000000000E+00 0.  1.
         -2   -1    0    0    0  501 -0.00000000000E+00 -0.00000000000E+00 -0.66833598336E+00  0.66833598336E+00  0.00000000000E+00 0. -1.
          1    1    1    2  502    0 -0.20049669375E+02 -0.86807537757E+00  0.19987248304E+03  0.20087745586E+03  0.00000000000E+00 0. -1.
         -1    1    1    2    0  501  0.20049669375E+02  0.86807537757E+00  0.60692464645E+03  0.60725634560E+03  0.00000000000E+00 0.  1.
</event>
<event>
 4    1  0.6769686E+001  0.2177079E+02  0.7546771E-02  0.1508538E+00
          2   -1    0    0  502    0  0.00000000000E+00  0.00000000000E+00  0.69085154840E+02  0.69085154840E+02  0.00000000000E+00 0. -1.
         -2   -1    0    0    0  501 -0.00000000000E+00 -0.00000000000E+00 -0.10813962415E+02  0.10813962415E+02  0.00000000000E+00 0.  1.
          1    1    1    2  502    0 -0.20570392158E+02  0.71292392247E+01  0.49808932236E+01  0.22333302101E+02  0.00000000000E+00 0.  1.
         -1    1    1    2    0  501  0.20570392158E+02 -0.71292392247E+01  0.53290299201E+02  0.57565815154E+02  0.00000000000E+00 0. -1.
</event>
<event>
 4    1  0.6769686E+001  0.2195819E+02  0.7546771E-02  0.1506012E+00
          2   -1    0    0  502    0  0.00000000000E+00  0.00000000000E+00  0.91451732432E+03  0.91451732432E+03  0.00000000000E+00 0. -1.
         -2   -1    0    0    0  501 -0.00000000000E+00 -0.00000000000E+00 -0.55367889180E+00  0.55367889180E+00  0.00000000000E+00 0.  1.
          1    1    1    2  502    0  0.16212170209E+02 -0.14809713226E+02  0.55697944661E+03  0.55741211506E+03  0.00000000000E+00 0. -1.
         -1    1    1    2    0  501 -0.16212170209E+02  0.14809713226E+02  0.35698419882E+03  0.35765888816E+03  0.00000000000E+00 0.  1.
</event>
<event>
 4    1  0.6769686E+001  0.6677454E+02  0.7546771E-02  0.1238403E+00
          2   -1    0    0  502    0  0.00000000000E+00  0.00000000000E+00  0.23404046803E+04  0.23404046803E+04  0.00000000000E+00 0. -1.
         -2   -1    0    0    0  501 -0.00000000000E+00 -0.00000000000E+00 -0.32726650518E+01  0.32726650518E+01  0.00000000000E+00 0.  1.
          1    1    1    2  502    0 -0.64548135176E+02 -0.17099054224E+02  0.41106725542E+03  0.41645543326E+03  0.00000000000E+00 0.  1.
         -1    1    1    2    0  501  0.64548135176E+02  0.17099054224E+02  0.19260647598E+04  0.19272219121E+04  0.00000000000E+00 0. -1.
</event>
<event>
 4    1  0.6769686E+001  0.3217117E+02  0.7546771E-02  0.1401622E+00
          2   -1    0    0  502    0  0.00000000000E+00  0.00000000000E+00  0.30952848194E+03  0.30952848194E+03  0.00000000000E+00 0. -1.
         -2   -1    0    0    0  501 -0.00000000000E+00 -0.00000000000E+00 -0.37936426356E+01  0.37936426356E+01  0.00000000000E+00 0.  1.
          1    1    1    2  502    0  0.32055529598E+02  0.27252865075E+01  0.98917606265E+02  0.10401767635E+03  0.00000000000E+00 0.  1.
         -1    1    1    2    0  501 -0.32055529598E+02 -0.27252865075E+01  0.20681723304E+03  0.20930444822E+03  0.00000000000E+00 0. -1.
</event>
<event>
 4    1  0.6769686E+001  0.3116157E+02  0.7546771E-02  0.1409764E+00
          2   -1    0    0  502    0  0.00000000000E+00  0.00000000000E+00  0.96428457711E+03  0.96428457711E+03  0.00000000000E+00 0. -1.
         -2   -1    0    0    0  501 -0.00000000000E+00 -0.00000000000E+00 -0.10071560463E+01  0.10071560463E+01  0.00000000000E+00 0.  1.
          1    1    1    2  502    0  0.11022263037E+02  0.29147098633E+02  0.48746247686E+03  0.48845748022E+03  0.00000000000E+00 0. -1.
         -1    1    1    2    0  501 -0.11022263037E+02 -0.29147098633E+02  0.47581494420E+03  0.47683425293E+03  0.00000000000E+00 0.  1.
</event>
<event>
 4    1  0.6769686E+001  0.2653827E+02  0.7546771E-02  0.1452302E+00
          2   -1    0    0  502    0  0.00000000000E+00  0.00000000000E+00  0.13244813894E+02  0.13244813894E+02  0.00000000000E+00 0.  1.
         -2   -1    0    0    0  501 -0.00000000000E+00 -0.00000000000E+00 -0.63140477072E+02  0.63140477072E+02  0.00000000000E+00 0. -1.
          1    1    1    2  502    0  0.16653226616E+02  0.20662764654E+02 -0.40121707905E+02  0.48104378648E+02  0.00000000000E+00 0. -1.
         -1    1    1    2    0  501 -0.16653226616E+02 -0.20662764654E+02 -0.97739552729E+01  0.28280912318E+02  0.00000000000E+00 0.  1.
</event>
<event>
 4    1  0.6769686E+001  0.4590966E+02  0.7546771E-02  0.1316952E+00
          2   -1    0    0  502    0  0.00000000000E+00  0.00000000000E+00  0.90353850026E+01  0.90353850026E+01  0.00000000000E+00 0. -1.
         -2   -1    0    0    0  501 -0.00000000000E+00 -0.00000000000E+00 -0.23672694545E+03  0.23672694545E+03  0.00000000000E+00 0.  1.
          1    1    1    2  502    0 -0.21338076523E+02  0.40649515629E+02 -0.12869219932E+03  0.13663593523E+03  0.00000000000E+00 0. -1.
         -1    1    1    2    0  501  0.21338076523E+02 -0.40649515629E+02 -0.98999361135E+02  0.10912639523E+03  0.00000000000E+00 0.  1.
</event>
<event>
 4    1  0.6769686E+001  0.2105413E+02  0.7546771E-02  0.1518493E+00
          2   -1    0    0  502    0  0.00000000000E+00  0.00000000000E+00  0.23806508435E+04  0.23806508435E+04  0.00000000000E+00 0. -1.
         -2   -1    0    0    0  501 -0.00000000000E+00 -0.00000000000E+00 -0.18750131502E+00  0.18750131502E+00  0.00000000000E+00 0.  1.
          1    1    1    2  502    0 -0.16939744439E+02  0.12502862815E+02  0.10910490208E+04  0.10912521442E+04  0.00000000000E+00 0. -1.
         -1    1    1    2    0  501  0.16939744439E+02 -0.12502862815E+02  0.12894143214E+04  0.12895862006E+04  0.00000000000E+00 0.  1.
</event>
<event>
 4    1  0.6769686E+001  0.3243470E+02  0.7546771E-02  0.1399554E+00
          2   -1    0    0  502    0  0.00000000000E+00  0.00000000000E+00  0.12536015941E+04  0.12536015941E+04  0.00000000000E+00 0. -1.
         -2   -1    0    0    0  501 -0.00000000000E+00 -0.00000000000E+00 -0.86256807361E+00  0.86256807361E+00  0.00000000000E+00 0.  1.
          1    1    1    2  502    0 -0.23467530219E+02 -0.22389391739E+02  0.52310845699E+03  0.52411302942E+03  0.00000000000E+00 0.  1.
         -1    1    1    2    0  501  0.23467530219E+02  0.22389391739E+02  0.72963056906E+03  0.73035113277E+03  0.00000000000E+00 0. -1.
</event>
<event>
 4    1  0.6769686E+001  0.2438582E+02  0.7546771E-02  0.1475793E+00
          2   -1    0    0  502    0  0.00000000000E+00  0.00000000000E+00  0.85728690579E+03  0.85728690579E+03  0.00000000000E+00 0. -1.
         -2   -1    0    0    0  501 -0.00000000000E+00 -0.00000000000E+00 -0.93242790363E+00  0.93242790363E+00  0.00000000000E+00 0.  1.
          1    1    1    2  502    0  0.23392096989E+02 -0.68904337968E+01  0.64532023980E+03  0.64578082983E+03  0.00000000000E+00 0. -1.
         -1    1    1    2    0  501 -0.23392096989E+02  0.68904337968E+01  0.21103423808E+03  0.21243850386E+03  0.00000000000E+00 0.  1.
</event>
<event>
 4    1  0.6769686E+001  0.2027600E+02  0.7546771E-02  0.1529858E+00
          2   -1    0    0  502    0  0.00000000000E+00  0.00000000000E+00  0.31973903724E+02  0.31973903724E+02  0.00000000000E+00 0. -1.
         -2   -1    0    0    0  501 -0.00000000000E+00 -0.00000000000E+00 -0.17866696720E+02  0.17866696720E+02  0.00000000000E+00 0.  1.
          1    1    1    2  502    0 -0.98692887575E+01 -0.17711955089E+02 -0.61410884277E+01  0.21185588987E+02  0.00000000000E+00 0.  1.
         -1    1    1    2    0  501  0.98692887575E+01  0.17711955089E+02  0.20248295432E+02  0.28655011457E+02  0.00000000000E+00 0. -1.
</event>
<event>
 4    1  0.6769686E+001  0.2001484E+02  0.7546771E-02  0.1533809E+00
          2   -1    0    0  502    0  0.00000000000E+00  0.00000000000E+00  0.19423702365E+02  0.19423702365E+02  0.00000000000E+00 0.  1.
         -2   -1    0    0    0  501 -0.00000000000E+00 -0.00000000000E+00 -0.25083318713E+02  0.25083318713E+02  0.00000000000E+00 0. -1.
          1    1    1    2  502    0 -0.10329425451E+02  0.17143413119E+02  0.65532040174E+01  0.21060344879E+02  0.00000000000E+00 0.  1.
         -1    1    1    2    0  501  0.10329425451E+02 -0.17143413119E+02 -0.12212820365E+02  0.23446676199E+02  0.00000000000E+00 0. -1.
</event>
<event>
 4    1  0.6769686E+001  0.2555541E+02  0.7546771E-02  0.1462685E+00
          2   -1    0    0  502    0  0.00000000000E+00  0.00000000000E+00  0.11285231007E+03  0.11285231007E+03  0.00000000000E+00 0. -1.
         -2   -1    0    0    0  501 -0.00000000000E+00 -0.00000000000E+00 -0.61236408032E+01  0.61236408032E+01  0.00000000000E+00 0.  1.
          1    1    1    2  502    0 -0.24550459402E+02 -0.70960496445E+01  0.67311710749E+02  0.71999620703E+02  0.00000000000E+00 0. -1.
         -1    1    1    2    0  501  0.24550459402E+02  0.70960496445E+01  0.39416958515E+02  0.46976330168E+02  0.00000000000E+00 0.  1.
</event>
<event>
 4    1  0.6769686E+001  0.4099451E+02  0.7546771E-02  0.1342755E+00
          2   -1    0    0  502    0  0.00000000000E+00  0.00000000000E+00  0.13575746755E+03  0.13575746755E+03  0.00000000000E+00 0. -1.
         -2   -1    0    0    0  501 -0.00000000000E+00 -0.00000000000E+00 -0.12965537791E+02  0.12965537791E+02  0.00000000000E+00 0.  1.
          1    1    1    2  502    0 -0.31550541914E+02  0.26174671866E+02  0.45580650109E+02  0.61303717723E+02  0.00000000000E+00 0. -1.
         -1    1    1    2    0  501  0.31550541914E+02 -0.26174671866E+02  0.77211279647E+02  0.87419287615E+02  0.00000000000E+00 0.  1.
</event>
<event>
 4    1  0.6769686E+001  0.2911494E+02  0.7546771E-02  0.1427447E+00
          2   -1    0    0  502    0  0.00000000000E+00  0.00000000000E+00  0.63191284259E+01  0.63191284259E+01  0.00000000000E+00 0.  1.
         -2   -1    0    0    0  501 -0.00000000000E+00 -0.00000000000E+00 -0.19849221599E+03  0.19849221599E+03  0.00000000000E+00 0. -1.
          1    1    1    2  502    0  0.27310174418E+02  0.10091285325E+02 -0.37780032658E+02  0.47697070496E+02  0.00000000000E+00 0.  1.
         -1    1    1    2    0  501 -0.27310174418E+02 -0.10091285325E+02 -0.15439305490E+03  0.15711427392E+03  0.00000000000E+00 0. -1.
</event>
<event>
 4    1  0.6769686E+001  0.4676378E+02  0.7546771E-02  0.1312848E+00
          2   -1    0    0  502    0  0.00000000000E+00  0.00000000000E+00  0.37472184644E+01  0.37472184644E+01  0.00000000000E+00 0.  1.
         -2   -1    0    0    0  501 -0.00000000000E+00 -0.00000000000E+00 -0.59720769181E+03  0.59720769181E+03  0.00000000000E+00 0. -1.
          1    1    1    2  502    0 -0.41022649629E+01  0.46583504088E+02 -0.25136230362E+03  0.25567530016E+03  0.00000000000E+00 0.  1.
         -1    1    1    2    0  501  0.41022649629E+01 -0.46583504088E+02 -0.34209816973E+03  0.34527961011E+03  0.00000000000E+00 0. -1.
</event>
<event>
 4    1  0.6769686E+001  0.2388310E+02  0.7546771E-02  0.1481697E+00
          2   -1    0    0  502    0  0.00000000000E+00  0.00000000000E+00  0.15055204896E+03  0.15055204896E+03  0.00000000000E+00 0.  1.
         -2   -1    0    0    0  501 -0.00000000000E+00 -0.00000000000E+00 -0.39147586553E+01  0.39147586553E+01  0.00000000000E+00 0. -1.
          1    1    1    2  502    0 -0.23852259992E+02 -0.12133273319E+01  0.59461580459E+02  0.64078717376E+02  0.00000000000E+00 0. -1.
         -1    1    1    2    0  501  0.23852259992E+02  0.12133273319E+01  0.87175709846E+02  0.90388090239E+02  0.00000000000E+00 0.  1.
</event>
<event>
 4    1  0.6769686E+001  0.5435148E+02  0.7546771E-02  0.1280333E+00
          2   -1    0    0  502    0  0.00000000000E+00  0.00000000000E+00  0.71366030245E+02  0.71366030245E+02  0.00000000000E+00 0.  1.
         -2   -1    0    0    0  501 -0.00000000000E+00 -0.00000000000E+00 -0.98890010173E+02  0.98890010173E+02  0.00000000000E+00 0. -1.
          1    1    1    2  502    0 -0.36398059075E+02 -0.40364156163E+02  0.51148872698E+02  0.74634382059E+02  0.00000000000E+00 0.  1.
         -1    1    1    2    0  501  0.36398059075E+02  0.40364156163E+02 -0.78672852626E+02  0.95621658359E+02  0.00000000000E+00 0. -1.
</event>
<event>
 4    1  0.6769686E+001  0.2160195E+02  0.7546771E-02  0.1510841E+00
          2   -1    0    0  502    0  0.00000000000E+00  0.00000000000E+00  0.20130819731E+03  0.20130819731E+03  0.00000000000E+00 0.  1.
         -2   -1    0    0    0  501 -0.00000000000E+00 -0.00000000000E+00 -0.31471707804E+01  0.31471707804E+01  0.00000000000E+00 0. -1.
          1    1    1    2  502    0  0.69108644492E+01 -0.20466657319E+02  0.15155100448E+03  0.15308282421E+03  0.00000000000E+00 0.  1.
         -1    1    1    2    0  501 -0.69108644492E+01  0.20466657319E+02  0.46610022050E+02  0.51372543880E+02  0.00000000000E+00 0. -1.
</event>
<event>
 4    1  0.6769686E+001  0.4002752E+02  0.7546771E-02  0.1348325E+00
          2   -1    0    0  502    0  0.00000000000E+00  0.00000000000E+00  0.26129424598E+02  0.26129424598E+02  0.00000000000E+00 0.  1.
         -2   -1    0    0    0  501 -0.00000000000E+00 -0.00000000000E+00 -0.65415426473E+02  0.65415426473E+02  0.00000000000E+00 0. -1.
          1    1    1    2  502    0  0.53086072166E+01 -0.39673933219E+02 -0.81872645210E+01  0.40856255188E+02  0.00000000000E+00 0. -1.
         -1    1    1    2    0  501 -0.53086072166E+01  0.39673933219E+02 -0.31098737354E+02  0.50688595883E+02  0.00000000000E+00 0.  1.
</event>
<event>
 4    1  0.6769686E+001  0.2064321E+02  0.7546771E-02  0.1524420E+00
          2   -1    0    0  502    0  0.00000000000E+00  0.00000000000E+00  0.23015226026E+03  0.23015226026E+03  0.00000000000E+00 0. -1.
         -2   -1    0    0    0  501 -0.00000000000E+00 -0.00000000000E+00 -0.23143054450E+01  0.23143054450E+01  0.00000000000E+00 0.  1.
          1    1    1    2  502    0  0.20006869268E+02  0.50860038462E+01  0.16589321339E+03  0.16717266673E+03  0.00000000000E+00 0. -1.
         -1    1    1    2    0  501 -0.20006869268E+02 -0.50860038462E+01  0.61944741422E+02  0.65293898971E+02  0.00000000000E+00 0.  1.
</event>
<event>
 4    1  0.6769686E+001  0.2013098E+02  0.7546771E-02  0.1532043E+00
          2   -1    0    0  502    0  0.00000000000E+00  0.00000000000E+00  0.11192163021E+03  0.11192163021E+03  0.00000000000E+00 0.  1.
         -2   -1    0    0    0  501 -0.00000000000E+00 -0.00000000000E+00 -0.38104524232E+01  0.38104524232E+01  0.00000000000E+00 0. -1.
          1    1    1    2  502    0  0.19143726683E+02  0.62268941973E+01  0.66962008558E+02  0.69922579134E+02  0.00000000000E+00 0.  1.
         -1    1    1    2    0  501 -0.19143726683E+02 -0.62268941973E+01  0.41149169231E+02  0.45809503501E+02  0.00000000000E+00 0. -1.
</event>
<event>
 4    1  0.6769686E+001  0.3148203E+02  0.7546771E-02  0.1407140E+00
          2   -1    0    0  502    0  0.00000000000E+00  0.00000000000E+00  0.13527735686E+04  0.13527735686E+04  0.00000000000E+00 0. -1.
         -2   -1    0    0    0  501 -0.00000000000E+00 -0.00000000000E+00 -0.12533086494E+01  0.12533086494E+01  0.00000000000E+00 0.  1.
          1    1    1    2  502    0 -0.30973671660E+02  0.56347023679E+01  0.23940292891E+03  0.24146403579E+03  0.00000000000E+00 0.  1.
         -1    1    1    2    0  501  0.30973671660E+02 -0.56347023679E+01  0.11121173310E+04  0.11125628415E+04  0.00000000000E+00 0. -1.
</event>
<event>
 4    1  0.6769686E+001  0.2100760E+02  0.7546771E-02  0.1519156E+00
          2   -1    0    0  502    0  0.00000000000E+00  0.00000000000E+00  0.30968717846E+03  0.30968717846E+03  0.00000000000E+00 0. -1.
         -2   -1    0    0    0  501 -0.00000000000E+00 -0.00000000000E+00 -0.23921277132E+01  0.23921277132E+01  0.00000000000E+00 0.  1.
          1    1    1    2  502    0 -0.16226317188E+02 -0.13342636364E+02  0.54433339822E+02  0.58346446325E+02  0.00000000000E+00 0.  1.
         -1    1    1    2    0  501  0.16226317188E+02  0.13342636364E+02  0.25286171093E+03  0.25373285985E+03  0.00000000000E+00 0. -1.
</event>
<event>
 4    1  0.6769686E+001  0.3200454E+02  0.7546771E-02  0.1402941E+00
          2   -1    0    0  502    0  0.00000000000E+00  0.00000000000E+00  0.16217816874E+02  0.16217816874E+02  0.00000000000E+00 0. -1.
         -2   -1    0    0    0  501 -0.00000000000E+00 -0.00000000000E+00 -0.79944101322E+02  0.79944101322E+02  0.00000000000E+00 0.  1.
          1    1    1    2  502    0 -0.31121065395E+02 -0.74679400896E+01 -0.53894946966E+02  0.62681385985E+02  0.00000000000E+00 0.  1.
         -1    1    1    2    0  501  0.31121065395E+02  0.74679400896E+01 -0.98313374821E+01  0.33480532212E+02  0.00000000000E+00 0. -1.
</event>
<event>
 4    1  0.6769686E+001  0.2121212E+02  0.7546771E-02  0.1516258E+00
          2   -1    0    0  502    0  0.00000000000E+00  0.00000000000E+00  0.26018202002E+01  0.26018202002E+01  0.00000000000E+00 0. -1.
         -2   -1    0    0    0  501 -0.00000000000E+00 -0.00000000000E+00 -0.34762755878E+03  0.34762755878E+03  0.00000000000E+00 0.  1.
          1    1    1    2  502    0 -0.15700497224E+02 -0.14263533121E+02 -0.29664915821E+03  0.29740658543E+03  0.00000000000E+00 0.  1.
         -1    1    1    2    0  501  0.15700497224E+02  0.14263533121E+02 -0.48376580368E+02  0.52822793549E+02  0.00000000000E+00 0. -1.
</event>
<event>
 4    1  0.6769686E+001  0.4035240E+02  0.7546771E-02  0.1346433E+00
          2   -1    0    0  502    0  0.00000000000E+00  0.00000000000E+00  0.11762866476E+04  0.11762866476E+04  0.00000000000E+00 0.  1.
         -2   -1    0    0    0  501 -0.00000000000E+00 -0.00000000000E+00 -0.14959767602E+01  0.14959767602E+01  0.00000000000E+00 0. -1.
          1    1    1    2  502    0  0.38374506623E+02 -0.12478506723E+02  0.42648519541E+03  0.42838993661E+03  0.00000000000E+00 0. -1.
         -1    1    1    2    0  501 -0.38374506623E+02  0.12478506723E+02  0.74830547542E+03  0.74939268774E+03  0.00000000000E+00 0.  1.
</event>
<event>
 4    1  0.6769686E+001  0.4880703E+02  0.7546771E-02  0.1303429E+00
          2   -1    0    0  502    0  0.00000000000E+00  0.00000000000E+00  0.25707936215E+02  0.25707936215E+02  0.00000000000E+00 0. -1.
         -2   -1    0    0    0  501 -0.00000000000E+00 -0.00000000000E+00 -0.29536688778E+03  0.29536688778E+03  0.00000000000E+00 0.  1.
          1    1    1    2  502    0 -0.48560745650E+02  0.48969843939E+01 -0.18365947836E+01  0.48841576087E+02  0.00000000000E+00 0. -1.
         -1    1    1    2    0  501  0.48560745650E+02 -0.48969843939E+01 -0.26782235678E+03  0.27223324791E+03  0.00000000000E+00 0.  1.
</event>
<event>
 4    1  0.6769686E+001  0.2259715E+02  0.7546771E-02  0.1497620E+00
          2   -1    0    0  502    0  0.00000000000E+00  0.00000000000E+00  0.95654457244E+03  0.95654457244E+03  0.00000000000E+00 0.  1.
         -2   -1    0    0    0  501 -0.00000000000E+00 -0.00000000000E+00 -0.54973857982E+00  0.54973857982E+00  0.00000000000E+00 0. -1.
          1    1    1    2  502    0  0.91615532620E+01  0.20656652480E+02  0.55940677166E+03  0.55986298996E+03  0.00000000000E+00 0. -1.
         -1    1    1    2    0  501 -0.91615532620E+01 -0.20656652480E+02  0.39658806221E+03  0.39723132106E+03  0.00000000000E+00 0.  1.
</event>
<event>
 4    1  0.6769686E+001  0.3847643E+02  0.7546771E-02  0.1357653E+00
          2   -1    0    0  502    0  0.00000000000E+00  0.00000000000E+00  0.42135489252E+03  0.42135489252E+03  0.00000000000E+00 0.  1.
         -2   -1    0    0    0  501 -0.00000000000E+00 -0.00000000000E+00 -0.53883081771E+01  0.53883081771E+01  0.00000000000E+00 0. -1.
          1    1    1    2  502    0  0.14170234702E+02  0.35772055184E+02  0.33384320524E+03  0.33605315230E+03  0.00000000000E+00 0.  1.
         -1    1    1    2    0  501 -0.14170234702E+02 -0.35772055184E+02  0.82123379105E+02  0.90690048403E+02  0.00000000000E+00 0. -1.
</event>
<event>
 4    1  0.6769686E+001  0.3754782E+02  0.7546771E-02  0.1363487E+00
          2   -1    0    0  502    0  0.00000000000E+00  0.00000000000E+00  0.28601595471E+03  0.28601595471E+03  0.00000000000E+00 0. -1.
         -2   -1    0    0    0  501 -0.00000000000E+00 -0.00000000000E+00 -0.50217460583E+01  0.50217460583E+01  0.00000000000E+00 0.  1.
          1    1    1    2  502    0 -0.16659531596E+02  0.33649644493E+02  0.16024856726E+03  0.16458870519E+03  0.00000000000E+00 0.  1.
         -1    1    1    2    0  501  0.16659531596E+02 -0.33649644493E+02  0.12074564139E+03  0.12644899558E+03  0.00000000000E+00 0. -1.
</event>
<event>
 4    1  0.6769686E+001  0.4118601E+02  0.7546771E-02  0.1341673E+00
          2   -1    0    0  502    0  0.00000000000E+00  0.00000000000E+00  0.42791305311E+01  0.42791305311E+01  0.00000000000E+00 0. -1.
         -2   -1    0    0    0  501 -0.00000000000E+00 -0.00000000000E+00 -0.42272104278E+03  0.42272104278E+03  0.00000000000E+00 0.  1.
          1    1    1    2  502    0  0.16562706876E+02 -0.37708943852E+02 -0.26248631235E+03  0.26569785824E+03  0.00000000000E+00 0. -1.
         -1    1    1    2    0  501 -0.16562706876E+02  0.37708943852E+02 -0.15595559990E+03  0.16130231507E+03  0.00000000000E+00 0.  1.
</event>
<event>
 4    1  0.6769686E+001  0.6709475E+02  0.7546771E-02  0.1237462E+00
          2   -1    0    0  502    0  0.00000000000E+00  0.00000000000E+00  0.49631204827E+03  0.49631204827E+03  0.00000000000E+00 0.  1.
         -2   -1    0    0    0  501 -0.00000000000E+00 -0.00000000000E+00 -0.10623926879E+02  0.10623926879E+02  0.00000000000E+00 0. -1.
          1    1    1    2  502    0 -0.57459527809E+02 -0.34642567866E+02  0.33977275126E+03  0.34633398236E+03  0.00000000000E+00 0.  1.
         -1    1    1    2    0  501  0.57459527809E+02  0.34642567866E+02  0.14591537013E+03  0.16060199278E+03  0.00000000000E+00 0. -1.
</event>
<event>
 4    1  0.6769686E+001  0.4242636E+02  0.7546771E-02  0.1334825E+00
          2   -1    0    0  502    0  0.00000000000E+00  0.00000000000E+00  0.23106948885E+02  0.23106948885E+02  0.00000000000E+00 0. -1.
         -2   -1    0    0    0  501 -0.00000000000E+00 -0.00000000000E+00 -0.11516514630E+03  0.11516514630E+03  0.00000000000E+00 0.  1.
          1    1    1    2  502    0 -0.41533655168E+02 -0.86574493111E+01 -0.85357324341E+02  0.95319823536E+02  0.00000000000E+00 0.  1.
         -1    1    1    2    0  501  0.41533655168E+02  0.86574493111E+01 -0.67008730778E+01  0.42952271654E+02  0.00000000000E+00 0. -1.
</event>
<event>
 4    1  0.6769686E+001  0.2333605E+02  0.7546771E-02  0.1488321E+00
          2   -1    0    0  502    0  0.00000000000E+00  0.00000000000E+00  0.16097472393E+04  0.16097472393E+04  0.00000000000E+00 0. -1.
         -2   -1    0    0    0  501 -0.00000000000E+00 -0.00000000000E+00 -0.35445873776E+00  0.35445873776E+00  0.00000000000E+00 0.  1.
          1    1    1    2  502    0 -0.11814384987E+02  0.20124399479E+02  0.63278797371E+03  0.63321812263E+03  0.00000000000E+00 0.  1.
         -1    1    1    2    0  501  0.11814384987E+02 -0.20124399479E+02  0.97660480689E+03  0.97688357545E+03  0.00000000000E+00 0. -1.
</event>
<event>
 4    1  0.6769686E+001  0.2309884E+02  0.7546771E-02  0.1491261E+00
          2   -1    0    0  502    0  0.00000000000E+00  0.00000000000E+00  0.10203152415E+01  0.10203152415E+01  0.00000000000E+00 0. -1.
         -2   -1    0    0    0  501 -0.00000000000E+00 -0.00000000000E+00 -0.79040984260E+03  0.79040984260E+03  0.00000000000E+00 0.  1.
          1    1    1    2  502    0  0.23090998600E+02 -0.60189855808E+00 -0.16449783058E+03  0.16611168762E+03  0.00000000000E+00 0. -1.
         -1    1    1    2    0  501 -0.23090998600E+02  0.60189855808E+00 -0.62489169678E+03  0.62531847023E+03  0.00000000000E+00 0.  1.
</event>
<event>
 4    1  0.6769686E+001  0.2465780E+02  0.7546771E-02  0.1472668E+00
          2   -1    0    0  502    0  0.00000000000E+00  0.00000000000E+00  0.10994510517E+03  0.10994510517E+03  0.00000000000E+00 0.  1.
         -2   -1    0    0    0  501 -0.00000000000E+00 -0.00000000000E+00 -0.85012779440E+01  0.85012779440E+01  0.00000000000E+00 0. -1.
          1    1    1    2  502    0  0.38857873111E+01  0.24349693098E+02  0.15710118106E+02  0.29237214435E+02  0.00000000000E+00 0. -1.
         -1    1    1    2    0  501 -0.38857873111E+01 -0.24349693098E+02  0.85733709123E+02  0.89209168682E+02  0.00000000000E+00 0.  1.
</event>
<event>
 4    1  0.6769686E+001  0.2233292E+02  0.7546771E-02  0.1501049E+00
          2   -1    0    0  502    0  0.00000000000E+00  0.00000000000E+00  0.13598788334E+04  0.13598788334E+04  0.00000000000E+00 0. -1.
         -2   -1    0    0    0  501 -0.00000000000E+00 -0.00000000000E+00 -0.36906308373E+00  0.36906308373E+00  0.00000000000E+00 0.  1.
          1    1    1    2  502    0 -0.15030967954E+02 -0.16517546006E+02  0.73339464928E+03  0.73373460523E+03  0.00000000000E+00 0. -1.
         -1    1    1    2    0  501  0.15030967954E+02  0.16517546006E+02  0.62611512101E+03  0.62651329123E+03  0.00000000000E+00 0.  1.
</event>
<event>
 4    1  0.6769686E+001  0.3650598E+02  0.7546771E-02  0.1370274E+00
          2   -1    0    0  502    0  0.00000000000E+00  0.00000000000E+00  0.16469297529E+01  0.16469297529E+01  0.00000000000E+00 0. -1.
         -2   -1    0    0    0  501 -0.00000000000E+00 -0.00000000000E+00 -0.10734765744E+04  0.10734765744E+04  0.00000000000E+00 0.  1.
          1    1    1    2  502    0  0.72799695593E+01 -0.35772735152E+02 -0.26918848029E+03  0.27165258044E+03  0.00000000000E+00 0. -1.
         -1    1    1    2    0  501 -0.72799695593E+01  0.35772735152E+02 -0.80264116437E+03  0.80347092373E+03  0.00000000000E+00 0.  1.
</event>
<event>
 4    1  0.6769686E+001  0.7145720E+02  0.7546771E-02  0.1225202E+00
          2   -1    0    0  502    0  0.00000000000E+00  0.00000000000E+00  0.18203631411E+03  0.18203631411E+03  0.00000000000E+00 0.  1.
         -2   -1    0    0    0  501 -0.00000000000E+00 -0.00000000000E+00 -0.31543068625E+02  0.31543068625E+02  0.00000000000E+00 0. -1.
          1    1    1    2  502    0  0.71131145337E+02 -0.68184451607E+01  0.39709956923E+02  0.81749689358E+02  0.00000000000E+00 0. -1.
         -1    1    1    2    0  501 -0.71131145337E+02  0.68184451607E+01  0.11078328856E+03  0.13182969338E+03  0.00000000000E+00 0.  1.
</event>
<event>
 4    1  0.6769686E+001  0.2073417E+02  0.7546771E-02  0.1523094E+00
          2   -1    0    0  502    0  0.00000000000E+00  0.00000000000E+00  0.15892392238E+04  0.15892392238E+04  0.00000000000E+00 0. -1.
         -2   -1    0    0    0  501 -0.00000000000E+00 -0.00000000000E+00 -0.28459924581E+00  0.28459924581E+00  0.00000000000E+00 0.  1.
          1    1    1    2  502    0 -0.85043792131E+01  0.18909824813E+02  0.61764732283E+03  0.61799524378E+03  0.00000000000E+00 0.  1.
         -1    1    1    2    0  501  0.85043792131E+01 -0.18909824813E+02  0.97130730174E+03  0.97152857928E+03  0.00000000000E+00 0. -1.
</event>
<event>
 4    1  0.6769686E+001  0.2163946E+02  0.7546771E-02  0.1510328E+00
          2   -1    0    0  502    0  0.00000000000E+00  0.00000000000E+00  0.12549026353E+03  0.12549026353E+03  0.00000000000E+00 0. -1.
         -2   -1    0    0    0  501 -0.00000000000E+00 -0.00000000000E+00 -0.39080484471E+01  0.39080484471E+01  0.00000000000E+00 0.  1.
          1    1    1    2  502    0 -0.16742072972E+02  0.13710188449E+02  0.47039391200E+02  0.51778089953E+02  0.00000000000E+00 0.  1.
         -1    1    1    2    0  501  0.16742072972E+02 -0.13710188449E+02  0.74542823888E+02  0.77620222029E+02  0.00000000000E+00 0. -1.
</event>
<event>
 4    1  0.6769686E+001  0.2168086E+02  0.7546771E-02  0.1509762E+00
          2   -1    0    0  502    0  0.00000000000E+00  0.00000000000E+00  0.11217217348E+04  0.11217217348E+04  0.00000000000E+00 0.  1.
         -2   -1    0    0    0  501 -0.00000000000E+00 -0.00000000000E+00 -0.42832231968E+00  0.42832231968E+00  0.00000000000E+00 0. -1.
          1    1    1    2  502    0 -0.16694430146E+02  0.13833135778E+02  0.47810282503E+03  0.47859416101E+03  0.00000000000E+00 0. -1.
         -1    1    1    2    0  501  0.16694430146E+02 -0.13833135778E+02  0.64319058743E+03  0.64355589610E+03  0.00000000000E+00 0.  1.
</event>
<event>
 4    1  0.6769686E+001  0.2085778E+02  0.7546771E-02  0.1521305E+00
          2   -1    0    0  502    0  0.00000000000E+00  0.00000000000E+00  0.21328662715E+04  0.21328662715E+04  0.00000000000E+00 0. -1.
         -2   -1    0    0    0  501 -0.00000000000E+00 -0.00000000000E+00 -0.21540550956E+00  0.21540550956E+00  0.00000000000E+00 0.  1.
          1    1    1    2  502    0  0.13266802864E+02  0.16094688695E+02  0.13120341092E+04  0.13121998897E+04  0.00000000000E+00 0. -1.
         -1    1    1    2    0  501 -0.13266802864E+02 -0.16094688695E+02  0.82061675681E+03  0.82088178724E+03  0.00000000000E+00 0.  1.
</event>
<event>
 4    1  0.6769686E+001  0.3510653E+02  0.7546771E-02  0.1379816E+00
          2   -1    0    0  502    0  0.00000000000E+00  0.00000000000E+00  0.94280744284E+03  0.94280744284E+03  0.00000000000E+00 0.  1.
         -2   -1    0    0    0  501 -0.00000000000E+00 -0.00000000000E+00 -0.14961265641E+01  0.14961265641E+01  0.00000000000E+00 0. -1.
          1    1    1    2  502    0  0.17877862591E+02 -0.30213419974E+02  0.30288871315E+03  0.30491644966E+03  0.00000000000E+00 0. -1.
         -1    1    1    2    0  501 -0.17877862591E+02  0.30213419974E+02  0.63842260312E+03  0.63938711974E+03  0.00000000000E+00 0.  1.
</event>
<event>
 4    1  0.6769686E+001  0.2154766E+02  0.7546771E-02  0.1511587E+00
          2   -1    0    0  502    0  0.00000000000E+00  0.00000000000E+00  0.60519414084E+01  0.60519414084E+01  0.00000000000E+00 0. -1.
         -2   -1    0    0    0  501 -0.00000000000E+00 -0.00000000000E+00 -0.85930897799E+02  0.85930897799E+02  0.00000000000E+00 0.  1.
          1    1    1    2  502    0 -0.14436739132E+02 -0.15996318213E+02 -0.54997434145E+02  0.59067921884E+02  0.00000000000E+00 0.  1.
         -1    1    1    2    0  501  0.14436739132E+02  0.15996318213E+02 -0.24881522245E+02  0.32914917323E+02  0.00000000000E+00 0. -1.
</event>
<event>
 4    1  0.6769686E+001  0.2875739E+02  0.7546771E-02  0.1430711E+00
          2   -1    0    0  502    0  0.00000000000E+00  0.00000000000E+00  0.15596885725E+03  0.15596885725E+03  0.00000000000E+00 0.  1.
         -2   -1    0    0    0  501 -0.00000000000E+00 -0.00000000000E+00 -0.59386488400E+01  0.59386488400E+01  0.00000000000E+00 0. -1.
          1    1    1    2  502    0  0.10470429457E+02  0.26783535898E+02  0.48514615433E+02  0.56397301343E+02  0.00000000000E+00 0. -1.
         -1    1    1    2    0  501 -0.10470429457E+02 -0.26783535898E+02  0.10151559297E+03  0.10551020474E+03  0.00000000000E+00 0.  1.
</event>
<event>
 4    1  0.6769686E+001  0.2847508E+02  0.7546771E-02  0.1433328E+00
          2   -1    0    0  502    0  0.00000000000E+00  0.00000000000E+00  0.13090661557E+04  0.13090661557E+04  0.00000000000E+00 0. -1.
         -2   -1    0    0    0  501 -0.00000000000E+00 -0.00000000000E+00 -0.69868002600E+00  0.69868002600E+00  0.00000000000E+00 0.  1.
          1    1    1    2  502    0  0.10759782880E+02 -0.26363941709E+02  0.87478957260E+03  0.87525289299E+03  0.00000000000E+00 0. -1.
         -1    1    1    2    0  501 -0.10759782880E+02  0.26363941709E+02  0.43357790312E+03  0.43451194279E+03  0.00000000000E+00 0.  1.
</event>
<event>
 4    1  0.6769686E+001  0.2144087E+02  0.7546771E-02  0.1513063E+00
          2   -1    0    0  502    0  0.00000000000E+00  0.00000000000E+00  0.10157734932E+04  0.10157734932E+04  0.00000000000E+00 0. -1.
         -2   -1    0    0    0  501 -0.00000000000E+00 -0.00000000000E+00 -0.55033227804E+00  0.55033227804E+00  0.00000000000E+00 0.  1.
          1    1    1    2  502    0  0.20404314262E+02  0.65859616835E+01  0.72178728158E+03  0.72210566456E+03  0.00000000000E+00 0. -1.
         -1    1    1    2    0  501 -0.20404314262E+02 -0.65859616835E+01  0.29343587939E+03  0.29421816097E+03  0.00000000000E+00 0.  1.
</event>
<event>
 4    1  0.6769686E+001  0.2120747E+02  0.7546771E-02  0.1516323E+00
          2   -1    0    0  502    0  0.00000000000E+00  0.00000000000E+00  0.54532438832E+03  0.54532438832E+03  0.00000000000E+00 0.  1.
         -2   -1    0    0    0  501 -0.00000000000E+00 -0.00000000000E+00 -0.17144917732E+01  0.17144917732E+01  0.00000000000E+00 0. -1.
          1    1    1    2  502    0 -0.18087311089E+02 -0.11072761818E+02  0.46884396135E+03  0.46932336078E+03  0.00000000000E+00 0.  1.
         -1    1    1    2    0  501  0.18087311089E+02  0.11072761818E+02  0.74765935192E+02  0.77715519312E+02  0.00000000000E+00 0. -1.
</event>
<event>
 4    1  0.6769686E+001  0.2901432E+02  0.7546771E-02  0.1428360E+00
          2   -1    0    0  502    0  0.00000000000E+00  0.00000000000E+00  0.47616933212E+02  0.47616933212E+02  0.00000000000E+00 0.  1.
         -2   -1    0    0    0  501 -0.00000000000E+00 -0.00000000000E+00 -0.30992384427E+02  0.30992384427E+02  0.00000000000E+00 0. -1.
          1    1    1    2  502    0 -0.15333988282E+02 -0.24631275573E+02 -0.17448383223E+02  0.33856712925E+02  0.00000000000E+00 0. -1.
         -1    1    1    2    0  501  0.15333988282E+02  0.24631275573E+02  0.34072932008E+02  0.44752604713E+02  0.00000000000E+00 0.  1.
</event>
<event>
 4    1  0.6769686E+001  0.2125868E+02  0.7546771E-02  0.1515604E+00
          2   -1    0    0  502    0  0.00000000000E+00  0.00000000000E+00  0.49734717534E+03  0.49734717534E+03  0.00000000000E+00 0.  1.
         -2   -1    0    0    0  501 -0.00000000000E+00 -0.00000000000E+00 -0.10458364073E+01  0.10458364073E+01  0.00000000000E+00 0. -1.
          1    1    1    2  502    0 -0.79209379782E+01  0.19727899325E+02  0.33839340815E+03  0.33906051075E+03  0.00000000000E+00 0.  1.
         -1    1    1    2    0  501  0.79209379782E+01 -0.19727899325E+02  0.15790793079E+03  0.15933250100E+03  0.00000000000E+00 0. -1.
</event>
<event>
 4    1  0.6769686E+001  0.2631382E+02  0.7546771E-02  0.1454625E+00
          2   -1    0    0  502    0  0.00000000000E+00  0.00000000000E+00  0.72309265009E+03  0.72309265009E+03  0.00000000000E+00 0.  1.
         -2   -1    0    0    0  501 -0.00000000000E+00 -0.00000000000E+00 -0.10283380894E+01  0.10283380894E+01  0.00000000000E+00 0. -1.
          1    1    1    2  502    0  0.19887252371E+02  0.17231194390E+02  0.26605688656E+03  0.26735497705E+03  0.00000000000E+00 0. -1.
         -1    1    1    2    0  501 -0.19887252371E+02 -0.17231194390E+02  0.45600742544E+03  0.45676601113E+03  0.00000000000E+00 0.  1.
</event>
<event>
 4    1  0.6769686E+001  0.2197057E+02  0.7546771E-02  0.1505846E+00
          2   -1    0    0  502    0  0.00000000000E+00  0.00000000000E+00  0.84670929736E+02  0.84670929736E+02  0.00000000000E+00 0. -1.
         -2   -1    0    0    0  501 -0.00000000000E+00 -0.00000000000E+00 -0.57303419258E+01  0.57303419258E+01  0.00000000000E+00 0.  1.
          1    1    1    2  502    0  0.21666511052E+02  0.36425808067E+01  0.36233987250E+02  0.42374614194E+02  0.00000000000E+00 0. -1.
         -1    1    1    2    0  501 -0.21666511052E+02 -0.36425808067E+01  0.42706600560E+02  0.48026657468E+02  0.00000000000E+00 0.  1.
</event>
<event>
 4    1  0.6769686E+001  0.2483895E+02  0.7546771E-02  0.1470613E+00
          2   -1    0    0  502    0  0.00000000000E+00  0.00000000000E+00  0.22160778025E+04  0.22160778025E+04  0.00000000000E+00 0.  1.
         -2   -1    0    0    0  501 -0.00000000000E+00 -0.00000000000E+00 -0.47230539511E+00  0.47230539511E+00  0.00000000000E+00 0. -1.
          1    1    1    2  502    0  0.22648286055E+02 -0.10199428373E+02  0.39769804501E+03  0.39847297048E+03  0.00000000000E+00 0. -1.
         -1    1    1    2    0  501 -0.22648286055E+02  0.10199428373E+02  0.18179074521E+04  0.18180771374E+04  0.00000000000E+00 0.  1.
</event>
<event>
 4    1  0.6769686E+001  0.2061288E+02  0.7546771E-02  0.1524864E+00
          2   -1    0    0  502    0  0.00000000000E+00  0.00000000000E+00  0.36956933277E+03  0.36956933277E+03  0.00000000000E+00 0. -1.
         -2   -1    0    0    0  501 -0.00000000000E+00 -0.00000000000E+00 -0.27588476782E+01  0.27588476782E+01  0.00000000000E+00 0.  1.
          1    1    1    2  502    0 -0.99907803234E+01  0.18029836909E+02  0.32558283408E+03  0.32623468939E+03  0.00000000000E+00 0. -1.
         -1    1    1    2    0  501  0.99907803234E+01 -0.18029836909E+02  0.41227651009E+02  0.46093491061E+02  0.00000000000E+00 0.  1.
</event>
<event>
 4    1  0.6769686E+001  0.2778539E+02  0.7546771E-02  0.1439874E+00
          2   -1    0    0  502    0  0.00000000000E+00  0.00000000000E+00  0.78073161803E+02  0.78073161803E+02  0.00000000000E+00 0. -1.
         -2   -1    0    0    0  501 -0.00000000000E+00 -0.00000000000E+00 -0.10242830228E+02  0.10242830228E+02  0.00000000000E+00 0.  1.
          1    1    1    2  502    0 -0.19025376342E+02 -0.20250010040E+02  0.42127990447E+02  0.50465784753E+02  0.00000000000E+00 0.  1.
         -1    1    1    2    0  501  0.19025376342E+02  0.20250010040E+02  0.25702341127E+02  0.37850207278E+02  0.00000000000E+00 0. -1.
</event>
<event>
 4    1  0.6769686E+001  0.3946534E+02  0.7546771E-02  0.1351648E+00
          2   -1    0    0  502    0  0.00000000000E+00  0.00000000000E+00  0.26928904583E+02  0.26928904583E+02  0.00000000000E+00 0. -1.
         -2   -1    0    0    0  501 -0.00000000000E+00 -0.00000000000E+00 -0.70708255214E+02  0.70708255214E+02  0.00000000000E+00 0.  1.
          1    1    1    2  502    0 -0.39142487316E+02  0.50377537490E+01 -0.42717509142E+02  0.58157534881E+02  0.00000000000E+00 0.  1.
         -1    1    1    2    0  501  0.39142487316E+02 -0.50377537490E+01 -0.10618414885E+01  0.39479624916E+02  0.00000000000E+00 0. -1.
</event>
<event>
 4    1  0.6769686E+001  0.2539439E+02  0.7546771E-02  0.1464439E+00
          2   -1    0    0  502    0  0.00000000000E+00  0.00000000000E+00  0.56728173226E+03  0.56728173226E+03  0.00000000000E+00 0.  1.
         -2   -1    0    0    0  501 -0.00000000000E+00 -0.00000000000E+00 -0.12251603887E+01  0.12251603887E+01  0.00000000000E+00 0. -1.
          1    1    1    2  502    0 -0.25287380362E+02 -0.23288381055E+01  0.35937401947E+03  0.36027012222E+03  0.00000000000E+00 0.  1.
         -1    1    1    2    0  501  0.25287380362E+02  0.23288381055E+01  0.20668255240E+03  0.20823677043E+03  0.00000000000E+00 0. -1.
</event>
<event>
 4    1  0.6769686E+001  0.2063307E+02  0.7546771E-02  0.1524569E+00
          2   -1    0    0  502    0  0.00000000000E+00  0.00000000000E+00  0.29017669052E+03  0.29017669052E+03  0.00000000000E+00 0. -1.
         -2   -1    0    0    0  501 -0.00000000000E+00 -0.00000000000E+00 -0.15366602906E+01  0.15366602906E+01  0.00000000000E+00 0.  1.
          1    1    1    2  502    0 -0.69996269212E+01  0.19409499922E+02  0.17534857885E+03  0.17655834041E+03  0.00000000000E+00 0.  1.
         -1    1    1    2    0  501  0.69996269212E+01 -0.19409499922E+02  0.11329145137E+03  0.11515501039E+03  0.00000000000E+00 0. -1.
</event>
<event>
 4    1  0.6769686E+001  0.2057775E+02  0.7546771E-02  0.1525380E+00
          2   -1    0    0  502    0  0.00000000000E+00  0.00000000000E+00  0.29126850436E+02  0.29126850436E+02  0.00000000000E+00 0. -1.
         -2   -1    0    0    0  501 -0.00000000000E+00 -0.00000000000E+00 -0.20637394761E+02  0.20637394761E+02  0.00000000000E+00 0.  1.
          1    1    1    2  502    0 -0.14084863314E+02 -0.15002018985E+02  0.17771869999E+02  0.27189764829E+02  0.00000000000E+00 0. -1.
         -1    1    1    2    0  501  0.14084863314E+02  0.15002018985E+02 -0.92824143240E+01  0.22574480368E+02  0.00000000000E+00 0.  1.
</event>
<event>
 4    1  0.6769686E+001  0.2216928E+02  0.7546771E-02  0.1503202E+00
          2   -1    0    0  502    0  0.00000000000E+00  0.00000000000E+00  0.22246867571E+02  0.22246867571E+02  0.00000000000E+00 0.  1.
         -2   -1    0    0    0  501 -0.00000000000E+00 -0.00000000000E+00 -0.22359207109E+02  0.22359207109E+02  0.00000000000E+00 0. -1.
          1    1    1    2  502    0  0.44511861271E+00 -0.22164810818E+02  0.23821468792E+01  0.22296896487E+02  0.00000000000E+00 0.  1.
         -1    1    1    2    0  501 -0.44511861271E+00  0.22164810818E+02 -0.24944864174E+01  0.22309178194E+02  0.00000000000E+00 0. -1.
</event>
<event>
 4    1  0.6769686E+001  0.3354062E+02  0.7546771E-02  0.1391124E+00
          2   -1    0    0  502    0  0.00000000000E+00  0.00000000000E+00  0.66813664954E+03  0.66813664954E+03  0.00000000000E+00 0.  1.
         -2   -1    0    0    0  501 -0.00000000000E+00 -0.00000000000E+00 -0.21803725089E+01  0.21803725089E+01  0.00000000000E+00 0. -1.
          1    1    1    2  502    0  0.22219225211E+02  0.25125268387E+02  0.49293372564E+03  0.49407350765E+03  0.00000000000E+00 0.  1.
         -1    1    1    2    0  501 -0.22219225211E+02 -0.25125268387E+02  0.17302255139E+03  0.17624351441E+03  0.00000000000E+00 0. -1.
</event>
<event>
 4    1  0.6769686E+001  0.4981157E+02  0.7546771E-02  0.1298992E+00
          2   -1    0    0  502    0  0.00000000000E+00  0.00000000000E+00  0.10624928869E+03  0.10624928869E+03  0.00000000000E+00 0.  1.
         -2   -1    0    0    0  501 -0.00000000000E+00 -0.00000000000E+00 -0.42957395265E+02  0.42957395265E+02  0.00000000000E+00 0. -1.
          1    1    1    2  502    0  0.31570275850E+02  0.38529336383E+02  0.82044839555E+02  0.95982017988E+02  0.00000000000E+00 0.  1.
         -1    1    1    2    0  501 -0.31570275850E+02 -0.38529336383E+02 -0.18752946126E+02  0.53224665971E+02  0.00000000000E+00 0. -1.
</event>
<event>
 4    1  0.6769686E+001  0.3678438E+02  0.7546771E-02  0.1368434E+00
          2   -1    0    0  502    0  0.00000000000E+00  0.00000000000E+00  0.72600665004E+03  0.72600665004E+03  0.00000000000E+00 0. -1.
         -2   -1    0    0    0  501 -0.00000000000E+00 -0.00000000000E+00 -0.25662887719E+01  0.25662887719E+01  0.00000000000E+00 0.  1.
          1    1    1    2  502    0  0.18715630687E+02 -0.31667271935E+02  0.17111833174E+03  0.17502735330E+03  0.00000000000E+00 0.  1.
         -1    1    1    2    0  501 -0.18715630687E+02  0.31667271935E+02  0.55232202953E+03  0.55354558552E+03  0.00000000000E+00 0. -1.
</event>
<event>
 4    1  0.6769686E+001  0.2992971E+02  0.7546771E-02  0.1420208E+00
          2   -1    0    0  502    0  0.00000000000E+00  0.00000000000E+00  0.32758445918E+04  0.32758445918E+04  0.00000000000E+00 0. -1.
         -2   -1    0    0    0  501 -0.00000000000E+00 -0.00000000000E+00 -0.27345247933E+00  0.27345247933E+00  0.00000000000E+00 0.  1.
          1    1    1    2  502    0 -0.27926615391E+02  0.10765292553E+02  0.16366186641E+04  0.16368923114E+04  0.00000000000E+00 0. -1.
         -1    1    1    2    0  501  0.27926615391E+02 -0.10765292553E+02  0.16389524752E+04  0.16392257329E+04  0.00000000000E+00 0.  1.
</event>
<event>
 4    1  0.6769686E+001  0.2035774E+02  0.7546771E-02  0.1528635E+00
          2   -1    0    0  502    0  0.00000000000E+00  0.00000000000E+00  0.34652906475E+02  0.34652906475E+02  0.00000000000E+00 0. -1.
         -2   -1    0    0    0  501 -0.00000000000E+00 -0.00000000000E+00 -0.17006330497E+02  0.17006330497E+02  0.00000000000E+00 0.  1.
          1    1    1    2  502    0 -0.63502445189E+01  0.19341970098E+02  0.22893952920E+02  0.30636097875E+02  0.00000000000E+00 0. -1.
         -1    1    1    2    0  501  0.63502445189E+01 -0.19341970098E+02 -0.52473769427E+01  0.21023139097E+02  0.00000000000E+00 0.  1.
</event>
<event>
 4    1  0.6769686E+001  0.4632833E+02  0.7546771E-02  0.1314928E+00
          2   -1    0    0  502    0  0.00000000000E+00  0.00000000000E+00  0.97178134064E+03  0.97178134064E+03  0.00000000000E+00 0. -1.
         -2   -1    0    0    0  501 -0.00000000000E+00 -0.00000000000E+00 -0.51302621227E+01  0.51302621227E+01  0.00000000000E+00 0.  1.
          1    1    1    2  502    0 -0.25748452603E+02  0.38514038616E+02  0.85193595703E+03  0.85319469575E+03  0.00000000000E+00 0. -1.
         -1    1    1    2    0  501  0.25748452603E+02 -0.38514038616E+02  0.11471512149E+03  0.12371690701E+03  0.00000000000E+00 0.  1.
</event>
<event>
 4    1  0.6769686E+001  0.2198317E+02  0.7546771E-02  0.1505677E+00
          2   -1    0    0  502    0  0.00000000000E+00  0.00000000000E+00  0.61888670845E+03  0.61888670845E+03  0.00000000000E+00 0. -1.
         -2   -1    0    0    0  501 -0.00000000000E+00 -0.00000000000E+00 -0.90859887197E+00  0.90859887197E+00  0.00000000000E+00 0.  1.
          1    1    1    2  502    0 -0.21111879672E+02  0.61276714708E+01  0.42518871695E+03  0.42575662631E+03  0.00000000000E+00 0. -1.
         -1    1    1    2    0  501  0.21111879672E+02 -0.61276714708E+01  0.19278939262E+03  0.19403868101E+03  0.00000000000E+00 0.  1.
</event>
<event>
 4    1  0.6769686E+001  0.2249036E+02  0.7546771E-02  0.1498999E+00
          2   -1    0    0  502    0  0.00000000000E+00  0.00000000000E+00  0.57796804354E+03  0.57796804354E+03  0.00000000000E+00 0.  1.
         -2   -1    0    0    0  501 -0.00000000000E+00 -0.00000000000E+00 -0.94712273974E+00  0.94712273974E+00  0.00000000000E+00 0. -1.
          1    1    1    2  502    0 -0.19346762737E+02 -0.11468182807E+02  0.20872466927E+03  0.20993285595E+03  0.00000000000E+00 0. -1.
         -1    1    1    2    0  501  0.19346762737E+02  0.11468182807E+02  0.36829625152E+03  0.36898231032E+03  0.00000000000E+00 0.  1.
</event>
<event>
 4    1  0.6769686E+001  0.4701740E+02  0.7546771E-02  0.1311649E+00
          2   -1    0    0  502    0  0.00000000000E+00  0.00000000000E+00  0.91924472822E+03  0.91924472822E+03  0.00000000000E+00 0. -1.
         -2   -1    0    0    0  501 -0.00000000000E+00 -0.00000000000E+00 -0.29644398425E+01  0.29644398425E+01  0.00000000000E+00 0.  1.
          1    1    1    2  502    0 -0.41787811186E+02 -0.21550288325E+02  0.65847987239E+03  0.66015632879E+03  0.00000000000E+00 0. -1.
         -1    1    1    2    0  501  0.41787811186E+02  0.21550288325E+02  0.25780041598E+03  0.26205283927E+03  0.00000000000E+00 0.  1.
</event>
<event>
 4    1  0.6769686E+001  0.7721506E+02  0.7546771E-02  0.1210465E+00
          2   -1    0    0  502    0  0.00000000000E+00  0.00000000000E+00  0.24187272931E+04  0.24187272931E+04  0.00000000000E+00 0.  1.
         -2   -1    0    0    0  501 -0.00000000000E+00 -0.00000000000E+00 -0.34282833832E+01  0.34282833832E+01  0.00000000000E+00 0. -1.
          1    1    1    2  502    0 -0.77212087674E+02  0.67701029322E+00  0.18496132849E+04  0.18512243161E+04  0.00000000000E+00 0.  1.
         -1    1    1    2    0  501  0.77212087674E+02 -0.67701029322E+00  0.56568572482E+03  0.57093126039E+03  0.00000000000E+00 0. -1.
</event>
<event>
 4    1  0.6769686E+001  0.2539673E+02  0.7546771E-02  0.1464414E+00
          2   -1    0    0  502    0  0.00000000000E+00  0.00000000000E+00  0.23470509235E+04  0.23470509235E+04  0.00000000000E+00 0.  1.
         -2   -1    0    0    0  501 -0.00000000000E+00 -0.00000000000E+00 -0.33410568250E+00  0.33410568250E+00  0.00000000000E+00 0. -1.
          1    1    1    2  502    0  0.74826349838E+01  0.24269410346E+02  0.67890848296E+03  0.67938333976E+03  0.00000000000E+00 0. -1.
         -1    1    1    2    0  501 -0.74826349838E+01 -0.24269410346E+02  0.16678083349E+04  0.16680016894E+04  0.00000000000E+00 0.  1.
</event>
<event>
 4    1  0.6769686E+001  0.3339491E+02  0.7546771E-02  0.1392213E+00
          2   -1    0    0  502    0  0.00000000000E+00  0.00000000000E+00  0.11271376578E+03  0.11271376578E+03  0.00000000000E+00 0.  1.
         -2   -1    0    0    0  501 -0.00000000000E+00 -0.00000000000E+00 -0.10133511475E+02  0.10133511475E+02  0.00000000000E+00 0. -1.
          1    1    1    2  502    0 -0.33237475980E+02  0.32388227549E+01  0.60728106429E+02  0.69304564733E+02  0.00000000000E+00 0.  1.
         -1    1    1    2    0  501  0.33237475980E+02 -0.32388227549E+01  0.41852147872E+02  0.53542712518E+02  0.00000000000E+00 0. -1.
</event>
<event>
 4    1  0.6769686E+001  0.2287380E+02  0.7546771E-02  0.1494089E+00
          2   -1    0    0  502    0  0.00000000000E+00  0.00000000000E+00  0.10038483845E+04  0.10038483845E+04  0.00000000000E+00 0. -1.
         -2   -1    0    0    0  501 -0.00000000000E+00 -0.00000000000E+00 -0.12802997405E+01  0.12802997405E+01  0.00000000000E+00 0.  1.
          1    1    1    2  502    0 -0.17570494940E+02 -0.14645428820E+02  0.11430823872E+03  0.11657437247E+03  0.00000000000E+00 0.  1.
         -1    1    1    2    0  501  0.17570494940E+02  0.14645428820E+02  0.88825984602E+03  0.88855431175E+03  0.00000000000E+00 0. -1.
</event>
<event>
 4    1  0.6769686E+001  0.2045471E+02  0.7546771E-02  0.1527194E+00
          2   -1    0    0  502    0  0.00000000000E+00  0.00000000000E+00  0.38503734541E+03  0.38503734541E+03  0.00000000000E+00 0.  1.
         -2   -1    0    0    0  501 -0.00000000000E+00 -0.00000000000E+00 -0.14308235831E+01  0.14308235831E+01  0.00000000000E+00 0. -1.
          1    1    1    2  502    0 -0.77883687427E+01  0.18913919538E+02  0.28657720300E+03  0.28730626224E+03  0.00000000000E+00 0.  1.
         -1    1    1    2    0  501  0.77883687427E+01 -0.18913919538E+02  0.97029318830E+02  0.99161906761E+02  0.00000000000E+00 0. -1.
</event>
<event>
 4    1  0.6769686E+001  0.4550492E+02  0.7546771E-02  0.1318934E+00
          2   -1    0    0  502    0  0.00000000000E+00  0.00000000000E+00  0.67540213275E+03  0.67540213275E+03  0.00000000000E+00 0.  1.
         -2   -1    0    0    0  501 -0.00000000000E+00 -0.00000000000E+00 -0.41178235303E+01  0.41178235303E+01  0.00000000000E+00 0. -1.
          1    1    1    2  502    0 -0.44365935280E+02 -0.10117382091E+02  0.16391622773E+03  0.17011533542E+03  0.00000000000E+00 0. -1.
         -1    1    1    2    0  501  0.44365935280E+02  0.10117382091E+02  0.50736808150E+03  0.50940462086E+03  0.00000000000E+00 0.  1.
</event>
<event>
 4    1  0.6769686E+001  0.2807537E+02  0.7546771E-02  0.1437095E+00
          2   -1    0    0  502    0  0.00000000000E+00  0.00000000000E+00  0.15697375758E+03  0.15697375758E+03  0.00000000000E+00 0. -1.
         -2   -1    0    0    0  501 -0.00000000000E+00 -0.00000000000E+00 -0.50214063813E+01  0.50214063813E+01  0.00000000000E+00 0.  1.
          1    1    1    2  502    0  0.19537158942E+02  0.20162491599E+02  0.76116951940E+02  0.81129630959E+02  0.00000000000E+00 0.  1.
         -1    1    1    2    0  501 -0.19537158942E+02 -0.20162491599E+02  0.75835399262E+02  0.80865533006E+02  0.00000000000E+00 0. -1.
</event>
<event>
 4    1  0.6769686E+001  0.2050123E+02  0.7546771E-02  0.1526506E+00
          2   -1    0    0  502    0  0.00000000000E+00  0.00000000000E+00  0.15325820126E+03  0.15325820126E+03  0.00000000000E+00 0. -1.
         -2   -1    0    0    0  501 -0.00000000000E+00 -0.00000000000E+00 -0.57479957513E+01  0.57479957513E+01  0.00000000000E+00 0.  1.
          1    1    1    2  502    0  0.13356653638E+02  0.15553148460E+02  0.13124461262E+03  0.13283617341E+03  0.00000000000E+00 0. -1.
         -1    1    1    2    0  501 -0.13356653638E+02 -0.15553148460E+02  0.16265592887E+02  0.26170023603E+02  0.00000000000E+00 0.  1.
</event>
<event>
 4    1  0.6769686E+001  0.2037232E+02  0.7546771E-02  0.1528418E+00
          2   -1    0    0  502    0  0.00000000000E+00  0.00000000000E+00  0.15588966710E+02  0.15588966710E+02  0.00000000000E+00 0.  1.
         -2   -1    0    0    0  501 -0.00000000000E+00 -0.00000000000E+00 -0.31183654443E+02  0.31183654443E+02  0.00000000000E+00 0. -1.
          1    1    1    2  502    0  0.16381982613E+02 -0.12110405458E+02  0.11458534306E+01  0.20404515548E+02  0.00000000000E+00 0. -1.
         -1    1    1    2    0  501 -0.16381982613E+02  0.12110405458E+02 -0.16740541164E+02  0.26368105604E+02  0.00000000000E+00 0.  1.
</event>
<event>
 4    1  0.6769686E+001  0.3360350E+02  0.7546771E-02  0.1390656E+00
          2   -1    0    0  502    0  0.00000000000E+00  0.00000000000E+00  0.78746619686E+01  0.78746619686E+01  0.00000000000E+00 0.  1.
         -2   -1    0    0    0  501 -0.00000000000E+00 -0.00000000000E+00 -0.18284257239E+03  0.18284257239E+03  0.00000000000E+00 0. -1.
          1    1    1    2  502    0  0.31160073815E+02  0.12579552510E+02 -0.13177599690E+03  0.13599304651E+03  0.00000000000E+00 0. -1.
         -1    1    1    2    0  501 -0.31160073815E+02 -0.12579552510E+02 -0.43191913522E+02  0.54724187844E+02  0.00000000000E+00 0.  1.
</event>
<event>
 4    1  0.6769686E+001  0.2533523E+02  0.7546771E-02  0.1465088E+00
          2   -1    0    0  502    0  0.00000000000E+00  0.00000000000E+00  0.12846832257E+04  0.12846832257E+04  0.00000000000E+00 0.  1.
         -2   -1    0    0    0  501 -0.00000000000E+00 -0.00000000000E+00 -0.10674806082E+01  0.10674806082E+01  0.00000000000E+00 0. -1.
          1    1    1    2  502    0 -0.54925878860E+01 -0.24732682747E+02  0.11106876404E+04  0.11109765563E+04  0.00000000000E+00 0.  1.
         -1    1    1    2    0  501  0.54925878860E+01  0.24732682747E+02  0.17292810464E+03  0.17477414996E+03  0.00000000000E+00 0. -1.
</event>
<event>
 4    1  0.6769686E+001  0.2135973E+02  0.7546771E-02  0.1514190E+00
          2   -1    0    0  502    0  0.00000000000E+00  0.00000000000E+00  0.15613878242E+02  0.15613878242E+02  0.00000000000E+00 0. -1.
         -2   -1    0    0    0  501 -0.00000000000E+00 -0.00000000000E+00 -0.29785318916E+02  0.29785318916E+02  0.00000000000E+00 0.  1.
          1    1    1    2  502    0  0.16978088717E+01  0.21292147934E+02 -0.10212873384E+02  0.23675745001E+02  0.00000000000E+00 0.  1.
         -1    1    1    2    0  501 -0.16978088717E+01 -0.21292147934E+02 -0.39585672908E+01  0.21723452157E+02  0.00000000000E+00 0. -1.
</event>
<event>
 4    1  0.6769686E+001  0.3558957E+02  0.7546771E-02  0.1376465E+00
          2   -1    0    0  502    0  0.00000000000E+00  0.00000000000E+00  0.78760103409E+02  0.78760103409E+02  0.00000000000E+00 0. -1.
         -2   -1    0    0    0  501 -0.00000000000E+00 -0.00000000000E+00 -0.26881257470E+02  0.26881257470E+02  0.00000000000E+00 0.  1.
          1    1    1    2  502    0 -0.35575863525E+02  0.98756610070E+00  0.59418757783E+02  0.69261866340E+02  0.00000000000E+00 0. -1.
         -1    1    1    2    0  501  0.35575863525E+02 -0.98756610070E+00 -0.75399118438E+01  0.36379494539E+02  0.00000000000E+00 0.  1.
</event>
<event>
 4    1  0.6769686E+001  0.1405623E+03  0.7546771E-02  0.1107704E+00
          2   -1    0    0  502    0  0.00000000000E+00  0.00000000000E+00  0.55301211862E+02  0.55301211862E+02  0.00000000000E+00 0. -1.
         -2   -1    0    0    0  501 -0.00000000000E+00 -0.00000000000E+00 -0.40531731333E+03  0.40531731333E+03  0.00000000000E+00 0.  1.
          1    1    1    2  502    0 -0.84268622799E+02  0.11250143123E+03 -0.25429891267E+03  0.29056102595E+03  0.00000000000E+00 0.  1.
         -1    1    1    2    0  501  0.84268622799E+02 -0.11250143123E+03 -0.95717188794E+02  0.17005749924E+03  0.00000000000E+00 0. -1.
</event>
<event>
 4    1  0.6769686E+001  0.3733927E+02  0.7546771E-02  0.1364825E+00
          2   -1    0    0  502    0  0.00000000000E+00  0.00000000000E+00  0.12009974770E+04  0.12009974770E+04  0.00000000000E+00 0.  1.
         -2   -1    0    0    0  501 -0.00000000000E+00 -0.00000000000E+00 -0.11767295692E+01  0.11767295692E+01  0.00000000000E+00 0. -1.
          1    1    1    2  502    0 -0.34914021594E+02 -0.13237542669E+02  0.66965686488E+03  0.67069705391E+03  0.00000000000E+00 0.  1.
         -1    1    1    2    0  501  0.34914021594E+02  0.13237542669E+02  0.53016388258E+03  0.53147715269E+03  0.00000000000E+00 0. -1.
</event>
<event>
 4    1  0.6769686E+001  0.4316613E+02  0.7546771E-02  0.1330869E+00
          2   -1    0    0  502    0  0.00000000000E+00  0.00000000000E+00  0.31468127278E+04  0.31468127278E+04  0.00000000000E+00 0.  1.
         -2   -1    0    0    0  501 -0.00000000000E+00 -0.00000000000E+00 -0.72561181677E+00  0.72561181677E+00  0.00000000000E+00 0. -1.
          1    1    1    2  502    0  0.42638626775E+02  0.67277019221E+01  0.89804332469E+03  0.89908015632E+03  0.00000000000E+00 0. -1.
         -1    1    1    2    0  501 -0.42638626775E+02 -0.67277019221E+01  0.22480437913E+04  0.22484581833E+04  0.00000000000E+00 0.  1.
</event>
<event>
 4    1  0.6769686E+001  0.2594170E+02  0.7546771E-02  0.1458539E+00
          2   -1    0    0  502    0  0.00000000000E+00  0.00000000000E+00  0.11017498246E+04  0.11017498246E+04  0.00000000000E+00 0. -1.
         -2   -1    0    0    0  501 -0.00000000000E+00 -0.00000000000E+00 -0.64626208121E+00  0.64626208121E+00  0.00000000000E+00 0.  1.
          1    1    1    2  502    0 -0.16746486850E+02 -0.19812289560E+02  0.67963162328E+03  0.68012654337E+03  0.00000000000E+00 0.  1.
         -1    1    1    2    0  501  0.16746486850E+02  0.19812289560E+02  0.42147193929E+03  0.42226954336E+03  0.00000000000E+00 0. -1.
</event>
<event>
 4    1  0.6769686E+001  0.2686307E+02  0.7546771E-02  0.1448988E+00
          2   -1    0    0  502    0  0.00000000000E+00  0.00000000000E+00  0.25043487301E+02  0.25043487301E+02  0.00000000000E+00 0. -1.
         -2   -1    0    0    0  501 -0.00000000000E+00 -0.00000000000E+00 -0.36778175945E+02  0.36778175945E+02  0.00000000000E+00 0.  1.
          1    1    1    2  502    0 -0.70622374233E+01  0.25918125607E+02  0.85160945167E+01  0.28180636938E+02  0.00000000000E+00 0.  1.
         -1    1    1    2    0  501  0.70622374233E+01 -0.25918125607E+02 -0.20250783161E+02  0.33641026308E+02  0.00000000000E+00 0. -1.
</event>
<event>
 4    1  0.6769686E+001  0.2182778E+02  0.7546771E-02  0.1507767E+00
          2   -1    0    0  502    0  0.00000000000E+00  0.00000000000E+00  0.26573492011E+02  0.26573492011E+02  0.00000000000E+00 0.  1.
         -2   -1    0    0    0  501 -0.00000000000E+00 -0.00000000000E+00 -0.21329017486E+02  0.21329017486E+02  0.00000000000E+00 0. -1.
          1    1    1    2  502    0 -0.21824158937E+02 -0.39773069470E+00 -0.69396814464E+01  0.22904394373E+02  0.00000000000E+00 0. -1.
         -1    1    1    2    0  501  0.21824158937E+02  0.39773069470E+00  0.12184155971E+02  0.24998115124E+02  0.00000000000E+00 0.  1.
</event>
<event>
 4    1  0.6769686E+001  0.2025389E+02  0.7546771E-02  0.1530189E+00
          2   -1    0    0  502    0  0.00000000000E+00  0.00000000000E+00  0.62610912834E+03  0.62610912834E+03  0.00000000000E+00 0.  1.
         -2   -1    0    0    0  501 -0.00000000000E+00 -0.00000000000E+00 -0.66354945329E+00  0.66354945329E+00  0.00000000000E+00 0. -1.
          1    1    1    2  502    0 -0.30153464808E+00  0.20251644665E+02  0.27754657062E+03  0.27828460054E+03  0.00000000000E+00 0.  1.
         -1    1    1    2    0  501  0.30153464808E+00 -0.20251644665E+02  0.34789900827E+03  0.34848807726E+03  0.00000000000E+00 0. -1.
</event>
<event>
 4    1  0.6769686E+001  0.2768982E+02  0.7546771E-02  0.1440799E+00
          2   -1    0    0  502    0  0.00000000000E+00  0.00000000000E+00  0.83248188801E+01  0.83248188801E+01  0.00000000000E+00 0. -1.
         -2   -1    0    0    0  501 -0.00000000000E+00 -0.00000000000E+00 -0.92103472023E+02  0.92103472023E+02  0.00000000000E+00 0.  1.
          1    1    1    2  502    0  0.14208163333E+01 -0.27653342890E+02 -0.42136849875E+02  0.50420632775E+02  0.00000000000E+00 0. -1.
         -1    1    1    2    0  501 -0.14208163333E+01  0.27653342890E+02 -0.41641803268E+02  0.50007658128E+02  0.00000000000E+00 0.  1.
</event>
<event>
 4    1  0.6769686E+001  0.2051503E+02  0.7546771E-02  0.1526303E+00
          2   -1    0    0  502    0  0.00000000000E+00  0.00000000000E+00  0.13522380484E+03  0.13522380484E+03  0.00000000000E+00 0.  1.
         -2   -1    0    0    0  501 -0.00000000000E+00 -0.00000000000E+00 -0.88527175716E+01  0.88527175716E+01  0.00000000000E+00 0. -1.
          1    1    1    2  502    0  0.15272355543E+02 -0.13697501613E+02  0.12119436548E+03  0.12291843075E+03  0.00000000000E+00 0.  1.
         -1    1    1    2    0  501 -0.15272355543E+02  0.13697501613E+02  0.51767217892E+01  0.21158091661E+02  0.00000000000E+00 0. -1.
</event>
<event>
 4    1  0.6769686E+001  0.3060556E+02  0.7546771E-02  0.1414406E+00
          2   -1    0    0  502    0  0.00000000000E+00  0.00000000000E+00  0.35105946831E+01  0.35105946831E+01  0.00000000000E+00 0.  1.
         -2   -1    0    0    0  501 -0.00000000000E+00 -0.00000000000E+00 -0.27123604983E+03  0.27123604983E+03  0.00000000000E+00 0. -1.
          1    1    1    2  502    0  0.17633092316E+02 -0.25015479666E+02 -0.11633605261E+03  0.12029454395E+03  0.00000000000E+00 0.  1.
         -1    1    1    2    0  501 -0.17633092316E+02  0.25015479666E+02 -0.15138940253E+03  0.15445210056E+03  0.00000000000E+00 0. -1.
</event>
<event>
 4    1  0.6769686E+001  0.3901423E+02  0.7546771E-02  0.1354361E+00
          2   -1    0    0  502    0  0.00000000000E+00  0.00000000000E+00  0.71227883127E+02  0.71227883127E+02  0.00000000000E+00 0. -1.
         -2   -1    0    0    0  501 -0.00000000000E+00 -0.00000000000E+00 -0.21776992942E+02  0.21776992942E+02  0.00000000000E+00 0.  1.
          1    1    1    2  502    0 -0.33332287760E+02  0.20274831656E+02  0.18364930729E+02  0.43120539035E+02  0.00000000000E+00 0. -1.
         -1    1    1    2    0  501  0.33332287760E+02 -0.20274831656E+02  0.31085959456E+02  0.49884337034E+02  0.00000000000E+00 0.  1.
</event>
<event>
 4    1  0.6769686E+001  0.2858739E+02  0.7546771E-02  0.1432283E+00
          2   -1    0    0  502    0  0.00000000000E+00  0.00000000000E+00  0.72638527543E+02  0.72638527543E+02  0.00000000000E+00 0.  1.
         -2   -1    0    0    0  501 -0.00000000000E+00 -0.00000000000E+00 -0.29786538887E+02  0.29786538887E+02  0.00000000000E+00 0. -1.
          1    1    1    2  502    0  0.13755619067E+02  0.25060366741E+02  0.61825085341E+02  0.68114464062E+02  0.00000000000E+00 0.  1.
         -1    1    1    2    0  501 -0.13755619067E+02 -0.25060366741E+02 -0.18973096685E+02  0.34310602369E+02  0.00000000000E+00 0. -1.
</event>
<event>
 4    1  0.6769686E+001  0.2936450E+02  0.7546771E-02  0.1425201E+00
          2   -1    0    0  502    0  0.00000000000E+00  0.00000000000E+00  0.61381207643E+01  0.61381207643E+01  0.00000000000E+00 0.  1.
         -2   -1    0    0    0  501 -0.00000000000E+00 -0.00000000000E+00 -0.19903636396E+03  0.19903636396E+03  0.00000000000E+00 0. -1.
          1    1    1    2  502    0 -0.28273425048E+02  0.79301331053E+01 -0.40804907916E+02  0.50272398840E+02  0.00000000000E+00 0.  1.
         -1    1    1    2    0  501  0.28273425048E+02 -0.79301331053E+01 -0.15209333528E+03  0.15490208588E+03  0.00000000000E+00 0. -1.
</event>
<event>
 4    1  0.6769686E+001  0.2862510E+02  0.7546771E-02  0.1431933E+00
          2   -1    0    0  502    0  0.00000000000E+00  0.00000000000E+00  0.19151476835E+02  0.19151476835E+02  0.00000000000E+00 0. -1.
         -2   -1    0    0    0  501 -0.00000000000E+00 -0.00000000000E+00 -0.44266862996E+02  0.44266862996E+02  0.00000000000E+00 0.  1.
          1    1    1    2  502    0 -0.14983318804E+02  0.24390495816E+02 -0.18359296737E+02  0.34006762640E+02  0.00000000000E+00 0.  1.
         -1    1    1    2    0  501  0.14983318804E+02 -0.24390495816E+02 -0.67560894238E+01  0.29411577191E+02  0.00000000000E+00 0. -1.
</event>
<event>
 4    1  0.6769686E+001  0.2067254E+02  0.7546771E-02  0.1523992E+00
          2   -1    0    0  502    0  0.00000000000E+00  0.00000000000E+00  0.18911812329E+02  0.18911812329E+02  0.00000000000E+00 0.  1.
         -2   -1    0    0    0  501 -0.00000000000E+00 -0.00000000000E+00 -0.53764972495E+02  0.53764972495E+02  0.00000000000E+00 0. -1.
          1    1    1    2  502    0 -0.17366039246E+02  0.11214919899E+02  0.10240859749E+02  0.23070087903E+02  0.00000000000E+00 0.  1.
         -1    1    1    2    0  501  0.17366039246E+02 -0.11214919899E+02 -0.45094019914E+02  0.49606696921E+02  0.00000000000E+00 0. -1.
</event>
<event>
 4    1  0.6769686E+001  0.2349845E+02  0.7546771E-02  0.1486332E+00
          2   -1    0    0  502    0  0.00000000000E+00  0.00000000000E+00  0.91046670714E+03  0.91046670714E+03  0.00000000000E+00 0.  1.
         -2   -1    0    0    0  501 -0.00000000000E+00 -0.00000000000E+00 -0.64495601111E+00  0.64495601111E+00  0.00000000000E+00 0. -1.
          1    1    1    2  502    0 -0.15733712380E+01  0.23445718972E+02  0.34363839168E+03  0.34444088240E+03  0.00000000000E+00 0.  1.
         -1    1    1    2    0  501  0.15733712380E+01 -0.23445718972E+02  0.56618335945E+03  0.56667078075E+03  0.00000000000E+00 0. -1.
</event>
<event>
 4    1  0.6769686E+001  0.2604900E+02  0.7546771E-02  0.1457402E+00
          2   -1    0    0  502    0  0.00000000000E+00  0.00000000000E+00  0.70091670138E+03  0.70091670138E+03  0.00000000000E+00 0.  1.
         -2   -1    0    0    0  501 -0.00000000000E+00 -0.00000000000E+00 -0.17879432890E+01  0.17879432890E+01  0.00000000000E+00 0. -1.
          1    1    1    2  502    0 -0.21779746413E+01 -0.25957789354E+02  0.11164268230E+03  0.11464134905E+03  0.00000000000E+00 0. -1.
         -1    1    1    2    0  501  0.21779746413E+01  0.25957789354E+02  0.58748607579E+03  0.58806329562E+03  0.00000000000E+00 0.  1.
</event>
<event>
 4    1  0.6769686E+001  0.2992602E+02  0.7546771E-02  0.1420241E+00
          2   -1    0    0  502    0  0.00000000000E+00  0.00000000000E+00  0.28575333687E+03  0.28575333687E+03  0.00000000000E+00 0.  1.
         -2   -1    0    0    0  501 -0.00000000000E+00 -0.00000000000E+00 -0.41425478851E+01  0.41425478851E+01  0.00000000000E+00 0. -1.
          1    1    1    2  502    0  0.26644644043E+00  0.29924834539E+02  0.69287507627E+02  0.75474004989E+02  0.00000000000E+00 0. -1.
         -1    1    1    2    0  501 -0.26644644043E+00 -0.29924834539E+02  0.21232328136E+03  0.21442187977E+03  0.00000000000E+00 0.  1.
</event>
<event>
 4    1  0.6769686E+001  0.2646657E+02  0.7546771E-02  0.1453041E+00
          2   -1    0    0  502    0  0.00000000000E+00  0.00000000000E+00  0.40872069616E+01  0.40872069616E+01  0.00000000000E+00 0. -1.
         -2   -1    0    0    0  501 -0.00000000000E+00 -0.00000000000E+00 -0.19278882931E+03  0.19278882931E+03  0.00000000000E+00 0.  1.
          1    1    1    2  502    0 -0.17842490029E+02  0.19548008489E+02 -0.61549988100E+02  0.66999105378E+02  0.00000000000E+00 0. -1.
         -1    1    1    2    0  501  0.17842490029E+02 -0.19548008489E+02 -0.12715163425E+03  0.12987693089E+03  0.00000000000E+00 0.  1.
</event>
<event>
 4    1  0.6769686E+001  0.2345436E+02  0.7546771E-02  0.1486870E+00
          2   -1    0    0  502    0  0.00000000000E+00  0.00000000000E+00  0.26290440837E+03  0.26290440837E+03  0.00000000000E+00 0.  1.
         -2   -1    0    0    0  501 -0.00000000000E+00 -0.00000000000E+00 -0.38503330994E+01  0.38503330994E+01  0.00000000000E+00 0. -1.
          1    1    1    2  502    0 -0.16712559779E+02 -0.16455916841E+02  0.39404894988E+02  0.45856870831E+02  0.00000000000E+00 0.  1.
         -1    1    1    2    0  501  0.16712559779E+02  0.16455916841E+02  0.21964918029E+03  0.22089787064E+03  0.00000000000E+00 0. -1.
</event>
<event>
 4    1  0.6769686E+001  0.2490050E+02  0.7546771E-02  0.1469920E+00
          2   -1    0    0  502    0  0.00000000000E+00  0.00000000000E+00  0.45297288267E+03  0.45297288267E+03  0.00000000000E+00 0.  1.
         -2   -1    0    0    0  501 -0.00000000000E+00 -0.00000000000E+00 -0.33007974697E+01  0.33007974697E+01  0.00000000000E+00 0. -1.
          1    1    1    2  502    0  0.15779427086E+02 -0.19262523871E+02  0.50298922886E+02  0.56125010365E+02  0.00000000000E+00 0. -1.
         -1    1    1    2    0  501 -0.15779427086E+02  0.19262523871E+02  0.39937316232E+03  0.40014866978E+03  0.00000000000E+00 0.  1.
</event>
<event>
 4    1  0.6769686E+001  0.3516349E+02  0.7546771E-02  0.1379417E+00
          2   -1    0    0  502    0  0.00000000000E+00  0.00000000000E+00  0.47411163446E+03  0.47411163446E+03  0.00000000000E+00 0.  1.
         -2   -1    0    0    0  501 -0.00000000000E+00 -0.00000000000E+00 -0.36788579665E+01  0.36788579665E+01  0.00000000000E+00 0. -1.
          1    1    1    2  502    0  0.21805560818E+02  0.27586015210E+02  0.10632549087E+03  0.11198919915E+03  0.00000000000E+00 0. -1.
         -1    1    1    2    0  501 -0.21805560818E+02 -0.27586015210E+02  0.36410728563E+03  0.36580129328E+03  0.00000000000E+00 0.  1.
</event>
<event>
 4    1  0.6769686E+001  0.3153228E+02  0.7546771E-02  0.1406732E+00
          2   -1    0    0  502    0  0.00000000000E+00  0.00000000000E+00  0.30980433718E+04  0.30980433718E+04  0.00000000000E+00 0.  1.
         -2   -1    0    0    0  501 -0.00000000000E+00 -0.00000000000E+00 -0.33799668445E+00  0.33799668445E+00  0.00000000000E+00 0. -1.
          1    1    1    2  502    0 -0.31436472130E+02  0.24561944729E+01  0.12008347831E+04  0.12012487091E+04  0.00000000000E+00 0. -1.
         -1    1    1    2    0  501  0.31436472130E+02 -0.24561944729E+01  0.18968705919E+04  0.18971326594E+04  0.00000000000E+00 0.  1.
</event>
<event>
 4    1  0.6769686E+001  0.2036507E+02  0.7546771E-02  0.1528526E+00
          2   -1    0    0  502    0  0.00000000000E+00  0.00000000000E+00  0.67385003300E+00  0.67385003300E+00  0.00000000000E+00 0. -1.
         -2   -1    0    0    0  501 -0.00000000000E+00 -0.00000000000E+00 -0.61858588780E+03  0.61858588780E+03  0.00000000000E+00 0.  1.
          1    1    1    2  502    0 -0.11590413000E+02 -0.16745106831E+02 -0.28699017578E+03  0.28771183026E+03  0.00000000000E+00 0.  1.
         -1    1    1    2    0  501  0.11590413000E+02  0.16745106831E+02 -0.33092186199E+03  0.33154790758E+03  0.00000000000E+00 0. -1.
</event>
<event>
 4    1  0.6769686E+001  0.2672212E+02  0.7546771E-02  0.1450420E+00
          2   -1    0    0  502    0  0.00000000000E+00  0.00000000000E+00  0.53489238109E+02  0.53489238109E+02  0.00000000000E+00 0.  1.
         -2   -1    0    0    0  501 -0.00000000000E+00 -0.00000000000E+00 -0.14551225821E+02  0.14551225821E+02  0.00000000000E+00 0. -1.
          1    1    1    2  502    0  0.23329706630E+02  0.13030602484E+02  0.29244348315E+02  0.39614438289E+02  0.00000000000E+00 0.  1.
         -1    1    1    2    0  501 -0.23329706630E+02 -0.13030602484E+02  0.96936639734E+01  0.28426025641E+02  0.00000000000E+00 0. -1.
</event>
<event>
 4    1  0.6769686E+001  0.4583616E+02  0.7546771E-02  0.1317310E+00
          2   -1    0    0  502    0  0.00000000000E+00  0.00000000000E+00  0.40128805542E+03  0.40128805542E+03  0.00000000000E+00 0. -1.
         -2   -1    0    0    0  501 -0.00000000000E+00 -0.00000000000E+00 -0.94331354475E+01  0.94331354475E+01  0.00000000000E+00 0.  1.
          1    1    1    2  502    0 -0.30930173552E+02  0.33827183430E+02  0.58937069567E+02  0.74662789554E+02  0.00000000000E+00 0.  1.
         -1    1    1    2    0  501  0.30930173552E+02 -0.33827183430E+02  0.33291785041E+03  0.33605840132E+03  0.00000000000E+00 0. -1.
</event>
<event>
 4    1  0.6769686E+001  0.2437755E+02  0.7546771E-02  0.1475889E+00
          2   -1    0    0  502    0  0.00000000000E+00  0.00000000000E+00  0.79321116374E+03  0.79321116374E+03  0.00000000000E+00 0.  1.
         -2   -1    0    0    0  501 -0.00000000000E+00 -0.00000000000E+00 -0.33192484139E+01  0.33192484139E+01  0.00000000000E+00 0. -1.
          1    1    1    2  502    0 -0.27273175454E+01 -0.24224507400E+02  0.44497561935E+02  0.50737540716E+02  0.00000000000E+00 0. -1.
         -1    1    1    2    0  501  0.27273175454E+01  0.24224507400E+02  0.74539435340E+03  0.74579287144E+03  0.00000000000E+00 0.  1.
</event>
<event>
 4    1  0.6769686E+001  0.2316097E+02  0.7546771E-02  0.1490487E+00
          2   -1    0    0  502    0  0.00000000000E+00  0.00000000000E+00  0.21762552589E+04  0.21762552589E+04  0.00000000000E+00 0.  1.
         -2   -1    0    0    0  501 -0.00000000000E+00 -0.00000000000E+00 -0.24945305744E+00  0.24945305744E+00  0.00000000000E+00 0. -1.
          1    1    1    2  502    0 -0.17384626777E+02 -0.15303768516E+02  0.12065586562E+04  0.12067809335E+04  0.00000000000E+00 0. -1.
         -1    1    1    2    0  501  0.17384626777E+02  0.15303768516E+02  0.96944714963E+03  0.96972377846E+03  0.00000000000E+00 0.  1.
</event>
<event>
 4    1  0.6769686E+001  0.2063894E+02  0.7546771E-02  0.1524483E+00
          2   -1    0    0  502    0  0.00000000000E+00  0.00000000000E+00  0.21385264942E+01  0.21385264942E+01  0.00000000000E+00 0. -1.
         -2   -1    0    0    0  501 -0.00000000000E+00 -0.00000000000E+00 -0.30109568046E+03  0.30109568046E+03  0.00000000000E+00 0.  1.
          1    1    1    2  502    0  0.20637804937E+02  0.21636751217E+00 -0.61271711706E+02  0.64654376982E+02  0.00000000000E+00 0.  1.
         -1    1    1    2    0  501 -0.20637804937E+02 -0.21636751217E+00 -0.23768544226E+03  0.23857982998E+03  0.00000000000E+00 0. -1.
</event>
<event>
 4    1  0.6769686E+001  0.2144748E+02  0.7546771E-02  0.1512971E+00
          2   -1    0    0  502    0  0.00000000000E+00  0.00000000000E+00  0.61803184600E+02  0.61803184600E+02  0.00000000000E+00 0.  1.
         -2   -1    0    0    0  501 -0.00000000000E+00 -0.00000000000E+00 -0.92219179611E+01  0.92219179611E+01  0.00000000000E+00 0. -1.
          1    1    1    2  502    0 -0.19644664236E+02 -0.86070584554E+01  0.10692857787E+02  0.23965214287E+02  0.00000000000E+00 0. -1.
         -1    1    1    2    0  501  0.19644664236E+02  0.86070584554E+01  0.41888408852E+02  0.47059888274E+02  0.00000000000E+00 0.  1.
</event>
<event>
 4    1  0.6769686E+001  0.2279705E+02  0.7546771E-02  0.1495062E+00
          2   -1    0    0  502    0  0.00000000000E+00  0.00000000000E+00  0.71138753188E+03  0.71138753188E+03  0.00000000000E+00 0. -1.
         -2   -1    0    0    0  501 -0.00000000000E+00 -0.00000000000E+00 -0.10258327924E+01  0.10258327924E+01  0.00000000000E+00 0.  1.
          1    1    1    2  502    0 -0.20695351473E+02 -0.95607515252E+01  0.16407172827E+03  0.16564793256E+03  0.00000000000E+00 0.  1.
         -1    1    1    2    0  501  0.20695351473E+02  0.95607515252E+01  0.54628997082E+03  0.54676543212E+03  0.00000000000E+00 0. -1.
</event>
<event>
 4    1  0.6769686E+001  0.6713319E+02  0.7546771E-02  0.1237350E+00
          2   -1    0    0  502    0  0.00000000000E+00  0.00000000000E+00  0.15800256820E+04  0.15800256820E+04  0.00000000000E+00 0.  1.
         -2   -1    0    0    0  501 -0.00000000000E+00 -0.00000000000E+00 -0.62866881557E+01  0.62866881557E+01  0.00000000000E+00 0. -1.
          1    1    1    2  502    0  0.55393523939E+02  0.37926551996E+02  0.13730968772E+04  0.13747370294E+04  0.00000000000E+00 0.  1.
         -1    1    1    2    0  501 -0.55393523939E+02 -0.37926551996E+02  0.20064211657E+03  0.21157534067E+03  0.00000000000E+00 0. -1.
</event>
<event>
 4    1  0.6769686E+001  0.2351596E+02  0.7546771E-02  0.1486119E+00
          2   -1    0    0  502    0  0.00000000000E+00  0.00000000000E+00  0.82882312228E+01  0.82882312228E+01  0.00000000000E+00 0.  1.
         -2   -1    0    0    0  501 -0.00000000000E+00 -0.00000000000E+00 -0.73899920054E+02  0.73899920054E+02  0.00000000000E+00 0. -1.
          1    1    1    2  502    0  0.21118284469E+02 -0.10344970998E+02 -0.45613867093E+02  0.51318858474E+02  0.00000000000E+00 0. -1.
         -1    1    1    2    0  501 -0.21118284469E+02  0.10344970998E+02 -0.19997821738E+02  0.30869292803E+02  0.00000000000E+00 0.  1.
</event>
<event>
 4    1  0.6769686E+001  0.2182882E+02  0.7546771E-02  0.1507753E+00
          2   -1    0    0  502    0  0.00000000000E+00  0.00000000000E+00  0.29191506830E+03  0.29191506830E+03  0.00000000000E+00 0. -1.
         -2   -1    0    0    0  501 -0.00000000000E+00 -0.00000000000E+00 -0.19093643722E+01  0.19093643722E+01  0.00000000000E+00 0.  1.
          1    1    1    2  502    0 -0.21023982857E+02  0.58727723706E+01  0.89040986850E+02  0.91677667127E+02  0.00000000000E+00 0. -1.
         -1    1    1    2    0  501  0.21023982857E+02 -0.58727723706E+01  0.20096471708E+03  0.20214676555E+03  0.00000000000E+00 0.  1.
</event>
<event>
 4    1  0.6769686E+001  0.2618188E+02  0.7546771E-02  0.1456004E+00
          2   -1    0    0  502    0  0.00000000000E+00  0.00000000000E+00  0.72080378353E+02  0.72080378353E+02  0.00000000000E+00 0. -1.
         -2   -1    0    0    0  501 -0.00000000000E+00 -0.00000000000E+00 -0.11001577295E+02  0.11001577295E+02  0.00000000000E+00 0.  1.
          1    1    1    2  502    0  0.21688769928E+02 -0.14665876706E+02  0.15244050128E+02  0.30296398216E+02  0.00000000000E+00 0.  1.
         -1    1    1    2    0  501 -0.21688769928E+02  0.14665876706E+02  0.45834750930E+02  0.52785557431E+02  0.00000000000E+00 0. -1.
</event>
<event>
 4    1  0.6769686E+001  0.2807854E+02  0.7546771E-02  0.1437065E+00
          2   -1    0    0  502    0  0.00000000000E+00  0.00000000000E+00  0.53841788022E+03  0.53841788022E+03  0.00000000000E+00 0. -1.
         -2   -1    0    0    0  501 -0.00000000000E+00 -0.00000000000E+00 -0.15056972155E+01  0.15056972155E+01  0.00000000000E+00 0.  1.
          1    1    1    2  502    0  0.63780032475E+00  0.28071291445E+02  0.22369199262E+03  0.22544735916E+03  0.00000000000E+00 0. -1.
         -1    1    1    2    0  501 -0.63780032475E+00 -0.28071291445E+02  0.31322019039E+03  0.31447621827E+03  0.00000000000E+00 0.  1.
</event>
<event>
 4    1  0.6769686E+001  0.2524702E+02  0.7546771E-02  0.1466059E+00
          2   -1    0    0  502    0  0.00000000000E+00  0.00000000000E+00  0.15627248507E+02  0.15627248507E+02  0.00000000000E+00 0. -1.
         -2   -1    0    0    0  501 -0.00000000000E+00 -0.00000000000E+00 -0.48402711424E+02  0.48402711424E+02  0.00000000000E+00 0.  1.
          1    1    1    2  502    0 -0.23809744634E+02  0.83969136900E+01 -0.29085596916E+02  0.38514725067E+02  0.00000000000E+00 0.  1.
         -1    1    1    2    0  501  0.23809744634E+02 -0.83969136900E+01 -0.36898660008E+01  0.25515234864E+02  0.00000000000E+00 0. -1.
</event>
<event>
 4    1  0.6769686E+001  0.2030533E+02  0.7546771E-02  0.1529418E+00
          2   -1    0    0  502    0  0.00000000000E+00  0.00000000000E+00  0.15091917381E+04  0.15091917381E+04  0.00000000000E+00 0.  1.
         -2   -1    0    0    0  501 -0.00000000000E+00 -0.00000000000E+00 -0.27467741192E+00  0.27467741192E+00  0.00000000000E+00 0. -1.
          1    1    1    2  502    0  0.19390134389E+02 -0.60273533364E+01  0.69904602167E+03  0.69934086590E+03  0.00000000000E+00 0. -1.
         -1    1    1    2    0  501 -0.19390134389E+02  0.60273533364E+01  0.80987103900E+03  0.81012554959E+03  0.00000000000E+00 0.  1.
</event>
<event>
 4    1  0.6769686E+001  0.2273012E+02  0.7546771E-02  0.1495915E+00
          2   -1    0    0  502    0  0.00000000000E+00  0.00000000000E+00  0.10956815594E+03  0.10956815594E+03  0.00000000000E+00 0. -1.
         -2   -1    0    0    0  501 -0.00000000000E+00 -0.00000000000E+00 -0.47344328584E+01  0.47344328584E+01  0.00000000000E+00 0.  1.
          1    1    1    2  502    0  0.35793555820E+00 -0.22727299809E+02  0.56039979335E+02  0.60474271871E+02  0.00000000000E+00 0. -1.
         -1    1    1    2    0  501 -0.35793555820E+00  0.22727299809E+02  0.48793743751E+02  0.53828316931E+02  0.00000000000E+00 0.  1.
</event>
<event>
 4    1  0.6769686E+001  0.3116627E+02  0.7546771E-02  0.1409725E+00
          2   -1    0    0  502    0  0.00000000000E+00  0.00000000000E+00  0.44242192441E+02  0.44242192441E+02  0.00000000000E+00 0. -1.
         -2   -1    0    0    0  501 -0.00000000000E+00 -0.00000000000E+00 -0.22024345273E+02  0.22024345273E+02  0.00000000000E+00 0.  1.
          1    1    1    2  502    0 -0.84756410101E+00  0.31154743386E+02  0.12968385802E+02  0.33756709417E+02  0.00000000000E+00 0. -1.
         -1    1    1    2    0  501  0.84756410101E+00 -0.31154743386E+02  0.92494613654E+01  0.32509828297E+02  0.00000000000E+00 0.  1.
</event>
<event>
 4    1  0.6769686E+001  0.2649452E+02  0.7546771E-02  0.1452753E+00
          2   -1    0    0  502    0  0.00000000000E+00  0.00000000000E+00  0.64785486984E+03  0.64785486984E+03  0.00000000000E+00 0.  1.
         -2   -1    0    0    0  501 -0.00000000000E+00 -0.00000000000E+00 -0.18981758183E+01  0.18981758183E+01  0.00000000000E+00 0. -1.
          1    1    1    2  502    0 -0.16458765126E+02  0.20762188525E+02  0.11014535249E+03  0.11328706059E+03  0.00000000000E+00 0. -1.
         -1    1    1    2    0  501  0.16458765126E+02 -0.20762188525E+02  0.53581134154E+03  0.53646598508E+03  0.00000000000E+00 0.  1.
</event>
<event>
 4    1  0.6769686E+001  0.2591371E+02  0.7546771E-02  0.1458836E+00
          2   -1    0    0  502    0  0.00000000000E+00  0.00000000000E+00  0.15176636004E+03  0.15176636004E+03  0.00000000000E+00 0. -1.
         -2   -1    0    0    0  501 -0.00000000000E+00 -0.00000000000E+00 -0.66808642877E+01  0.66808642877E+01  0.00000000000E+00 0.  1.
          1    1    1    2  502    0 -0.23421217006E+02 -0.11089046825E+02  0.11858153063E+03  0.12137998093E+03  0.00000000000E+00 0. -1.
         -1    1    1    2    0  501  0.23421217006E+02  0.11089046825E+02  0.26503965128E+02  0.37067243397E+02  0.00000000000E+00 0.  1.
</event>
<event>
 4    1  0.6769686E+001  0.2245930E+02  0.7546771E-02  0.1499402E+00
          2   -1    0    0  502    0  0.00000000000E+00  0.00000000000E+00  0.28431193147E+03  0.28431193147E+03  0.00000000000E+00 0.  1.
         -2   -1    0    0    0  501 -0.00000000000E+00 -0.00000000000E+00 -0.17778741636E+01  0.17778741636E+01  0.00000000000E+00 0. -1.
          1    1    1    2  502    0  0.21723941875E+02  0.57000557689E+01  0.13474574785E+03  0.13660467360E+03  0.00000000000E+00 0.  1.
         -1    1    1    2    0  501 -0.21723941875E+02 -0.57000557689E+01  0.14778830945E+03  0.14948513203E+03  0.00000000000E+00 0. -1.
</event>
<event>
 4    1  0.6769686E+001  0.2203505E+02  0.7546771E-02  0.1504984E+00
          2   -1    0    0  502    0  0.00000000000E+00  0.00000000000E+00  0.13467394211E+04  0.13467394211E+04  0.00000000000E+00 0. -1.
         -2   -1    0    0    0  501 -0.00000000000E+00 -0.00000000000E+00 -0.36367593926E+00  0.36367593926E+00  0.00000000000E+00 0.  1.
          1    1    1    2  502    0 -0.13141763353E+02 -0.17687210121E+02  0.61056755117E+03  0.61096503819E+03  0.00000000000E+00 0.  1.
         -1    1    1    2    0  501  0.13141763353E+02  0.17687210121E+02  0.73580819396E+03  0.73613805882E+03  0.00000000000E+00 0. -1.
</event>
<event>
 4    1  0.6769686E+001  0.2514801E+02  0.7546771E-02  0.1467154E+00
          2   -1    0    0  502    0  0.00000000000E+00  0.00000000000E+00  0.14342394347E+04  0.14342394347E+04  0.00000000000E+00 0.  1.
         -2   -1    0    0    0  501 -0.00000000000E+00 -0.00000000000E+00 -0.47360852335E+00  0.47360852335E+00  0.00000000000E+00 0. -1.
          1    1    1    2  502    0 -0.96767855907E+01 -0.23211682691E+02  0.90526907549E+03  0.90561830891E+03  0.00000000000E+00 0. -1.
         -1    1    1    2    0  501  0.96767855907E+01  0.23211682691E+02  0.52849675064E+03  0.52909473426E+03  0.00000000000E+00 0.  1.
</event>
<event>
 4    1  0.6769686E+001  0.3353726E+02  0.7546771E-02  0.1391149E+00
          2   -1    0    0  502    0  0.00000000000E+00  0.00000000000E+00  0.12816162346E+04  0.12816162346E+04  0.00000000000E+00 0.  1.
         -2   -1    0    0    0  501 -0.00000000000E+00 -0.00000000000E+00 -0.11631788693E+01  0.11631788693E+01  0.00000000000E+00 0. -1.
          1    1    1    2  502    0 -0.19282633814E+02 -0.27439527862E+02  0.32242130661E+03  0.32416083448E+03  0.00000000000E+00 0. -1.
         -1    1    1    2    0  501  0.19282633814E+02  0.27439527862E+02  0.95803174913E+03  0.95861857899E+03  0.00000000000E+00 0.  1.
</event>
<event>
 4    1  0.6769686E+001  0.2997530E+02  0.7546771E-02  0.1419811E+00
          2   -1    0    0  502    0  0.00000000000E+00  0.00000000000E+00  0.13763298815E+04  0.13763298815E+04  0.00000000000E+00 0.  1.
         -2   -1    0    0    0  501 -0.00000000000E+00 -0.00000000000E+00 -0.70718084325E+00  0.70718084325E+00  0.00000000000E+00 0. -1.
          1    1    1    2  502    0  0.12966209602E+02  0.27025836805E+02  0.87867682517E+03  0.87918796713E+03  0.00000000000E+00 0.  1.
         -1    1    1    2    0  501 -0.12966209602E+02 -0.27025836805E+02  0.49694587551E+03  0.49784909524E+03  0.00000000000E+00 0. -1.
</event>
<event>
 4    1  0.6769686E+001  0.2173402E+02  0.7546771E-02  0.1509038E+00
          2   -1    0    0  502    0  0.00000000000E+00  0.00000000000E+00  0.30693525236E+01  0.30693525236E+01  0.00000000000E+00 0.  1.
         -2   -1    0    0    0  501 -0.00000000000E+00 -0.00000000000E+00 -0.15631689755E+03  0.15631689755E+03  0.00000000000E+00 0. -1.
          1    1    1    2  502    0  0.10531298438E+02  0.19012081064E+02 -0.86537091265E+02  0.89224635823E+02  0.00000000000E+00 0.  1.
         -1    1    1    2    0  501 -0.10531298438E+02 -0.19012081064E+02 -0.66710453765E+02  0.70161614254E+02  0.00000000000E+00 0. -1.
</event>
<event>
 4    1  0.6769686E+001  0.2164934E+02  0.7546771E-02  0.1510192E+00
          2   -1    0    0  502    0  0.00000000000E+00  0.00000000000E+00  0.80624681762E+03  0.80624681762E+03  0.00000000000E+00 0.  1.
         -2   -1    0    0    0  501 -0.00000000000E+00 -0.00000000000E+00 -0.61914028628E+00  0.61914028628E+00  0.00000000000E+00 0. -1.
          1    1    1    2  502    0 -0.94461763991E+01  0.19479828985E+02  0.50251319770E+03  0.50297933143E+03  0.00000000000E+00 0.  1.
         -1    1    1    2    0  501  0.94461763991E+01 -0.19479828985E+02  0.30311447963E+03  0.30388662647E+03  0.00000000000E+00 0. -1.
</event>
<event>
 4    1  0.6769686E+001  0.2667665E+02  0.7546771E-02  0.1450884E+00
          2   -1    0    0  502    0  0.00000000000E+00  0.00000000000E+00  0.19139896802E+03  0.19139896802E+03  0.00000000000E+00 0.  1.
         -2   -1    0    0    0  501 -0.00000000000E+00 -0.00000000000E+00 -0.48756262441E+01  0.48756262441E+01  0.00000000000E+00 0. -1.
          1    1    1    2  502    0 -0.26478887814E+02 -0.32422108700E+01  0.14107857371E+03  0.14357857567E+03  0.00000000000E+00 0.  1.
         -1    1    1    2    0  501  0.26478887814E+02  0.32422108700E+01  0.45444768065E+02  0.52696018594E+02  0.00000000000E+00 0. -1.
</event>
<event>
 4    1  0.6769686E+001  0.2949838E+02  0.7546771E-02  0.1424006E+00
          2   -1    0    0  502    0  0.00000000000E+00  0.00000000000E+00  0.96611927930E+01  0.96611927930E+01  0.00000000000E+00 0.  1.
         -2   -1    0    0    0  501 -0.00000000000E+00 -0.00000000000E+00 -0.90229711232E+02  0.90229711232E+02  0.00000000000E+00 0. -1.
          1    1    1    2  502    0  0.27527155875E+02 -0.10602370457E+02 -0.42405261719E+02  0.51656178636E+02  0.00000000000E+00 0. -1.
         -1    1    1    2    0  501 -0.27527155875E+02  0.10602370457E+02 -0.38163256721E+02  0.48234725389E+02  0.00000000000E+00 0.  1.
</event>
<event>
 4    1  0.6769686E+001  0.3505199E+02  0.7546771E-02  0.1380198E+00
          2   -1    0    0  502    0  0.00000000000E+00  0.00000000000E+00  0.96206874202E+03  0.96206874202E+03  0.00000000000E+00 0. -1.
         -2   -1    0    0    0  501 -0.00000000000E+00 -0.00000000000E+00 -0.15354657433E+01  0.15354657433E+01  0.00000000000E+00 0.  1.
          1    1    1    2  502    0  0.34764618142E+02  0.44791944044E+01  0.67790906819E+03  0.67881466292E+03  0.00000000000E+00 0. -1.
         -1    1    1    2    0  501 -0.34764618142E+02 -0.44791944044E+01  0.28262420808E+03  0.28478954484E+03  0.00000000000E+00 0.  1.
</event>
<event>
 4    1  0.6769686E+001  0.2769230E+02  0.7546771E-02  0.1440775E+00
          2   -1    0    0  502    0  0.00000000000E+00  0.00000000000E+00  0.29679692436E+04  0.29679692436E+04  0.00000000000E+00 0. -1.
         -2   -1    0    0    0  501 -0.00000000000E+00 -0.00000000000E+00 -0.27493502666E+00  0.27493502666E+00  0.00000000000E+00 0.  1.
          1    1    1    2  502    0  0.27408610255E+02 -0.39536440580E+01  0.18480325460E+04  0.18482400153E+04  0.00000000000E+00 0. -1.
         -1    1    1    2    0  501 -0.27408610255E+02  0.39536440580E+01  0.11196617625E+04  0.11200041632E+04  0.00000000000E+00 0.  1.
</event>
<event>
 4    1  0.6769686E+001  0.2471816E+02  0.7546771E-02  0.1471981E+00
          2   -1    0    0  502    0  0.00000000000E+00  0.00000000000E+00  0.21306114589E+02  0.21306114589E+02  0.00000000000E+00 0. -1.
         -2   -1    0    0    0  501 -0.00000000000E+00 -0.00000000000E+00 -0.12685718104E+03  0.12685718104E+03  0.00000000000E+00 0.  1.
          1    1    1    2  502    0  0.92676656144E+01  0.22915014241E+02 -0.11794825290E+03  0.12051048862E+03  0.00000000000E+00 0.  1.
         -1    1    1    2    0  501 -0.92676656144E+01 -0.22915014241E+02  0.12397186454E+02  0.27652807010E+02  0.00000000000E+00 0. -1.
</event>
<event>
 4    1  0.6769686E+001  0.2466307E+02  0.7546771E-02  0.1472608E+00
          2   -1    0    0  502    0  0.00000000000E+00  0.00000000000E+00  0.23612722142E+04  0.23612722142E+04  0.00000000000E+00 0.  1.
         -2   -1    0    0    0  501 -0.00000000000E+00 -0.00000000000E+00 -0.26247580453E+00  0.26247580453E+00  0.00000000000E+00 0. -1.
          1    1    1    2  502    0 -0.24316757311E+02  0.41185593911E+01  0.10195971396E+04  0.10198953840E+04  0.00000000000E+00 0. -1.
         -1    1    1    2    0  501  0.24316757311E+02 -0.41185593911E+01  0.13414125988E+04  0.13416393060E+04  0.00000000000E+00 0.  1.
</event>
<event>
 4    1  0.6769686E+001  0.2022961E+02  0.7546771E-02  0.1530554E+00
          2   -1    0    0  502    0  0.00000000000E+00  0.00000000000E+00  0.21381011023E+03  0.21381011023E+03  0.00000000000E+00 0. -1.
         -2   -1    0    0    0  501 -0.00000000000E+00 -0.00000000000E+00 -0.22162719920E+01  0.22162719920E+01  0.00000000000E+00 0.  1.
          1    1    1    2  502    0  0.20225701121E+02  0.39781021730E+00  0.14568548943E+03  0.14708330657E+03  0.00000000000E+00 0. -1.
         -1    1    1    2    0  501 -0.20225701121E+02 -0.39781021730E+00  0.65908348804E+02  0.68943075656E+02  0.00000000000E+00 0.  1.
</event>
<event>
 4    1  0.6769686E+001  0.2127398E+02  0.7546771E-02  0.1515389E+00
          2   -1    0    0  502    0  0.00000000000E+00  0.00000000000E+00  0.25427191094E+03  0.25427191094E+03  0.00000000000E+00 0. -1.
         -2   -1    0    0    0  501 -0.00000000000E+00 -0.00000000000E+00 -0.18902721832E+01  0.18902721832E+01  0.00000000000E+00 0.  1.
          1    1    1    2  502    0 -0.20253258500E+02  0.65105730470E+01  0.95243300415E+02  0.97590308510E+02  0.00000000000E+00 0.  1.
         -1    1    1    2    0  501  0.20253258500E+02 -0.65105730470E+01  0.15713833834E+03  0.15857187461E+03  0.00000000000E+00 0. -1.
</event>
<event>
 4    1  0.6769686E+001  0.2750432E+02  0.7546771E-02  0.1442607E+00
          2   -1    0    0  502    0  0.00000000000E+00  0.00000000000E+00  0.20811538880E+01  0.20811538880E+01  0.00000000000E+00 0. -1.
         -2   -1    0    0    0  501 -0.00000000000E+00 -0.00000000000E+00 -0.56487325723E+03  0.56487325723E+03  0.00000000000E+00 0.  1.
          1    1    1    2  502    0 -0.90160299219E+01  0.25984589494E+02 -0.45065421428E+03  0.45149275579E+03  0.00000000000E+00 0.  1.
         -1    1    1    2    0  501  0.90160299219E+01 -0.25984589494E+02 -0.11213788906E+03  0.11546165532E+03  0.00000000000E+00 0. -1.
</event>
<event>
 4    1  0.6769686E+001  0.2659846E+02  0.7546771E-02  0.1451684E+00
          2   -1    0    0  502    0  0.00000000000E+00  0.00000000000E+00  0.86694522199E+03  0.86694522199E+03  0.00000000000E+00 0.  1.
         -2   -1    0    0    0  501 -0.00000000000E+00 -0.00000000000E+00 -0.87182313544E+00  0.87182313544E+00  0.00000000000E+00 0. -1.
          1    1    1    2  502    0 -0.15997109804E+02  0.21250185617E+02  0.32329696675E+03  0.32438928253E+03  0.00000000000E+00 0. -1.
         -1    1    1    2    0  501  0.15997109804E+02 -0.21250185617E+02  0.54277643210E+03  0.54342776259E+03  0.00000000000E+00 0.  1.
</event>
<event>
 4    1  0.6769686E+001  0.2624267E+02  0.7546771E-02  0.1455368E+00
          2   -1    0    0  502    0  0.00000000000E+00  0.00000000000E+00  0.33417752093E+02  0.33417752093E+02  0.00000000000E+00 0.  1.
         -2   -1    0    0    0  501 -0.00000000000E+00 -0.00000000000E+00 -0.22729689221E+02  0.22729689221E+02  0.00000000000E+00 0. -1.
          1    1    1    2  502    0  0.25613740829E+02  0.57108828416E+01 -0.32328460015E+01  0.26441051329E+02  0.00000000000E+00 0. -1.
         -1    1    1    2    0  501 -0.25613740829E+02 -0.57108828416E+01  0.13920908874E+02  0.29706389986E+02  0.00000000000E+00 0.  1.
</event>
<event>
 4    1  0.6769686E+001  0.6823667E+02  0.7546771E-02  0.1234153E+00
          2   -1    0    0  502    0  0.00000000000E+00  0.00000000000E+00  0.24943231918E+03  0.24943231918E+03  0.00000000000E+00 0. -1.
         -2   -1    0    0    0  501 -0.00000000000E+00 -0.00000000000E+00 -0.19423173747E+02  0.19423173747E+02  0.00000000000E+00 0.  1.
          1    1    1    2  502    0  0.89799255304E+01  0.67643215676E+02  0.88486906352E+02  0.11174156024E+03  0.00000000000E+00 0.  1.
         -1    1    1    2    0  501 -0.89799255304E+01 -0.67643215676E+02  0.14152223908E+03  0.15711393268E+03  0.00000000000E+00 0. -1.
</event>
<event>
 4    1  0.6769686E+001  0.2961190E+02  0.7546771E-02  0.1422999E+00
          2   -1    0    0  502    0  0.00000000000E+00  0.00000000000E+00  0.17704134215E+04  0.17704134215E+04  0.00000000000E+00 0. -1.
         -2   -1    0    0    0  501 -0.00000000000E+00 -0.00000000000E+00 -0.76183662944E+00  0.76183662944E+00  0.00000000000E+00 0.  1.
          1    1    1    2  502    0  0.23267983467E+02  0.18315725267E+02  0.36099781038E+03  0.36221027587E+03  0.00000000000E+00 0.  1.
         -1    1    1    2    0  501 -0.23267983467E+02 -0.18315725267E+02  0.14086537745E+04  0.14089649823E+04  0.00000000000E+00 0. -1.
</event>
<event>
 4    1  0.6769686E+001  0.2300241E+02  0.7546771E-02  0.1492468E+00
          2   -1    0    0  502    0  0.00000000000E+00  0.00000000000E+00  0.49744324056E+03  0.49744324056E+03  0.00000000000E+00 0. -1.
         -2   -1    0    0    0  501 -0.00000000000E+00 -0.00000000000E+00 -0.10648695834E+01  0.10648695834E+01  0.00000000000E+00 0.  1.
          1    1    1    2  502    0 -0.49955048465E+01  0.22453415234E+02  0.25658669533E+03  0.25761568885E+03  0.00000000000E+00 0.  1.
         -1    1    1    2    0  501  0.49955048465E+01 -0.22453415234E+02  0.23979167565E+03  0.24089242129E+03  0.00000000000E+00 0. -1.
</event>
<event>
 4    1  0.6769686E+001  0.9169591E+02  0.7546771E-02  0.1179031E+00
          2   -1    0    0  502    0  0.00000000000E+00  0.00000000000E+00  0.10255966064E+03  0.10255966064E+03  0.00000000000E+00 0. -1.
         -2   -1    0    0    0  501 -0.00000000000E+00 -0.00000000000E+00 -0.92680073598E+02  0.92680073598E+02  0.00000000000E+00 0.  1.
          1    1    1    2  502    0 -0.85666094575E+02  0.32702603139E+02  0.38104734634E+02  0.99298090684E+02  0.00000000000E+00 0. -1.
         -1    1    1    2    0  501  0.85666094575E+02 -0.32702603139E+02 -0.28225147590E+02  0.95941643557E+02  0.00000000000E+00 0.  1.
</event>
<event>
 4    1  0.6769686E+001  0.2757942E+02  0.7546771E-02  0.1441873E+00
          2   -1    0    0  502    0  0.00000000000E+00  0.00000000000E+00  0.51112901251E+03  0.51112901251E+03  0.00000000000E+00 0. -1.
         -2   -1    0    0    0  501 -0.00000000000E+00 -0.00000000000E+00 -0.17437242295E+01  0.17437242295E+01  0.00000000000E+00 0.  1.
          1    1    1    2  502    0  0.26697302364E+02  0.69194430167E+01  0.35287177533E+03  0.35394789796E+03  0.00000000000E+00 0. -1.
         -1    1    1    2    0  501 -0.26697302364E+02 -0.69194430167E+01  0.15651351294E+03  0.15892483877E+03  0.00000000000E+00 0.  1.
</event>
<event>
 4    1  0.6769686E+001  0.3632563E+02  0.7546771E-02  0.1371476E+00
          2   -1    0    0  502    0  0.00000000000E+00  0.00000000000E+00  0.10360013548E+04  0.10360013548E+04  0.00000000000E+00 0.  1.
         -2   -1    0    0    0  501 -0.00000000000E+00 -0.00000000000E+00 -0.26285232095E+01  0.26285232095E+01  0.00000000000E+00 0. -1.
          1    1    1    2  502    0  0.42072371131E+01  0.36081169688E+02  0.14385136983E+03  0.14836700527E+03  0.00000000000E+00 0. -1.
         -1    1    1    2    0  501 -0.42072371131E+01 -0.36081169688E+02  0.88952146175E+03  0.89026287273E+03  0.00000000000E+00 0.  1.
</event>
<event>
 4    1  0.6769686E+001  0.2636814E+02  0.7546771E-02  0.1454061E+00
          2   -1    0    0  502    0  0.00000000000E+00  0.00000000000E+00  0.56034796610E+01  0.56034796610E+01  0.00000000000E+00 0.  1.
         -2   -1    0    0    0  501 -0.00000000000E+00 -0.00000000000E+00 -0.13418613180E+03  0.13418613180E+03  0.00000000000E+00 0. -1.
          1    1    1    2  502    0 -0.25543768846E+02  0.65417839088E+01 -0.45109664658E+02  0.52250941705E+02  0.00000000000E+00 0.  1.
         -1    1    1    2    0  501  0.25543768846E+02 -0.65417839088E+01 -0.83472987485E+02  0.87538669760E+02  0.00000000000E+00 0. -1.
</event>
<event>
 4    1  0.6769686E+001  0.2113552E+02  0.7546771E-02  0.1517339E+00
          2   -1    0    0  502    0  0.00000000000E+00  0.00000000000E+00  0.13865381088E+04  0.13865381088E+04  0.00000000000E+00 0. -1.
         -2   -1    0    0    0  501 -0.00000000000E+00 -0.00000000000E+00 -0.32807930155E+00  0.32807930155E+00  0.00000000000E+00 0.  1.
          1    1    1    2  502    0  0.37660015919E-01  0.21135488182E+02  0.78611652701E+03  0.78640060041E+03  0.00000000000E+00 0.  1.
         -1    1    1    2    0  501 -0.37660015919E-01 -0.21135488182E+02  0.60009350244E+03  0.60046558765E+03  0.00000000000E+00 0. -1.
</event>
<event>
 4    1  0.6769686E+001  0.4123461E+02  0.7546771E-02  0.1341399E+00
          2   -1    0    0  502    0  0.00000000000E+00  0.00000000000E+00  0.27096536776E+03  0.27096536776E+03  0.00000000000E+00 0. -1.
         -2   -1    0    0    0  501 -0.00000000000E+00 -0.00000000000E+00 -0.83269308684E+01  0.83269308684E+01  0.00000000000E+00 0.  1.
          1    1    1    2  502    0 -0.33582613283E+02 -0.23926996132E+02  0.61996823401E+02  0.74457364784E+02  0.00000000000E+00 0.  1.
         -1    1    1    2    0  501  0.33582613283E+02  0.23926996132E+02  0.20064161349E+03  0.20483493384E+03  0.00000000000E+00 0. -1.
</event>
<event>
 4    1  0.6769686E+001  0.2856168E+02  0.7546771E-02  0.1432521E+00
          2   -1    0    0  502    0  0.00000000000E+00  0.00000000000E+00  0.20188549325E+03  0.20188549325E+03  0.00000000000E+00 0. -1.
         -2   -1    0    0    0  501 -0.00000000000E+00 -0.00000000000E+00 -0.45888723635E+01  0.45888723635E+01  0.00000000000E+00 0.  1.
          1    1    1    2  502    0 -0.25120200221E+02 -0.13592089361E+02  0.13432798185E+03  0.13733089988E+03  0.00000000000E+00 0.  1.
         -1    1    1    2    0  501  0.25120200221E+02  0.13592089361E+02  0.62968639035E+02  0.69143465738E+02  0.00000000000E+00 0. -1.
</event>
<event>
 4    1  0.6769686E+001  0.4126015E+02  0.7546771E-02  0.1341255E+00
          2   -1    0    0  502    0  0.00000000000E+00  0.00000000000E+00  0.33702982568E+03  0.33702982568E+03  0.00000000000E+00 0. -1.
         -2   -1    0    0    0  501 -0.00000000000E+00 -0.00000000000E+00 -0.52383913058E+01  0.52383913058E+01  0.00000000000E+00 0.  1.
          1    1    1    2  502    0  0.36462904550E+02 -0.19309501451E+02  0.13354402744E+03  0.13977269948E+03  0.00000000000E+00 0. -1.
         -1    1    1    2    0  501 -0.36462904550E+02  0.19309501451E+02  0.19824740694E+03  0.20249551751E+03  0.00000000000E+00 0.  1.
</event>
<event>
 4    1  0.6769686E+001  0.2358835E+02  0.7546771E-02  0.1485239E+00
          2   -1    0    0  502    0  0.00000000000E+00  0.00000000000E+00  0.33717250312E+02  0.33717250312E+02  0.00000000000E+00 0.  1.
         -2   -1    0    0    0  501 -0.00000000000E+00 -0.00000000000E+00 -0.18157702471E+02  0.18157702471E+02  0.00000000000E+00 0. -1.
          1    1    1    2  502    0 -0.10052818320E+02  0.21338962316E+02 -0.51920374929E-01  0.23588411659E+02  0.00000000000E+00 0. -1.
         -1    1    1    2    0  501  0.10052818320E+02 -0.21338962316E+02  0.15611468216E+02  0.28286541123E+02  0.00000000000E+00 0.  1.
</event>
<event>
 4    1  0.6769686E+001  0.2546798E+02  0.7546771E-02  0.1463636E+00
          2   -1    0    0  502    0  0.00000000000E+00  0.00000000000E+00  0.82226471673E+00  0.82226471673E+00  0.00000000000E+00 0.  1.
         -2   -1    0    0    0  501 -0.00000000000E+00 -0.00000000000E+00 -0.82747787829E+03  0.82747787829E+03  0.00000000000E+00 0. -1.
          1    1    1    2  502    0 -0.14925497442E+02 -0.20636075940E+02 -0.50284442636E+03  0.50348896237E+03  0.00000000000E+00 0. -1.
         -1    1    1    2    0  501  0.14925497442E+02  0.20636075940E+02 -0.32381118721E+03  0.32481118064E+03  0.00000000000E+00 0.  1.
</event>
<event>
 4    1  0.6769686E+001  0.4401621E+02  0.7546771E-02  0.1326432E+00
          2   -1    0    0  502    0  0.00000000000E+00  0.00000000000E+00  0.37338599014E+03  0.37338599014E+03  0.00000000000E+00 0. -1.
         -2   -1    0    0    0  501 -0.00000000000E+00 -0.00000000000E+00 -0.10043270325E+02  0.10043270325E+02  0.00000000000E+00 0.  1.
          1    1    1    2  502    0 -0.39002604679E+02 -0.20401564336E+02  0.48384175794E+02  0.65409903428E+02  0.00000000000E+00 0.  1.
         -1    1    1    2    0  501  0.39002604679E+02  0.20401564336E+02  0.31495854402E+03  0.31801935704E+03  0.00000000000E+00 0. -1.
</event>
<event>
 4    1  0.6769686E+001  0.2364723E+02  0.7546771E-02  0.1484527E+00
          2   -1    0    0  502    0  0.00000000000E+00  0.00000000000E+00  0.29923306683E+03  0.29923306683E+03  0.00000000000E+00 0. -1.
         -2   -1    0    0    0  501 -0.00000000000E+00 -0.00000000000E+00 -0.20594072437E+01  0.20594072437E+01  0.00000000000E+00 0.  1.
          1    1    1    2  502    0 -0.18992274761E+02  0.14088472005E+02  0.10274997867E+03  0.10543599793E+03  0.00000000000E+00 0. -1.
         -1    1    1    2    0  501  0.18992274761E+02 -0.14088472005E+02  0.19442368092E+03  0.19585647614E+03  0.00000000000E+00 0.  1.
</event>
<event>
 4    1  0.6769686E+001  0.2704049E+02  0.7546771E-02  0.1447202E+00
          2   -1    0    0  502    0  0.00000000000E+00  0.00000000000E+00  0.25575214956E+01  0.25575214956E+01  0.00000000000E+00 0. -1.
         -2   -1    0    0    0  501 -0.00000000000E+00 -0.00000000000E+00 -0.62640626850E+03  0.62640626850E+03  0.00000000000E+00 0.  1.
          1    1    1    2  502    0  0.14174290279E+02 -0.23027762560E+02 -0.54378761970E+03  0.54445951520E+03  0.00000000000E+00 0.  1.
         -1    1    1    2    0  501 -0.14174290279E+02  0.23027762560E+02 -0.80061127309E+02  0.84504274800E+02  0.00000000000E+00 0. -1.
</event>
<event>
 4    1  0.6769686E+001  0.3066894E+02  0.7546771E-02  0.1413871E+00
          2   -1    0    0  502    0  0.00000000000E+00  0.00000000000E+00  0.74298452602E+02  0.74298452602E+02  0.00000000000E+00 0. -1.
         -2   -1    0    0    0  501 -0.00000000000E+00 -0.00000000000E+00 -0.12663531472E+02  0.12663531472E+02  0.00000000000E+00 0.  1.
          1    1    1    2  502    0  0.24104674191E+02 -0.18961758662E+02  0.30044700882E+02  0.42933293148E+02  0.00000000000E+00 0.  1.
         -1    1    1    2    0  501 -0.24104674191E+02  0.18961758662E+02  0.31590220248E+02  0.44028690926E+02  0.00000000000E+00 0. -1.
</event>
<event>
 4    1  0.6769686E+001  0.2606100E+02  0.7546771E-02  0.1457275E+00
          2   -1    0    0  502    0  0.00000000000E+00  0.00000000000E+00  0.13759834595E+04  0.13759834595E+04  0.00000000000E+00 0. -1.
         -2   -1    0    0    0  501 -0.00000000000E+00 -0.00000000000E+00 -0.93777316612E+00  0.93777316612E+00  0.00000000000E+00 0.  1.
          1    1    1    2  502    0 -0.19741151843E+02  0.17013608174E+02  0.21370683065E+03  0.21529000303E+03  0.00000000000E+00 0.  1.
         -1    1    1    2    0  501  0.19741151843E+02 -0.17013608174E+02  0.11613388556E+04  0.11616312296E+04  0.00000000000E+00 0. -1.
</event>
<event>
 4    1  0.6769686E+001  0.2054220E+02  0.7546771E-02  0.1525902E+00
          2   -1    0    0  502    0  0.00000000000E+00  0.00000000000E+00  0.11285157071E+04  0.11285157071E+04  0.00000000000E+00 0.  1.
         -2   -1    0    0    0  501 -0.00000000000E+00 -0.00000000000E+00 -0.83872907400E+00  0.83872907400E+00  0.00000000000E+00 0. -1.
          1    1    1    2  502    0 -0.73801081676E+01 -0.19170709356E+02  0.14347633247E+03  0.14493943588E+03  0.00000000000E+00 0. -1.
         -1    1    1    2    0  501  0.73801081676E+01  0.19170709356E+02  0.98420064560E+03  0.98441500033E+03  0.00000000000E+00 0.  1.
</event>
<event>
 4    1  0.6769686E+001  0.2202187E+02  0.7546771E-02  0.1505160E+00
          2   -1    0    0  502    0  0.00000000000E+00  0.00000000000E+00  0.20654762168E+04  0.20654762168E+04  0.00000000000E+00 0.  1.
         -2   -1    0    0    0  501 -0.00000000000E+00 -0.00000000000E+00 -0.24708202126E+00  0.24708202126E+00  0.00000000000E+00 0. -1.
          1    1    1    2  502    0 -0.17393918479E+02  0.13506081015E+02  0.12629455051E+04  0.12631374872E+04  0.00000000000E+00 0.  1.
         -1    1    1    2    0  501  0.17393918479E+02 -0.13506081015E+02  0.80228362962E+03  0.80258581160E+03  0.00000000000E+00 0. -1.
</event>
<event>
 4    1  0.6769686E+001  0.2119005E+02  0.7546771E-02  0.1516569E+00
          2   -1    0    0  502    0  0.00000000000E+00  0.00000000000E+00  0.45141386093E+03  0.45141386093E+03  0.00000000000E+00 0.  1.
         -2   -1    0    0    0  501 -0.00000000000E+00 -0.00000000000E+00 -0.10732568248E+01  0.10732568248E+01  0.00000000000E+00 0. -1.
          1    1    1    2  502    0  0.59918758694E+01  0.20325247827E+02  0.16395848290E+03  0.16532211707E+03  0.00000000000E+00 0.  1.
         -1    1    1    2    0  501 -0.59918758694E+01 -0.20325247827E+02  0.28638212120E+03  0.28716500069E+03  0.00000000000E+00 0. -1.
</event>
<event>
 4    1  0.6769686E+001  0.2778054E+02  0.7546771E-02  0.1439921E+00
          2   -1    0    0  502    0  0.00000000000E+00  0.00000000000E+00  0.45127081686E+03  0.45127081686E+03  0.00000000000E+00 0.  1.
         -2   -1    0    0    0  501 -0.00000000000E+00 -0.00000000000E+00 -0.17780538919E+01  0.17780538919E+01  0.00000000000E+00 0. -1.
          1    1    1    2  502    0 -0.76687305261E+01  0.26701100351E+02  0.18049094893E+03  0.18261637614E+03  0.00000000000E+00 0. -1.
         -1    1    1    2    0  501  0.76687305261E+01 -0.26701100351E+02  0.26900181404E+03  0.27043249462E+03  0.00000000000E+00 0.  1.
</event>
<event>
 4    1  0.6769686E+001  0.4148634E+02  0.7546771E-02  0.1339989E+00
          2   -1    0    0  502    0  0.00000000000E+00  0.00000000000E+00  0.70370894911E+03  0.70370894911E+03  0.00000000000E+00 0. -1.
         -2   -1    0    0    0  501 -0.00000000000E+00 -0.00000000000E+00 -0.37192835827E+01  0.37192835827E+01  0.00000000000E+00 0.  1.
          1    1    1    2  502    0 -0.41485304051E+02  0.29296848708E+00  0.55697230154E+03  0.55851522895E+03  0.00000000000E+00 0. -1.
         -1    1    1    2    0  501  0.41485304051E+02 -0.29296848708E+00  0.14301736398E+03  0.14891300374E+03  0.00000000000E+00 0.  1.
</event>
<event>
 4    1  0.6769686E+001  0.4206223E+02  0.7546771E-02  0.1336807E+00
          2   -1    0    0  502    0  0.00000000000E+00  0.00000000000E+00  0.19182452274E+02  0.19182452274E+02  0.00000000000E+00 0.  1.
         -2   -1    0    0    0  501 -0.00000000000E+00 -0.00000000000E+00 -0.93122470709E+02  0.93122470709E+02  0.00000000000E+00 0. -1.
          1    1    1    2  502    0 -0.40949539994E+02  0.96107257894E+01 -0.31478196521E+02  0.52536727459E+02  0.00000000000E+00 0.  1.
         -1    1    1    2    0  501  0.40949539994E+02 -0.96107257894E+01 -0.42461821915E+02  0.59768195524E+02  0.00000000000E+00 0. -1.
</event>
<event>
 4    1  0.6769686E+001  0.2038500E+02  0.7546771E-02  0.1528229E+00
          2   -1    0    0  502    0  0.00000000000E+00  0.00000000000E+00  0.24574294705E+03  0.24574294705E+03  0.00000000000E+00 0.  1.
         -2   -1    0    0    0  501 -0.00000000000E+00 -0.00000000000E+00 -0.19561381769E+01  0.19561381769E+01  0.00000000000E+00 0. -1.
          1    1    1    2  502    0 -0.10208560412E+01 -0.20359423072E+02  0.76295907597E+02  0.78972234177E+02  0.00000000000E+00 0.  1.
         -1    1    1    2    0  501  0.10208560412E+01  0.20359423072E+02  0.16749090128E+03  0.16872685105E+03  0.00000000000E+00 0. -1.
</event>
<event>
 4    1  0.6769686E+001  0.2021775E+02  0.7546771E-02  0.1530733E+00
          2   -1    0    0  502    0  0.00000000000E+00  0.00000000000E+00  0.11054849799E+04  0.11054849799E+04  0.00000000000E+00 0.  1.
         -2   -1    0    0    0  501 -0.00000000000E+00 -0.00000000000E+00 -0.42078793501E+00  0.42078793501E+00  0.00000000000E+00 0. -1.
          1    1    1    2  502    0  0.19515971005E+02  0.52805542713E+01  0.74510113400E+03  0.74537538010E+03  0.00000000000E+00 0. -1.
         -1    1    1    2    0  501 -0.19515971005E+02 -0.52805542713E+01  0.35996305797E+03  0.36053038774E+03  0.00000000000E+00 0.  1.
</event>
<event>
 4    1  0.6769686E+001  0.2506648E+02  0.7546771E-02  0.1468061E+00
          2   -1    0    0  502    0  0.00000000000E+00  0.00000000000E+00  0.36004269596E+03  0.36004269596E+03  0.00000000000E+00 0. -1.
         -2   -1    0    0    0  501 -0.00000000000E+00 -0.00000000000E+00 -0.60542399364E+01  0.60542399364E+01  0.00000000000E+00 0.  1.
          1    1    1    2  502    0  0.22464902091E+02 -0.11120106143E+02  0.33142329682E+03  0.33236986967E+03  0.00000000000E+00 0. -1.
         -1    1    1    2    0  501 -0.22464902091E+02  0.11120106143E+02  0.22565159201E+02  0.33727066228E+02  0.00000000000E+00 0.  1.
</event>
<event>
 4    1  0.6769686E+001  0.2025292E+02  0.7546771E-02  0.1530204E+00
          2   -1    0    0  502    0  0.00000000000E+00  0.00000000000E+00  0.16102479833E+03  0.16102479833E+03  0.00000000000E+00 0.  1.
         -2   -1    0    0    0  501 -0.00000000000E+00 -0.00000000000E+00 -0.26917343375E+01  0.26917343375E+01  0.00000000000E+00 0. -1.
          1    1    1    2  502    0 -0.89471557220E+01 -0.18169452773E+02  0.98127551442E+02  0.10019579313E+03  0.00000000000E+00 0.  1.
         -1    1    1    2    0  501  0.89471557220E+01  0.18169452773E+02  0.60205512555E+02  0.63520739539E+02  0.00000000000E+00 0. -1.
</event>
<event>
 4    1  0.6769686E+001  0.2352382E+02  0.7546771E-02  0.1486023E+00
          2   -1    0    0  502    0  0.00000000000E+00  0.00000000000E+00  0.36518278922E+03  0.36518278922E+03  0.00000000000E+00 0.  1.
         -2   -1    0    0    0  501 -0.00000000000E+00 -0.00000000000E+00 -0.22593853044E+01  0.22593853044E+01  0.00000000000E+00 0. -1.
          1    1    1    2  502    0 -0.78949927570E+01 -0.22159408099E+02  0.28689266908E+03  0.28785547389E+03  0.00000000000E+00 0.  1.
         -1    1    1    2    0  501  0.78949927570E+01  0.22159408099E+02  0.76030734842E+02  0.79586700639E+02  0.00000000000E+00 0. -1.
</event>
<event>
 4    1  0.6769686E+001  0.2685942E+02  0.7546771E-02  0.1449025E+00
          2   -1    0    0  502    0  0.00000000000E+00  0.00000000000E+00  0.27200493028E+03  0.27200493028E+03  0.00000000000E+00 0.  1.
         -2   -1    0    0    0  501 -0.00000000000E+00 -0.00000000000E+00 -0.32943968823E+01  0.32943968823E+01  0.00000000000E+00 0. -1.
          1    1    1    2  502    0  0.16323135626E+02  0.21330341035E+02  0.19512684202E+03  0.19696678066E+03  0.00000000000E+00 0.  1.
         -1    1    1    2    0  501 -0.16323135626E+02 -0.21330341035E+02  0.73583691373E+02  0.78332546501E+02  0.00000000000E+00 0. -1.
</event>
<event>
 4    1  0.6769686E+001  0.3420592E+02  0.7546771E-02  0.1386233E+00
          2   -1    0    0  502    0  0.00000000000E+00  0.00000000000E+00  0.94475873033E+01  0.94475873033E+01  0.00000000000E+00 0. -1.
         -2   -1    0    0    0  501 -0.00000000000E+00 -0.00000000000E+00 -0.13214258906E+03  0.13214258906E+03  0.00000000000E+00 0.  1.
          1    1    1    2  502    0  0.55557854730E+01  0.33751711097E+02 -0.79086727318E+02  0.86167019167E+02  0.00000000000E+00 0. -1.
         -1    1    1    2    0  501 -0.55557854730E+01 -0.33751711097E+02 -0.43608274441E+02  0.55423157199E+02  0.00000000000E+00 0.  1.
</event>
<event>
 4    1  0.6769686E+001  0.2237872E+02  0.7546771E-02  0.1500451E+00
          2   -1    0    0  502    0  0.00000000000E+00  0.00000000000E+00  0.54784728617E+02  0.54784728617E+02  0.00000000000E+00 0. -1.
         -2   -1    0    0    0  501 -0.00000000000E+00 -0.00000000000E+00 -0.11518202427E+02  0.11518202427E+02  0.00000000000E+00 0.  1.
          1    1    1    2  502    0  0.32569345800E+01 -0.22140446002E+02  0.36692761217E+02  0.42978665612E+02  0.00000000000E+00 0.  1.
         -1    1    1    2    0  501 -0.32569345800E+01  0.22140446002E+02  0.65737649733E+01  0.23324265432E+02  0.00000000000E+00 0. -1.
</event>
<event>
 4    1  0.6769686E+001  0.2429023E+02  0.7546771E-02  0.1476902E+00
          2   -1    0    0  502    0  0.00000000000E+00  0.00000000000E+00  0.10252975261E+04  0.10252975261E+04  0.00000000000E+00 0. -1.
         -2   -1    0    0    0  501 -0.00000000000E+00 -0.00000000000E+00 -0.78334046840E+00  0.78334046840E+00  0.00000000000E+00 0.  1.
          1    1    1    2  502    0 -0.54253147372E+01  0.23676598864E+02  0.77655001940E+03  0.77692982180E+03  0.00000000000E+00 0. -1.
         -1    1    1    2    0  501  0.54253147372E+01 -0.23676598864E+02  0.24796416626E+03  0.24915104479E+03  0.00000000000E+00 0.  1.
</event>
<event>
 4    1  0.6769686E+001  0.2240667E+02  0.7546771E-02  0.1500086E+00
          2   -1    0    0  502    0  0.00000000000E+00  0.00000000000E+00  0.47089189371E+02  0.47089189371E+02  0.00000000000E+00 0. -1.
         -2   -1    0    0    0  501 -0.00000000000E+00 -0.00000000000E+00 -0.29827284859E+02  0.29827284859E+02  0.00000000000E+00 0.  1.
          1    1    1    2  502    0  0.21870559351E+02 -0.48721306187E+01 -0.22196779696E+02  0.31539753518E+02  0.00000000000E+00 0.  1.
         -1    1    1    2    0  501 -0.21870559351E+02  0.48721306187E+01  0.39458684208E+02  0.45376720711E+02  0.00000000000E+00 0. -1.
</event>
<event>
 4    1  0.6769686E+001  0.4061859E+02  0.7546771E-02  0.1344899E+00
          2   -1    0    0  502    0  0.00000000000E+00  0.00000000000E+00  0.26481720660E+03  0.26481720660E+03  0.00000000000E+00 0. -1.
         -2   -1    0    0    0  501 -0.00000000000E+00 -0.00000000000E+00 -0.77110768255E+01  0.77110768255E+01  0.00000000000E+00 0.  1.
          1    1    1    2  502    0  0.30219987355E+02 -0.27140781513E+02  0.68838469353E+02  0.79928746517E+02  0.00000000000E+00 0. -1.
         -1    1    1    2    0  501 -0.30219987355E+02  0.27140781513E+02  0.18826766042E+03  0.19259953690E+03  0.00000000000E+00 0.  1.
</event>
<event>
 4    1  0.6769686E+001  0.3032555E+02  0.7546771E-02  0.1416788E+00
          2   -1    0    0  502    0  0.00000000000E+00  0.00000000000E+00  0.69115630531E+02  0.69115630531E+02  0.00000000000E+00 0.  1.
         -2   -1    0    0    0  501 -0.00000000000E+00 -0.00000000000E+00 -0.15641392629E+02  0.15641392629E+02  0.00000000000E+00 0. -1.
          1    1    1    2  502    0  0.29804660701E+02  0.55965591540E+01  0.10361193870E+02  0.32046741055E+02  0.00000000000E+00 0. -1.
         -1    1    1    2    0  501 -0.29804660701E+02 -0.55965591540E+01  0.43113044032E+02  0.52710282104E+02  0.00000000000E+00 0.  1.
</event>
<event>
 4    1  0.6769686E+001  0.2297118E+02  0.7546771E-02  0.1492860E+00
          2   -1    0    0  502    0  0.00000000000E+00  0.00000000000E+00  0.39205333307E+03  0.39205333307E+03  0.00000000000E+00 0.  1.
         -2   -1    0    0    0  501 -0.00000000000E+00 -0.00000000000E+00 -0.71501656049E+01  0.71501656049E+01  0.00000000000E+00 0. -1.
          1    1    1    2  502    0 -0.22522763119E+02  0.45166789760E+01  0.12614639754E+02  0.26206952963E+02  0.00000000000E+00 0. -1.
         -1    1    1    2    0  501  0.22522763119E+02 -0.45166789760E+01  0.37228852771E+03  0.37299654571E+03  0.00000000000E+00 0.  1.
</event>
<event>
 4    1  0.6769686E+001  0.2127589E+02  0.7546771E-02  0.1515362E+00
          2   -1    0    0  502    0  0.00000000000E+00  0.00000000000E+00  0.19798695485E+04  0.19798695485E+04  0.00000000000E+00 0.  1.
         -2   -1    0    0    0  501 -0.00000000000E+00 -0.00000000000E+00 -0.24898088766E+00  0.24898088766E+00  0.00000000000E+00 0. -1.
          1    1    1    2  502    0 -0.86845175016E+01  0.19422739511E+02  0.12728432992E+04  0.12730211027E+04  0.00000000000E+00 0.  1.
         -1    1    1    2    0  501  0.86845175016E+01 -0.19422739511E+02  0.70677726838E+03  0.70709742663E+03  0.00000000000E+00 0. -1.
</event>
<event>
 4    1  0.6769686E+001  0.4902901E+02  0.7546771E-02  0.1302438E+00
          2   -1    0    0  502    0  0.00000000000E+00  0.00000000000E+00  0.72830082390E+02  0.72830082390E+02  0.00000000000E+00 0. -1.
         -2   -1    0    0    0  501 -0.00000000000E+00 -0.00000000000E+00 -0.33446196646E+02  0.33446196646E+02  0.00000000000E+00 0.  1.
          1    1    1    2  502    0 -0.11640789700E+02  0.47627050202E+02  0.13597132990E+02  0.50879523596E+02  0.00000000000E+00 0.  1.
         -1    1    1    2    0  501  0.11640789700E+02 -0.47627050202E+02  0.25786752754E+02  0.55396755441E+02  0.00000000000E+00 0. -1.
</event>
<event>
 4    1  0.6769686E+001  0.2485202E+02  0.7546771E-02  0.1470466E+00
          2   -1    0    0  502    0  0.00000000000E+00  0.00000000000E+00  0.20450587684E+04  0.20450587684E+04  0.00000000000E+00 0.  1.
         -2   -1    0    0    0  501 -0.00000000000E+00 -0.00000000000E+00 -0.43317986682E+00  0.43317986682E+00  0.00000000000E+00 0. -1.
          1    1    1    2  502    0 -0.70691396809E+01  0.23825405309E+02  0.15851141797E+04  0.15853089874E+04  0.00000000000E+00 0.  1.
         -1    1    1    2    0  501  0.70691396809E+01 -0.23825405309E+02  0.45951140882E+03  0.46018296091E+03  0.00000000000E+00 0. -1.
</event>
<event>
 4    1  0.6769686E+001  0.2526758E+02  0.7546771E-02  0.1465832E+00
          2   -1    0    0  502    0  0.00000000000E+00  0.00000000000E+00  0.14242608762E+03  0.14242608762E+03  0.00000000000E+00 0.  1.
         -2   -1    0    0    0  501 -0.00000000000E+00 -0.00000000000E+00 -0.46553148439E+01  0.46553148439E+01  0.00000000000E+00 0. -1.
          1    1    1    2  502    0  0.12646671604E+02 -0.21874925495E+02  0.83047127115E+02  0.86805967480E+02  0.00000000000E+00 0.  1.
         -1    1    1    2    0  501 -0.12646671604E+02  0.21874925495E+02  0.54723645659E+02  0.60275434982E+02  0.00000000000E+00 0. -1.
</event>
<event>
 4    1  0.6769686E+001  0.2712324E+02  0.7546771E-02  0.1446374E+00
          2   -1    0    0  502    0  0.00000000000E+00  0.00000000000E+00  0.12450940878E+03  0.12450940878E+03  0.00000000000E+00 0. -1.
         -2   -1    0    0    0  501 -0.00000000000E+00 -0.00000000000E+00 -0.71480518366E+01  0.71480518366E+01  0.00000000000E+00 0.  1.
          1    1    1    2  502    0 -0.19392526427E+02 -0.18963118702E+02  0.86092972489E+02  0.90264444075E+02  0.00000000000E+00 0. -1.
         -1    1    1    2    0  501  0.19392526427E+02  0.18963118702E+02  0.31268384458E+02  0.41393016546E+02  0.00000000000E+00 0.  1.
</event>
<event>
 4    1  0.6769686E+001  0.3455768E+02  0.7546771E-02  0.1383700E+00
          2   -1    0    0  502    0  0.00000000000E+00  0.00000000000E+00  0.17121668572E+03  0.17121668572E+03  0.00000000000E+00 0.  1.
         -2   -1    0    0    0  501 -0.00000000000E+00 -0.00000000000E+00 -0.79727162388E+01  0.79727162388E+01  0.00000000000E+00 0. -1.
          1    1    1    2  502    0  0.14231977800E+02  0.31491015306E+02  0.11331668800E+03  0.11846900445E+03  0.00000000000E+00 0. -1.
         -1    1    1    2    0  501 -0.14231977800E+02 -0.31491015306E+02  0.49927281489E+02  0.60720397512E+02  0.00000000000E+00 0.  1.
</event>
<event>
 4    1  0.6769686E+001  0.2088170E+02  0.7546771E-02  0.1520961E+00
          2   -1    0    0  502    0  0.00000000000E+00  0.00000000000E+00  0.18636076922E+03  0.18636076922E+03  0.00000000000E+00 0. -1.
         -2   -1    0    0    0  501 -0.00000000000E+00 -0.00000000000E+00 -0.23638519318E+01  0.23638519318E+01  0.00000000000E+00 0.  1.
          1    1    1    2  502    0 -0.20601967759E+02 -0.34065392885E+01  0.82478645283E+02  0.85080976212E+02  0.00000000000E+00 0.  1.
         -1    1    1    2    0  501  0.20601967759E+02  0.34065392885E+01  0.10151827201E+03  0.10364364494E+03  0.00000000000E+00 0. -1.
</event>
<event>
 4    1  0.6769686E+001  0.4019788E+02  0.7546771E-02  0.1347330E+00
          2   -1    0    0  502    0  0.00000000000E+00  0.00000000000E+00  0.17046604316E+03  0.17046604316E+03  0.00000000000E+00 0.  1.
         -2   -1    0    0    0  501 -0.00000000000E+00 -0.00000000000E+00 -0.95048186226E+01  0.95048186226E+01  0.00000000000E+00 0. -1.
          1    1    1    2  502    0  0.22876336273E+02  0.33053629205E+02  0.85159055655E+02  0.94169708107E+02  0.00000000000E+00 0.  1.
         -1    1    1    2    0  501 -0.22876336273E+02 -0.33053629205E+02  0.75802168886E+02  0.85801153680E+02  0.00000000000E+00 0. -1.
</event>
<event>
 4    1  0.6769686E+001  0.2321929E+02  0.7546771E-02  0.1489763E+00
          2   -1    0    0  502    0  0.00000000000E+00  0.00000000000E+00  0.21507604408E+04  0.21507604408E+04  0.00000000000E+00 0. -1.
         -2   -1    0    0    0  501 -0.00000000000E+00 -0.00000000000E+00 -0.26954554464E+00  0.26954554464E+00  0.00000000000E+00 0.  1.
          1    1    1    2  502    0  0.20697245376E+02  0.10524237536E+02  0.13598399334E+04  0.13600381539E+04  0.00000000000E+00 0. -1.
         -1    1    1    2    0  501 -0.20697245376E+02 -0.10524237536E+02  0.79065096184E+03  0.79099183245E+03  0.00000000000E+00 0.  1.
</event>
<event>
 4    1  0.6769686E+001  0.3361979E+02  0.7546771E-02  0.1390535E+00
          2   -1    0    0  502    0  0.00000000000E+00  0.00000000000E+00  0.58441141341E+02  0.58441141341E+02  0.00000000000E+00 0. -1.
         -2   -1    0    0    0  501 -0.00000000000E+00 -0.00000000000E+00 -0.24047784385E+02  0.24047784385E+02  0.00000000000E+00 0.  1.
          1    1    1    2  502    0  0.12992305185E+02  0.31007909292E+02 -0.10509237891E+01  0.33636213721E+02  0.00000000000E+00 0.  1.
         -1    1    1    2    0  501 -0.12992305185E+02 -0.31007909292E+02  0.35444280745E+02  0.48852712004E+02  0.00000000000E+00 0. -1.
</event>
<event>
 4    1  0.6769686E+001  0.2376367E+02  0.7546771E-02  0.1483125E+00
          2   -1    0    0  502    0  0.00000000000E+00  0.00000000000E+00  0.52558094171E+02  0.52558094171E+02  0.00000000000E+00 0.  1.
         -2   -1    0    0    0  501 -0.00000000000E+00 -0.00000000000E+00 -0.15612747579E+02  0.15612747579E+02  0.00000000000E+00 0. -1.
          1    1    1    2  502    0 -0.17325905743E+02 -0.16264229371E+02 -0.56061635879E+00  0.23770285180E+02  0.00000000000E+00 0. -1.
         -1    1    1    2    0  501  0.17325905743E+02  0.16264229371E+02  0.37505962951E+02  0.44400556570E+02  0.00000000000E+00 0.  1.
</event>
<event>
 4    1  0.6769686E+001  0.2062601E+02  0.7546771E-02  0.1524672E+00
          2   -1    0    0  502    0  0.00000000000E+00  0.00000000000E+00  0.34523395950E+00  0.34523395950E+00  0.00000000000E+00 0.  1.
         -2   -1    0    0    0  501 -0.00000000000E+00 -0.00000000000E+00 -0.13010798589E+04  0.13010798589E+04  0.00000000000E+00 0. -1.
          1    1    1    2  502    0  0.14626795013E+02  0.14542669629E+02 -0.50075660171E+03  0.50118121127E+03  0.00000000000E+00 0. -1.
         -1    1    1    2    0  501 -0.14626795013E+02 -0.14542669629E+02 -0.79997802325E+03  0.80024388161E+03  0.00000000000E+00 0.  1.
</event>
<event>
 4    1  0.6769686E+001  0.2732133E+02  0.7546771E-02  0.1444407E+00
          2   -1    0    0  502    0  0.00000000000E+00  0.00000000000E+00  0.18500322360E+02  0.18500322360E+02  0.00000000000E+00 0.  1.
         -2   -1    0    0    0  501 -0.00000000000E+00 -0.00000000000E+00 -0.45449876852E+02  0.45449876852E+02  0.00000000000E+00 0. -1.
          1    1    1    2  502    0  0.26546726724E+02  0.64595769120E+01 -0.24187546032E+02  0.36489617930E+02  0.00000000000E+00 0. -1.
         -1    1    1    2    0  501 -0.26546726724E+02 -0.64595769120E+01 -0.27620084599E+01  0.27460581282E+02  0.00000000000E+00 0.  1.
</event>
<event>
 4    1  0.6769686E+001  0.2038290E+02  0.7546771E-02  0.1528261E+00
          2   -1    0    0  502    0  0.00000000000E+00  0.00000000000E+00  0.46948736721E+03  0.46948736721E+03  0.00000000000E+00 0. -1.
         -2   -1    0    0    0  501 -0.00000000000E+00 -0.00000000000E+00 -0.16767891567E+01  0.16767891567E+01  0.00000000000E+00 0.  1.
          1    1    1    2  502    0  0.97370850706E+01  0.17906757223E+02  0.72012544171E+02  0.74841628109E+02  0.00000000000E+00 0.  1.
         -1    1    1    2    0  501 -0.97370850706E+01 -0.17906757223E+02  0.39579803389E+03  0.39632252826E+03  0.00000000000E+00 0. -1.
</event>
<event>
 4    1  0.6769686E+001  0.2470066E+02  0.7546771E-02  0.1472180E+00
          2   -1    0    0  502    0  0.00000000000E+00  0.00000000000E+00  0.20704455467E+03  0.20704455467E+03  0.00000000000E+00 0. -1.
         -2   -1    0    0    0  501 -0.00000000000E+00 -0.00000000000E+00 -0.33185105300E+01  0.33185105300E+01  0.00000000000E+00 0.  1.
          1    1    1    2  502    0  0.23949650340E+02  0.60445851399E+01  0.13706437983E+03  0.13927227642E+03  0.00000000000E+00 0.  1.
         -1    1    1    2    0  501 -0.23949650340E+02 -0.60445851399E+01  0.66661664316E+02  0.71090788786E+02  0.00000000000E+00 0. -1.
</event>
<event>
 4    1  0.6769686E+001  0.2650668E+02  0.7546771E-02  0.1452628E+00
          2   -1    0    0  502    0  0.00000000000E+00  0.00000000000E+00  0.20689250558E+04  0.20689250558E+04  0.00000000000E+00 0.  1.
         -2   -1    0    0    0  501 -0.00000000000E+00 -0.00000000000E+00 -0.33986460586E+00  0.33986460586E+00  0.00000000000E+00 0. -1.
          1    1    1    2  502    0  0.24368968201E+02 -0.10428682264E+02  0.10053465268E+04  0.10056958998E+04  0.00000000000E+00 0.  1.
         -1    1    1    2    0  501 -0.24368968201E+02  0.10428682264E+02  0.10632386645E+04  0.10635690206E+04  0.00000000000E+00 0. -1.
</event>
<event>
 4    1  0.6769686E+001  0.2219018E+02  0.7546771E-02  0.1502925E+00
          2   -1    0    0  502    0  0.00000000000E+00  0.00000000000E+00  0.27156188057E+03  0.27156188057E+03  0.00000000000E+00 0. -1.
         -2   -1    0    0    0  501 -0.00000000000E+00 -0.00000000000E+00 -0.19728950138E+01  0.19728950138E+01  0.00000000000E+00 0.  1.
          1    1    1    2  502    0 -0.22184818876E+02  0.48773550878E+00  0.17370221598E+03  0.17511385985E+03  0.00000000000E+00 0. -1.
         -1    1    1    2    0  501  0.22184818876E+02 -0.48773550878E+00  0.95886769571E+02  0.98420915731E+02  0.00000000000E+00 0.  1.
</event>
<event>
 4    1  0.6769686E+001  0.2018089E+02  0.7546771E-02  0.1531288E+00
          2   -1    0    0  502    0  0.00000000000E+00  0.00000000000E+00  0.39517746684E+03  0.39517746684E+03  0.00000000000E+00 0.  1.
         -2   -1    0    0    0  501 -0.00000000000E+00 -0.00000000000E+00 -0.11243201407E+01  0.11243201407E+01  0.00000000000E+00 0. -1.
          1    1    1    2  502    0 -0.19994332684E+02 -0.27376806181E+01  0.13981587435E+03  0.14126481145E+03  0.00000000000E+00 0.  1.
         -1    1    1    2    0  501  0.19994332684E+02  0.27376806181E+01  0.25423727236E+03  0.25503697553E+03  0.00000000000E+00 0. -1.
</event>
<event>
 4    1  0.6769686E+001  0.3275021E+02  0.7546771E-02  0.1397109E+00
          2   -1    0    0  502    0  0.00000000000E+00  0.00000000000E+00  0.26235891177E+03  0.26235891177E+03  0.00000000000E+00 0. -1.
         -2   -1    0    0    0  501 -0.00000000000E+00 -0.00000000000E+00 -0.45332474225E+01  0.45332474225E+01  0.00000000000E+00 0.  1.
          1    1    1    2  502    0  0.32737806421E+02  0.90139760564E+00  0.17072501062E+03  0.17383787199E+03  0.00000000000E+00 0.  1.
         -1    1    1    2    0  501 -0.32737806421E+02 -0.90139760564E+00  0.87100653726E+02  0.93054287200E+02  0.00000000000E+00 0. -1.
</event>
<event>
 4    1  0.6769686E+001  0.3973801E+02  0.7546771E-02  0.1350028E+00
          2   -1    0    0  502    0  0.00000000000E+00  0.00000000000E+00  0.43769847861E+03  0.43769847861E+03  0.00000000000E+00 0. -1.
         -2   -1    0    0    0  501 -0.00000000000E+00 -0.00000000000E+00 -0.42317926154E+01  0.42317926154E+01  0.00000000000E+00 0.  1.
          1    1    1    2  502    0  0.48100763282E+01 -0.39445816552E+02  0.30158623149E+03  0.30419297215E+03  0.00000000000E+00 0. -1.
         -1    1    1    2    0  501 -0.48100763282E+01  0.39445816552E+02  0.13188045450E+03  0.13773729908E+03  0.00000000000E+00 0.  1.
</event>
<event>
 4    1  0.6769686E+001  0.2895184E+02  0.7546771E-02  0.1428929E+00
          2   -1    0    0  502    0  0.00000000000E+00  0.00000000000E+00  0.20778649394E+01  0.20778649394E+01  0.00000000000E+00 0. -1.
         -2   -1    0    0    0  501 -0.00000000000E+00 -0.00000000000E+00 -0.53748017674E+03  0.53748017674E+03  0.00000000000E+00 0.  1.
          1    1    1    2  502    0  0.18504303931E-01  0.28951838778E+02 -0.40244543363E+03  0.40348548470E+03  0.00000000000E+00 0.  1.
         -1    1    1    2    0  501 -0.18504303931E-01 -0.28951838778E+02 -0.13295687817E+03  0.13607255698E+03  0.00000000000E+00 0. -1.
</event>
<event>
 4    1  0.6769686E+001  0.4544575E+02  0.7546771E-02  0.1319225E+00
          2   -1    0    0  502    0  0.00000000000E+00  0.00000000000E+00  0.79967202023E+02  0.79967202023E+02  0.00000000000E+00 0.  1.
         -2   -1    0    0    0  501 -0.00000000000E+00 -0.00000000000E+00 -0.27031964088E+02  0.27031964088E+02  0.00000000000E+00 0. -1.
          1    1    1    2  502    0 -0.92840185742E+01  0.44487341654E+02  0.15172509575E+02  0.47911602093E+02  0.00000000000E+00 0.  1.
         -1    1    1    2    0  501  0.92840185742E+01 -0.44487341654E+02  0.37762728361E+02  0.59087564018E+02  0.00000000000E+00 0. -1.
</event>
<event>
 4    1  0.6769686E+001  0.2339528E+02  0.7546771E-02  0.1487593E+00
          2   -1    0    0  502    0  0.00000000000E+00  0.00000000000E+00  0.37233590413E+03  0.37233590413E+03  0.00000000000E+00 0.  1.
         -2   -1    0    0    0  501 -0.00000000000E+00 -0.00000000000E+00 -0.14951914504E+02  0.14951914504E+02  0.00000000000E+00 0. -1.
          1    1    1    2  502    0  0.10428255194E+02 -0.20942556196E+02  0.36257051096E+03  0.36332453067E+03  0.00000000000E+00 0.  1.
         -1    1    1    2    0  501 -0.10428255194E+02  0.20942556196E+02 -0.51865213374E+01  0.23963287963E+02  0.00000000000E+00 0. -1.
</event>
<event>
 4    1  0.6769686E+001  0.2031908E+02  0.7546771E-02  0.1529213E+00
          2   -1    0    0  502    0  0.00000000000E+00  0.00000000000E+00  0.10208119189E+02  0.10208119189E+02  0.00000000000E+00 0.  1.
         -2   -1    0    0    0  501 -0.00000000000E+00 -0.00000000000E+00 -0.51034019782E+02  0.51034019782E+02  0.00000000000E+00 0. -1.
          1    1    1    2  502    0  0.12965515617E+02  0.15644820801E+02 -0.64645917678E+01  0.21322663057E+02  0.00000000000E+00 0.  1.
         -1    1    1    2    0  501 -0.12965515617E+02 -0.15644820801E+02 -0.34361308825E+02  0.39919475915E+02  0.00000000000E+00 0. -1.
</event>
<event>
 4    1  0.6769686E+001  0.3405179E+02  0.7546771E-02  0.1387355E+00
          2   -1    0    0  502    0  0.00000000000E+00  0.00000000000E+00  0.60915730391E+03  0.60915730391E+03  0.00000000000E+00 0.  1.
         -2   -1    0    0    0  501 -0.00000000000E+00 -0.00000000000E+00 -0.34672136524E+01  0.34672136524E+01  0.00000000000E+00 0. -1.
          1    1    1    2  502    0  0.11504780514E+02  0.32049405452E+02  0.50855446812E+03  0.50969321304E+03  0.00000000000E+00 0.  1.
         -1    1    1    2    0  501 -0.11504780514E+02 -0.32049405452E+02  0.97135622128E+02  0.10293130452E+03  0.00000000000E+00 0. -1.
</event>
<event>
 4    1  0.6769686E+001  0.3663906E+02  0.7546771E-02  0.1369392E+00
          2   -1    0    0  502    0  0.00000000000E+00  0.00000000000E+00  0.26324798255E+02  0.26324798255E+02  0.00000000000E+00 0.  1.
         -2   -1    0    0    0  501 -0.00000000000E+00 -0.00000000000E+00 -0.51764438278E+02  0.51764438278E+02  0.00000000000E+00 0. -1.
          1    1    1    2  502    0  0.34318956737E+02  0.12830813896E+02 -0.17481567890E+02  0.40595883937E+02  0.00000000000E+00 0.  1.
         -1    1    1    2    0  501 -0.34318956737E+02 -0.12830813896E+02 -0.79580721327E+01  0.37493352595E+02  0.00000000000E+00 0. -1.
</event>
<event>
 4    1  0.6769686E+001  0.2091771E+02  0.7546771E-02  0.1520443E+00
          2   -1    0    0  502    0  0.00000000000E+00  0.00000000000E+00  0.49780561113E+03  0.49780561113E+03  0.00000000000E+00 0. -1.
         -2   -1    0    0    0  501 -0.00000000000E+00 -0.00000000000E+00 -0.14421645257E+01  0.14421645257E+01  0.00000000000E+00 0.  1.
          1    1    1    2  502    0 -0.52734203709E+01 -0.20242074538E+02  0.92186130019E+02  0.94529535659E+02  0.00000000000E+00 0.  1.
         -1    1    1    2    0  501  0.52734203709E+01  0.20242074538E+02  0.40417731659E+03  0.40471824000E+03  0.00000000000E+00 0. -1.
</event>
<event>
 4    1  0.6769686E+001  0.2404056E+02  0.7546771E-02  0.1479829E+00
          2   -1    0    0  502    0  0.00000000000E+00  0.00000000000E+00  0.63321067973E+03  0.63321067973E+03  0.00000000000E+00 0. -1.
         -2   -1    0    0    0  501 -0.00000000000E+00 -0.00000000000E+00 -0.92537541694E+00  0.92537541694E+00  0.00000000000E+00 0.  1.
          1    1    1    2  502    0  0.22933869256E+02  0.72101335660E+01  0.27907336437E+03  0.28010692795E+03  0.00000000000E+00 0.  1.
         -1    1    1    2    0  501 -0.22933869256E+02 -0.72101335660E+01  0.35321193994E+03  0.35402912720E+03  0.00000000000E+00 0. -1.
</event>
<event>
 4    1  0.6769686E+001  0.2084248E+02  0.7546771E-02  0.1521526E+00
          2   -1    0    0  502    0  0.00000000000E+00  0.00000000000E+00  0.14604155384E+03  0.14604155384E+03  0.00000000000E+00 0. -1.
         -2   -1    0    0    0  501 -0.00000000000E+00 -0.00000000000E+00 -0.31236941201E+01  0.31236941201E+01  0.00000000000E+00 0.  1.
          1    1    1    2  502    0  0.82866043664E+01 -0.19124363044E+02  0.87755447623E+02  0.90196605597E+02  0.00000000000E+00 0. -1.
         -1    1    1    2    0  501 -0.82866043664E+01  0.19124363044E+02  0.55162412100E+02  0.58968642366E+02  0.00000000000E+00 0.  1.
</event>
<event>
 4    1  0.6769686E+001  0.4215149E+02  0.7546771E-02  0.1336319E+00
          2   -1    0    0  502    0  0.00000000000E+00  0.00000000000E+00  0.31814766966E+04  0.31814766966E+04  0.00000000000E+00 0.  1.
         -2   -1    0    0    0  501 -0.00000000000E+00 -0.00000000000E+00 -0.72597364818E+00  0.72597364818E+00  0.00000000000E+00 0. -1.
          1    1    1    2  502    0 -0.39595269277E+02  0.14455546637E+02  0.23546581425E+04  0.23550353959E+04  0.00000000000E+00 0.  1.
         -1    1    1    2    0  501  0.39595269277E+02 -0.14455546637E+02  0.82609258050E+03  0.82716727433E+03  0.00000000000E+00 0. -1.
</event>
<event>
 4    1  0.6769686E+001  0.3263506E+02  0.7546771E-02  0.1397998E+00
          2   -1    0    0  502    0  0.00000000000E+00  0.00000000000E+00  0.12395807663E+04  0.12395807663E+04  0.00000000000E+00 0.  1.
         -2   -1    0    0    0  501 -0.00000000000E+00 -0.00000000000E+00 -0.91906116432E+00  0.91906116432E+00  0.00000000000E+00 0. -1.
          1    1    1    2  502    0 -0.10994506270E+02  0.30727316718E+02  0.77762648742E+03  0.77831099253E+03  0.00000000000E+00 0.  1.
         -1    1    1    2    0  501  0.10994506270E+02 -0.30727316718E+02  0.46103521769E+03  0.46218883490E+03  0.00000000000E+00 0. -1.
</event>
<event>
 4    1  0.6769686E+001  0.2925704E+02  0.7546771E-02  0.1426164E+00
          2   -1    0    0  502    0  0.00000000000E+00  0.00000000000E+00  0.24263265931E+01  0.24263265931E+01  0.00000000000E+00 0. -1.
         -2   -1    0    0    0  501 -0.00000000000E+00 -0.00000000000E+00 -0.10739067514E+04  0.10739067514E+04  0.00000000000E+00 0.  1.
          1    1    1    2  502    0  0.90008098756E+01 -0.27838100970E+02 -0.97673895726E+03  0.97717703875E+03  0.00000000000E+00 0.  1.
         -1    1    1    2    0  501 -0.90008098756E+01  0.27838100970E+02 -0.94741467535E+02  0.99156039225E+02  0.00000000000E+00 0. -1.
</event>
<event>
 4    1  0.6769686E+001  0.2652623E+02  0.7546771E-02  0.1452426E+00
          2   -1    0    0  502    0  0.00000000000E+00  0.00000000000E+00  0.10636483268E+03  0.10636483268E+03  0.00000000000E+00 0. -1.
         -2   -1    0    0    0  501 -0.00000000000E+00 -0.00000000000E+00 -0.98351881163E+01  0.98351881163E+01  0.00000000000E+00 0.  1.
          1    1    1    2  502    0 -0.48682562385E+01  0.26075675949E+02  0.81507941490E+02  0.85715723884E+02  0.00000000000E+00 0. -1.
         -1    1    1    2    0  501  0.48682562385E+01 -0.26075675949E+02  0.15021703073E+02  0.30484296912E+02  0.00000000000E+00 0.  1.
</event>
<event>
 4    1  0.6769686E+001  0.2670948E+02  0.7546771E-02  0.1450548E+00
          2   -1    0    0  502    0  0.00000000000E+00  0.00000000000E+00  0.32994364931E+01  0.32994364931E+01  0.00000000000E+00 0.  1.
         -2   -1    0    0    0  501 -0.00000000000E+00 -0.00000000000E+00 -0.34014164678E+03  0.34014164678E+03  0.00000000000E+00 0. -1.
          1    1    1    2  502    0 -0.25403158694E+02 -0.82508141234E+01 -0.64770927612E+02  0.70061897412E+02  0.00000000000E+00 0.  1.
         -1    1    1    2    0  501  0.25403158694E+02  0.82508141234E+01 -0.27207128267E+03  0.27337918586E+03  0.00000000000E+00 0. -1.
</event>
<event>
 4    1  0.6769686E+001  0.2074056E+02  0.7546771E-02  0.1523001E+00
          2   -1    0    0  502    0  0.00000000000E+00  0.00000000000E+00  0.34747343346E+02  0.34747343346E+02  0.00000000000E+00 0. -1.
         -2   -1    0    0    0  501 -0.00000000000E+00 -0.00000000000E+00 -0.17003196672E+02  0.17003196672E+02  0.00000000000E+00 0.  1.
          1    1    1    2  502    0 -0.17624219265E+02  0.10934242169E+02  0.22364579218E+02  0.30501559962E+02  0.00000000000E+00 0. -1.
         -1    1    1    2    0  501  0.17624219265E+02 -0.10934242169E+02 -0.46204325438E+01  0.21248980055E+02  0.00000000000E+00 0.  1.
</event>
<event>
 4    1  0.6769686E+001  0.2047922E+02  0.7546771E-02  0.1526832E+00
          2   -1    0    0  502    0  0.00000000000E+00  0.00000000000E+00  0.55048500388E+02  0.55048500388E+02  0.00000000000E+00 0.  1.
         -2   -1    0    0    0  501 -0.00000000000E+00 -0.00000000000E+00 -0.93662011035E+01  0.93662011035E+01  0.00000000000E+00 0. -1.
          1    1    1    2  502    0  0.83259668663E+01 -0.18710339206E+02  0.36752870259E+02  0.42073411910E+02  0.00000000000E+00 0.  1.
         -1    1    1    2    0  501 -0.83259668663E+01  0.18710339206E+02  0.89294290256E+01  0.22341289582E+02  0.00000000000E+00 0. -1.
</event>
<event>
 4    1  0.6769686E+001  0.2309686E+02  0.7546771E-02  0.1491285E+00
          2   -1    0    0  502    0  0.00000000000E+00  0.00000000000E+00  0.10025445415E+02  0.10025445415E+02  0.00000000000E+00 0.  1.
         -2   -1    0    0    0  501 -0.00000000000E+00 -0.00000000000E+00 -0.56776103087E+02  0.56776103087E+02  0.00000000000E+00 0. -1.
          1    1    1    2  502    0  0.20945751199E+02 -0.97334773328E+01 -0.31744898284E+02  0.39258166556E+02  0.00000000000E+00 0.  1.
         -1    1    1    2    0  501 -0.20945751199E+02  0.97334773328E+01 -0.15005759388E+02  0.27543381947E+02  0.00000000000E+00 0. -1.
</event>
<event>
 4    1  0.6769686E+001  0.2040571E+02  0.7546771E-02  0.1527921E+00
          2   -1    0    0  502    0  0.00000000000E+00  0.00000000000E+00  0.24064074970E+01  0.24064074970E+01  0.00000000000E+00 0.  1.
         -2   -1    0    0    0  501 -0.00000000000E+00 -0.00000000000E+00 -0.17613125542E+03  0.17613125542E+03  0.00000000000E+00 0. -1.
          1    1    1    2  502    0  0.63488367649E+01  0.19392916668E+02 -0.75026736225E+02  0.77752196714E+02  0.00000000000E+00 0.  1.
         -1    1    1    2    0  501 -0.63488367649E+01 -0.19392916668E+02 -0.98698111701E+02  0.10078546621E+03  0.00000000000E+00 0. -1.
</event>
<event>
 4    1  0.6769686E+001  0.2639425E+02  0.7546771E-02  0.1453790E+00
          2   -1    0    0  502    0  0.00000000000E+00  0.00000000000E+00  0.31627077922E+04  0.31627077922E+04  0.00000000000E+00 0.  1.
         -2   -1    0    0    0  501 -0.00000000000E+00 -0.00000000000E+00 -0.22538852739E+00  0.22538852739E+00  0.00000000000E+00 0. -1.
          1    1    1    2  502    0 -0.26353935155E+02  0.14582531259E+01  0.13429675581E+04  0.13432269050E+04  0.00000000000E+00 0.  1.
         -1    1    1    2    0  501  0.26353935155E+02 -0.14582531259E+01  0.18195148456E+04  0.18197062757E+04  0.00000000000E+00 0. -1.
</event>
<event>
 4    1  0.6769686E+001  0.2207166E+02  0.7546771E-02  0.1504496E+00
          2   -1    0    0  502    0  0.00000000000E+00  0.00000000000E+00  0.22278968931E+03  0.22278968931E+03  0.00000000000E+00 0.  1.
         -2   -1    0    0    0  501 -0.00000000000E+00 -0.00000000000E+00 -0.33126584643E+01  0.33126584643E+01  0.00000000000E+00 0. -1.
          1    1    1    2  502    0  0.17713946830E+02 -0.13167164668E+02  0.17565011411E+03  0.17703141169E+03  0.00000000000E+00 0.  1.
         -1    1    1    2    0  501 -0.17713946830E+02  0.13167164668E+02  0.43826916731E+02  0.49070936080E+02  0.00000000000E+00 0. -1.
</event>
<event>
 4    1  0.6769686E+001  0.2310501E+02  0.7546771E-02  0.1491184E+00
          2   -1    0    0  502    0  0.00000000000E+00  0.00000000000E+00  0.34839623261E+02  0.34839623261E+02  0.00000000000E+00 0. -1.
         -2   -1    0    0    0  501 -0.00000000000E+00 -0.00000000000E+00 -0.15738277009E+02  0.15738277009E+02  0.00000000000E+00 0.  1.
          1    1    1    2  502    0  0.13995804213E+02 -0.18383656791E+02  0.54418844500E+01  0.23737217169E+02  0.00000000000E+00 0.  1.
         -1    1    1    2    0  501 -0.13995804213E+02  0.18383656791E+02  0.13659461801E+02  0.26840683100E+02  0.00000000000E+00 0. -1.
</event>
<event>
 4    1  0.6769686E+001  0.4055549E+02  0.7546771E-02  0.1345261E+00
          2   -1    0    0  502    0  0.00000000000E+00  0.00000000000E+00  0.12592848317E+04  0.12592848317E+04  0.00000000000E+00 0. -1.
         -2   -1    0    0    0  501 -0.00000000000E+00 -0.00000000000E+00 -0.22389631868E+01  0.22389631868E+01  0.00000000000E+00 0.  1.
          1    1    1    2  502    0  0.15652443710E+02  0.37413215585E+02  0.22137547141E+03  0.22505965217E+03  0.00000000000E+00 0.  1.
         -1    1    1    2    0  501 -0.15652443710E+02 -0.37413215585E+02  0.10356703971E+04  0.10364641427E+04  0.00000000000E+00 0. -1.
</event>
<event>
 4    1  0.6769686E+001  0.2950178E+02  0.7546771E-02  0.1423976E+00
          2   -1    0    0  502    0  0.00000000000E+00  0.00000000000E+00  0.13717320313E+02  0.13717320313E+02  0.00000000000E+00 0.  1.
         -2   -1    0    0    0  501 -0.00000000000E+00 -0.00000000000E+00 -0.12907689825E+03  0.12907689825E+03  0.00000000000E+00 0. -1.
          1    1    1    2  502    0  0.28301145225E+02  0.83306767965E+01 -0.67702138226E+01  0.30268643711E+02  0.00000000000E+00 0.  1.
         -1    1    1    2    0  501 -0.28301145225E+02 -0.83306767965E+01 -0.10858936412E+03  0.11252557486E+03  0.00000000000E+00 0. -1.
</event>
<event>
 4    1  0.6769686E+001  0.2455381E+02  0.7546771E-02  0.1473857E+00
          2   -1    0    0  502    0  0.00000000000E+00  0.00000000000E+00  0.20295858815E+03  0.20295858815E+03  0.00000000000E+00 0.  1.
         -2   -1    0    0    0  501 -0.00000000000E+00 -0.00000000000E+00 -0.49501929910E+01  0.49501929910E+01  0.00000000000E+00 0. -1.
          1    1    1    2  502    0  0.13700431130E+02 -0.20376151024E+02  0.33264117234E+02  0.41344780071E+02  0.00000000000E+00 0. -1.
         -1    1    1    2    0  501 -0.13700431130E+02  0.20376151024E+02  0.16474427793E+03  0.16656400107E+03  0.00000000000E+00 0.  1.
</event>
<event>
 4    1  0.6769686E+001  0.2263009E+02  0.7546771E-02  0.1497196E+00
          2   -1    0    0  502    0  0.00000000000E+00  0.00000000000E+00  0.11571751718E+02  0.11571751718E+02  0.00000000000E+00 0.  1.
         -2   -1    0    0    0  501 -0.00000000000E+00 -0.00000000000E+00 -0.44891892316E+02  0.44891892316E+02  0.00000000000E+00 0. -1.
          1    1    1    2  502    0 -0.22080919165E+02  0.49552037984E+01 -0.13300376012E+02  0.26249210234E+02  0.00000000000E+00 0.  1.
         -1    1    1    2    0  501  0.22080919165E+02 -0.49552037984E+01 -0.20019764585E+02  0.30214433801E+02  0.00000000000E+00 0. -1.
</event>
<event>
 4    1  0.6769686E+001  0.2815340E+02  0.7546771E-02  0.1436354E+00
          2   -1    0    0  502    0  0.00000000000E+00  0.00000000000E+00  0.27998752590E+02  0.27998752590E+02  0.00000000000E+00 0.  1.
         -2   -1    0    0    0  501 -0.00000000000E+00 -0.00000000000E+00 -0.28355339969E+02  0.28355339969E+02  0.00000000000E+00 0. -1.
          1    1    1    2  502    0  0.12824598211E+02  0.25062790039E+02  0.96207319898E+00  0.28169830469E+02  0.00000000000E+00 0. -1.
         -1    1    1    2    0  501 -0.12824598211E+02 -0.25062790039E+02 -0.13186605778E+01  0.28184262090E+02  0.00000000000E+00 0.  1.
</event>
<event>
 4    1  0.6769686E+001  0.2884877E+02  0.7546771E-02  0.1429871E+00
          2   -1    0    0  502    0  0.00000000000E+00  0.00000000000E+00  0.18769486269E+03  0.18769486269E+03  0.00000000000E+00 0. -1.
         -2   -1    0    0    0  501 -0.00000000000E+00 -0.00000000000E+00 -0.49294620508E+01  0.49294620508E+01  0.00000000000E+00 0.  1.
          1    1    1    2  502    0 -0.24704993648E+02  0.14896806713E+02  0.60850557574E+02  0.67342719862E+02  0.00000000000E+00 0. -1.
         -1    1    1    2    0  501  0.24704993648E+02 -0.14896806713E+02  0.12191484306E+03  0.12528160488E+03  0.00000000000E+00 0.  1.
</event>
<event>
 4    1  0.6769686E+001  0.2372915E+02  0.7546771E-02  0.1483540E+00
          2   -1    0    0  502    0  0.00000000000E+00  0.00000000000E+00  0.40929854227E+02  0.40929854227E+02  0.00000000000E+00 0. -1.
         -2   -1    0    0    0  501 -0.00000000000E+00 -0.00000000000E+00 -0.15691270893E+02  0.15691270893E+02  0.00000000000E+00 0.  1.
          1    1    1    2  502    0  0.21700349130E+02 -0.96003831784E+01  0.26795132575E+01  0.23879956048E+02  0.00000000000E+00 0.  1.
         -1    1    1    2    0  501 -0.21700349130E+02  0.96003831784E+01  0.22559070076E+02  0.32741169073E+02  0.00000000000E+00 0. -1.
</event>
<event>
 4    1  0.6769686E+001  0.2668996E+02  0.7546771E-02  0.1450748E+00
          2   -1    0    0  502    0  0.00000000000E+00  0.00000000000E+00  0.38756364007E+03  0.38756364007E+03  0.00000000000E+00 0. -1.
         -2   -1    0    0    0  501 -0.00000000000E+00 -0.00000000000E+00 -0.21691216013E+01  0.21691216013E+01  0.00000000000E+00 0.  1.
          1    1    1    2  502    0  0.26216514044E+02  0.50048507533E+01  0.26882941613E+03  0.27015108572E+03  0.00000000000E+00 0. -1.
         -1    1    1    2    0  501 -0.26216514044E+02 -0.50048507533E+01  0.11656510233E+03  0.11958167595E+03  0.00000000000E+00 0.  1.
</event>
<event>
 4    1  0.6769686E+001  0.2151602E+02  0.7546771E-02  0.1512023E+00
          2   -1    0    0  502    0  0.00000000000E+00  0.00000000000E+00  0.64189832028E+01  0.64189832028E+01  0.00000000000E+00 0. -1.
         -2   -1    0    0    0  501 -0.00000000000E+00 -0.00000000000E+00 -0.75978455871E+02  0.75978455871E+02  0.00000000000E+00 0.  1.
          1    1    1    2  502    0 -0.86501320054E+01 -0.19700615329E+02 -0.44063585491E+02  0.49036094812E+02  0.00000000000E+00 0. -1.
         -1    1    1    2    0  501  0.86501320054E+01  0.19700615329E+02 -0.25495887177E+02  0.33361344262E+02  0.00000000000E+00 0.  1.
</event>
<event>
 4    1  0.6769686E+001  0.2147529E+02  0.7546771E-02  0.1512586E+00
          2   -1    0    0  502    0  0.00000000000E+00  0.00000000000E+00  0.10397831523E+04  0.10397831523E+04  0.00000000000E+00 0. -1.
         -2   -1    0    0    0  501 -0.00000000000E+00 -0.00000000000E+00 -0.45920582856E+00  0.45920582856E+00  0.00000000000E+00 0.  1.
          1    1    1    2  502    0 -0.17331996373E+02  0.12680304144E+02  0.61572146909E+03  0.61609586569E+03  0.00000000000E+00 0.  1.
         -1    1    1    2    0  501  0.17331996373E+02 -0.12680304144E+02  0.42360247737E+03  0.42414649244E+03  0.00000000000E+00 0. -1.
</event>
<event>
 4    1  0.6769686E+001  0.2672586E+02  0.7546771E-02  0.1450381E+00
          2   -1    0    0  502    0  0.00000000000E+00  0.00000000000E+00  0.26698991589E+04  0.26698991589E+04  0.00000000000E+00 0.  1.
         -2   -1    0    0    0  501 -0.00000000000E+00 -0.00000000000E+00 -0.26756055811E+00  0.26756055811E+00  0.00000000000E+00 0. -1.
          1    1    1    2  502    0 -0.26354045858E+02  0.44425061811E+01  0.13199880811E+04  0.13202586132E+04  0.00000000000E+00 0. -1.
         -1    1    1    2    0  501  0.26354045858E+02 -0.44425061811E+01  0.13496435173E+04  0.13499081062E+04  0.00000000000E+00 0.  1.
</event>
<event>
 4    1  0.6769686E+001  0.2501825E+02  0.7546771E-02  0.1468599E+00
          2   -1    0    0  502    0  0.00000000000E+00  0.00000000000E+00  0.27636230372E+04  0.27636230372E+04  0.00000000000E+00 0. -1.
         -2   -1    0    0    0  501 -0.00000000000E+00 -0.00000000000E+00 -0.25322315072E+00  0.25322315072E+00  0.00000000000E+00 0.  1.
          1    1    1    2  502    0  0.22599504326E+02 -0.10731965525E+02  0.93260705985E+03  0.93294257099E+03  0.00000000000E+00 0.  1.
         -1    1    1    2    0  501 -0.22599504326E+02  0.10731965525E+02  0.18307627542E+04  0.18309336894E+04  0.00000000000E+00 0. -1.
</event>
<event>
 4    1  0.6769686E+001  0.3154384E+02  0.7546771E-02  0.1406639E+00
          2   -1    0    0  502    0  0.00000000000E+00  0.00000000000E+00  0.63351074741E+03  0.63351074741E+03  0.00000000000E+00 0.  1.
         -2   -1    0    0    0  501 -0.00000000000E+00 -0.00000000000E+00 -0.17050845397E+01  0.17050845397E+01  0.00000000000E+00 0. -1.
          1    1    1    2  502    0 -0.11812653675E+02  0.29248501017E+02  0.40508939540E+03  0.40631568006E+03  0.00000000000E+00 0.  1.
         -1    1    1    2    0  501  0.11812653675E+02 -0.29248501017E+02  0.22671626747E+03  0.22890015189E+03  0.00000000000E+00 0. -1.
</event>
<event>
 4    1  0.6769686E+001  0.2382146E+02  0.7546771E-02  0.1482433E+00
          2   -1    0    0  502    0  0.00000000000E+00  0.00000000000E+00  0.16634615774E+02  0.16634615774E+02  0.00000000000E+00 0. -1.
         -2   -1    0    0    0  501 -0.00000000000E+00 -0.00000000000E+00 -0.41213838430E+02  0.41213838430E+02  0.00000000000E+00 0.  1.
          1    1    1    2  502    0 -0.23500915569E+02  0.38947462436E+01 -0.28397846914E+00  0.23823155220E+02  0.00000000000E+00 0. -1.
         -1    1    1    2    0  501  0.23500915569E+02 -0.38947462436E+01 -0.24295244187E+02  0.34025298985E+02  0.00000000000E+00 0.  1.
</event>
<event>
 4    1  0.6769686E+001  0.3391437E+02  0.7546771E-02  0.1388360E+00
          2   -1    0    0  502    0  0.00000000000E+00  0.00000000000E+00  0.23253731149E+02  0.23253731149E+02  0.00000000000E+00 0. -1.
         -2   -1    0    0    0  501 -0.00000000000E+00 -0.00000000000E+00 -0.55937190709E+02  0.55937190709E+02  0.00000000000E+00 0.  1.
          1    1    1    2  502    0  0.15875437577E+02  0.29969231996E+02 -0.28704350110E+01  0.34035625187E+02  0.00000000000E+00 0. -1.
         -1    1    1    2    0  501 -0.15875437577E+02 -0.29969231996E+02 -0.29813024549E+02  0.45155296671E+02  0.00000000000E+00 0.  1.
</event>
<event>
 4    1  0.6769686E+001  0.5197018E+02  0.7546771E-02  0.1289849E+00
          2   -1    0    0  502    0  0.00000000000E+00  0.00000000000E+00  0.44739013679E+03  0.44739013679E+03  0.00000000000E+00 0.  1.
         -2   -1    0    0    0  501 -0.00000000000E+00 -0.00000000000E+00 -0.71348058541E+01  0.71348058541E+01  0.00000000000E+00 0. -1.
          1    1    1    2  502    0 -0.15258913861E+02 -0.49679624033E+02  0.13098264290E+03  0.14091611773E+03  0.00000000000E+00 0. -1.
         -1    1    1    2    0  501  0.15258913861E+02  0.49679624033E+02  0.30927268804E+03  0.31360882491E+03  0.00000000000E+00 0.  1.
</event>
<event>
 4    1  0.6769686E+001  0.2052147E+02  0.7546771E-02  0.1526208E+00
          2   -1    0    0  502    0  0.00000000000E+00  0.00000000000E+00  0.38614502492E+02  0.38614502492E+02  0.00000000000E+00 0.  1.
         -2   -1    0    0    0  501 -0.00000000000E+00 -0.00000000000E+00 -0.10944079968E+02  0.10944079968E+02  0.00000000000E+00 0. -1.
          1    1    1    2  502    0  0.15749306242E+02 -0.13156369586E+02  0.12374016361E+02  0.23963451101E+02  0.00000000000E+00 0.  1.
         -1    1    1    2    0  501 -0.15749306242E+02  0.13156369586E+02  0.15296406163E+02  0.25595131359E+02  0.00000000000E+00 0. -1.
</event>
<event>
 4    1  0.6769686E+001  0.2617888E+02  0.7546771E-02  0.1456035E+00
          2   -1    0    0  502    0  0.00000000000E+00  0.00000000000E+00  0.12449271115E+02  0.12449271115E+02  0.00000000000E+00 0. -1.
         -2   -1    0    0    0  501 -0.00000000000E+00 -0.00000000000E+00 -0.58962378007E+02  0.58962378007E+02  0.00000000000E+00 0.  1.
          1    1    1    2  502    0 -0.25183524338E+02 -0.71500970900E+01 -0.14059140575E+02  0.29715201837E+02  0.00000000000E+00 0. -1.
         -1    1    1    2    0  501  0.25183524338E+02  0.71500970900E+01 -0.32453966317E+02  0.41696447285E+02  0.00000000000E+00 0.  1.
</event>
<event>
 4    1  0.6769686E+001  0.2416051E+02  0.7546771E-02  0.1478418E+00
          2   -1    0    0  502    0  0.00000000000E+00  0.00000000000E+00  0.10983140163E+04  0.10983140163E+04  0.00000000000E+00 0. -1.
         -2   -1    0    0    0  501 -0.00000000000E+00 -0.00000000000E+00 -0.82544444276E+00  0.82544444276E+00  0.00000000000E+00 0.  1.
          1    1    1    2  502    0  0.12713111518E+02 -0.20545245066E+02  0.22077937530E+03  0.22209741749E+03  0.00000000000E+00 0.  1.
         -1    1    1    2    0  501 -0.12713111518E+02  0.20545245066E+02  0.87670919657E+03  0.87704204326E+03  0.00000000000E+00 0. -1.
</event>
<event>
 4    1  0.6769686E+001  0.2398325E+02  0.7546771E-02  0.1480507E+00
          2   -1    0    0  502    0  0.00000000000E+00  0.00000000000E+00  0.10576611250E+01  0.10576611250E+01  0.00000000000E+00 0. -1.
         -2   -1    0    0    0  501 -0.00000000000E+00 -0.00000000000E+00 -0.55000355540E+03  0.55000355540E+03  0.00000000000E+00 0.  1.
          1    1    1    2  502    0 -0.23536896833E+02  0.46055318901E+01 -0.24530075795E+03  0.24647040043E+03  0.00000000000E+00 0. -1.
         -1    1    1    2    0  501  0.23536896833E+02 -0.46055318901E+01 -0.30364513632E+03  0.30459081609E+03  0.00000000000E+00 0.  1.
</event>
<event>
 4    1  0.6769686E+001  0.9183612E+02  0.7546771E-02  0.1178759E+00
          2   -1    0    0  502    0  0.00000000000E+00  0.00000000000E+00  0.71548631150E+03  0.71548631150E+03  0.00000000000E+00 0.  1.
         -2   -1    0    0    0  501 -0.00000000000E+00 -0.00000000000E+00 -0.12838382990E+02  0.12838382990E+02  0.00000000000E+00 0. -1.
          1    1    1    2  502    0  0.89945262786E+02 -0.18539781572E+02  0.24714158551E+03  0.26365287232E+03  0.00000000000E+00 0.  1.
         -1    1    1    2    0  501 -0.89945262786E+02  0.18539781572E+02  0.45550634301E+03  0.46467182217E+03  0.00000000000E+00 0. -1.
</event>
<event>
 4    1  0.6769686E+001  0.2133269E+02  0.7546771E-02  0.1514568E+00
          2   -1    0    0  502    0  0.00000000000E+00  0.00000000000E+00  0.13685144294E+01  0.13685144294E+01  0.00000000000E+00 0.  1.
         -2   -1    0    0    0  501 -0.00000000000E+00 -0.00000000000E+00 -0.59269633185E+03  0.59269633185E+03  0.00000000000E+00 0. -1.
          1    1    1    2  502    0 -0.24254122911E+01 -0.21194361282E+02 -0.98872430177E+02  0.10114761996E+03  0.00000000000E+00 0.  1.
         -1    1    1    2    0  501  0.24254122911E+01  0.21194361282E+02 -0.49245538724E+03  0.49291722632E+03  0.00000000000E+00 0. -1.
</event>
<event>
 4    1  0.6769686E+001  0.2002721E+02  0.7546771E-02  0.1533620E+00
          2   -1    0    0  502    0  0.00000000000E+00  0.00000000000E+00  0.18364386866E+04  0.18364386866E+04  0.00000000000E+00 0. -1.
         -2   -1    0    0    0  501 -0.00000000000E+00 -0.00000000000E+00 -0.35214676374E+00  0.35214676374E+00  0.00000000000E+00 0.  1.
          1    1    1    2  502    0 -0.15388716615E+02 -0.12817045048E+02  0.14840215214E+04  0.14841566512E+04  0.00000000000E+00 0. -1.
         -1    1    1    2    0  501  0.15388716615E+02  0.12817045048E+02  0.35206501848E+03  0.35263418224E+03  0.00000000000E+00 0.  1.
</event>
<event>
 4    1  0.6769686E+001  0.2528906E+02  0.7546771E-02  0.1465596E+00
          2   -1    0    0  502    0  0.00000000000E+00  0.00000000000E+00  0.15031926096E+03  0.15031926096E+03  0.00000000000E+00 0.  1.
         -2   -1    0    0    0  501 -0.00000000000E+00 -0.00000000000E+00 -0.50207571612E+01  0.50207571612E+01  0.00000000000E+00 0. -1.
          1    1    1    2  502    0 -0.34472310980E+01 -0.25053004121E+02  0.42306837524E+02  0.49288993894E+02  0.00000000000E+00 0. -1.
         -1    1    1    2    0  501  0.34472310980E+01  0.25053004121E+02  0.10299166628E+03  0.10605102423E+03  0.00000000000E+00 0.  1.
</event>
<event>
 4    1  0.6769686E+001  0.2093028E+02  0.7546771E-02  0.1520263E+00
          2   -1    0    0  502    0  0.00000000000E+00  0.00000000000E+00  0.68053704469E+02  0.68053704469E+02  0.00000000000E+00 0. -1.
         -2   -1    0    0    0  501 -0.00000000000E+00 -0.00000000000E+00 -0.90958461094E+01  0.90958461094E+01  0.00000000000E+00 0.  1.
          1    1    1    2  502    0  0.11749677371E+02 -0.17321133615E+02  0.50333947751E+02  0.54512226924E+02  0.00000000000E+00 0. -1.
         -1    1    1    2    0  501 -0.11749677371E+02  0.17321133615E+02  0.86239106085E+01  0.22637323654E+02  0.00000000000E+00 0.  1.
</event>
<event>
 4    1  0.6769686E+001  0.2432731E+02  0.7546771E-02  0.1476471E+00
          2   -1    0    0  502    0  0.00000000000E+00  0.00000000000E+00  0.12273399289E+03  0.12273399289E+03  0.00000000000E+00 0. -1.
         -2   -1    0    0    0  501 -0.00000000000E+00 -0.00000000000E+00 -0.50776254781E+01  0.50776254781E+01  0.00000000000E+00 0.  1.
          1    1    1    2  502    0  0.17899608853E+02 -0.16474888076E+02  0.44488178646E+02  0.50705186850E+02  0.00000000000E+00 0.  1.
         -1    1    1    2    0  501 -0.17899608853E+02  0.16474888076E+02  0.73168188764E+02  0.77106431517E+02  0.00000000000E+00 0. -1.
</event>
<event>
 4    1  0.6769686E+001  0.2489355E+02  0.7546771E-02  0.1469998E+00
          2   -1    0    0  502    0  0.00000000000E+00  0.00000000000E+00  0.82325226360E+03  0.82325226360E+03  0.00000000000E+00 0. -1.
         -2   -1    0    0    0  501 -0.00000000000E+00 -0.00000000000E+00 -0.12539069836E+01  0.12539069836E+01  0.00000000000E+00 0.  1.
          1    1    1    2  502    0 -0.24677671959E+02  0.32712621179E+01  0.15036835574E+03  0.15241499617E+03  0.00000000000E+00 0. -1.
         -1    1    1    2    0  501  0.24677671959E+02 -0.32712621179E+01  0.67163000087E+03  0.67209117441E+03  0.00000000000E+00 0.  1.
</event>
<event>
 4    1  0.6769686E+001  0.2571954E+02  0.7546771E-02  0.1460913E+00
          2   -1    0    0  502    0  0.00000000000E+00  0.00000000000E+00  0.46392547171E+03  0.46392547171E+03  0.00000000000E+00 0. -1.
         -2   -1    0    0    0  501 -0.00000000000E+00 -0.00000000000E+00 -0.43326475324E+01  0.43326475324E+01  0.00000000000E+00 0.  1.
          1    1    1    2  502    0  0.28558697505E+00 -0.25717953693E+02  0.38024510543E+02  0.45905970245E+02  0.00000000000E+00 0.  1.
         -1    1    1    2    0  501 -0.28558697505E+00  0.25717953693E+02  0.42156831364E+03  0.42235214900E+03  0.00000000000E+00 0. -1.
</event>
<event>
 4    1  0.6769686E+001  0.3314037E+02  0.7546771E-02  0.1394130E+00
          2   -1    0    0  502    0  0.00000000000E+00  0.00000000000E+00  0.29476606121E+04  0.29476606121E+04  0.00000000000E+00 0.  1.
         -2   -1    0    0    0  501 -0.00000000000E+00 -0.00000000000E+00 -0.38074385842E+00  0.38074385842E+00  0.00000000000E+00 0. -1.
          1    1    1    2  502    0  0.18771840931E+02  0.27311205564E+02  0.12579984587E+04  0.12584349034E+04  0.00000000000E+00 0. -1.
         -1    1    1    2    0  501 -0.18771840931E+02 -0.27311205564E+02  0.16892814095E+04  0.16896064525E+04  0.00000000000E+00 0.  1.
</event>
<event>
 4    1  0.6769686E+001  0.3930364E+02  0.7546771E-02  0.1352615E+00
          2   -1    0    0  502    0  0.00000000000E+00  0.00000000000E+00  0.53425730703E+03  0.53425730703E+03  0.00000000000E+00 0. -1.
         -2   -1    0    0    0  501 -0.00000000000E+00 -0.00000000000E+00 -0.34465018702E+01  0.34465018702E+01  0.00000000000E+00 0.  1.
          1    1    1    2  502    0  0.37709499429E+02  0.11080142203E+02  0.15751261977E+03  0.16234223507E+03  0.00000000000E+00 0.  1.
         -1    1    1    2    0  501 -0.37709499429E+02 -0.11080142203E+02  0.37329818539E+03  0.37536157383E+03  0.00000000000E+00 0. -1.
</event>
<event>
 4    1  0.6769686E+001  0.2183803E+02  0.7546771E-02  0.1507628E+00
          2   -1    0    0  502    0  0.00000000000E+00  0.00000000000E+00  0.85282709923E+02  0.85282709923E+02  0.00000000000E+00 0. -1.
         -2   -1    0    0    0  501 -0.00000000000E+00 -0.00000000000E+00 -0.59570896889E+01  0.59570896889E+01  0.00000000000E+00 0.  1.
          1    1    1    2  502    0 -0.59756515685E+01 -0.21004554235E+02  0.28368871174E+02  0.35800734098E+02  0.00000000000E+00 0.  1.
         -1    1    1    2    0  501  0.59756515685E+01  0.21004554235E+02  0.50956749060E+02  0.55439065514E+02  0.00000000000E+00 0. -1.
</event>
<event>
 4    1  0.6769686E+001  0.2029675E+02  0.7546771E-02  0.1529547E+00
          2   -1    0    0  502    0  0.00000000000E+00  0.00000000000E+00  0.90385939975E+03  0.90385939975E+03  0.00000000000E+00 0. -1.
         -2   -1    0    0    0  501 -0.00000000000E+00 -0.00000000000E+00 -0.45966084123E+00  0.45966084123E+00  0.00000000000E+00 0.  1.
          1    1    1    2  502    0  0.16074703277E+02  0.12392010498E+02  0.49326443217E+03  0.49368183890E+03  0.00000000000E+00 0. -1.
         -1    1    1    2    0  501 -0.16074703277E+02 -0.12392010498E+02  0.41013530674E+03  0.41063722170E+03  0.00000000000E+00 0.  1.
</event>
<event>
 4    1  0.6769686E+001  0.2229387E+02  0.7546771E-02  0.1501561E+00
          2   -1    0    0  502    0  0.00000000000E+00  0.00000000000E+00  0.20451731841E+03  0.20451731841E+03  0.00000000000E+00 0.  1.
         -2   -1    0    0    0  501 -0.00000000000E+00 -0.00000000000E+00 -0.58933961397E+01  0.58933961397E+01  0.00000000000E+00 0. -1.
          1    1    1    2  502    0 -0.76656918156E+01 -0.20934508477E+02  0.18663878632E+02  0.29075020925E+02  0.00000000000E+00 0. -1.
         -1    1    1    2    0  501  0.76656918156E+01  0.20934508477E+02  0.17996004364E+03  0.18133569362E+03  0.00000000000E+00 0.  1.
</event>
<event>
 4    1  0.6769686E+001  0.3006975E+02  0.7546771E-02  0.1418991E+00
          2   -1    0    0  502    0  0.00000000000E+00  0.00000000000E+00  0.40801763187E+03  0.40801763187E+03  0.00000000000E+00 0.  1.
         -2   -1    0    0    0  501 -0.00000000000E+00 -0.00000000000E+00 -0.47337807086E+01  0.47337807086E+01  0.00000000000E+00 0. -1.
          1    1    1    2  502    0 -0.16726156352E+02  0.24988507180E+02  0.51134248818E+02  0.59320327036E+02  0.00000000000E+00 0. -1.
         -1    1    1    2    0  501  0.16726156352E+02 -0.24988507180E+02  0.35214960234E+03  0.35343108554E+03  0.00000000000E+00 0.  1.
</event>
<event>
 4    1  0.6769686E+001  0.2434623E+02  0.7546771E-02  0.1476252E+00
          2   -1    0    0  502    0  0.00000000000E+00  0.00000000000E+00  0.40755224455E+02  0.40755224455E+02  0.00000000000E+00 0.  1.
         -2   -1    0    0    0  501 -0.00000000000E+00 -0.00000000000E+00 -0.17736066944E+02  0.17736066944E+02  0.00000000000E+00 0. -1.
          1    1    1    2  502    0  0.10872032118E+01 -0.24321942799E+02  0.23916871124E+02  0.34128516474E+02  0.00000000000E+00 0.  1.
         -1    1    1    2    0  501 -0.10872032118E+01  0.24321942799E+02 -0.89771361260E+00  0.24362774926E+02  0.00000000000E+00 0. -1.
</event>
<event>
 4    1  0.6769686E+001  0.2961482E+02  0.7546771E-02  0.1422974E+00
          2   -1    0    0  502    0  0.00000000000E+00  0.00000000000E+00  0.19871894831E+02  0.19871894831E+02  0.00000000000E+00 0.  1.
         -2   -1    0    0    0  501 -0.00000000000E+00 -0.00000000000E+00 -0.51941975737E+02  0.51941975737E+02  0.00000000000E+00 0. -1.
          1    1    1    2  502    0  0.28313011766E+02  0.86839431281E+01 -0.21139734731E+01  0.29690173246E+02  0.00000000000E+00 0.  1.
         -1    1    1    2    0  501 -0.28313011766E+02 -0.86839431281E+01 -0.29956107433E+02  0.42123697322E+02  0.00000000000E+00 0. -1.
</event>
<event>
 4    1  0.6769686E+001  0.2247041E+02  0.7546771E-02  0.1499257E+00
          2   -1    0    0  502    0  0.00000000000E+00  0.00000000000E+00  0.31765649244E+03  0.31765649244E+03  0.00000000000E+00 0. -1.
         -2   -1    0    0    0  501 -0.00000000000E+00 -0.00000000000E+00 -0.47729885994E+01  0.47729885994E+01  0.00000000000E+00 0.  1.
          1    1    1    2  502    0 -0.56238502612E+01  0.21755270523E+02  0.28810368733E+03  0.28897863959E+03  0.00000000000E+00 0. -1.
         -1    1    1    2    0  501  0.56238502612E+01 -0.21755270523E+02  0.24779816514E+02  0.33450841451E+02  0.00000000000E+00 0.  1.
</event>
<event>
 4    1  0.6769686E+001  0.6185867E+02  0.7546771E-02  0.1253645E+00
          2   -1    0    0  502    0  0.00000000000E+00  0.00000000000E+00  0.60788972750E+03  0.60788972750E+03  0.00000000000E+00 0. -1.
         -2   -1    0    0    0  501 -0.00000000000E+00 -0.00000000000E+00 -0.22774950008E+02  0.22774950008E+02  0.00000000000E+00 0.  1.
          1    1    1    2  502    0 -0.59815370098E+02  0.15767595223E+02  0.56079608618E+03  0.56419743515E+03  0.00000000000E+00 0. -1.
         -1    1    1    2    0  501  0.59815370098E+02 -0.15767595223E+02  0.24318691311E+02  0.66467242354E+02  0.00000000000E+00 0.  1.
</event>
<event>
 4    1  0.6769686E+001  0.2157017E+02  0.7546771E-02  0.1511278E+00
          2   -1    0    0  502    0  0.00000000000E+00  0.00000000000E+00  0.12263922023E+04  0.12263922023E+04  0.00000000000E+00 0. -1.
         -2   -1    0    0    0  501 -0.00000000000E+00 -0.00000000000E+00 -0.79725747044E+00  0.79725747044E+00  0.00000000000E+00 0.  1.
          1    1    1    2  502    0 -0.20882744752E+02 -0.54021305168E+01  0.10570249041E+04  0.10572449668E+04  0.00000000000E+00 0. -1.
         -1    1    1    2    0  501  0.20882744752E+02  0.54021305168E+01  0.16857004078E+03  0.16994449297E+03  0.00000000000E+00 0.  1.
</event>
<event>
 4    1  0.6769686E+001  0.2257885E+02  0.7546771E-02  0.1497855E+00
          2   -1    0    0  502    0  0.00000000000E+00  0.00000000000E+00  0.33254951193E+03  0.33254951193E+03  0.00000000000E+00 0. -1.
         -2   -1    0    0    0  501 -0.00000000000E+00 -0.00000000000E+00 -0.30182525701E+01  0.30182525701E+01  0.00000000000E+00 0.  1.
          1    1    1    2  502    0  0.18592767735E+02  0.12810673059E+02  0.47067384461E+02  0.52202902566E+02  0.00000000000E+00 0.  1.
         -1    1    1    2    0  501 -0.18592767735E+02 -0.12810673059E+02  0.28246387490E+03  0.28336486194E+03  0.00000000000E+00 0. -1.
</event>
<event>
 4    1  0.6769686E+001  0.3387910E+02  0.7546771E-02  0.1388619E+00
          2   -1    0    0  502    0  0.00000000000E+00  0.00000000000E+00  0.15711406698E+03  0.15711406698E+03  0.00000000000E+00 0.  1.
         -2   -1    0    0    0  501 -0.00000000000E+00 -0.00000000000E+00 -0.76448249161E+01  0.76448249161E+01  0.00000000000E+00 0. -1.
          1    1    1    2  502    0  0.14138354251E+02  0.30787991428E+02  0.92090897944E+02  0.98125057765E+02  0.00000000000E+00 0.  1.
         -1    1    1    2    0  501 -0.14138354251E+02 -0.30787991428E+02  0.57378344118E+02  0.66633834130E+02  0.00000000000E+00 0. -1.
</event>
<event>
 4    1  0.6769686E+001  0.2022632E+02  0.7546771E-02  0.1530604E+00
          2   -1    0    0  502    0  0.00000000000E+00  0.00000000000E+00  0.66702309157E+02  0.66702309157E+02  0.00000000000E+00 0.  1.
         -2   -1    0    0    0  501 -0.00000000000E+00 -0.00000000000E+00 -0.10726994336E+02  0.10726994336E+02  0.00000000000E+00 0. -1.
          1    1    1    2  502    0 -0.16496386290E+02 -0.11703556836E+02  0.53322503948E+02  0.57029759165E+02  0.00000000000E+00 0.  1.
         -1    1    1    2    0  501  0.16496386290E+02  0.11703556836E+02  0.26528108732E+01  0.20399544327E+02  0.00000000000E+00 0. -1.
</event>
<event>
 4    1  0.6769686E+001  0.2881098E+02  0.7546771E-02  0.1430218E+00
          2   -1    0    0  502    0  0.00000000000E+00  0.00000000000E+00  0.75929137108E+03  0.75929137108E+03  0.00000000000E+00 0.  1.
         -2   -1    0    0    0  501 -0.00000000000E+00 -0.00000000000E+00 -0.12467781147E+01  0.12467781147E+01  0.00000000000E+00 0. -1.
          1    1    1    2  502    0 -0.44103950496E+01 -0.28471409706E+02  0.51247653046E+03  0.51328575572E+03  0.00000000000E+00 0.  1.
         -1    1    1    2    0  501  0.44103950496E+01  0.28471409706E+02  0.24556806250E+03  0.24725239347E+03  0.00000000000E+00 0. -1.
</event>
<event>
 4    1  0.6769686E+001  0.2164987E+02  0.7546771E-02  0.1510185E+00
          2   -1    0    0  502    0  0.00000000000E+00  0.00000000000E+00  0.47541928230E+01  0.47541928230E+01  0.00000000000E+00 0. -1.
         -2   -1    0    0    0  501 -0.00000000000E+00 -0.00000000000E+00 -0.10043762041E+03  0.10043762041E+03  0.00000000000E+00 0.  1.
          1    1    1    2  502    0 -0.21335988995E+02  0.36731989248E+01 -0.54974951852E+02  0.59084364665E+02  0.00000000000E+00 0.  1.
         -1    1    1    2    0  501  0.21335988995E+02 -0.36731989248E+01 -0.40708475733E+02  0.46107448566E+02  0.00000000000E+00 0. -1.
</event>
<event>
 4    1  0.6769686E+001  0.4759112E+02  0.7546771E-02  0.1308968E+00
          2   -1    0    0  502    0  0.00000000000E+00  0.00000000000E+00  0.87400330218E+02  0.87400330218E+02  0.00000000000E+00 0. -1.
         -2   -1    0    0    0  501 -0.00000000000E+00 -0.00000000000E+00 -0.48360063876E+02  0.48360063876E+02  0.00000000000E+00 0.  1.
          1    1    1    2  502    0 -0.27101215497E+02 -0.39120828993E+02  0.65765391998E+02  0.81178826840E+02  0.00000000000E+00 0. -1.
         -1    1    1    2    0  501  0.27101215497E+02  0.39120828993E+02 -0.26725125657E+02  0.54581567254E+02  0.00000000000E+00 0.  1.
</event>
<event>
 4    1  0.6769686E+001  0.4445716E+02  0.7546771E-02  0.1324176E+00
          2   -1    0    0  502    0  0.00000000000E+00  0.00000000000E+00  0.41315662360E+01  0.41315662360E+01  0.00000000000E+00 0.  1.
         -2   -1    0    0    0  501 -0.00000000000E+00 -0.00000000000E+00 -0.88906843857E+03  0.88906843857E+03  0.00000000000E+00 0. -1.
          1    1    1    2  502    0 -0.43043357051E+02 -0.11122417008E+02 -0.74600422941E+03  0.74732773871E+03  0.00000000000E+00 0. -1.
         -1    1    1    2    0  501  0.43043357051E+02  0.11122417008E+02 -0.13893264292E+03  0.14587226609E+03  0.00000000000E+00 0.  1.
</event>
<event>
 4    1  0.6769686E+001  0.3647522E+02  0.7546771E-02  0.1370478E+00
          2   -1    0    0  502    0  0.00000000000E+00  0.00000000000E+00  0.34880170118E+03  0.34880170118E+03  0.00000000000E+00 0.  1.
         -2   -1    0    0    0  501 -0.00000000000E+00 -0.00000000000E+00 -0.39689999559E+01  0.39689999559E+01  0.00000000000E+00 0. -1.
          1    1    1    2  502    0  0.36460518095E+02 -0.10355417096E+01  0.20723703387E+03  0.21042250339E+03  0.00000000000E+00 0.  1.
         -1    1    1    2    0  501 -0.36460518095E+02  0.10355417096E+01  0.13759566735E+03  0.14234819774E+03  0.00000000000E+00 0. -1.
</event>
<event>
 4    1  0.6769686E+001  0.2253809E+02  0.7546771E-02  0.1498381E+00
          2   -1    0    0  502    0  0.00000000000E+00  0.00000000000E+00  0.79262515439E+03  0.79262515439E+03  0.00000000000E+00 0.  1.
         -2   -1    0    0    0  501 -0.00000000000E+00 -0.00000000000E+00 -0.13347078413E+01  0.13347078413E+01  0.00000000000E+00 0. -1.
          1    1    1    2  502    0  0.22168019534E+02 -0.40674950935E+01  0.68186922325E+03  0.68224160180E+03  0.00000000000E+00 0.  1.
         -1    1    1    2    0  501 -0.22168019534E+02  0.40674950935E+01  0.10942122330E+03  0.11171826043E+03  0.00000000000E+00 0. -1.
</event>
<event>
 4    1  0.6769686E+001  0.2024480E+02  0.7546771E-02  0.1530326E+00
          2   -1    0    0  502    0  0.00000000000E+00  0.00000000000E+00  0.79607846961E+01  0.79607846961E+01  0.00000000000E+00 0. -1.
         -2   -1    0    0    0  501 -0.00000000000E+00 -0.00000000000E+00 -0.10398062342E+03  0.10398062342E+03  0.00000000000E+00 0.  1.
          1    1    1    2  502    0  0.18696631524E+02  0.77645174966E+01 -0.87779490734E+02  0.90083798520E+02  0.00000000000E+00 0.  1.
         -1    1    1    2    0  501 -0.18696631524E+02 -0.77645174966E+01 -0.82403479918E+01  0.21857609598E+02  0.00000000000E+00 0. -1.
</event>
<event>
 4    1  0.6769686E+001  0.5971771E+02  0.7546771E-02  0.1260795E+00
          2   -1    0    0  502    0  0.00000000000E+00  0.00000000000E+00  0.12845120242E+03  0.12845120242E+03  0.00000000000E+00 0. -1.
         -2   -1    0    0    0  501 -0.00000000000E+00 -0.00000000000E+00 -0.30053140313E+02  0.30053140313E+02  0.00000000000E+00 0.  1.
          1    1    1    2  502    0  0.26206939332E+02  0.53660051950E+02  0.71075985842E+02  0.92833186996E+02  0.00000000000E+00 0. -1.
         -1    1    1    2    0  501 -0.26206939332E+02 -0.53660051950E+02  0.27322076264E+02  0.65671155737E+02  0.00000000000E+00 0.  1.
</event>
<event>
 4    1  0.6769686E+001  0.2440972E+02  0.7546771E-02  0.1475516E+00
          2   -1    0    0  502    0  0.00000000000E+00  0.00000000000E+00  0.26836078477E+03  0.26836078477E+03  0.00000000000E+00 0.  1.
         -2   -1    0    0    0  501 -0.00000000000E+00 -0.00000000000E+00 -0.60921927538E+01  0.60921927538E+01  0.00000000000E+00 0. -1.
          1    1    1    2  502    0 -0.23968575733E+02  0.46197219971E+01  0.21735068565E+02  0.32684058186E+02  0.00000000000E+00 0. -1.
         -1    1    1    2    0  501  0.23968575733E+02 -0.46197219971E+01  0.24053352345E+03  0.24176891934E+03  0.00000000000E+00 0.  1.
</event>
<event>
 4    1  0.6769686E+001  0.2186719E+02  0.7546771E-02  0.1507235E+00
          2   -1    0    0  502    0  0.00000000000E+00  0.00000000000E+00  0.49017087925E+02  0.49017087925E+02  0.00000000000E+00 0. -1.
         -2   -1    0    0    0  501 -0.00000000000E+00 -0.00000000000E+00 -0.12602940958E+02  0.12602940958E+02  0.00000000000E+00 0.  1.
          1    1    1    2  502    0  0.16576983468E+02  0.14261059842E+02  0.32852498243E+02  0.39464678505E+02  0.00000000000E+00 0.  1.
         -1    1    1    2    0  501 -0.16576983468E+02 -0.14261059842E+02  0.35616487243E+01  0.22155350377E+02  0.00000000000E+00 0. -1.
</event>
<event>
 4    1  0.6769686E+001  0.3135516E+02  0.7546771E-02  0.1408175E+00
          2   -1    0    0  502    0  0.00000000000E+00  0.00000000000E+00  0.17212930293E+01  0.17212930293E+01  0.00000000000E+00 0. -1.
         -2   -1    0    0    0  501 -0.00000000000E+00 -0.00000000000E+00 -0.61285144051E+03  0.61285144051E+03  0.00000000000E+00 0.  1.
          1    1    1    2  502    0 -0.30265708777E+02  0.81934667447E+01 -0.38570555027E+03  0.38697792900E+03  0.00000000000E+00 0.  1.
         -1    1    1    2    0  501  0.30265708777E+02 -0.81934667447E+01 -0.22542459721E+03  0.22759480454E+03  0.00000000000E+00 0. -1.
</event>
<event>
 4    1  0.6769686E+001  0.2068922E+02  0.7546771E-02  0.1523749E+00
          2   -1    0    0  502    0  0.00000000000E+00  0.00000000000E+00  0.12938254284E+04  0.12938254284E+04  0.00000000000E+00 0.  1.
         -2   -1    0    0    0  501 -0.00000000000E+00 -0.00000000000E+00 -0.34154848906E+00  0.34154848906E+00  0.00000000000E+00 0. -1.
          1    1    1    2  502    0  0.19106333799E+02  0.79367380593E+01  0.76134148370E+03  0.76162254339E+03  0.00000000000E+00 0. -1.
         -1    1    1    2    0  501 -0.19106333799E+02 -0.79367380593E+01  0.53214239616E+03  0.53254443345E+03  0.00000000000E+00 0.  1.
</event>
<event>
 4    1  0.6769686E+001  0.2602075E+02  0.7546771E-02  0.1457701E+00
          2   -1    0    0  502    0  0.00000000000E+00  0.00000000000E+00  0.10919599149E+02  0.10919599149E+02  0.00000000000E+00 0.  1.
         -2   -1    0    0    0  501 -0.00000000000E+00 -0.00000000000E+00 -0.62030317289E+02  0.62030317289E+02  0.00000000000E+00 0. -1.
          1    1    1    2  502    0  0.26019628602E+02  0.24156520437E+00 -0.24831488610E+02  0.35967794663E+02  0.00000000000E+00 0.  1.
         -1    1    1    2    0  501 -0.26019628602E+02 -0.24156520437E+00 -0.26279229529E+02  0.36982121775E+02  0.00000000000E+00 0. -1.
</event>
<event>
 4    1  0.6769686E+001  0.2699088E+02  0.7546771E-02  0.1447700E+00
          2   -1    0    0  502    0  0.00000000000E+00  0.00000000000E+00  0.25018289932E+03  0.25018289932E+03  0.00000000000E+00 0.  1.
         -2   -1    0    0    0  501 -0.00000000000E+00 -0.00000000000E+00 -0.29785030751E+01  0.29785030751E+01  0.00000000000E+00 0. -1.
          1    1    1    2  502    0 -0.26001540075E+02 -0.72406860529E+01  0.14253065190E+03  0.14506375961E+03  0.00000000000E+00 0. -1.
         -1    1    1    2    0  501  0.26001540075E+02  0.72406860529E+01  0.10467374434E+03  0.10809764278E+03  0.00000000000E+00 0.  1.
</event>
<event>
 4    1  0.6769686E+001  0.2001297E+02  0.7546771E-02  0.1533837E+00
          2   -1    0    0  502    0  0.00000000000E+00  0.00000000000E+00  0.65637898171E+01  0.65637898171E+01  0.00000000000E+00 0.  1.
         -2   -1    0    0    0  501 -0.00000000000E+00 -0.00000000000E+00 -0.10031756933E+03  0.10031756933E+03  0.00000000000E+00 0. -1.
          1    1    1    2  502    0  0.42187895454E+01 -0.19563255564E+02 -0.13428971340E+02  0.24100963150E+02  0.00000000000E+00 0.  1.
         -1    1    1    2    0  501 -0.42187895454E+01  0.19563255564E+02 -0.80324808171E+02  0.82780395996E+02  0.00000000000E+00 0. -1.
</event>
<event>
 4    1  0.6769686E+001  0.2430312E+02  0.7546771E-02  0.1476753E+00
          2   -1    0    0  502    0  0.00000000000E+00  0.00000000000E+00  0.20893636114E+04  0.20893636114E+04  0.00000000000E+00 0.  1.
         -2   -1    0    0    0  501 -0.00000000000E+00 -0.00000000000E+00 -0.28674402686E+00  0.28674402686E+00  0.00000000000E+00 0. -1.
          1    1    1    2  502    0  0.23859176026E+02  0.46239806943E+01  0.11687775172E+04  0.11690301648E+04  0.00000000000E+00 0. -1.
         -1    1    1    2    0  501 -0.23859176026E+02 -0.46239806943E+01  0.92029935025E+03  0.92062019072E+03  0.00000000000E+00 0.  1.
</event>
<event>
 4    1  0.6769686E+001  0.2013104E+02  0.7546771E-02  0.1532042E+00
          2   -1    0    0  502    0  0.00000000000E+00  0.00000000000E+00  0.10472365739E+03  0.10472365739E+03  0.00000000000E+00 0. -1.
         -2   -1    0    0    0  501 -0.00000000000E+00 -0.00000000000E+00 -0.41913408912E+01  0.41913408912E+01  0.00000000000E+00 0.  1.
          1    1    1    2  502    0  0.16642632004E+02  0.11326146939E+02  0.35182575958E+02  0.40534830153E+02  0.00000000000E+00 0.  1.
         -1    1    1    2    0  501 -0.16642632004E+02 -0.11326146939E+02  0.65349740544E+02  0.68380168131E+02  0.00000000000E+00 0. -1.
</event>
<event>
 4    1  0.6769686E+001  0.2519846E+02  0.7546771E-02  0.1466595E+00
          2   -1    0    0  502    0  0.00000000000E+00  0.00000000000E+00  0.89220549823E+03  0.89220549823E+03  0.00000000000E+00 0. -1.
         -2   -1    0    0    0  501 -0.00000000000E+00 -0.00000000000E+00 -0.73062022608E+00  0.73062022608E+00  0.00000000000E+00 0.  1.
          1    1    1    2  502    0  0.15541198053E+02 -0.19835153483E+02  0.51762790282E+03  0.51824087829E+03  0.00000000000E+00 0. -1.
         -1    1    1    2    0  501 -0.15541198053E+02  0.19835153483E+02  0.37384697518E+03  0.37469524016E+03  0.00000000000E+00 0.  1.
</event>
<event>
 4    1  0.6769686E+001  0.2712937E+02  0.7546771E-02  0.1446313E+00
          2   -1    0    0  502    0  0.00000000000E+00  0.00000000000E+00  0.20616815183E+04  0.20616815183E+04  0.00000000000E+00 0. -1.
         -2   -1    0    0    0  501 -0.00000000000E+00 -0.00000000000E+00 -0.37062859966E+00  0.37062859966E+00  0.00000000000E+00 0.  1.
          1    1    1    2  502    0 -0.25937992060E+01  0.27005086953E+02  0.83288416913E+03  0.83332589165E+03  0.00000000000E+00 0. -1.
         -1    1    1    2    0  501  0.25937992060E+01 -0.27005086953E+02  0.12284267206E+04  0.12287262552E+04  0.00000000000E+00 0.  1.
</event>
<event>
 4    1  0.6769686E+001  0.2845151E+02  0.7546771E-02  0.1433548E+00
          2   -1    0    0  502    0  0.00000000000E+00  0.00000000000E+00  0.42609644279E+02  0.42609644279E+02  0.00000000000E+00 0. -1.
         -2   -1    0    0    0  501 -0.00000000000E+00 -0.00000000000E+00 -0.23298525733E+02  0.23298525733E+02  0.00000000000E+00 0.  1.
          1    1    1    2  502    0  0.15282599584E+02 -0.23998553967E+02  0.23814056630E+02  0.37102530044E+02  0.00000000000E+00 0. -1.
         -1    1    1    2    0  501 -0.15282599584E+02  0.23998553967E+02 -0.45029380838E+01  0.28805639967E+02  0.00000000000E+00 0.  1.
</event>
<event>
 4    1  0.6769686E+001  0.2496525E+02  0.7546771E-02  0.1469192E+00
          2   -1    0    0  502    0  0.00000000000E+00  0.00000000000E+00  0.29084861364E+03  0.29084861364E+03  0.00000000000E+00 0. -1.
         -2   -1    0    0    0  501 -0.00000000000E+00 -0.00000000000E+00 -0.32828192831E+01  0.32828192831E+01  0.00000000000E+00 0.  1.
          1    1    1    2  502    0  0.11769813792E+02  0.22016707775E+02  0.23044357765E+03  0.23179194640E+03  0.00000000000E+00 0. -1.
         -1    1    1    2    0  501 -0.11769813792E+02 -0.22016707775E+02  0.57122216714E+02  0.62339486525E+02  0.00000000000E+00 0.  1.
</event>
<event>
 4    1  0.6769686E+001  0.2131034E+02  0.7546771E-02  0.1514880E+00
          2   -1    0    0  502    0  0.00000000000E+00  0.00000000000E+00  0.16841522488E+01  0.16841522488E+01  0.00000000000E+00 0. -1.
         -2   -1    0    0    0  501 -0.00000000000E+00 -0.00000000000E+00 -0.27338554563E+03  0.27338554563E+03  0.00000000000E+00 0.  1.
          1    1    1    2  502    0  0.20501258840E+02  0.58162757179E+01 -0.15192883312E+03  0.15341610414E+03  0.00000000000E+00 0. -1.
         -1    1    1    2    0  501 -0.20501258840E+02 -0.58162757179E+01 -0.11977256027E+03  0.12165359374E+03  0.00000000000E+00 0.  1.
</event>
<event>
 4    1  0.6769686E+001  0.2028408E+02  0.7546771E-02  0.1529736E+00
          2   -1    0    0  502    0  0.00000000000E+00  0.00000000000E+00  0.32856420560E+03  0.32856420560E+03  0.00000000000E+00 0.  1.
         -2   -1    0    0    0  501 -0.00000000000E+00 -0.00000000000E+00 -0.14396681866E+01  0.14396681866E+01  0.00000000000E+00 0. -1.
          1    1    1    2  502    0 -0.18643377487E+02 -0.79917816094E+01  0.10402824760E+03  0.10598735961E+03  0.00000000000E+00 0. -1.
         -1    1    1    2    0  501  0.18643377487E+02  0.79917816094E+01  0.22309628981E+03  0.22401651417E+03  0.00000000000E+00 0.  1.
</event>
<event>
 4    1  0.6769686E+001  0.2034424E+02  0.7546771E-02  0.1528837E+00
          2   -1    0    0  502    0  0.00000000000E+00  0.00000000000E+00  0.21345596351E+04  0.21345596351E+04  0.00000000000E+00 0.  1.
         -2   -1    0    0    0  501 -0.00000000000E+00 -0.00000000000E+00 -0.21564804617E+00  0.21564804617E+00  0.00000000000E+00 0. -1.
          1    1    1    2  502    0  0.16771215874E+02  0.11515840368E+02  0.14061510523E+04  0.14062982153E+04  0.00000000000E+00 0.  1.
         -1    1    1    2    0  501 -0.16771215874E+02 -0.11515840368E+02  0.72819293475E+03  0.72847706792E+03  0.00000000000E+00 0. -1.
</event>
<event>
 4    1  0.6769686E+001  0.2020034E+02  0.7546771E-02  0.1530995E+00
          2   -1    0    0  502    0  0.00000000000E+00  0.00000000000E+00  0.11312705630E+04  0.11312705630E+04  0.00000000000E+00 0. -1.
         -2   -1    0    0    0  501 -0.00000000000E+00 -0.00000000000E+00 -0.46042211850E+00  0.46042211850E+00  0.00000000000E+00 0.  1.
          1    1    1    2  502    0  0.19006466924E+02 -0.68416282807E+01  0.30206165923E+03  0.30273635335E+03  0.00000000000E+00 0.  1.
         -1    1    1    2    0  501 -0.19006466924E+02  0.68416282807E+01  0.82874848168E+03  0.82899463180E+03  0.00000000000E+00 0. -1.
</event>
<event>
 4    1  0.6769686E+001  0.2157530E+02  0.7546771E-02  0.1511207E+00
          2   -1    0    0  502    0  0.00000000000E+00  0.00000000000E+00  0.49320743623E+02  0.49320743623E+02  0.00000000000E+00 0.  1.
         -2   -1    0    0    0  501 -0.00000000000E+00 -0.00000000000E+00 -0.14807570222E+02  0.14807570222E+02  0.00000000000E+00 0. -1.
          1    1    1    2  502    0 -0.46380000838E+01 -0.21070890981E+02 -0.20517183429E+01  0.21672633427E+02  0.00000000000E+00 0. -1.
         -1    1    1    2    0  501  0.46380000838E+01  0.21070890981E+02  0.36564891745E+02  0.42455680418E+02  0.00000000000E+00 0.  1.
</event>
<event>
 4    1  0.6769686E+001  0.4232308E+02  0.7546771E-02  0.1335385E+00
          2   -1    0    0  502    0  0.00000000000E+00  0.00000000000E+00  0.49539575413E+02  0.49539575413E+02  0.00000000000E+00 0.  1.
         -2   -1    0    0    0  501 -0.00000000000E+00 -0.00000000000E+00 -0.43826108276E+02  0.43826108276E+02  0.00000000000E+00 0. -1.
          1    1    1    2  502    0 -0.37544549913E+02  0.19535855135E+02  0.22383941673E+02  0.47877799749E+02  0.00000000000E+00 0. -1.
         -1    1    1    2    0  501  0.37544549913E+02 -0.19535855135E+02 -0.16670474536E+02  0.45487883939E+02  0.00000000000E+00 0.  1.
</event>
<event>
 4    1  0.6769686E+001  0.2452534E+02  0.7546771E-02  0.1474184E+00
          2   -1    0    0  502    0  0.00000000000E+00  0.00000000000E+00  0.13697195760E+04  0.13697195760E+04  0.00000000000E+00 0. -1.
         -2   -1    0    0    0  501 -0.00000000000E+00 -0.00000000000E+00 -0.51237121049E+00  0.51237121049E+00  0.00000000000E+00 0.  1.
          1    1    1    2  502    0  0.23912715526E+02  0.54474073839E+01  0.94362389469E+03  0.94394255484E+03  0.00000000000E+00 0. -1.
         -1    1    1    2    0  501 -0.23912715526E+02 -0.54474073839E+01  0.42558331014E+03  0.42628939240E+03  0.00000000000E+00 0.  1.
</event>
<event>
 4    1  0.6769686E+001  0.2067692E+02  0.7546771E-02  0.1523928E+00
          2   -1    0    0  502    0  0.00000000000E+00  0.00000000000E+00  0.46484228222E+01  0.46484228222E+01  0.00000000000E+00 0. -1.
         -2   -1    0    0    0  501 -0.00000000000E+00 -0.00000000000E+00 -0.99919546935E+02  0.99919546935E+02  0.00000000000E+00 0.  1.
          1    1    1    2  502    0  0.57817362346E+01 -0.19852113517E+02 -0.62379055018E+02  0.65716675128E+02  0.00000000000E+00 0.  1.
         -1    1    1    2    0  501 -0.57817362346E+01  0.19852113517E+02 -0.32892069095E+02  0.38851294629E+02  0.00000000000E+00 0. -1.
</event>
<event>
 4    1  0.6769686E+001  0.3051455E+02  0.7546771E-02  0.1415177E+00
          2   -1    0    0  502    0  0.00000000000E+00  0.00000000000E+00  0.17092658299E+04  0.17092658299E+04  0.00000000000E+00 0.  1.
         -2   -1    0    0    0  501 -0.00000000000E+00 -0.00000000000E+00 -0.62505737928E+00  0.62505737928E+00  0.00000000000E+00 0. -1.
          1    1    1    2  502    0  0.30276067676E+02 -0.38075510643E+01  0.11607510380E+04  0.11611520615E+04  0.00000000000E+00 0.  1.
         -1    1    1    2    0  501 -0.30276067676E+02  0.38075510643E+01  0.54788973451E+03  0.54873882577E+03  0.00000000000E+00 0. -1.
</event>
<event>
 4    1  0.6769686E+001  0.2248785E+02  0.7546771E-02  0.1499031E+00
          2   -1    0    0  502    0  0.00000000000E+00  0.00000000000E+00  0.88434808936E+03  0.88434808936E+03  0.00000000000E+00 0. -1.
         -2   -1    0    0    0  501 -0.00000000000E+00 -0.00000000000E+00 -0.11577908605E+01  0.11577908605E+01  0.00000000000E+00 0.  1.
          1    1    1    2  502    0 -0.18661481636E+02  0.12548007339E+02  0.12661881340E+03  0.12860026163E+03  0.00000000000E+00 0.  1.
         -1    1    1    2    0  501  0.18661481636E+02 -0.12548007339E+02  0.75657148510E+03  0.75690561859E+03  0.00000000000E+00 0. -1.
</event>
<event>
 4    1  0.6769686E+001  0.3998768E+02  0.7546771E-02  0.1348558E+00
          2   -1    0    0  502    0  0.00000000000E+00  0.00000000000E+00  0.22681361061E+02  0.22681361061E+02  0.00000000000E+00 0.  1.
         -2   -1    0    0    0  501 -0.00000000000E+00 -0.00000000000E+00 -0.88512738043E+02  0.88512738043E+02  0.00000000000E+00 0. -1.
          1    1    1    2  502    0 -0.35651402875E+02 -0.18110553821E+02 -0.78343893750E+01  0.40747912137E+02  0.00000000000E+00 0.  1.
         -1    1    1    2    0  501  0.35651402875E+02  0.18110553821E+02 -0.57996987607E+02  0.70446186967E+02  0.00000000000E+00 0. -1.
</event>
<event>
 4    1  0.6769686E+001  0.2285290E+02  0.7546771E-02  0.1494354E+00
          2   -1    0    0  502    0  0.00000000000E+00  0.00000000000E+00  0.16031378229E+01  0.16031378229E+01  0.00000000000E+00 0. -1.
         -2   -1    0    0    0  501 -0.00000000000E+00 -0.00000000000E+00 -0.32585615085E+03  0.32585615085E+03  0.00000000000E+00 0.  1.
          1    1    1    2  502    0 -0.21289914064E+02 -0.83063004923E+01 -0.16478042465E+03  0.16635757697E+03  0.00000000000E+00 0.  1.
         -1    1    1    2    0  501  0.21289914064E+02  0.83063004923E+01 -0.15947258838E+03  0.16110171170E+03  0.00000000000E+00 0. -1.
</event>
<event>
 4    1  0.6769686E+001  0.3389853E+02  0.7546771E-02  0.1388477E+00
          2   -1    0    0  502    0  0.00000000000E+00  0.00000000000E+00  0.55272148799E+03  0.55272148799E+03  0.00000000000E+00 0. -1.
         -2   -1    0    0    0  501 -0.00000000000E+00 -0.00000000000E+00 -0.24604328113E+01  0.24604328113E+01  0.00000000000E+00 0.  1.
          1    1    1    2  502    0  0.33897580683E+02 -0.25349245651E+00  0.38442702892E+03  0.38591871009E+03  0.00000000000E+00 0. -1.
         -1    1    1    2    0  501 -0.33897580683E+02  0.25349245651E+00  0.16583402626E+03  0.16926321071E+03  0.00000000000E+00 0.  1.
</event>
<event>
 4    1  0.6769686E+001  0.2238433E+02  0.7546771E-02  0.1500377E+00
          2   -1    0    0  502    0  0.00000000000E+00  0.00000000000E+00  0.54377638667E+02  0.54377638667E+02  0.00000000000E+00 0.  1.
         -2   -1    0    0    0  501 -0.00000000000E+00 -0.00000000000E+00 -0.14306483977E+02  0.14306483977E+02  0.00000000000E+00 0. -1.
          1    1    1    2  502    0 -0.11033491201E+02 -0.19476145394E+02  0.40523928645E+02  0.46295215307E+02  0.00000000000E+00 0.  1.
         -1    1    1    2    0  501  0.11033491201E+02  0.19476145394E+02 -0.45277395539E+00  0.22388907337E+02  0.00000000000E+00 0. -1.
</event>
<event>
 4    1  0.6769686E+001  0.2660439E+02  0.7546771E-02  0.1451623E+00
          2   -1    0    0  502    0  0.00000000000E+00  0.00000000000E+00  0.34950718818E+02  0.34950718818E+02  0.00000000000E+00 0.  1.
         -2   -1    0    0    0  501 -0.00000000000E+00 -0.00000000000E+00 -0.41071274399E+02  0.41071274399E+02  0.00000000000E+00 0. -1.
          1    1    1    2  502    0 -0.22984033185E+02  0.13398794461E+02 -0.30123622022E+02  0.40189875320E+02  0.00000000000E+00 0. -1.
         -1    1    1    2    0  501  0.22984033185E+02 -0.13398794461E+02  0.24003066440E+02  0.35832117897E+02  0.00000000000E+00 0.  1.
</event>
<event>
 4    1  0.6769686E+001  0.3662272E+02  0.7546771E-02  0.1369500E+00
          2   -1    0    0  502    0  0.00000000000E+00  0.00000000000E+00  0.32851135361E+02  0.32851135361E+02  0.00000000000E+00 0.  1.
         -2   -1    0    0    0  501 -0.00000000000E+00 -0.00000000000E+00 -0.78874032387E+02  0.78874032387E+02  0.00000000000E+00 0. -1.
          1    1    1    2  502    0 -0.25636520569E+02  0.26153250046E+02  0.15786841917E+02  0.39880421921E+02  0.00000000000E+00 0.  1.
         -1    1    1    2    0  501  0.25636520569E+02 -0.26153250046E+02 -0.61809738943E+02  0.71844745828E+02  0.00000000000E+00 0. -1.
</event>
<event>
 4    1  0.6769686E+001  0.3780849E+02  0.7546771E-02  0.1361830E+00
          2   -1    0    0  502    0  0.00000000000E+00  0.00000000000E+00  0.34556785405E+03  0.34556785405E+03  0.00000000000E+00 0.  1.
         -2   -1    0    0    0  501 -0.00000000000E+00 -0.00000000000E+00 -0.41461439201E+01  0.41461439201E+01  0.00000000000E+00 0. -1.
          1    1    1    2  502    0 -0.32654237709E+02 -0.19057359428E+02  0.17909223239E+03  0.18303964022E+03  0.00000000000E+00 0. -1.
         -1    1    1    2    0  501  0.32654237709E+02  0.19057359428E+02  0.16232947774E+03  0.16667435775E+03  0.00000000000E+00 0.  1.
</event>
<event>
 4    1  0.6769686E+001  0.7112098E+02  0.7546771E-02  0.1226111E+00
          2   -1    0    0  502    0  0.00000000000E+00  0.00000000000E+00  0.18321893168E+03  0.18321893168E+03  0.00000000000E+00 0. -1.
         -2   -1    0    0    0  501 -0.00000000000E+00 -0.00000000000E+00 -0.27625424715E+02  0.27625424715E+02  0.00000000000E+00 0.  1.
          1    1    1    2  502    0 -0.48806424529E+02  0.51731297597E+02  0.80491275013E+02  0.10741061204E+03  0.00000000000E+00 0.  1.
         -1    1    1    2    0  501  0.48806424529E+02 -0.51731297597E+02  0.75102231952E+02  0.10343374435E+03  0.00000000000E+00 0. -1.
</event>
<event>
 4    1  0.6769686E+001  0.2226838E+02  0.7546771E-02  0.1501895E+00
          2   -1    0    0  502    0  0.00000000000E+00  0.00000000000E+00  0.16332391824E+02  0.16332391824E+02  0.00000000000E+00 0.  1.
         -2   -1    0    0    0  501 -0.00000000000E+00 -0.00000000000E+00 -0.31265111601E+02  0.31265111601E+02  0.00000000000E+00 0. -1.
          1    1    1    2  502    0  0.20981201788E+02 -0.74612369156E+01 -0.34211418092E+01  0.22529649267E+02  0.00000000000E+00 0. -1.
         -1    1    1    2    0  501 -0.20981201788E+02  0.74612369156E+01 -0.11511577968E+02  0.25067854158E+02  0.00000000000E+00 0.  1.
</event>
<event>
 4    1  0.6769686E+001  0.2789438E+02  0.7546771E-02  0.1438825E+00
          2   -1    0    0  502    0  0.00000000000E+00  0.00000000000E+00  0.41485761374E+02  0.41485761374E+02  0.00000000000E+00 0. -1.
         -2   -1    0    0    0  501 -0.00000000000E+00 -0.00000000000E+00 -0.19948401955E+02  0.19948401955E+02  0.00000000000E+00 0.  1.
          1    1    1    2  502    0  0.14190499371E+02 -0.24015122545E+02  0.18279434337E+02  0.33350173956E+02  0.00000000000E+00 0. -1.
         -1    1    1    2    0  501 -0.14190499371E+02  0.24015122545E+02  0.32579250817E+01  0.28083989373E+02  0.00000000000E+00 0.  1.
</event>
<event>
 4    1  0.6769686E+001  0.2148414E+02  0.7546771E-02  0.1512464E+00
          2   -1    0    0  502    0  0.00000000000E+00  0.00000000000E+00  0.57586546550E+01  0.57586546550E+01  0.00000000000E+00 0.  1.
         -2   -1    0    0    0  501 -0.00000000000E+00 -0.00000000000E+00 -0.83989131223E+02  0.83989131223E+02  0.00000000000E+00 0. -1.
          1    1    1    2  502    0  0.15556026414E+02 -0.14818176175E+02 -0.48706582658E+02  0.53234382660E+02  0.00000000000E+00 0. -1.
         -1    1    1    2    0  501 -0.15556026414E+02  0.14818176175E+02 -0.29523893909E+02  0.36513403218E+02  0.00000000000E+00 0.  1.
</event>
<event>
 4    1  0.6769686E+001  0.2075912E+02  0.7546771E-02  0.1522732E+00
          2   -1    0    0  502    0  0.00000000000E+00  0.00000000000E+00  0.10399601195E+04  0.10399601195E+04  0.00000000000E+00 0.  1.
         -2   -1    0    0    0  501 -0.00000000000E+00 -0.00000000000E+00 -0.43687784776E+00  0.43687784776E+00  0.00000000000E+00 0. -1.
          1    1    1    2  502    0 -0.11072872193E+02 -0.17559397513E+02  0.40171908138E+03  0.40225509479E+03  0.00000000000E+00 0. -1.
         -1    1    1    2    0  501  0.11072872193E+02  0.17559397513E+02  0.63780416028E+03  0.63814190257E+03  0.00000000000E+00 0.  1.
</event>
<event>
 4    1  0.6769686E+001  0.2952396E+02  0.7546771E-02  0.1423779E+00
          2   -1    0    0  502    0  0.00000000000E+00  0.00000000000E+00  0.13628085138E+04  0.13628085138E+04  0.00000000000E+00 0.  1.
         -2   -1    0    0    0  501 -0.00000000000E+00 -0.00000000000E+00 -0.20414783754E+01  0.20414783754E+01  0.00000000000E+00 0. -1.
          1    1    1    2  502    0 -0.28175431877E+02 -0.88209563527E+01  0.11487864827E+03  0.11861183778E+03  0.00000000000E+00 0. -1.
         -1    1    1    2    0  501  0.28175431877E+02  0.88209563527E+01  0.12458883872E+04  0.12462381544E+04  0.00000000000E+00 0.  1.
</event>
<event>
 4    1  0.6769686E+001  0.2267396E+02  0.7546771E-02  0.1496633E+00
          2   -1    0    0  502    0  0.00000000000E+00  0.00000000000E+00  0.21393438027E+03  0.21393438027E+03  0.00000000000E+00 0. -1.
         -2   -1    0    0    0  501 -0.00000000000E+00 -0.00000000000E+00 -0.39474088959E+01  0.39474088959E+01  0.00000000000E+00 0.  1.
          1    1    1    2  502    0  0.13828828046E+02  0.17968642644E+02  0.17313316160E+03  0.17461156963E+03  0.00000000000E+00 0. -1.
         -1    1    1    2    0  501 -0.13828828046E+02 -0.17968642644E+02  0.36853809768E+02  0.43270219528E+02  0.00000000000E+00 0.  1.
</event>
<event>
 4    1  0.6769686E+001  0.2610500E+02  0.7546771E-02  0.1456812E+00
          2   -1    0    0  502    0  0.00000000000E+00  0.00000000000E+00  0.70647320650E+02  0.70647320650E+02  0.00000000000E+00 0. -1.
         -2   -1    0    0    0  501 -0.00000000000E+00 -0.00000000000E+00 -0.10879488510E+02  0.10879488510E+02  0.00000000000E+00 0.  1.
          1    1    1    2  502    0  0.26928904502E+01 -0.25965738288E+02  0.16158803974E+02  0.30701435955E+02  0.00000000000E+00 0.  1.
         -1    1    1    2    0  501 -0.26928904502E+01  0.25965738288E+02  0.43609028165E+02  0.50825373204E+02  0.00000000000E+00 0. -1.
</event>
<event>
 4    1  0.6769686E+001  0.4393147E+02  0.7546771E-02  0.1326870E+00
          2   -1    0    0  502    0  0.00000000000E+00  0.00000000000E+00  0.52948854635E+03  0.52948854635E+03  0.00000000000E+00 0.  1.
         -2   -1    0    0    0  501 -0.00000000000E+00 -0.00000000000E+00 -0.75314342441E+01  0.75314342441E+01  0.00000000000E+00 0. -1.
          1    1    1    2  502    0 -0.39066709492E+02  0.20093938615E+02  0.68093540762E+02  0.81035205023E+02  0.00000000000E+00 0. -1.
         -1    1    1    2    0  501  0.39066709492E+02 -0.20093938615E+02  0.45386357135E+03  0.45598477558E+03  0.00000000000E+00 0.  1.
</event>
<event>
 4    1  0.6769686E+001  0.3052500E+02  0.7546771E-02  0.1415088E+00
          2   -1    0    0  502    0  0.00000000000E+00  0.00000000000E+00  0.78869840359E+02  0.78869840359E+02  0.00000000000E+00 0. -1.
         -2   -1    0    0    0  501 -0.00000000000E+00 -0.00000000000E+00 -0.17616455907E+02  0.17616455907E+02  0.00000000000E+00 0.  1.
          1    1    1    2  502    0  0.64111162675E+01  0.29844147510E+02  0.29395042052E+01  0.30666206765E+02  0.00000000000E+00 0.  1.
         -1    1    1    2    0  501 -0.64111162675E+01 -0.29844147510E+02  0.58313880247E+02  0.65820089500E+02  0.00000000000E+00 0. -1.
</event>
<event>
 4    1  0.6769686E+001  0.1960670E+03  0.7546771E-02  0.1057960E+00
          2   -1    0    0  502    0  0.00000000000E+00  0.00000000000E+00  0.28083427602E+04  0.28083427602E+04  0.00000000000E+00 0. -1.
         -2   -1    0    0    0  501 -0.00000000000E+00 -0.00000000000E+00 -0.17309904957E+02  0.17309904957E+02  0.00000000000E+00 0.  1.
          1    1    1    2  502    0 -0.19566000698E+03  0.12627082124E+02  0.20417268691E+04  0.20511194236E+04  0.00000000000E+00 0. -1.
         -1    1    1    2    0  501  0.19566000698E+03 -0.12627082124E+02  0.74930598615E+03  0.77453324164E+03  0.00000000000E+00 0.  1.
</event>
<event>
 4    1  0.6769686E+001  0.2046402E+02  0.7546771E-02  0.1527057E+00
          2   -1    0    0  502    0  0.00000000000E+00  0.00000000000E+00  0.35213944831E+02  0.35213944831E+02  0.00000000000E+00 0.  1.
         -2   -1    0    0    0  501 -0.00000000000E+00 -0.00000000000E+00 -0.11949273755E+02  0.11949273755E+02  0.00000000000E+00 0. -1.
          1    1    1    2  502    0  0.30089140477E+01  0.20241603328E+02  0.13260140205E+02  0.24384572731E+02  0.00000000000E+00 0.  1.
         -1    1    1    2    0  501 -0.30089140477E+01 -0.20241603328E+02  0.10004530871E+02  0.22778645854E+02  0.00000000000E+00 0. -1.
</event>
<event>
 4    1  0.6769686E+001  0.2065339E+02  0.7546771E-02  0.1524272E+00
          2   -1    0    0  502    0  0.00000000000E+00  0.00000000000E+00  0.72180109292E+03  0.72180109292E+03  0.00000000000E+00 0. -1.
         -2   -1    0    0    0  501 -0.00000000000E+00 -0.00000000000E+00 -0.77745386085E+00  0.77745386085E+00  0.00000000000E+00 0.  1.
          1    1    1    2  502    0  0.20529491351E+02 -0.22588541923E+01  0.18356655141E+03  0.18472477158E+03  0.00000000000E+00 0.  1.
         -1    1    1    2    0  501 -0.20529491351E+02  0.22588541923E+01  0.53745708764E+03  0.53785377520E+03  0.00000000000E+00 0. -1.
</event>
<event>
 4    1  0.6769686E+001  0.2400873E+02  0.7546771E-02  0.1480206E+00
          2   -1    0    0  502    0  0.00000000000E+00  0.00000000000E+00  0.11049972378E+04  0.11049972378E+04  0.00000000000E+00 0. -1.
         -2   -1    0    0    0  501 -0.00000000000E+00 -0.00000000000E+00 -0.52549035783E+00  0.52549035783E+00  0.00000000000E+00 0.  1.
          1    1    1    2  502    0 -0.10451035790E+02  0.21614690031E+02  0.50496581246E+03  0.50553624076E+03  0.00000000000E+00 0.  1.
         -1    1    1    2    0  501  0.10451035790E+02 -0.21614690031E+02  0.59950593502E+03  0.59998648743E+03  0.00000000000E+00 0. -1.
</event>
<event>
 4    1  0.6769686E+001  0.2285192E+02  0.7546771E-02  0.1494366E+00
          2   -1    0    0  502    0  0.00000000000E+00  0.00000000000E+00  0.28720528771E+03  0.28720528771E+03  0.00000000000E+00 0.  1.
         -2   -1    0    0    0  501 -0.00000000000E+00 -0.00000000000E+00 -0.19582081583E+01  0.19582081583E+01  0.00000000000E+00 0. -1.
          1    1    1    2  502    0 -0.14833399104E+02  0.17383343014E+02  0.10397022196E+03  0.10645194877E+03  0.00000000000E+00 0. -1.
         -1    1    1    2    0  501  0.14833399104E+02 -0.17383343014E+02  0.18127685759E+03  0.18271154709E+03  0.00000000000E+00 0.  1.
</event>
<event>
 4    1  0.6769686E+001  0.2018604E+02  0.7546771E-02  0.1531211E+00
          2   -1    0    0  502    0  0.00000000000E+00  0.00000000000E+00  0.19401327637E+04  0.19401327637E+04  0.00000000000E+00 0.  1.
         -2   -1    0    0    0  501 -0.00000000000E+00 -0.00000000000E+00 -0.22307516785E+00  0.22307516785E+00  0.00000000000E+00 0. -1.
          1    1    1    2  502    0  0.45083624984E+01 -0.19676146291E+02  0.73529620304E+03  0.73557323379E+03  0.00000000000E+00 0. -1.
         -1    1    1    2    0  501 -0.45083624984E+01  0.19676146291E+02  0.12046134855E+04  0.12047826051E+04  0.00000000000E+00 0.  1.
</event>
<event>
 4    1  0.6769686E+001  0.2109487E+02  0.7546771E-02  0.1517915E+00
          2   -1    0    0  502    0  0.00000000000E+00  0.00000000000E+00  0.78627651189E+03  0.78627651189E+03  0.00000000000E+00 0. -1.
         -2   -1    0    0    0  501 -0.00000000000E+00 -0.00000000000E+00 -0.57523941465E+00  0.57523941465E+00  0.00000000000E+00 0.  1.
          1    1    1    2  502    0  0.12315709239E+02  0.17126490886E+02  0.34285557996E+03  0.34350391860E+03  0.00000000000E+00 0.  1.
         -1    1    1    2    0  501 -0.12315709239E+02 -0.17126490886E+02  0.44284569251E+03  0.44334783270E+03  0.00000000000E+00 0. -1.
</event>
<event>
 4    1  0.6769686E+001  0.2944472E+02  0.7546771E-02  0.1424484E+00
          2   -1    0    0  502    0  0.00000000000E+00  0.00000000000E+00  0.19953964511E+04  0.19953964511E+04  0.00000000000E+00 0. -1.
         -2   -1    0    0    0  501 -0.00000000000E+00 -0.00000000000E+00 -0.43475695144E+00  0.43475695144E+00  0.00000000000E+00 0.  1.
          1    1    1    2  502    0 -0.14688635324E+02 -0.25519312252E+02  0.97302139698E+03  0.97346681006E+03  0.00000000000E+00 0. -1.
         -1    1    1    2    0  501  0.14688635324E+02  0.25519312252E+02  0.10219402972E+04  0.10223643980E+04  0.00000000000E+00 0.  1.
</event>
<event>
 4    1  0.6769686E+001  0.2855532E+02  0.7546771E-02  0.1432581E+00
          2   -1    0    0  502    0  0.00000000000E+00  0.00000000000E+00  0.82428552800E+02  0.82428552800E+02  0.00000000000E+00 0.  1.
         -2   -1    0    0    0  501 -0.00000000000E+00 -0.00000000000E+00 -0.17336136425E+02  0.17336136425E+02  0.00000000000E+00 0. -1.
          1    1    1    2  502    0  0.27776572469E+02 -0.66233254739E+01  0.65232801611E+02  0.71209022073E+02  0.00000000000E+00 0.  1.
         -1    1    1    2    0  501 -0.27776572469E+02  0.66233254739E+01 -0.14038523642E+00  0.28555667152E+02  0.00000000000E+00 0. -1.
</event>
<event>
 4    1  0.6769686E+001  0.2173734E+02  0.7546771E-02  0.1508993E+00
          2   -1    0    0  502    0  0.00000000000E+00  0.00000000000E+00  0.34860232946E+03  0.34860232946E+03  0.00000000000E+00 0.  1.
         -2   -1    0    0    0  501 -0.00000000000E+00 -0.00000000000E+00 -0.24763104161E+01  0.24763104161E+01  0.00000000000E+00 0. -1.
          1    1    1    2  502    0 -0.15586372303E+02  0.15151797283E+02  0.29116255527E+03  0.29197285072E+03  0.00000000000E+00 0.  1.
         -1    1    1    2    0  501  0.15586372303E+02 -0.15151797283E+02  0.54963463772E+02  0.59105789161E+02  0.00000000000E+00 0. -1.
</event>
<event>
 4    1  0.6769686E+001  0.2687203E+02  0.7546771E-02  0.1448898E+00
          2   -1    0    0  502    0  0.00000000000E+00  0.00000000000E+00  0.21601914074E+02  0.21601914074E+02  0.00000000000E+00 0. -1.
         -2   -1    0    0    0  501 -0.00000000000E+00 -0.00000000000E+00 -0.52496302946E+02  0.52496302946E+02  0.00000000000E+00 0.  1.
          1    1    1    2  502    0 -0.67187936217E+01  0.26018524183E+02  0.68818944862E+01  0.27739254858E+02  0.00000000000E+00 0. -1.
         -1    1    1    2    0  501  0.67187936217E+01 -0.26018524183E+02 -0.37776283359E+02  0.46358962162E+02  0.00000000000E+00 0.  1.
</event>
<event>
 4    1  0.6769686E+001  0.2095331E+02  0.7546771E-02  0.1519932E+00
          2   -1    0    0  502    0  0.00000000000E+00  0.00000000000E+00  0.53025128754E+03  0.53025128754E+03  0.00000000000E+00 0. -1.
         -2   -1    0    0    0  501 -0.00000000000E+00 -0.00000000000E+00 -0.10033134690E+01  0.10033134690E+01  0.00000000000E+00 0.  1.
          1    1    1    2  502    0 -0.20220210912E+02 -0.54940223742E+01  0.15358434808E+03  0.15500707463E+03  0.00000000000E+00 0.  1.
         -1    1    1    2    0  501  0.20220210912E+02  0.54940223742E+01  0.37566362599E+03  0.37624752637E+03  0.00000000000E+00 0. -1.
</event>
<event>
 4    1  0.6769686E+001  0.2270291E+02  0.7546771E-02  0.1496263E+00
          2   -1    0    0  502    0  0.00000000000E+00  0.00000000000E+00  0.68185723260E+02  0.68185723260E+02  0.00000000000E+00 0.  1.
         -2   -1    0    0    0  501 -0.00000000000E+00 -0.00000000000E+00 -0.12302621517E+02  0.12302621517E+02  0.00000000000E+00 0. -1.
          1    1    1    2  502    0  0.90157934987E+00 -0.22684997068E+02  0.52930910027E+02  0.57594298100E+02  0.00000000000E+00 0. -1.
         -1    1    1    2    0  501 -0.90157934987E+00  0.22684997068E+02  0.29521917157E+01  0.22894046677E+02  0.00000000000E+00 0.  1.
</event>
<event>
 4    1  0.6769686E+001  0.4238688E+02  0.7546771E-02  0.1335039E+00
          2   -1    0    0  502    0  0.00000000000E+00  0.00000000000E+00  0.20149236677E+03  0.20149236677E+03  0.00000000000E+00 0.  1.
         -2   -1    0    0    0  501 -0.00000000000E+00 -0.00000000000E+00 -0.14894965140E+02  0.14894965140E+02  0.00000000000E+00 0. -1.
          1    1    1    2  502    0  0.39967542642E+02 -0.14115348987E+02  0.24754679966E+02  0.49086064439E+02  0.00000000000E+00 0. -1.
         -1    1    1    2    0  501 -0.39967542642E+02  0.14115348987E+02  0.16184272166E+03  0.16730126747E+03  0.00000000000E+00 0.  1.
</event>
<event>
 4    1  0.6769686E+001  0.4477098E+02  0.7546771E-02  0.1322589E+00
          2   -1    0    0  502    0  0.00000000000E+00  0.00000000000E+00  0.35940802832E+04  0.35940802832E+04  0.00000000000E+00 0.  1.
         -2   -1    0    0    0  501 -0.00000000000E+00 -0.00000000000E+00 -0.56323528917E+00  0.56323528917E+00  0.00000000000E+00 0. -1.
          1    1    1    2  502    0 -0.39381057598E+02 -0.21297261736E+02  0.16186824634E+04  0.16193015032E+04  0.00000000000E+00 0.  1.
         -1    1    1    2    0  501  0.39381057598E+02  0.21297261736E+02  0.19748345845E+04  0.19753420153E+04  0.00000000000E+00 0. -1.
</event>
<event>
 4    1  0.6769686E+001  0.2716101E+02  0.7546771E-02  0.1445997E+00
          2   -1    0    0  502    0  0.00000000000E+00  0.00000000000E+00  0.22986070164E+02  0.22986070164E+02  0.00000000000E+00 0.  1.
         -2   -1    0    0    0  501 -0.00000000000E+00 -0.00000000000E+00 -0.40089549766E+02  0.40089549766E+02  0.00000000000E+00 0. -1.
          1    1    1    2  502    0 -0.14217826571E+02  0.23142473939E+02  0.55324966101E+01  0.27718751977E+02  0.00000000000E+00 0.  1.
         -1    1    1    2    0  501  0.14217826571E+02 -0.23142473939E+02 -0.22635976212E+02  0.35356867953E+02  0.00000000000E+00 0. -1.
</event>
<event>
 4    1  0.6769686E+001  0.2012108E+02  0.7546771E-02  0.1532193E+00
          2   -1    0    0  502    0  0.00000000000E+00  0.00000000000E+00  0.14963623317E+02  0.14963623317E+02  0.00000000000E+00 0. -1.
         -2   -1    0    0    0  501 -0.00000000000E+00 -0.00000000000E+00 -0.31275156188E+02  0.31275156188E+02  0.00000000000E+00 0.  1.
          1    1    1    2  502    0 -0.14969427180E+02  0.13445229583E+02 -0.16647219393E+02  0.26114897322E+02  0.00000000000E+00 0.  1.
         -1    1    1    2    0  501  0.14969427180E+02 -0.13445229583E+02  0.33568652185E+00  0.20123882182E+02  0.00000000000E+00 0. -1.
</event>
<event>
 4    1  0.6769686E+001  0.3079233E+02  0.7546771E-02  0.1412834E+00
          2   -1    0    0  502    0  0.00000000000E+00  0.00000000000E+00  0.45713578642E+03  0.45713578642E+03  0.00000000000E+00 0. -1.
         -2   -1    0    0    0  501 -0.00000000000E+00 -0.00000000000E+00 -0.20741534718E+01  0.20741534718E+01  0.00000000000E+00 0.  1.
          1    1    1    2  502    0  0.21157567343E+02 -0.22372409386E+02  0.22716393740E+03  0.22924140511E+03  0.00000000000E+00 0. -1.
         -1    1    1    2    0  501 -0.21157567343E+02  0.22372409386E+02  0.22789769554E+03  0.22996853478E+03  0.00000000000E+00 0.  1.
</event>
<event>
 4    1  0.6769686E+001  0.4875459E+02  0.7546771E-02  0.1303664E+00
          2   -1    0    0  502    0  0.00000000000E+00  0.00000000000E+00  0.19776988459E+02  0.19776988459E+02  0.00000000000E+00 0.  1.
         -2   -1    0    0    0  501 -0.00000000000E+00 -0.00000000000E+00 -0.13179514548E+03  0.13179514548E+03  0.00000000000E+00 0. -1.
          1    1    1    2  502    0 -0.41504654572E+02 -0.25580736602E+02 -0.33521042510E+02  0.59166466239E+02  0.00000000000E+00 0.  1.
         -1    1    1    2    0  501  0.41504654572E+02  0.25580736602E+02 -0.78497114507E+02  0.92405667695E+02  0.00000000000E+00 0. -1.
</event>
<event>
 4    1  0.6769686E+001  0.2466230E+02  0.7546771E-02  0.1472617E+00
          2   -1    0    0  502    0  0.00000000000E+00  0.00000000000E+00  0.71136651327E+01  0.71136651327E+01  0.00000000000E+00 0.  1.
         -2   -1    0    0    0  501 -0.00000000000E+00 -0.00000000000E+00 -0.12977364782E+03  0.12977364782E+03  0.00000000000E+00 0. -1.
          1    1    1    2  502    0 -0.20572433564E+02  0.13601609234E+02 -0.21353432276E+02  0.32622045712E+02  0.00000000000E+00 0.  1.
         -1    1    1    2    0  501  0.20572433564E+02 -0.13601609234E+02 -0.10130655041E+03  0.10426526724E+03  0.00000000000E+00 0. -1.
</event>
<event>
 4    1  0.6769686E+001  0.2567419E+02  0.7546771E-02  0.1461401E+00
          2   -1    0    0  502    0  0.00000000000E+00  0.00000000000E+00  0.44028387419E+03  0.44028387419E+03  0.00000000000E+00 0.  1.
         -2   -1    0    0    0  501 -0.00000000000E+00 -0.00000000000E+00 -0.19091703315E+01  0.19091703315E+01  0.00000000000E+00 0. -1.
          1    1    1    2  502    0  0.15298699144E+02  0.20618292896E+02  0.32190073694E+03  0.32292297632E+03  0.00000000000E+00 0.  1.
         -1    1    1    2    0  501 -0.15298699144E+02 -0.20618292896E+02  0.11647396693E+03  0.11927006820E+03  0.00000000000E+00 0. -1.
</event>
<event>
 4    1  0.6769686E+001  0.3423334E+02  0.7546771E-02  0.1386035E+00
          2   -1    0    0  502    0  0.00000000000E+00  0.00000000000E+00  0.38532345609E+03  0.38532345609E+03  0.00000000000E+00 0.  1.
         -2   -1    0    0    0  501 -0.00000000000E+00 -0.00000000000E+00 -0.30526229238E+01  0.30526229238E+01  0.00000000000E+00 0. -1.
          1    1    1    2  502    0 -0.34199177430E+02  0.15289810116E+01  0.20291150712E+03  0.20577901069E+03  0.00000000000E+00 0.  1.
         -1    1    1    2    0  501  0.34199177430E+02 -0.15289810116E+01  0.17935932605E+03  0.18259706833E+03  0.00000000000E+00 0. -1.
</event>
<event>
 4    1  0.6769686E+001  0.2803342E+02  0.7546771E-02  0.1437495E+00
          2   -1    0    0  502    0  0.00000000000E+00  0.00000000000E+00  0.22100080374E+03  0.22100080374E+03  0.00000000000E+00 0.  1.
         -2   -1    0    0    0  501 -0.00000000000E+00 -0.00000000000E+00 -0.48578174073E+01  0.48578174073E+01  0.00000000000E+00 0. -1.
          1    1    1    2  502    0 -0.27039302920E+02  0.73992535857E+01  0.16653241386E+03  0.16887545033E+03  0.00000000000E+00 0.  1.
         -1    1    1    2    0  501  0.27039302920E+02 -0.73992535857E+01  0.49610572474E+02  0.56983170825E+02  0.00000000000E+00 0. -1.
</event>
<event>
 4    1  0.6769686E+001  0.3613303E+02  0.7546771E-02  0.1372768E+00
          2   -1    0    0  502    0  0.00000000000E+00  0.00000000000E+00  0.11670947649E+03  0.11670947649E+03  0.00000000000E+00 0.  1.
         -2   -1    0    0    0  501 -0.00000000000E+00 -0.00000000000E+00 -0.11409790293E+02  0.11409790293E+02  0.00000000000E+00 0. -1.
          1    1    1    2  502    0 -0.63935828875E+01  0.35562869265E+02  0.61607037718E+02  0.71421444040E+02  0.00000000000E+00 0. -1.
         -1    1    1    2    0  501  0.63935828875E+01 -0.35562869265E+02  0.43692648478E+02  0.56697822740E+02  0.00000000000E+00 0.  1.
</event>
<event>
 4    1  0.6769686E+001  0.6200985E+02  0.7546771E-02  0.1253153E+00
          2   -1    0    0  502    0  0.00000000000E+00  0.00000000000E+00  0.39855539405E+02  0.39855539405E+02  0.00000000000E+00 0.  1.
         -2   -1    0    0    0  501 -0.00000000000E+00 -0.00000000000E+00 -0.96887000747E+02  0.96887000747E+02  0.00000000000E+00 0. -1.
          1    1    1    2  502    0 -0.61812226667E+02 -0.49467043369E+01 -0.24078732779E+02  0.66520723250E+02  0.00000000000E+00 0.  1.
         -1    1    1    2    0  501  0.61812226667E+02  0.49467043369E+01 -0.32952728563E+02  0.70221816903E+02  0.00000000000E+00 0. -1.
</event>
<event>
 4    1  0.6769686E+001  0.2043877E+02  0.7546771E-02  0.1527431E+00
          2   -1    0    0  502    0  0.00000000000E+00  0.00000000000E+00  0.37483452751E+02  0.37483452751E+02  0.00000000000E+00 0. -1.
         -2   -1    0    0    0  501 -0.00000000000E+00 -0.00000000000E+00 -0.12913872260E+02  0.12913872260E+02  0.00000000000E+00 0.  1.
          1    1    1    2  502    0  0.13094706386E+02  0.15693054873E+02  0.21611522114E+02  0.29745607989E+02  0.00000000000E+00 0. -1.
         -1    1    1    2    0  501 -0.13094706386E+02 -0.15693054873E+02  0.29580583769E+01  0.20651717021E+02  0.00000000000E+00 0.  1.
</event>
<event>
 4    1  0.6769686E+001  0.2136623E+02  0.7546771E-02  0.1514100E+00
          2   -1    0    0  502    0  0.00000000000E+00  0.00000000000E+00  0.28575141525E+03  0.28575141525E+03  0.00000000000E+00 0.  1.
         -2   -1    0    0    0  501 -0.00000000000E+00 -0.00000000000E+00 -0.18357326457E+01  0.18357326457E+01  0.00000000000E+00 0. -1.
          1    1    1    2  502    0 -0.21252452826E+02 -0.22020073137E+01  0.19374797342E+03  0.19492253023E+03  0.00000000000E+00 0. -1.
         -1    1    1    2    0  501  0.21252452826E+02  0.22020073137E+01  0.90167709177E+02  0.92664617657E+02  0.00000000000E+00 0.  1.
</event>
<event>
 4    1  0.6769686E+001  0.2085225E+02  0.7546771E-02  0.1521385E+00
          2   -1    0    0  502    0  0.00000000000E+00  0.00000000000E+00  0.62664746108E+01  0.62664746108E+01  0.00000000000E+00 0.  1.
         -2   -1    0    0    0  501 -0.00000000000E+00 -0.00000000000E+00 -0.69817569692E+02  0.69817569692E+02  0.00000000000E+00 0. -1.
          1    1    1    2  502    0  0.18697581949E+02 -0.92312873191E+01 -0.28790497740E+02  0.35548684876E+02  0.00000000000E+00 0. -1.
         -1    1    1    2    0  501 -0.18697581949E+02  0.92312873191E+01 -0.34760597341E+02  0.40535359426E+02  0.00000000000E+00 0.  1.
</event>
<event>
 4    1  0.6769686E+001  0.3184292E+02  0.7546771E-02  0.1404230E+00
          2   -1    0    0  502    0  0.00000000000E+00  0.00000000000E+00  0.69831634331E+03  0.69831634331E+03  0.00000000000E+00 0. -1.
         -2   -1    0    0    0  501 -0.00000000000E+00 -0.00000000000E+00 -0.15999569278E+01  0.15999569278E+01  0.00000000000E+00 0.  1.
          1    1    1    2  502    0  0.92571184471E+01  0.30467646470E+02  0.24194507638E+03  0.24403153834E+03  0.00000000000E+00 0.  1.
         -1    1    1    2    0  501 -0.92571184471E+01 -0.30467646470E+02  0.45477131001E+03  0.45588476190E+03  0.00000000000E+00 0. -1.
</event>
<event>
 4    1  0.6769686E+001  0.4615845E+02  0.7546771E-02  0.1315746E+00
          2   -1    0    0  502    0  0.00000000000E+00  0.00000000000E+00  0.26328779816E+03  0.26328779816E+03  0.00000000000E+00 0.  1.
         -2   -1    0    0    0  501 -0.00000000000E+00 -0.00000000000E+00 -0.16524352748E+02  0.16524352748E+02  0.00000000000E+00 0. -1.
          1    1    1    2  502    0  0.38312980663E+02 -0.25743306440E+02  0.22332213876E+03  0.22804249598E+03  0.00000000000E+00 0.  1.
         -1    1    1    2    0  501 -0.38312980663E+02  0.25743306440E+02  0.23441306658E+02  0.51769654930E+02  0.00000000000E+00 0. -1.
</event>
<event>
 4    1  0.6769686E+001  0.2414412E+02  0.7546771E-02  0.1478610E+00
          2   -1    0    0  502    0  0.00000000000E+00  0.00000000000E+00  0.98946653109E+02  0.98946653109E+02  0.00000000000E+00 0.  1.
         -2   -1    0    0    0  501 -0.00000000000E+00 -0.00000000000E+00 -0.11957409036E+02  0.11957409036E+02  0.00000000000E+00 0. -1.
          1    1    1    2  502    0 -0.18687709095E+02 -0.15287512807E+02  0.39990035137E+01  0.24473057597E+02  0.00000000000E+00 0. -1.
         -1    1    1    2    0  501  0.18687709095E+02  0.15287512807E+02  0.82990240559E+02  0.86431004548E+02  0.00000000000E+00 0.  1.
</event>
<event>
 4    1  0.6769686E+001  0.2521574E+02  0.7546771E-02  0.1466404E+00
          2   -1    0    0  502    0  0.00000000000E+00  0.00000000000E+00  0.61958386307E+03  0.61958386307E+03  0.00000000000E+00 0.  1.
         -2   -1    0    0    0  501 -0.00000000000E+00 -0.00000000000E+00 -0.15485365037E+01  0.15485365037E+01  0.00000000000E+00 0. -1.
          1    1    1    2  502    0  0.80513405267E+01  0.23895801592E+02  0.48938488268E+03  0.49003407720E+03  0.00000000000E+00 0.  1.
         -1    1    1    2    0  501 -0.80513405267E+01 -0.23895801592E+02  0.12865044389E+03  0.13109832238E+03  0.00000000000E+00 0. -1.
</event>
<event>
 4    1  0.6769686E+001  0.2455594E+02  0.7546771E-02  0.1473833E+00
          2   -1    0    0  502    0  0.00000000000E+00  0.00000000000E+00  0.16907586031E+04  0.16907586031E+04  0.00000000000E+00 0.  1.
         -2   -1    0    0    0  501 -0.00000000000E+00 -0.00000000000E+00 -0.46787944511E+00  0.46787944511E+00  0.00000000000E+00 0. -1.
          1    1    1    2  502    0  0.16214674554E+02  0.18441222184E+02  0.12574627600E+04  0.12577025034E+04  0.00000000000E+00 0.  1.
         -1    1    1    2    0  501 -0.16214674554E+02 -0.18441222184E+02  0.43282796374E+03  0.43352397920E+03  0.00000000000E+00 0. -1.
</event>
<event>
 4    1  0.6769686E+001  0.2632491E+02  0.7546771E-02  0.1454510E+00
          2   -1    0    0  502    0  0.00000000000E+00  0.00000000000E+00  0.90107754737E+03  0.90107754737E+03  0.00000000000E+00 0.  1.
         -2   -1    0    0    0  501 -0.00000000000E+00 -0.00000000000E+00 -0.92792147100E+00  0.92792147100E+00  0.00000000000E+00 0. -1.
          1    1    1    2  502    0  0.98927756655E+00 -0.26306317831E+02  0.26347764577E+03  0.26478948403E+03  0.00000000000E+00 0. -1.
         -1    1    1    2    0  501 -0.98927756655E+00  0.26306317831E+02  0.63667198013E+03  0.63721598482E+03  0.00000000000E+00 0.  1.
</event>
<event>
 4    1  0.6769686E+001  0.2044763E+02  0.7546771E-02  0.1527299E+00
          2   -1    0    0  502    0  0.00000000000E+00  0.00000000000E+00  0.61760478605E+03  0.61760478605E+03  0.00000000000E+00 0.  1.
         -2   -1    0    0    0  501 -0.00000000000E+00 -0.00000000000E+00 -0.12949833033E+01  0.12949833033E+01  0.00000000000E+00 0. -1.
          1    1    1    2  502    0  0.60517585932E+01 -0.19531561878E+02  0.94381402946E+02  0.96570983807E+02  0.00000000000E+00 0. -1.
         -1    1    1    2    0  501 -0.60517585932E+01  0.19531561878E+02  0.52192839980E+03  0.52232878554E+03  0.00000000000E+00 0.  1.
</event>
<event>
 4    1  0.6769686E+001  0.2140979E+02  0.7546771E-02  0.1513494E+00
          2   -1    0    0  502    0  0.00000000000E+00  0.00000000000E+00  0.88734979014E+02  0.88734979014E+02  0.00000000000E+00 0.  1.
         -2   -1    0    0    0  501 -0.00000000000E+00 -0.00000000000E+00 -0.52527936062E+01  0.52527936062E+01  0.00000000000E+00 0. -1.
          1    1    1    2  502    0  0.10928404975E+02  0.18410568066E+02  0.47791960636E+02  0.52368411789E+02  0.00000000000E+00 0.  1.
         -1    1    1    2    0  501 -0.10928404975E+02 -0.18410568066E+02  0.35690224771E+02  0.41619360832E+02  0.00000000000E+00 0. -1.
</event>
<event>
 4    1  0.6769686E+001  0.2544500E+02  0.7546771E-02  0.1463886E+00
          2   -1    0    0  502    0  0.00000000000E+00  0.00000000000E+00  0.30424390828E+03  0.30424390828E+03  0.00000000000E+00 0.  1.
         -2   -1    0    0    0  501 -0.00000000000E+00 -0.00000000000E+00 -0.23963981981E+01  0.23963981981E+01  0.00000000000E+00 0. -1.
          1    1    1    2  502    0 -0.25366302434E+02  0.19996246758E+01  0.20222937907E+03  0.20382386896E+03  0.00000000000E+00 0. -1.
         -1    1    1    2    0  501  0.25366302434E+02 -0.19996246758E+01  0.99618131012E+02  0.10281643752E+03  0.00000000000E+00 0.  1.
</event>
<event>
 4    1  0.6769686E+001  0.2679651E+02  0.7546771E-02  0.1449663E+00
          2   -1    0    0  502    0  0.00000000000E+00  0.00000000000E+00  0.16988573825E+04  0.16988573825E+04  0.00000000000E+00 0.  1.
         -2   -1    0    0    0  501 -0.00000000000E+00 -0.00000000000E+00 -0.43300576240E+00  0.43300576240E+00  0.00000000000E+00 0. -1.
          1    1    1    2  502    0  0.22871954645E+02 -0.13961605883E+02  0.98049348396E+03  0.98085958467E+03  0.00000000000E+00 0.  1.
         -1    1    1    2    0  501 -0.22871954645E+02  0.13961605883E+02  0.71793089278E+03  0.71843080360E+03  0.00000000000E+00 0. -1.
</event>
<event>
 4    1  0.6769686E+001  0.2047830E+02  0.7546771E-02  0.1526845E+00
          2   -1    0    0  502    0  0.00000000000E+00  0.00000000000E+00  0.63395617361E+03  0.63395617361E+03  0.00000000000E+00 0. -1.
         -2   -1    0    0    0  501 -0.00000000000E+00 -0.00000000000E+00 -0.99689508033E+00  0.99689508033E+00  0.00000000000E+00 0.  1.
          1    1    1    2  502    0  0.19585889877E+02  0.59794369067E+01  0.13233183872E+03  0.13390696877E+03  0.00000000000E+00 0. -1.
         -1    1    1    2    0  501 -0.19585889877E+02 -0.59794369067E+01  0.50062743981E+03  0.50104609992E+03  0.00000000000E+00 0.  1.
</event>
<event>
 4    1  0.6769686E+001  0.2813716E+02  0.7546771E-02  0.1436508E+00
          2   -1    0    0  502    0  0.00000000000E+00  0.00000000000E+00  0.16572958892E+03  0.16572958892E+03  0.00000000000E+00 0.  1.
         -2   -1    0    0    0  501 -0.00000000000E+00 -0.00000000000E+00 -0.51329136135E+01  0.51329136135E+01  0.00000000000E+00 0. -1.
          1    1    1    2  502    0 -0.26343023207E+02  0.98865932676E+01  0.10279264679E+03  0.10657404859E+03  0.00000000000E+00 0.  1.
         -1    1    1    2    0  501  0.26343023207E+02 -0.98865932676E+01  0.57804028517E+02  0.64288453947E+02  0.00000000000E+00 0. -1.
</event>
<event>
 4    1  0.6769686E+001  0.3558461E+02  0.7546771E-02  0.1376499E+00
          2   -1    0    0  502    0  0.00000000000E+00  0.00000000000E+00  0.13474064494E+01  0.13474064494E+01  0.00000000000E+00 0. -1.
         -2   -1    0    0    0  501 -0.00000000000E+00 -0.00000000000E+00 -0.94777868026E+03  0.94777868026E+03  0.00000000000E+00 0.  1.
          1    1    1    2  502    0  0.27160116135E+02  0.22991141179E+02 -0.51681426471E+03  0.51803788345E+03  0.00000000000E+00 0.  1.
         -1    1    1    2    0  501 -0.27160116135E+02 -0.22991141179E+02 -0.42961700910E+03  0.43108820326E+03  0.00000000000E+00 0. -1.
</event>
<event>
 4    1  0.6769686E+001  0.2089114E+02  0.7546771E-02  0.1520825E+00
          2   -1    0    0  502    0  0.00000000000E+00  0.00000000000E+00  0.68255472044E+02  0.68255472044E+02  0.00000000000E+00 0. -1.
         -2   -1    0    0    0  501 -0.00000000000E+00 -0.00000000000E+00 -0.90604646944E+01  0.90604646944E+01  0.00000000000E+00 0.  1.
          1    1    1    2  502    0 -0.62904510911E+01 -0.19921599957E+02  0.50568279125E+02  0.54713716502E+02  0.00000000000E+00 0. -1.
         -1    1    1    2    0  501  0.62904510911E+01  0.19921599957E+02  0.86267282244E+01  0.22602220237E+02  0.00000000000E+00 0.  1.
</event>
<event>
 4    1  0.6769686E+001  0.2502307E+02  0.7546771E-02  0.1468545E+00
          2   -1    0    0  502    0  0.00000000000E+00  0.00000000000E+00  0.14857368040E+04  0.14857368040E+04  0.00000000000E+00 0.  1.
         -2   -1    0    0    0  501 -0.00000000000E+00 -0.00000000000E+00 -0.42186022337E+00  0.42186022337E+00  0.00000000000E+00 0. -1.
          1    1    1    2  502    0  0.12877769699E+02 -0.21455002255E+02  0.76601304115E+03  0.76642164198E+03  0.00000000000E+00 0.  1.
         -1    1    1    2    0  501 -0.12877769699E+02  0.21455002255E+02  0.71930190265E+03  0.71973702227E+03  0.00000000000E+00 0. -1.
</event>
<event>
 4    1  0.6769686E+001  0.2200857E+02  0.7546771E-02  0.1505338E+00
          2   -1    0    0  502    0  0.00000000000E+00  0.00000000000E+00  0.46389103708E+02  0.46389103708E+02  0.00000000000E+00 0.  1.
         -2   -1    0    0    0  501 -0.00000000000E+00 -0.00000000000E+00 -0.10582382259E+02  0.10582382259E+02  0.00000000000E+00 0. -1.
          1    1    1    2  502    0 -0.22006638472E+02 -0.29124413705E+00  0.14617922210E+02  0.26420836658E+02  0.00000000000E+00 0. -1.
         -1    1    1    2    0  501  0.22006638472E+02  0.29124413705E+00  0.21188799239E+02  0.30550649308E+02  0.00000000000E+00 0.  1.
</event>
<event>
 4    1  0.6769686E+001  0.2021042E+02  0.7546771E-02  0.1530843E+00
          2   -1    0    0  502    0  0.00000000000E+00  0.00000000000E+00  0.80090142755E+03  0.80090142755E+03  0.00000000000E+00 0.  1.
         -2   -1    0    0    0  501 -0.00000000000E+00 -0.00000000000E+00 -0.51571648347E+00  0.51571648347E+00  0.00000000000E+00 0. -1.
          1    1    1    2  502    0  0.19975449342E+02 -0.30728869209E+01  0.44237389543E+03  0.44283532444E+03  0.00000000000E+00 0.  1.
         -1    1    1    2    0  501 -0.19975449342E+02  0.30728869209E+01  0.35801181563E+03  0.35858181960E+03  0.00000000000E+00 0. -1.
</event>
<event>
 4    1  0.6769686E+001  0.3542451E+02  0.7546771E-02  0.1377603E+00
          2   -1    0    0  502    0  0.00000000000E+00  0.00000000000E+00  0.63360438187E+03  0.63360438187E+03  0.00000000000E+00 0.  1.
         -2   -1    0    0    0  501 -0.00000000000E+00 -0.00000000000E+00 -0.34143471131E+01  0.34143471131E+01  0.00000000000E+00 0. -1.
          1    1    1    2  502    0 -0.29379865600E+02 -0.19791901256E+02  0.10869503138E+03  0.11432193886E+03  0.00000000000E+00 0. -1.
         -1    1    1    2    0  501  0.29379865600E+02  0.19791901256E+02  0.52149500337E+03  0.52269679012E+03  0.00000000000E+00 0.  1.
</event>
<event>
 4    1  0.6769686E+001  0.2281906E+02  0.7546771E-02  0.1494783E+00
          2   -1    0    0  502    0  0.00000000000E+00  0.00000000000E+00  0.61354592749E+03  0.61354592749E+03  0.00000000000E+00 0.  1.
         -2   -1    0    0    0  501 -0.00000000000E+00 -0.00000000000E+00 -0.27132861592E+01  0.27132861592E+01  0.00000000000E+00 0. -1.
          1    1    1    2  502    0  0.13494439418E+02  0.18401346250E+02  0.49982626203E+02  0.54945175959E+02  0.00000000000E+00 0. -1.
         -1    1    1    2    0  501 -0.13494439418E+02 -0.18401346250E+02  0.56085001513E+03  0.56131403769E+03  0.00000000000E+00 0.  1.
</event>
<event>
 4    1  0.6769686E+001  0.2295419E+02  0.7546771E-02  0.1493074E+00
          2   -1    0    0  502    0  0.00000000000E+00  0.00000000000E+00  0.19303926738E+04  0.19303926738E+04  0.00000000000E+00 0. -1.
         -2   -1    0    0    0  501 -0.00000000000E+00 -0.00000000000E+00 -0.29046665479E+00  0.29046665479E+00  0.00000000000E+00 0.  1.
          1    1    1    2  502    0  0.11124682047E+02 -0.20078254050E+02  0.12021316819E+04  0.12023508121E+04  0.00000000000E+00 0. -1.
         -1    1    1    2    0  501 -0.11124682047E+02  0.20078254050E+02  0.72797052523E+03  0.72833232830E+03  0.00000000000E+00 0.  1.
</event>
<event>
 4    1  0.6769686E+001  0.2218897E+02  0.7546771E-02  0.1502941E+00
          2   -1    0    0  502    0  0.00000000000E+00  0.00000000000E+00  0.25026942469E+01  0.25026942469E+01  0.00000000000E+00 0. -1.
         -2   -1    0    0    0  501 -0.00000000000E+00 -0.00000000000E+00 -0.19806426516E+03  0.19806426516E+03  0.00000000000E+00 0.  1.
          1    1    1    2  502    0  0.52733863700E+01  0.21553227904E+02 -0.10601760336E+03  0.10831473796E+03  0.00000000000E+00 0. -1.
         -1    1    1    2    0  501 -0.52733863700E+01 -0.21553227904E+02 -0.89543967552E+02  0.92252221447E+02  0.00000000000E+00 0.  1.
</event>
<event>
 4    1  0.6769686E+001  0.2427843E+02  0.7546771E-02  0.1477040E+00
          2   -1    0    0  502    0  0.00000000000E+00  0.00000000000E+00  0.33632857453E+03  0.33632857453E+03  0.00000000000E+00 0. -1.
         -2   -1    0    0    0  501 -0.00000000000E+00 -0.00000000000E+00 -0.19476934513E+01  0.19476934513E+01  0.00000000000E+00 0.  1.
          1    1    1    2  502    0 -0.11397086806E+02  0.21437079888E+02  0.11365673265E+03  0.11622088822E+03  0.00000000000E+00 0.  1.
         -1    1    1    2    0  501  0.11397086806E+02 -0.21437079888E+02  0.22072414842E+03  0.22205537976E+03  0.00000000000E+00 0. -1.
</event>
<event>
 4    1  0.6769686E+001  0.2793903E+02  0.7546771E-02  0.1438397E+00
          2   -1    0    0  502    0  0.00000000000E+00  0.00000000000E+00  0.80827835929E+00  0.80827835929E+00  0.00000000000E+00 0.  1.
         -2   -1    0    0    0  501 -0.00000000000E+00 -0.00000000000E+00 -0.96770482954E+03  0.96770482954E+03  0.00000000000E+00 0. -1.
          1    1    1    2  502    0 -0.13841464740E+01 -0.27904720482E+02 -0.46164516896E+03  0.46248983915E+03  0.00000000000E+00 0. -1.
         -1    1    1    2    0  501  0.13841464740E+01  0.27904720482E+02 -0.50525138222E+03  0.50602326876E+03  0.00000000000E+00 0.  1.
</event>
<event>
 4    1  0.6769686E+001  0.2904867E+02  0.7546771E-02  0.1428048E+00
          2   -1    0    0  502    0  0.00000000000E+00  0.00000000000E+00  0.55584459661E+02  0.55584459661E+02  0.00000000000E+00 0. -1.
         -2   -1    0    0    0  501 -0.00000000000E+00 -0.00000000000E+00 -0.38790644658E+02  0.38790644658E+02  0.00000000000E+00 0.  1.
          1    1    1    2  502    0  0.12280468090E+02  0.26325179932E+02  0.45210577965E+02  0.53738453224E+02  0.00000000000E+00 0. -1.
         -1    1    1    2    0  501 -0.12280468090E+02 -0.26325179932E+02 -0.28416762963E+02  0.40636651095E+02  0.00000000000E+00 0.  1.
</event>
<event>
 4    1  0.6769686E+001  0.2328548E+02  0.7546771E-02  0.1488944E+00
          2   -1    0    0  502    0  0.00000000000E+00  0.00000000000E+00  0.17161216661E+04  0.17161216661E+04  0.00000000000E+00 0.  1.
         -2   -1    0    0    0  501 -0.00000000000E+00 -0.00000000000E+00 -0.70538686731E+00  0.70538686731E+00  0.00000000000E+00 0. -1.
          1    1    1    2  502    0 -0.23284588389E+02  0.20356756017E+00  0.14955306188E+04  0.14957118858E+04  0.00000000000E+00 0.  1.
         -1    1    1    2    0  501  0.23284588389E+02 -0.20356756017E+00  0.21988566041E+03  0.22111516717E+03  0.00000000000E+00 0. -1.
</event>
<event>
 4    1  0.6769686E+001  0.3972658E+02  0.7546771E-02  0.1350096E+00
          2   -1    0    0  502    0  0.00000000000E+00  0.00000000000E+00  0.83363051064E+02  0.83363051064E+02  0.00000000000E+00 0. -1.
         -2   -1    0    0    0  501 -0.00000000000E+00 -0.00000000000E+00 -0.38398000899E+02  0.38398000899E+02  0.00000000000E+00 0.  1.
          1    1    1    2  502    0 -0.39703887378E+02 -0.13425187542E+01  0.65830243032E+02  0.76888373160E+02  0.00000000000E+00 0. -1.
         -1    1    1    2    0  501  0.39703887378E+02  0.13425187542E+01 -0.20865192868E+02  0.44872678803E+02  0.00000000000E+00 0.  1.
</event>
<event>
 4    1  0.6769686E+001  0.2183450E+02  0.7546771E-02  0.1507676E+00
          2   -1    0    0  502    0  0.00000000000E+00  0.00000000000E+00  0.22967870301E+03  0.22967870301E+03  0.00000000000E+00 0. -1.
         -2   -1    0    0    0  501 -0.00000000000E+00 -0.00000000000E+00 -0.20978653351E+01  0.20978653351E+01  0.00000000000E+00 0.  1.
          1    1    1    2  502    0 -0.10306496100E+02 -0.19248938836E+02  0.10187999771E+03  0.10419347120E+03  0.00000000000E+00 0. -1.
         -1    1    1    2    0  501  0.10306496100E+02  0.19248938836E+02  0.12570083997E+03  0.12758309714E+03  0.00000000000E+00 0.  1.
</event>
<event>
 4    1  0.6769686E+001  0.3271184E+02  0.7546771E-02  0.1397405E+00
          2   -1    0    0  502    0  0.00000000000E+00  0.00000000000E+00  0.34034049017E+03  0.34034049017E+03  0.00000000000E+00 0. -1.
         -2   -1    0    0    0  501 -0.00000000000E+00 -0.00000000000E+00 -0.46547497506E+01  0.46547497506E+01  0.00000000000E+00 0.  1.
          1    1    1    2  502    0  0.25263495934E+02  0.20780283430E+02  0.69573791451E+02  0.76880276164E+02  0.00000000000E+00 0.  1.
         -1    1    1    2    0  501 -0.25263495934E+02 -0.20780283430E+02  0.26611194897E+03  0.26811496376E+03  0.00000000000E+00 0. -1.
</event>
<event>
 4    1  0.6769686E+001  0.3538786E+02  0.7546771E-02  0.1377857E+00
          2   -1    0    0  502    0  0.00000000000E+00  0.00000000000E+00  0.75772394629E+02  0.75772394629E+02  0.00000000000E+00 0. -1.
         -2   -1    0    0    0  501 -0.00000000000E+00 -0.00000000000E+00 -0.17033484550E+02  0.17033484550E+02  0.00000000000E+00 0.  1.
          1    1    1    2  502    0 -0.10175023738E+02  0.33893503063E+02  0.37369982180E+02  0.51466651592E+02  0.00000000000E+00 0.  1.
         -1    1    1    2    0  501  0.10175023738E+02 -0.33893503063E+02  0.21368927899E+02  0.41339227587E+02  0.00000000000E+00 0. -1.
</event>
<event>
 4    1  0.6769686E+001  0.3520588E+02  0.7546771E-02  0.1379122E+00
          2   -1    0    0  502    0  0.00000000000E+00  0.00000000000E+00  0.22307374520E+02  0.22307374520E+02  0.00000000000E+00 0. -1.
         -2   -1    0    0    0  501 -0.00000000000E+00 -0.00000000000E+00 -0.56299505103E+02  0.56299505103E+02  0.00000000000E+00 0.  1.
          1    1    1    2  502    0 -0.32750535484E+02 -0.12917295317E+02 -0.21492886782E+02  0.41248009346E+02  0.00000000000E+00 0.  1.
         -1    1    1    2    0  501  0.32750535484E+02  0.12917295317E+02 -0.12499243801E+02  0.37358870277E+02  0.00000000000E+00 0. -1.
</event>
<event>
 4    1  0.6769686E+001  0.2058416E+02  0.7546771E-02  0.1525286E+00
          2   -1    0    0  502    0  0.00000000000E+00  0.00000000000E+00  0.80209183542E+01  0.80209183542E+01  0.00000000000E+00 0.  1.
         -2   -1    0    0    0  501 -0.00000000000E+00 -0.00000000000E+00 -0.63584834075E+02  0.63584834075E+02  0.00000000000E+00 0. -1.
          1    1    1    2  502    0 -0.17658300212E+02  0.10577910007E+02 -0.13054185843E+02  0.24374566960E+02  0.00000000000E+00 0.  1.
         -1    1    1    2    0  501  0.17658300212E+02 -0.10577910007E+02 -0.42509729878E+02  0.47231185469E+02  0.00000000000E+00 0. -1.
</event>
<event>
 4    1  0.6769686E+001  0.2384849E+02  0.7546771E-02  0.1482110E+00
          2   -1    0    0  502    0  0.00000000000E+00  0.00000000000E+00  0.68767512441E+02  0.68767512441E+02  0.00000000000E+00 0.  1.
         -2   -1    0    0    0  501 -0.00000000000E+00 -0.00000000000E+00 -0.93096637230E+01  0.93096637230E+01  0.00000000000E+00 0. -1.
          1    1    1    2  502    0 -0.94104630514E+01 -0.21913316308E+02  0.16686955544E+02  0.29106781543E+02  0.00000000000E+00 0. -1.
         -1    1    1    2    0  501  0.94104630514E+01  0.21913316308E+02  0.42770893174E+02  0.48970394621E+02  0.00000000000E+00 0.  1.
</event>
<event>
 4    1  0.6769686E+001  0.2084384E+02  0.7546771E-02  0.1521506E+00
          2   -1    0    0  502    0  0.00000000000E+00  0.00000000000E+00  0.30886847127E+01  0.30886847127E+01  0.00000000000E+00 0. -1.
         -2   -1    0    0    0  501 -0.00000000000E+00 -0.00000000000E+00 -0.14239485681E+03  0.14239485681E+03  0.00000000000E+00 0.  1.
          1    1    1    2  502    0 -0.12169403921E+02  0.16922508623E+02 -0.61632424347E+02  0.65061673978E+02  0.00000000000E+00 0. -1.
         -1    1    1    2    0  501  0.12169403921E+02 -0.16922508623E+02 -0.77673747750E+02  0.80421867545E+02  0.00000000000E+00 0.  1.
</event>
<event>
 4    1  0.6769686E+001  0.2658433E+02  0.7546771E-02  0.1451829E+00
          2   -1    0    0  502    0  0.00000000000E+00  0.00000000000E+00  0.31987829040E+02  0.31987829040E+02  0.00000000000E+00 0. -1.
         -2   -1    0    0    0  501 -0.00000000000E+00 -0.00000000000E+00 -0.22093860213E+02  0.22093860213E+02  0.00000000000E+00 0.  1.
          1    1    1    2  502    0  0.15290527945E+02  0.21746872984E+02  0.48566116650E+01  0.27024311394E+02  0.00000000000E+00 0. -1.
         -1    1    1    2    0  501 -0.15290527945E+02 -0.21746872984E+02  0.50373571627E+01  0.27057377859E+02  0.00000000000E+00 0.  1.
</event>
<event>
 4    1  0.6769686E+001  0.2524177E+02  0.7546771E-02  0.1466117E+00
          2   -1    0    0  502    0  0.00000000000E+00  0.00000000000E+00  0.16083686509E+01  0.16083686509E+01  0.00000000000E+00 0.  1.
         -2   -1    0    0    0  501 -0.00000000000E+00 -0.00000000000E+00 -0.40565929983E+03  0.40565929983E+03  0.00000000000E+00 0. -1.
          1    1    1    2  502    0 -0.46535531168E+01 -0.24809101546E+02 -0.17083948648E+03  0.17269417251E+03  0.00000000000E+00 0. -1.
         -1    1    1    2    0  501  0.46535531168E+01  0.24809101546E+02 -0.23321144470E+03  0.23457349598E+03  0.00000000000E+00 0.  1.
</event>
<event>
 4    1  0.6769686E+001  0.2635638E+02  0.7546771E-02  0.1454183E+00
          2   -1    0    0  502    0  0.00000000000E+00  0.00000000000E+00  0.36768837036E+02  0.36768837036E+02  0.00000000000E+00 0. -1.
         -2   -1    0    0    0  501 -0.00000000000E+00 -0.00000000000E+00 -0.18900745580E+02  0.18900745580E+02  0.00000000000E+00 0.  1.
          1    1    1    2  502    0  0.24208851916E+02  0.10420669492E+02  0.95119527319E+01  0.28020280307E+02  0.00000000000E+00 0. -1.
         -1    1    1    2    0  501 -0.24208851916E+02 -0.10420669492E+02  0.83561387241E+01  0.27649302308E+02  0.00000000000E+00 0.  1.
</event>
<event>
 4    1  0.6769686E+001  0.2176168E+02  0.7546771E-02  0.1508662E+00
          2   -1    0    0  502    0  0.00000000000E+00  0.00000000000E+00  0.71541179897E+01  0.71541179897E+01  0.00000000000E+00 0.  1.
         -2   -1    0    0    0  501 -0.00000000000E+00 -0.00000000000E+00 -0.66299699590E+02  0.66299699590E+02  0.00000000000E+00 0. -1.
          1    1    1    2  502    0 -0.15716283353E+02  0.15052208340E+02 -0.31028673413E+02  0.37899196721E+02  0.00000000000E+00 0. -1.
         -1    1    1    2    0  501  0.15716283353E+02 -0.15052208340E+02 -0.28116908187E+02  0.35554620858E+02  0.00000000000E+00 0.  1.
</event>
<event>
 4    1  0.6769686E+001  0.2740825E+02  0.7546771E-02  0.1443550E+00
          2   -1    0    0  502    0  0.00000000000E+00  0.00000000000E+00  0.22116393271E+03  0.22116393271E+03  0.00000000000E+00 0.  1.
         -2   -1    0    0    0  501 -0.00000000000E+00 -0.00000000000E+00 -0.60099134810E+01  0.60099134810E+01  0.00000000000E+00 0. -1.
          1    1    1    2  502    0 -0.14824694448E+02  0.23052995659E+02  0.32676040007E+02  0.42648983164E+02  0.00000000000E+00 0. -1.
         -1    1    1    2    0  501  0.14824694448E+02 -0.23052995659E+02  0.18247797923E+03  0.18452486303E+03  0.00000000000E+00 0.  1.
</event>
<event>
 4    1  0.6769686E+001  0.5601831E+02  0.7546771E-02  0.1273996E+00
          2   -1    0    0  502    0  0.00000000000E+00  0.00000000000E+00  0.26281859554E+02  0.26281859554E+02  0.00000000000E+00 0.  1.
         -2   -1    0    0    0  501 -0.00000000000E+00 -0.00000000000E+00 -0.18771827996E+03  0.18771827996E+03  0.00000000000E+00 0. -1.
          1    1    1    2  502    0  0.52422435462E+02  0.19746873773E+02 -0.16167706626E+02  0.58304763966E+02  0.00000000000E+00 0.  1.
         -1    1    1    2    0  501 -0.52422435462E+02 -0.19746873773E+02 -0.14526871378E+03  0.15569537554E+03  0.00000000000E+00 0. -1.
</event>
<event>
 4    1  0.6769686E+001  0.2895065E+02  0.7546771E-02  0.1428940E+00
          2   -1    0    0  502    0  0.00000000000E+00  0.00000000000E+00  0.30029412469E+01  0.30029412469E+01  0.00000000000E+00 0. -1.
         -2   -1    0    0    0  501 -0.00000000000E+00 -0.00000000000E+00 -0.36409940426E+03  0.36409940426E+03  0.00000000000E+00 0.  1.
          1    1    1    2  502    0 -0.22990870505E+02  0.17594321794E+02 -0.91865588214E+02  0.96319398793E+02  0.00000000000E+00 0. -1.
         -1    1    1    2    0  501  0.22990870505E+02 -0.17594321794E+02 -0.26923087480E+03  0.27078294672E+03  0.00000000000E+00 0.  1.
</event>
<event>
 4    1  0.6769686E+001  0.2024546E+02  0.7546771E-02  0.1530316E+00
          2   -1    0    0  502    0  0.00000000000E+00  0.00000000000E+00  0.56023267271E+02  0.56023267271E+02  0.00000000000E+00 0. -1.
         -2   -1    0    0    0  501 -0.00000000000E+00 -0.00000000000E+00 -0.80943008570E+01  0.80943008570E+01  0.00000000000E+00 0.  1.
          1    1    1    2  502    0  0.16484865726E+02 -0.11752787832E+02  0.33904071333E+02  0.39488794268E+02  0.00000000000E+00 0. -1.
         -1    1    1    2    0  501 -0.16484865726E+02  0.11752787832E+02  0.14024895082E+02  0.24628773861E+02  0.00000000000E+00 0.  1.
</event>
<event>
 4    1  0.6769686E+001  0.2478101E+02  0.7546771E-02  0.1471268E+00
          2   -1    0    0  502    0  0.00000000000E+00  0.00000000000E+00  0.16343367823E+03  0.16343367823E+03  0.00000000000E+00 0. -1.
         -2   -1    0    0    0  501 -0.00000000000E+00 -0.00000000000E+00 -0.51548572135E+01  0.51548572135E+01  0.00000000000E+00 0.  1.
          1    1    1    2  502    0 -0.18164728857E+01  0.24714349674E+02  0.35251321770E+02  0.43090072408E+02  0.00000000000E+00 0.  1.
         -1    1    1    2    0  501  0.18164728857E+01 -0.24714349674E+02  0.12302749924E+03  0.12549846303E+03  0.00000000000E+00 0. -1.
</event>
<event>
 4    1  0.6769686E+001  0.2117682E+02  0.7546771E-02  0.1516755E+00
          2   -1    0    0  502    0  0.00000000000E+00  0.00000000000E+00  0.32120145480E+03  0.32120145480E+03  0.00000000000E+00 0. -1.
         -2   -1    0    0    0  501 -0.00000000000E+00 -0.00000000000E+00 -0.23232736353E+01  0.23232736353E+01  0.00000000000E+00 0.  1.
          1    1    1    2  502    0  0.74832137118E+01 -0.19810580914E+02  0.26162411174E+03  0.26247977722E+03  0.00000000000E+00 0. -1.
         -1    1    1    2    0  501 -0.74832137118E+01  0.19810580914E+02  0.57254069418E+02  0.61044951213E+02  0.00000000000E+00 0.  1.
</event>
<event>
 4    1  0.6769686E+001  0.2237843E+02  0.7546771E-02  0.1500454E+00
          2   -1    0    0  502    0  0.00000000000E+00  0.00000000000E+00  0.35317661283E+02  0.35317661283E+02  0.00000000000E+00 0.  1.
         -2   -1    0    0    0  501 -0.00000000000E+00 -0.00000000000E+00 -0.23546002908E+02  0.23546002908E+02  0.00000000000E+00 0. -1.
          1    1    1    2  502    0 -0.17410915238E+02  0.14058953584E+02  0.24448591369E+02  0.33144045698E+02  0.00000000000E+00 0.  1.
         -1    1    1    2    0  501  0.17410915238E+02 -0.14058953584E+02 -0.12676932994E+02  0.25719618493E+02  0.00000000000E+00 0. -1.
</event>
<event>
 4    1  0.6769686E+001  0.3278612E+02  0.7546771E-02  0.1396833E+00
          2   -1    0    0  502    0  0.00000000000E+00  0.00000000000E+00  0.16684165763E+03  0.16684165763E+03  0.00000000000E+00 0. -1.
         -2   -1    0    0    0  501 -0.00000000000E+00 -0.00000000000E+00 -0.99570199147E+01  0.99570199147E+01  0.00000000000E+00 0.  1.
          1    1    1    2  502    0  0.16550169297E+01 -0.32744323002E+02  0.25925558153E+02  0.41797898696E+02  0.00000000000E+00 0.  1.
         -1    1    1    2    0  501 -0.16550169297E+01  0.32744323002E+02  0.13095907956E+03  0.13500077884E+03  0.00000000000E+00 0. -1.
</event>
<event>
 4    1  0.6769686E+001  0.2239049E+02  0.7546771E-02  0.1500297E+00
          2   -1    0    0  502    0  0.00000000000E+00  0.00000000000E+00  0.71980461876E+03  0.71980461876E+03  0.00000000000E+00 0.  1.
         -2   -1    0    0    0  501 -0.00000000000E+00 -0.00000000000E+00 -0.69760716495E+00  0.69760716495E+00  0.00000000000E+00 0. -1.
          1    1    1    2  502    0  0.16756335579E+01 -0.22327706552E+02  0.37399227594E+03  0.37466192319E+03  0.00000000000E+00 0. -1.
         -1    1    1    2    0  501 -0.16756335579E+01  0.22327706552E+02  0.34511473566E+03  0.34584030274E+03  0.00000000000E+00 0.  1.
</event>
<event>
 4    1  0.6769686E+001  0.2029116E+02  0.7546771E-02  0.1529630E+00
          2   -1    0    0  502    0  0.00000000000E+00  0.00000000000E+00  0.55780528816E+01  0.55780528816E+01  0.00000000000E+00 0.  1.
         -2   -1    0    0    0  501 -0.00000000000E+00 -0.00000000000E+00 -0.96597735585E+02  0.96597735585E+02  0.00000000000E+00 0. -1.
          1    1    1    2  502    0 -0.15914869498E+02  0.12587613841E+02 -0.20697972832E+02  0.28985119849E+02  0.00000000000E+00 0.  1.
         -1    1    1    2    0  501  0.15914869498E+02 -0.12587613841E+02 -0.70321709871E+02  0.73190668617E+02  0.00000000000E+00 0. -1.
</event>
<event>
 4    1  0.6769686E+001  0.2273276E+02  0.7546771E-02  0.1495881E+00
          2   -1    0    0  502    0  0.00000000000E+00  0.00000000000E+00  0.22948102154E+02  0.22948102154E+02  0.00000000000E+00 0.  1.
         -2   -1    0    0    0  501 -0.00000000000E+00 -0.00000000000E+00 -0.23815748994E+02  0.23815748994E+02  0.00000000000E+00 0. -1.
          1    1    1    2  502    0 -0.22445028392E+02 -0.36054093539E+01  0.50212850779E+01  0.23280712617E+02  0.00000000000E+00 0. -1.
         -1    1    1    2    0  501  0.22445028392E+02  0.36054093539E+01 -0.58889319182E+01  0.23483138531E+02  0.00000000000E+00 0.  1.
</event>
<event>
 4    1  0.6769686E+001  0.3669752E+02  0.7546771E-02  0.1369006E+00
          2   -1    0    0  502    0  0.00000000000E+00  0.00000000000E+00  0.17589522187E+01  0.17589522187E+01  0.00000000000E+00 0.  1.
         -2   -1    0    0    0  501 -0.00000000000E+00 -0.00000000000E+00 -0.87478165136E+03  0.87478165136E+03  0.00000000000E+00 0. -1.
          1    1    1    2  502    0  0.36455935048E+02 -0.42038737936E+01 -0.59132385697E+03  0.59246148531E+03  0.00000000000E+00 0. -1.
         -1    1    1    2    0  501 -0.36455935048E+02  0.42038737936E+01 -0.28169884217E+03  0.28407911827E+03  0.00000000000E+00 0.  1.
</event>
<event>
 4    1  0.6769686E+001  0.2163812E+02  0.7546771E-02  0.1510346E+00
          2   -1    0    0  502    0  0.00000000000E+00  0.00000000000E+00  0.10362642444E+01  0.10362642444E+01  0.00000000000E+00 0.  1.
         -2   -1    0    0    0  501 -0.00000000000E+00 -0.00000000000E+00 -0.47505251364E+03  0.47505251364E+03  0.00000000000E+00 0. -1.
          1    1    1    2  502    0  0.21606782363E+02  0.11641829932E+01 -0.18436955595E+03  0.18563496849E+03  0.00000000000E+00 0. -1.
         -1    1    1    2    0  501 -0.21606782363E+02 -0.11641829932E+01 -0.28964669344E+03  0.29045380939E+03  0.00000000000E+00 0.  1.
</event>
<event>
 4    1  0.6769686E+001  0.3016676E+02  0.7546771E-02  0.1418153E+00
          2   -1    0    0  502    0  0.00000000000E+00  0.00000000000E+00  0.21081084188E+04  0.21081084188E+04  0.00000000000E+00 0.  1.
         -2   -1    0    0    0  501 -0.00000000000E+00 -0.00000000000E+00 -0.47978890981E+00  0.47978890981E+00  0.00000000000E+00 0. -1.
          1    1    1    2  502    0  0.85774143093E+01 -0.28921638888E+02  0.71997402522E+03  0.72060573840E+03  0.00000000000E+00 0. -1.
         -1    1    1    2    0  501 -0.85774143093E+01  0.28921638888E+02  0.13876546047E+04  0.13879824693E+04  0.00000000000E+00 0.  1.
</event>
<event>
 4    1  0.6769686E+001  0.2191958E+02  0.7546771E-02  0.1506530E+00
          2   -1    0    0  502    0  0.00000000000E+00  0.00000000000E+00  0.69688253622E+03  0.69688253622E+03  0.00000000000E+00 0. -1.
         -2   -1    0    0    0  501 -0.00000000000E+00 -0.00000000000E+00 -0.11177587637E+01  0.11177587637E+01  0.00000000000E+00 0.  1.
          1    1    1    2  502    0  0.21865734766E+02 -0.15354242044E+01  0.56391953613E+03  0.56434538282E+03  0.00000000000E+00 0. -1.
         -1    1    1    2    0  501 -0.21865734766E+02  0.15354242044E+01  0.13184524132E+03  0.13365491216E+03  0.00000000000E+00 0.  1.
</event>
<event>
 4    1  0.6769686E+001  0.2890783E+02  0.7546771E-02  0.1429331E+00
          2   -1    0    0  502    0  0.00000000000E+00  0.00000000000E+00  0.53097760584E+03  0.53097760584E+03  0.00000000000E+00 0.  1.
         -2   -1    0    0    0  501 -0.00000000000E+00 -0.00000000000E+00 -0.16537693824E+01  0.16537693824E+01  0.00000000000E+00 0. -1.
          1    1    1    2  502    0  0.93082068894E+01 -0.27368229758E+02  0.32321761941E+03  0.32450776911E+03  0.00000000000E+00 0.  1.
         -1    1    1    2    0  501 -0.93082068894E+01  0.27368229758E+02  0.20610621705E+03  0.20812360612E+03  0.00000000000E+00 0. -1.
</event>
<event>
 4    1  0.6769686E+001  0.2025889E+02  0.7546771E-02  0.1530114E+00
          2   -1    0    0  502    0  0.00000000000E+00  0.00000000000E+00  0.29909403891E+03  0.29909403891E+03  0.00000000000E+00 0. -1.
         -2   -1    0    0    0  501 -0.00000000000E+00 -0.00000000000E+00 -0.13723498243E+01  0.13723498243E+01  0.00000000000E+00 0.  1.
          1    1    1    2  502    0 -0.18742319899E+02  0.76907678314E+01  0.15032875279E+03  0.15168769357E+03  0.00000000000E+00 0.  1.
         -1    1    1    2    0  501  0.18742319899E+02 -0.76907678314E+01  0.14739293629E+03  0.14877869516E+03  0.00000000000E+00 0. -1.
</event>
<event>
 4    1  0.6769686E+001  0.3508974E+02  0.7546771E-02  0.1379933E+00
          2   -1    0    0  502    0  0.00000000000E+00  0.00000000000E+00  0.16827593166E+04  0.16827593166E+04  0.00000000000E+00 0. -1.
         -2   -1    0    0    0  501 -0.00000000000E+00 -0.00000000000E+00 -0.74842445022E+00  0.74842445022E+00  0.00000000000E+00 0.  1.
          1    1    1    2  502    0 -0.14119140155E+02 -0.32123821224E+02  0.71520819064E+03  0.71606846458E+03  0.00000000000E+00 0. -1.
         -1    1    1    2    0  501  0.14119140155E+02  0.32123821224E+02  0.96680270146E+03  0.96743927642E+03  0.00000000000E+00 0.  1.
</event>
<event>
 4    1  0.6769686E+001  0.2042144E+02  0.7546771E-02  0.1527688E+00
          2   -1    0    0  502    0  0.00000000000E+00  0.00000000000E+00  0.37449019117E+03  0.37449019117E+03  0.00000000000E+00 0.  1.
         -2   -1    0    0    0  501 -0.00000000000E+00 -0.00000000000E+00 -0.13054988399E+01  0.13054988399E+01  0.00000000000E+00 0. -1.
          1    1    1    2  502    0  0.14491200692E+02 -0.14388900949E+02  0.11455455496E+03  0.11636056647E+03  0.00000000000E+00 0. -1.
         -1    1    1    2    0  501 -0.14491200692E+02  0.14388900949E+02  0.25863013737E+03  0.25943512354E+03  0.00000000000E+00 0.  1.
</event>
<event>
 4    1  0.6769686E+001  0.2110156E+02  0.7546771E-02  0.1517820E+00
          2   -1    0    0  502    0  0.00000000000E+00  0.00000000000E+00  0.40865878389E+03  0.40865878389E+03  0.00000000000E+00 0. -1.
         -2   -1    0    0    0  501 -0.00000000000E+00 -0.00000000000E+00 -0.16237406428E+01  0.16237406428E+01  0.00000000000E+00 0.  1.
          1    1    1    2  502    0  0.16263964120E+02  0.13444683506E+02  0.85859625047E+02  0.88414655215E+02  0.00000000000E+00 0.  1.
         -1    1    1    2    0  501 -0.16263964120E+02 -0.13444683506E+02  0.32117541820E+03  0.32186786932E+03  0.00000000000E+00 0. -1.
</event>
<event>
 4    1  0.6769686E+001  0.2559203E+02  0.7546771E-02  0.1462288E+00
          2   -1    0    0  502    0  0.00000000000E+00  0.00000000000E+00  0.62786520002E+03  0.62786520002E+03  0.00000000000E+00 0. -1.
         -2   -1    0    0    0  501 -0.00000000000E+00 -0.00000000000E+00 -0.11338574601E+01  0.11338574601E+01  0.00000000000E+00 0.  1.
          1    1    1    2  502    0  0.25450720632E+01 -0.25465164201E+02  0.22440795267E+03  0.22586252721E+03  0.00000000000E+00 0.  1.
         -1    1    1    2    0  501 -0.25450720632E+01  0.25465164201E+02  0.40232338989E+03  0.40313653027E+03  0.00000000000E+00 0. -1.
</event>
<event>
 4    1  0.6769686E+001  0.4596432E+02  0.7546771E-02  0.1316687E+00
          2   -1    0    0  502    0  0.00000000000E+00  0.00000000000E+00  0.91785003983E+03  0.91785003983E+03  0.00000000000E+00 0.  1.
         -2   -1    0    0    0  501 -0.00000000000E+00 -0.00000000000E+00 -0.27041123528E+01  0.27041123528E+01  0.00000000000E+00 0. -1.
          1    1    1    2  502    0 -0.35414622192E+02 -0.29300564603E+02  0.63510715287E+03  0.63676825783E+03  0.00000000000E+00 0. -1.
         -1    1    1    2    0  501  0.35414622192E+02  0.29300564603E+02  0.28003877461E+03  0.28378589436E+03  0.00000000000E+00 0.  1.
</event>
<event>
 4    1  0.6769686E+001  0.2539965E+02  0.7546771E-02  0.1464382E+00
          2   -1    0    0  502    0  0.00000000000E+00  0.00000000000E+00  0.28311135777E+02  0.28311135777E+02  0.00000000000E+00 0. -1.
         -2   -1    0    0    0  501 -0.00000000000E+00 -0.00000000000E+00 -0.45158719112E+02  0.45158719112E+02  0.00000000000E+00 0.  1.
          1    1    1    2  502    0  0.23171285986E+02  0.10403531829E+02  0.17431683994E+02  0.30805934097E+02  0.00000000000E+00 0. -1.
         -1    1    1    2    0  501 -0.23171285986E+02 -0.10403531829E+02 -0.34279267329E+02  0.42663920792E+02  0.00000000000E+00 0.  1.
</event>
<event>
 4    1  0.6769686E+001  0.2245194E+02  0.7546771E-02  0.1499497E+00
          2   -1    0    0  502    0  0.00000000000E+00  0.00000000000E+00  0.12335346579E+04  0.12335346579E+04  0.00000000000E+00 0.  1.
         -2   -1    0    0    0  501 -0.00000000000E+00 -0.00000000000E+00 -0.54026019538E+00  0.54026019538E+00  0.00000000000E+00 0. -1.
          1    1    1    2  502    0  0.21180841689E+02 -0.74472569146E+01  0.31195525388E+03  0.31276216221E+03  0.00000000000E+00 0. -1.
         -1    1    1    2    0  501 -0.21180841689E+02  0.74472569146E+01  0.92103914379E+03  0.92131275585E+03  0.00000000000E+00 0.  1.
</event>
<event>
 4    1  0.6769686E+001  0.2663753E+02  0.7546771E-02  0.1451284E+00
          2   -1    0    0  502    0  0.00000000000E+00  0.00000000000E+00  0.67267071328E+03  0.67267071328E+03  0.00000000000E+00 0.  1.
         -2   -1    0    0    0  501 -0.00000000000E+00 -0.00000000000E+00 -0.20306146517E+01  0.20306146517E+01  0.00000000000E+00 0. -1.
          1    1    1    2  502    0 -0.20752316816E+02  0.16700287010E+02  0.10146693834E+03  0.10490518488E+03  0.00000000000E+00 0. -1.
         -1    1    1    2    0  501  0.20752316816E+02 -0.16700287010E+02  0.56917316029E+03  0.56979614305E+03  0.00000000000E+00 0.  1.
</event>
<event>
 4    1  0.6769686E+001  0.2929885E+02  0.7546771E-02  0.1425789E+00
          2   -1    0    0  502    0  0.00000000000E+00  0.00000000000E+00  0.15694723816E+02  0.15694723816E+02  0.00000000000E+00 0. -1.
         -2   -1    0    0    0  501 -0.00000000000E+00 -0.00000000000E+00 -0.55133249918E+02  0.55133249918E+02  0.00000000000E+00 0.  1.
          1    1    1    2  502    0  0.15191013769E+02  0.25053062139E+02 -0.22876680588E+02  0.37172104280E+02  0.00000000000E+00 0. -1.
         -1    1    1    2    0  501 -0.15191013769E+02 -0.25053062139E+02 -0.16561845514E+02  0.33655869454E+02  0.00000000000E+00 0.  1.
</event>
<event>
 4    1  0.6769686E+001  0.2468656E+02  0.7546771E-02  0.1472340E+00
          2   -1    0    0  502    0  0.00000000000E+00  0.00000000000E+00  0.17850239570E+04  0.17850239570E+04  0.00000000000E+00 0.  1.
         -2   -1    0    0    0  501 -0.00000000000E+00 -0.00000000000E+00 -0.51312609899E+00  0.51312609899E+00  0.00000000000E+00 0. -1.
          1    1    1    2  502    0  0.18636862849E+02 -0.16189311242E+02  0.14087090318E+04  0.14089253220E+04  0.00000000000E+00 0.  1.
         -1    1    1    2    0  501 -0.18636862849E+02  0.16189311242E+02  0.37580179907E+03  0.37661176116E+03  0.00000000000E+00 0. -1.
</event>
<event>
 4    1  0.6769686E+001  0.2337970E+02  0.7546771E-02  0.1487784E+00
          2   -1    0    0  502    0  0.00000000000E+00  0.00000000000E+00  0.21257728621E+01  0.21257728621E+01  0.00000000000E+00 0.  1.
         -2   -1    0    0    0  501 -0.00000000000E+00 -0.00000000000E+00 -0.27701031860E+03  0.27701031860E+03  0.00000000000E+00 0. -1.
          1    1    1    2  502    0  0.22149075808E+02 -0.74852551584E+01 -0.17482707433E+03  0.17638343608E+03  0.00000000000E+00 0. -1.
         -1    1    1    2    0  501 -0.22149075808E+02  0.74852551584E+01 -0.10005747141E+03  0.10275265538E+03  0.00000000000E+00 0.  1.
</event>
<event>
 4    1  0.6769686E+001  0.2006304E+02  0.7546771E-02  0.1533074E+00
          2   -1    0    0  502    0  0.00000000000E+00  0.00000000000E+00  0.85243832748E+02  0.85243832748E+02  0.00000000000E+00 0.  1.
         -2   -1    0    0    0  501 -0.00000000000E+00 -0.00000000000E+00 -0.49319424874E+01  0.49319424874E+01  0.00000000000E+00 0. -1.
          1    1    1    2  502    0 -0.63419885526E+01  0.19034300164E+02  0.30854461337E+02  0.36803847433E+02  0.00000000000E+00 0. -1.
         -1    1    1    2    0  501  0.63419885526E+01 -0.19034300164E+02  0.49457428924E+02  0.53371927802E+02  0.00000000000E+00 0.  1.
</event>
<event>
 4    1  0.6769686E+001  0.2234041E+02  0.7546771E-02  0.1500951E+00
          2   -1    0    0  502    0  0.00000000000E+00  0.00000000000E+00  0.25054995905E+04  0.25054995905E+04  0.00000000000E+00 0. -1.
         -2   -1    0    0    0  501 -0.00000000000E+00 -0.00000000000E+00 -0.19924304025E+00  0.19924304025E+00  0.00000000000E+00 0.  1.
          1    1    1    2  502    0  0.21679151966E+02 -0.53951971202E+01  0.12340886540E+04  0.12342908489E+04  0.00000000000E+00 0. -1.
         -1    1    1    2    0  501 -0.21679151966E+02  0.53951971202E+01  0.12712116935E+04  0.12714079846E+04  0.00000000000E+00 0.  1.
</event>
<event>
 4    1  0.6769686E+001  0.2264786E+02  0.7546771E-02  0.1496968E+00
          2   -1    0    0  502    0  0.00000000000E+00  0.00000000000E+00  0.20233292849E+01  0.20233292849E+01  0.00000000000E+00 0.  1.
         -2   -1    0    0    0  501 -0.00000000000E+00 -0.00000000000E+00 -0.29039339632E+03  0.29039339632E+03  0.00000000000E+00 0. -1.
          1    1    1    2  502    0  0.18756209520E+02 -0.12693709857E+02 -0.92075264162E+02  0.94819723349E+02  0.00000000000E+00 0.  1.
         -1    1    1    2    0  501 -0.18756209520E+02  0.12693709857E+02 -0.19629480288E+03  0.19759700226E+03  0.00000000000E+00 0. -1.
</event>
<event>
 4    1  0.6769686E+001  0.5913576E+02  0.7546771E-02  0.1262798E+00
          2   -1    0    0  502    0  0.00000000000E+00  0.00000000000E+00  0.31842109911E+03  0.31842109911E+03  0.00000000000E+00 0. -1.
         -2   -1    0    0    0  501 -0.00000000000E+00 -0.00000000000E+00 -0.17705983659E+02  0.17705983659E+02  0.00000000000E+00 0.  1.
          1    1    1    2  502    0 -0.36061986418E+02 -0.46867586717E+02  0.46792582225E+02  0.75409437741E+02  0.00000000000E+00 0.  1.
         -1    1    1    2    0  501  0.36061986418E+02  0.46867586717E+02  0.25392253323E+03  0.26071764503E+03  0.00000000000E+00 0. -1.
</event>
<event>
 4    1  0.6769686E+001  0.2347563E+02  0.7546771E-02  0.1486610E+00
          2   -1    0    0  502    0  0.00000000000E+00  0.00000000000E+00  0.77135304926E+01  0.77135304926E+01  0.00000000000E+00 0.  1.
         -2   -1    0    0    0  501 -0.00000000000E+00 -0.00000000000E+00 -0.95584048414E+02  0.95584048414E+02  0.00000000000E+00 0. -1.
          1    1    1    2  502    0  0.66743811829E+01  0.22506836424E+02 -0.69889819089E+02  0.73727144678E+02  0.00000000000E+00 0. -1.
         -1    1    1    2    0  501 -0.66743811829E+01 -0.22506836424E+02 -0.17980698833E+02  0.29570434229E+02  0.00000000000E+00 0.  1.
</event>
<event>
 4    1  0.6769686E+001  0.2321202E+02  0.7546771E-02  0.1489853E+00
          2   -1    0    0  502    0  0.00000000000E+00  0.00000000000E+00  0.28398955354E+03  0.28398955354E+03  0.00000000000E+00 0.  1.
         -2   -1    0    0    0  501 -0.00000000000E+00 -0.00000000000E+00 -0.32612549846E+02  0.32612549846E+02  0.00000000000E+00 0. -1.
          1    1    1    2  502    0 -0.13623289826E+02 -0.18793713331E+02 -0.27938954210E+02  0.36323309992E+02  0.00000000000E+00 0. -1.
         -1    1    1    2    0  501  0.13623289826E+02  0.18793713331E+02  0.27931595791E+03  0.28027879340E+03  0.00000000000E+00 0.  1.
</event>
<event>
 4    1  0.6769686E+001  0.2470719E+02  0.7546771E-02  0.1472106E+00
          2   -1    0    0  502    0  0.00000000000E+00  0.00000000000E+00  0.27807261259E+03  0.27807261259E+03  0.00000000000E+00 0.  1.
         -2   -1    0    0    0  501 -0.00000000000E+00 -0.00000000000E+00 -0.24899320901E+01  0.24899320901E+01  0.00000000000E+00 0. -1.
          1    1    1    2  502    0 -0.17412602736E+02  0.17528446971E+02  0.18604898938E+03  0.18768236901E+03  0.00000000000E+00 0.  1.
         -1    1    1    2    0  501  0.17412602736E+02 -0.17528446971E+02  0.89533691123E+02  0.92880175675E+02  0.00000000000E+00 0. -1.
</event>
<event>
 4    1  0.6769686E+001  0.2108010E+02  0.7546771E-02  0.1518124E+00
          2   -1    0    0  502    0  0.00000000000E+00  0.00000000000E+00  0.41946109666E+01  0.41946109666E+01  0.00000000000E+00 0.  1.
         -2   -1    0    0    0  501 -0.00000000000E+00 -0.00000000000E+00 -0.10768867504E+03  0.10768867504E+03  0.00000000000E+00 0. -1.
          1    1    1    2  502    0  0.34110146195E+01  0.20802295070E+02 -0.44615224591E+02  0.49344592066E+02  0.00000000000E+00 0. -1.
         -1    1    1    2    0  501 -0.34110146195E+01 -0.20802295070E+02 -0.58878839487E+02  0.62538693945E+02  0.00000000000E+00 0.  1.
</event>
<event>
 4    1  0.6769686E+001  0.2934033E+02  0.7546771E-02  0.1425417E+00
          2   -1    0    0  502    0  0.00000000000E+00  0.00000000000E+00  0.24298280371E+03  0.24298280371E+03  0.00000000000E+00 0. -1.
         -2   -1    0    0    0  501 -0.00000000000E+00 -0.00000000000E+00 -0.12741702709E+02  0.12741702709E+02  0.00000000000E+00 0.  1.
          1    1    1    2  502    0 -0.84020106858E+01 -0.28111586051E+02  0.64792091669E+01  0.30047216265E+02  0.00000000000E+00 0.  1.
         -1    1    1    2    0  501  0.84020106858E+01  0.28111586051E+02  0.22376189184E+03  0.22567729016E+03  0.00000000000E+00 0. -1.
</event>
<event>
 4    1  0.6769686E+001  0.5765155E+02  0.7546771E-02  0.1268028E+00
          2   -1    0    0  502    0  0.00000000000E+00  0.00000000000E+00  0.36891826116E+02  0.36891826116E+02  0.00000000000E+00 0.  1.
         -2   -1    0    0    0  501 -0.00000000000E+00 -0.00000000000E+00 -0.10622272093E+03  0.10622272093E+03  0.00000000000E+00 0. -1.
          1    1    1    2  502    0  0.57651461801E+02  0.10035827729E+00 -0.62549530817E+02  0.85065533120E+02  0.00000000000E+00 0. -1.
         -1    1    1    2    0  501 -0.57651461801E+02 -0.10035827729E+00 -0.67813639920E+01  0.58049013921E+02  0.00000000000E+00 0.  1.
</event>
<event>
 4    1  0.6769686E+001  0.3003634E+02  0.7546771E-02  0.1419281E+00
          2   -1    0    0  502    0  0.00000000000E+00  0.00000000000E+00  0.90827151630E+03  0.90827151630E+03  0.00000000000E+00 0. -1.
         -2   -1    0    0    0  501 -0.00000000000E+00 -0.00000000000E+00 -0.15626146286E+01  0.15626146286E+01  0.00000000000E+00 0.  1.
          1    1    1    2  502    0 -0.42759675343E+01  0.29730419513E+02  0.72794417846E+03  0.72856359276E+03  0.00000000000E+00 0. -1.
         -1    1    1    2    0  501  0.42759675343E+01 -0.29730419513E+02  0.17876472321E+03  0.18127053817E+03  0.00000000000E+00 0.  1.
</event>
<event>
 4    1  0.6769686E+001  0.2635594E+02  0.7546771E-02  0.1454187E+00
          2   -1    0    0  502    0  0.00000000000E+00  0.00000000000E+00  0.27026969561E+04  0.27026969561E+04  0.00000000000E+00 0. -1.
         -2   -1    0    0    0  501 -0.00000000000E+00 -0.00000000000E+00 -0.25701962461E+00  0.25701962461E+00  0.00000000000E+00 0.  1.
          1    1    1    2  502    0 -0.54046317377E+01 -0.25795846709E+02  0.13564506275E+04  0.13567066524E+04  0.00000000000E+00 0. -1.
         -1    1    1    2    0  501  0.54046317377E+01  0.25795846709E+02  0.13459893090E+04  0.13462473233E+04  0.00000000000E+00 0.  1.
</event>
<event>
 4    1  0.6769686E+001  0.2287485E+02  0.7546771E-02  0.1494076E+00
          2   -1    0    0  502    0  0.00000000000E+00  0.00000000000E+00  0.49072058437E+03  0.49072058437E+03  0.00000000000E+00 0. -1.
         -2   -1    0    0    0  501 -0.00000000000E+00 -0.00000000000E+00 -0.20682184186E+01  0.20682184186E+01  0.00000000000E+00 0.  1.
          1    1    1    2  502    0 -0.18962400352E+02 -0.12793984876E+02  0.72832806926E+02  0.76340529477E+02  0.00000000000E+00 0.  1.
         -1    1    1    2    0  501  0.18962400352E+02  0.12793984876E+02  0.41581955903E+03  0.41644827332E+03  0.00000000000E+00 0. -1.
</event>
<event>
 4    1  0.6769686E+001  0.2030376E+02  0.7546771E-02  0.1529442E+00
          2   -1    0    0  502    0  0.00000000000E+00  0.00000000000E+00  0.12474974720E+04  0.12474974720E+04  0.00000000000E+00 0. -1.
         -2   -1    0    0    0  501 -0.00000000000E+00 -0.00000000000E+00 -0.64068045894E+00  0.64068045894E+00  0.00000000000E+00 0.  1.
          1    1    1    2  502    0 -0.20222034768E+02  0.18198717791E+01  0.10576887348E+04  0.10578835958E+04  0.00000000000E+00 0. -1.
         -1    1    1    2    0  501  0.20222034768E+02 -0.18198717791E+01  0.18916805682E+03  0.19025455670E+03  0.00000000000E+00 0.  1.
</event>
<event>
 4    1  0.6769686E+001  0.3544605E+02  0.7546771E-02  0.1377454E+00
          2   -1    0    0  502    0  0.00000000000E+00  0.00000000000E+00  0.37668169389E+03  0.37668169389E+03  0.00000000000E+00 0. -1.
         -2   -1    0    0    0  501 -0.00000000000E+00 -0.00000000000E+00 -0.34895962770E+01  0.34895962770E+01  0.00000000000E+00 0.  1.
          1    1    1    2  502    0 -0.36800321268E+01  0.35254503945E+02  0.14665178202E+03  0.15087467598E+03  0.00000000000E+00 0. -1.
         -1    1    1    2    0  501  0.36800321268E+01 -0.35254503945E+02  0.22654031560E+03  0.22929661419E+03  0.00000000000E+00 0.  1.
</event>
<event>
 4    1  0.6769686E+001  0.6668649E+02  0.7546771E-02  0.1238663E+00
          2   -1    0    0  502    0  0.00000000000E+00  0.00000000000E+00  0.38359160986E+03  0.38359160986E+03  0.00000000000E+00 0.  1.
         -2   -1    0    0    0  501 -0.00000000000E+00 -0.00000000000E+00 -0.11631498029E+02  0.11631498029E+02  0.00000000000E+00 0. -1.
          1    1    1    2  502    0  0.62366817676E+00  0.66683572256E+02  0.17465379150E+03  0.18695195815E+03  0.00000000000E+00 0. -1.
         -1    1    1    2    0  501 -0.62366817676E+00 -0.66683572256E+02  0.19730632033E+03  0.20827114974E+03  0.00000000000E+00 0.  1.
</event>
<event>
 4    1  0.6769686E+001  0.2083605E+02  0.7546771E-02  0.1521619E+00
          2   -1    0    0  502    0  0.00000000000E+00  0.00000000000E+00  0.11907571289E+04  0.11907571289E+04  0.00000000000E+00 0. -1.
         -2   -1    0    0    0  501 -0.00000000000E+00 -0.00000000000E+00 -0.37261087824E+00  0.37261087824E+00  0.00000000000E+00 0.  1.
          1    1    1    2  502    0 -0.13238019671E+02  0.16090243328E+02  0.50782572459E+03  0.50825299572E+03  0.00000000000E+00 0.  1.
         -1    1    1    2    0  501  0.13238019671E+02 -0.16090243328E+02  0.68255879347E+03  0.68287674411E+03  0.00000000000E+00 0. -1.
</event>
<event>
 4    1  0.6769686E+001  0.2687062E+02  0.7546771E-02  0.1448912E+00
          2   -1    0    0  502    0  0.00000000000E+00  0.00000000000E+00  0.14514077739E+04  0.14514077739E+04  0.00000000000E+00 0.  1.
         -2   -1    0    0    0  501 -0.00000000000E+00 -0.00000000000E+00 -0.49959235006E+00  0.49959235006E+00  0.00000000000E+00 0. -1.
          1    1    1    2  502    0  0.26869954038E+02 -0.18931747444E+00  0.77278218995E+03  0.77324921169E+03  0.00000000000E+00 0.  1.
         -1    1    1    2    0  501 -0.26869954038E+02  0.18931747444E+00  0.67812599156E+03  0.67865815453E+03  0.00000000000E+00 0. -1.
</event>
<event>
 4    1  0.6769686E+001  0.2499921E+02  0.7546771E-02  0.1468812E+00
          2   -1    0    0  502    0  0.00000000000E+00  0.00000000000E+00  0.60237849774E+02  0.60237849774E+02  0.00000000000E+00 0.  1.
         -2   -1    0    0    0  501 -0.00000000000E+00 -0.00000000000E+00 -0.12962541385E+02  0.12962541385E+02  0.00000000000E+00 0. -1.
          1    1    1    2  502    0 -0.20648338979E+02 -0.14092787187E+02  0.39990446644E+02  0.47161386495E+02  0.00000000000E+00 0.  1.
         -1    1    1    2    0  501  0.20648338979E+02  0.14092787187E+02  0.72848617449E+01  0.26039004665E+02  0.00000000000E+00 0. -1.
</event>
<event>
 4    1  0.6769686E+001  0.2622964E+02  0.7546771E-02  0.1455504E+00
          2   -1    0    0  502    0  0.00000000000E+00  0.00000000000E+00  0.31955233092E+03  0.31955233092E+03  0.00000000000E+00 0.  1.
         -2   -1    0    0    0  501 -0.00000000000E+00 -0.00000000000E+00 -0.48176972336E+01  0.48176972336E+01  0.00000000000E+00 0. -1.
          1    1    1    2  502    0  0.40993275732E+01  0.25907323338E+02  0.36748382299E+02  0.45149058581E+02  0.00000000000E+00 0. -1.
         -1    1    1    2    0  501 -0.40993275732E+01 -0.25907323338E+02  0.27798625139E+03  0.27922096957E+03  0.00000000000E+00 0.  1.
</event>
<event>
 4    1  0.6769686E+001  0.2285807E+02  0.7546771E-02  0.1494288E+00
          2   -1    0    0  502    0  0.00000000000E+00  0.00000000000E+00  0.66588216589E+02  0.66588216589E+02  0.00000000000E+00 0.  1.
         -2   -1    0    0    0  501 -0.00000000000E+00 -0.00000000000E+00 -0.10727072950E+02  0.10727072950E+02  0.00000000000E+00 0. -1.
          1    1    1    2  502    0 -0.15968072593E+02 -0.16355796765E+02  0.47962663585E+02  0.53131050511E+02  0.00000000000E+00 0.  1.
         -1    1    1    2    0  501  0.15968072593E+02  0.16355796765E+02  0.78984800535E+01  0.24184239027E+02  0.00000000000E+00 0. -1.
</event>
<event>
 4    1  0.6769686E+001  0.2156129E+02  0.7546771E-02  0.1511400E+00
          2   -1    0    0  502    0  0.00000000000E+00  0.00000000000E+00  0.57748498618E+02  0.57748498618E+02  0.00000000000E+00 0.  1.
         -2   -1    0    0    0  501 -0.00000000000E+00 -0.00000000000E+00 -0.13386709767E+02  0.13386709767E+02  0.00000000000E+00 0. -1.
          1    1    1    2  502    0  0.11318012537E+02 -0.18351889319E+02 -0.27574326384E+00  0.21563053674E+02  0.00000000000E+00 0. -1.
         -1    1    1    2    0  501 -0.11318012537E+02  0.18351889319E+02  0.44637532115E+02  0.49572154711E+02  0.00000000000E+00 0.  1.
</event>
<event>
 4    1  0.6769686E+001  0.2120917E+02  0.7546771E-02  0.1516299E+00
          2   -1    0    0  502    0  0.00000000000E+00  0.00000000000E+00  0.11079378703E+04  0.11079378703E+04  0.00000000000E+00 0.  1.
         -2   -1    0    0    0  501 -0.00000000000E+00 -0.00000000000E+00 -0.41051652864E+00  0.41051652864E+00  0.00000000000E+00 0. -1.
          1    1    1    2  502    0  0.20226322169E+02  0.63815845751E+01  0.61185680955E+03  0.61222429233E+03  0.00000000000E+00 0.  1.
         -1    1    1    2    0  501 -0.20226322169E+02 -0.63815845751E+01  0.49567054418E+03  0.49612409445E+03  0.00000000000E+00 0. -1.
</event>
<event>
 4    1  0.6769686E+001  0.2328332E+02  0.7546771E-02  0.1488971E+00
          2   -1    0    0  502    0  0.00000000000E+00  0.00000000000E+00  0.96861967226E+03  0.96861967226E+03  0.00000000000E+00 0. -1.
         -2   -1    0    0    0  501 -0.00000000000E+00 -0.00000000000E+00 -0.11868108205E+01  0.11868108205E+01  0.00000000000E+00 0.  1.
          1    1    1    2  502    0 -0.12049380112E+02 -0.19922991947E+02  0.13122805352E+03  0.13327758701E+03  0.00000000000E+00 0.  1.
         -1    1    1    2    0  501  0.12049380112E+02  0.19922991947E+02  0.83620480792E+03  0.83652889607E+03  0.00000000000E+00 0. -1.
</event>
<event>
 4    1  0.6769686E+001  0.2472014E+02  0.7546771E-02  0.1471959E+00
          2   -1    0    0  502    0  0.00000000000E+00  0.00000000000E+00  0.23503905842E+04  0.23503905842E+04  0.00000000000E+00 0. -1.
         -2   -1    0    0    0  501 -0.00000000000E+00 -0.00000000000E+00 -0.28005936614E+00  0.28005936614E+00  0.00000000000E+00 0.  1.
          1    1    1    2  502    0 -0.20232277754E+02 -0.14203525739E+02  0.14896638761E+04  0.14898689704E+04  0.00000000000E+00 0. -1.
         -1    1    1    2    0  501  0.20232277754E+02  0.14203525739E+02  0.86044664875E+03  0.86080167318E+03  0.00000000000E+00 0.  1.
</event>
<event>
 4    1  0.6769686E+001  0.3538810E+02  0.7546771E-02  0.1377855E+00
          2   -1    0    0  502    0  0.00000000000E+00  0.00000000000E+00  0.13299314497E+02  0.13299314497E+02  0.00000000000E+00 0. -1.
         -2   -1    0    0    0  501 -0.00000000000E+00 -0.00000000000E+00 -0.24607443534E+03  0.24607443534E+03  0.00000000000E+00 0.  1.
          1    1    1    2  502    0 -0.17670847887E+01 -0.35343953659E+02 -0.14491715847E+02  0.38240390650E+02  0.00000000000E+00 0. -1.
         -1    1    1    2    0  501  0.17670847887E+01  0.35343953659E+02 -0.21828340500E+03  0.22113335919E+03  0.00000000000E+00 0.  1.
</event>
<event>
 4    1  0.6769686E+001  0.3662785E+02  0.7546771E-02  0.1369466E+00
          2   -1    0    0  502    0  0.00000000000E+00  0.00000000000E+00  0.38349399710E+02  0.38349399710E+02  0.00000000000E+00 0.  1.
         -2   -1    0    0    0  501 -0.00000000000E+00 -0.00000000000E+00 -0.39703159425E+02  0.39703159425E+02  0.00000000000E+00 0. -1.
          1    1    1    2  502    0 -0.36624975731E+02  0.45918214606E+00 -0.14132254168E+02  0.39259652360E+02  0.00000000000E+00 0. -1.
         -1    1    1    2    0  501  0.36624975731E+02 -0.45918214606E+00  0.12778494453E+02  0.38792906775E+02  0.00000000000E+00 0.  1.
</event>
<event>
 4    1  0.6769686E+001  0.2251315E+02  0.7546771E-02  0.1498704E+00
          2   -1    0    0  502    0  0.00000000000E+00  0.00000000000E+00  0.21382124368E+03  0.21382124368E+03  0.00000000000E+00 0.  1.
         -2   -1    0    0    0  501 -0.00000000000E+00 -0.00000000000E+00 -0.25344878130E+01  0.25344878130E+01  0.00000000000E+00 0. -1.
          1    1    1    2  502    0 -0.11030041440E+02  0.19626002982E+02  0.78118088486E+02  0.81297463404E+02  0.00000000000E+00 0. -1.
         -1    1    1    2    0  501  0.11030041440E+02 -0.19626002982E+02  0.13316866738E+03  0.13505826809E+03  0.00000000000E+00 0.  1.
</event>
<event>
 4    1  0.6769686E+001  0.2704485E+02  0.7546771E-02  0.1447158E+00
          2   -1    0    0  502    0  0.00000000000E+00  0.00000000000E+00  0.16297498265E+02  0.16297498265E+02  0.00000000000E+00 0.  1.
         -2   -1    0    0    0  501 -0.00000000000E+00 -0.00000000000E+00 -0.48966812511E+02  0.48966812511E+02  0.00000000000E+00 0. -1.
          1    1    1    2  502    0 -0.24411502507E+02 -0.11640551767E+02 -0.25762507909E+02  0.37351448618E+02  0.00000000000E+00 0. -1.
         -1    1    1    2    0  501  0.24411502507E+02  0.11640551767E+02 -0.69068063381E+01  0.27912862159E+02  0.00000000000E+00 0.  1.
</event>
<event>
 4    1  0.6769686E+001  0.2647500E+02  0.7546771E-02  0.1452954E+00
          2   -1    0    0  502    0  0.00000000000E+00  0.00000000000E+00  0.16258310474E+02  0.16258310474E+02  0.00000000000E+00 0. -1.
         -2   -1    0    0    0  501 -0.00000000000E+00 -0.00000000000E+00 -0.48967156158E+02  0.48967156158E+02  0.00000000000E+00 0.  1.
          1    1    1    2  502    0 -0.75814096450E+01 -0.25366273393E+02 -0.27631852304E+02  0.38268065796E+02  0.00000000000E+00 0.  1.
         -1    1    1    2    0  501  0.75814096450E+01  0.25366273393E+02 -0.50769933800E+01  0.26957400836E+02  0.00000000000E+00 0. -1.
</event>
<event>
 4    1  0.6769686E+001  0.5405460E+02  0.7546771E-02  0.1281489E+00
          2   -1    0    0  502    0  0.00000000000E+00  0.00000000000E+00  0.12750934496E+04  0.12750934496E+04  0.00000000000E+00 0. -1.
         -2   -1    0    0    0  501 -0.00000000000E+00 -0.00000000000E+00 -0.24205048701E+01  0.24205048701E+01  0.00000000000E+00 0.  1.
          1    1    1    2  502    0  0.63796306770E+01 -0.53676813221E+02  0.78378992147E+03  0.78565166643E+03  0.00000000000E+00 0. -1.
         -1    1    1    2    0  501 -0.63796306770E+01  0.53676813221E+02  0.48888302327E+03  0.49186228805E+03  0.00000000000E+00 0.  1.
</event>
<event>
 4    1  0.6769686E+001  0.2079714E+02  0.7546771E-02  0.1522181E+00
          2   -1    0    0  502    0  0.00000000000E+00  0.00000000000E+00  0.67242000341E+02  0.67242000341E+02  0.00000000000E+00 0. -1.
         -2   -1    0    0    0  501 -0.00000000000E+00 -0.00000000000E+00 -0.64537287812E+01  0.64537287812E+01  0.00000000000E+00 0.  1.
          1    1    1    2  502    0 -0.20465683222E+02  0.36982363799E+01  0.32517096243E+02  0.38598998564E+02  0.00000000000E+00 0. -1.
         -1    1    1    2    0  501  0.20465683222E+02 -0.36982363799E+01  0.28271175317E+02  0.35096730558E+02  0.00000000000E+00 0.  1.
</event>
<event>
 4    1  0.6769686E+001  0.2198136E+02  0.7546771E-02  0.1505701E+00
          2   -1    0    0  502    0  0.00000000000E+00  0.00000000000E+00  0.44380244116E+03  0.44380244116E+03  0.00000000000E+00 0. -1.
         -2   -1    0    0    0  501 -0.00000000000E+00 -0.00000000000E+00 -0.17998288294E+01  0.17998288294E+01  0.00000000000E+00 0.  1.
          1    1    1    2  502    0 -0.19685372556E+02 -0.97809153482E+01  0.80956388480E+02  0.83887526090E+02  0.00000000000E+00 0.  1.
         -1    1    1    2    0  501  0.19685372556E+02  0.97809153482E+01  0.36104622385E+03  0.36171474390E+03  0.00000000000E+00 0. -1.
</event>
<event>
 4    1  0.6769686E+001  0.2130536E+02  0.7546771E-02  0.1514949E+00
          2   -1    0    0  502    0  0.00000000000E+00  0.00000000000E+00  0.19385228926E+02  0.19385228926E+02  0.00000000000E+00 0.  1.
         -2   -1    0    0    0  501 -0.00000000000E+00 -0.00000000000E+00 -0.23544118488E+02  0.23544118488E+02  0.00000000000E+00 0. -1.
          1    1    1    2  502    0 -0.10134826372E+02 -0.18740429571E+02 -0.36647866063E+01  0.21618257723E+02  0.00000000000E+00 0.  1.
         -1    1    1    2    0  501  0.10134826372E+02  0.18740429571E+02 -0.49410295630E+00  0.21311089691E+02  0.00000000000E+00 0. -1.
</event>
<event>
 4    1  0.6769686E+001  0.2629221E+02  0.7546771E-02  0.1454850E+00
          2   -1    0    0  502    0  0.00000000000E+00  0.00000000000E+00  0.14918492465E+04  0.14918492465E+04  0.00000000000E+00 0.  1.
         -2   -1    0    0    0  501 -0.00000000000E+00 -0.00000000000E+00 -0.61066243609E+00  0.61066243609E+00  0.00000000000E+00 0. -1.
          1    1    1    2  502    0 -0.15532984011E+02  0.21213362311E+02  0.37913094051E+03  0.38004151140E+03  0.00000000000E+00 0.  1.
         -1    1    1    2    0  501  0.15532984011E+02 -0.21213362311E+02  0.11121076436E+04  0.11124183976E+04  0.00000000000E+00 0. -1.
</event>
<event>
 4    1  0.6769686E+001  0.4043480E+02  0.7546771E-02  0.1345957E+00
          2   -1    0    0  502    0  0.00000000000E+00  0.00000000000E+00  0.21840319690E+03  0.21840319690E+03  0.00000000000E+00 0. -1.
         -2   -1    0    0    0  501 -0.00000000000E+00 -0.00000000000E+00 -0.75310419218E+01  0.75310419218E+01  0.00000000000E+00 0.  1.
          1    1    1    2  502    0  0.35820288076E+02 -0.18758469687E+02  0.96702728471E+02  0.10481598598E+03  0.00000000000E+00 0. -1.
         -1    1    1    2    0  501 -0.35820288076E+02  0.18758469687E+02  0.11416942651E+03  0.12111825284E+03  0.00000000000E+00 0.  1.
</event>
<event>
 4    1  0.6769686E+001  0.3238470E+02  0.7546771E-02  0.1399945E+00
          2   -1    0    0  502    0  0.00000000000E+00  0.00000000000E+00  0.14571662311E+04  0.14571662311E+04  0.00000000000E+00 0. -1.
         -2   -1    0    0    0  501 -0.00000000000E+00 -0.00000000000E+00 -0.72830772392E+00  0.72830772392E+00  0.00000000000E+00 0.  1.
          1    1    1    2  502    0  0.26700240943E+02 -0.18326639692E+02  0.64911757843E+03  0.64992491814E+03  0.00000000000E+00 0. -1.
         -1    1    1    2    0  501 -0.26700240943E+02  0.18326639692E+02  0.80732034498E+03  0.80796962072E+03  0.00000000000E+00 0.  1.
</event>
<event>
 4    1  0.6769686E+001  0.2087691E+02  0.7546771E-02  0.1521030E+00
          2   -1    0    0  502    0  0.00000000000E+00  0.00000000000E+00  0.11082682894E+04  0.11082682894E+04  0.00000000000E+00 0.  1.
         -2   -1    0    0    0  501 -0.00000000000E+00 -0.00000000000E+00 -0.54331409845E+00  0.54331409845E+00  0.00000000000E+00 0. -1.
          1    1    1    2  502    0  0.59164298531E+01  0.20021020900E+02  0.26251184368E+03  0.26334067952E+03  0.00000000000E+00 0. -1.
         -1    1    1    2    0  501 -0.59164298531E+01 -0.20021020900E+02  0.84521313159E+03  0.84547092394E+03  0.00000000000E+00 0.  1.
</event>
<event>
 4    1  0.6769686E+001  0.2167767E+02  0.7546771E-02  0.1509805E+00
          2   -1    0    0  502    0  0.00000000000E+00  0.00000000000E+00  0.71318475323E+03  0.71318475323E+03  0.00000000000E+00 0.  1.
         -2   -1    0    0    0  501 -0.00000000000E+00 -0.00000000000E+00 -0.68118452739E+00  0.68118452739E+00  0.00000000000E+00 0. -1.
          1    1    1    2  502    0 -0.14303536494E+02 -0.16288962368E+02  0.29170106380E+03  0.29250543939E+03  0.00000000000E+00 0.  1.
         -1    1    1    2    0  501  0.14303536494E+02  0.16288962368E+02  0.42080250490E+03  0.42136049837E+03  0.00000000000E+00 0. -1.
</event>
<event>
 4    1  0.6769686E+001  0.3066200E+02  0.7546771E-02  0.1413929E+00
          2   -1    0    0  502    0  0.00000000000E+00  0.00000000000E+00  0.70306076453E+01  0.70306076453E+01  0.00000000000E+00 0.  1.
         -2   -1    0    0    0  501 -0.00000000000E+00 -0.00000000000E+00 -0.16370645018E+03  0.16370645018E+03  0.00000000000E+00 0. -1.
          1    1    1    2  502    0 -0.15574961907E+02 -0.26411719794E+02 -0.11487225035E+03  0.11889403804E+03  0.00000000000E+00 0. -1.
         -1    1    1    2    0  501  0.15574961907E+02  0.26411719794E+02 -0.41803592179E+02  0.51843019781E+02  0.00000000000E+00 0.  1.
</event>
<event>
 4    1  0.6769686E+001  0.2133300E+02  0.7546771E-02  0.1514563E+00
          2   -1    0    0  502    0  0.00000000000E+00  0.00000000000E+00  0.75383202692E+03  0.75383202692E+03  0.00000000000E+00 0.  1.
         -2   -1    0    0    0  501 -0.00000000000E+00 -0.00000000000E+00 -0.77597446778E+00  0.77597446778E+00  0.00000000000E+00 0. -1.
          1    1    1    2  502    0  0.17315610261E+02  0.12460603376E+02  0.55430019530E+03  0.55471055831E+03  0.00000000000E+00 0.  1.
         -1    1    1    2    0  501 -0.17315610261E+02 -0.12460603376E+02  0.19875585716E+03  0.19989744308E+03  0.00000000000E+00 0. -1.
</event>
<event>
 4    1  0.6769686E+001  0.2344961E+02  0.7546771E-02  0.1486928E+00
          2   -1    0    0  502    0  0.00000000000E+00  0.00000000000E+00  0.37740497088E+03  0.37740497088E+03  0.00000000000E+00 0. -1.
         -2   -1    0    0    0  501 -0.00000000000E+00 -0.00000000000E+00 -0.17739965376E+01  0.17739965376E+01  0.00000000000E+00 0.  1.
          1    1    1    2  502    0  0.62993441585E+01 -0.22587665663E+02  0.10767436176E+03  0.11019824208E+03  0.00000000000E+00 0. -1.
         -1    1    1    2    0  501 -0.62993441585E+01  0.22587665663E+02  0.26795661258E+03  0.26898072534E+03  0.00000000000E+00 0.  1.
</event>
<event>
 4    1  0.6769686E+001  0.2032243E+02  0.7546771E-02  0.1529162E+00
          2   -1    0    0  502    0  0.00000000000E+00  0.00000000000E+00  0.20740150205E+04  0.20740150205E+04  0.00000000000E+00 0.  1.
         -2   -1    0    0    0  501 -0.00000000000E+00 -0.00000000000E+00 -0.20051891058E+00  0.20051891058E+00  0.00000000000E+00 0. -1.
          1    1    1    2  502    0 -0.20120464874E+02  0.28580118190E+01  0.95063369892E+03  0.95085089833E+03  0.00000000000E+00 0. -1.
         -1    1    1    2    0  501  0.20120464874E+02 -0.28580118190E+01  0.11231808026E+04  0.11233646410E+04  0.00000000000E+00 0.  1.
</event>
<event>
 4    1  0.6769686E+001  0.2101829E+02  0.7546771E-02  0.1519004E+00
          2   -1    0    0  502    0  0.00000000000E+00  0.00000000000E+00  0.39806106502E+02  0.39806106502E+02  0.00000000000E+00 0. -1.
         -2   -1    0    0    0  501 -0.00000000000E+00 -0.00000000000E+00 -0.21287959745E+02  0.21287959745E+02  0.00000000000E+00 0.  1.
          1    1    1    2  502    0  0.33284066030E+01  0.20753080610E+02 -0.11875232825E+02  0.24141039745E+02  0.00000000000E+00 0.  1.
         -1    1    1    2    0  501 -0.33284066030E+01 -0.20753080610E+02  0.30393379581E+02  0.36953026502E+02  0.00000000000E+00 0. -1.
</event>
<event>
 4    1  0.6769686E+001  0.2064178E+02  0.7546771E-02  0.1524441E+00
          2   -1    0    0  502    0  0.00000000000E+00  0.00000000000E+00  0.87017833453E+02  0.87017833453E+02  0.00000000000E+00 0.  1.
         -2   -1    0    0    0  501 -0.00000000000E+00 -0.00000000000E+00 -0.48966547793E+01  0.48966547793E+01  0.00000000000E+00 0. -1.
          1    1    1    2  502    0  0.61674534186E+01 -0.19698876310E+02  0.40805957575E+02  0.45729742873E+02  0.00000000000E+00 0. -1.
         -1    1    1    2    0  501 -0.61674534186E+01  0.19698876310E+02  0.41315221098E+02  0.46184745360E+02  0.00000000000E+00 0.  1.
</event>
<event>
 4    1  0.6769686E+001  0.2283937E+02  0.7546771E-02  0.1494525E+00
          2   -1    0    0  502    0  0.00000000000E+00  0.00000000000E+00  0.27202593964E+01  0.27202593964E+01  0.00000000000E+00 0. -1.
         -2   -1    0    0    0  501 -0.00000000000E+00 -0.00000000000E+00 -0.20963203628E+03  0.20963203628E+03  0.00000000000E+00 0.  1.
          1    1    1    2  502    0 -0.15565636117E+02  0.16713695357E+02 -0.13445765945E+03  0.13638364574E+03  0.00000000000E+00 0.  1.
         -1    1    1    2    0  501  0.15565636117E+02 -0.16713695357E+02 -0.72454117428E+02  0.75968649932E+02  0.00000000000E+00 0. -1.
</event>
<event>
 4    1  0.6769686E+001  0.2595449E+02  0.7546771E-02  0.1458403E+00
          2   -1    0    0  502    0  0.00000000000E+00  0.00000000000E+00  0.49196664205E+01  0.49196664205E+01  0.00000000000E+00 0.  1.
         -2   -1    0    0    0  501 -0.00000000000E+00 -0.00000000000E+00 -0.22303120958E+03  0.22303120958E+03  0.00000000000E+00 0. -1.
          1    1    1    2  502    0  0.22814439492E+02 -0.12374846177E+02 -0.17987325454E+03  0.18173613610E+03  0.00000000000E+00 0. -1.
         -1    1    1    2    0  501 -0.22814439492E+02  0.12374846177E+02 -0.38238288626E+02  0.46214739903E+02  0.00000000000E+00 0.  1.
</event>
<event>
 4    1  0.6769686E+001  0.3244826E+02  0.7546771E-02  0.1399449E+00
          2   -1    0    0  502    0  0.00000000000E+00  0.00000000000E+00  0.27814776766E+02  0.27814776766E+02  0.00000000000E+00 0.  1.
         -2   -1    0    0    0  501 -0.00000000000E+00 -0.00000000000E+00 -0.37914807196E+02  0.37914807196E+02  0.00000000000E+00 0. -1.
          1    1    1    2  502    0  0.29996538936E+02  0.12373250469E+02 -0.63703890148E+01  0.33067681072E+02  0.00000000000E+00 0.  1.
         -1    1    1    2    0  501 -0.29996538936E+02 -0.12373250469E+02 -0.37296414146E+01  0.32661902890E+02  0.00000000000E+00 0. -1.
</event>
<event>
 4    1  0.6769686E+001  0.2034413E+02  0.7546771E-02  0.1528838E+00
          2   -1    0    0  502    0  0.00000000000E+00  0.00000000000E+00  0.56730737945E+02  0.56730737945E+02  0.00000000000E+00 0.  1.
         -2   -1    0    0    0  501 -0.00000000000E+00 -0.00000000000E+00 -0.95305682559E+01  0.95305682559E+01  0.00000000000E+00 0. -1.
          1    1    1    2  502    0  0.12491992079E+02  0.16057207613E+02  0.75562577470E+01  0.21702092378E+02  0.00000000000E+00 0. -1.
         -1    1    1    2    0  501 -0.12491992079E+02 -0.16057207613E+02  0.39643911942E+02  0.44559213823E+02  0.00000000000E+00 0.  1.
</event>
<event>
 4    1  0.6769686E+001  0.2012044E+02  0.7546771E-02  0.1532202E+00
          2   -1    0    0  502    0  0.00000000000E+00  0.00000000000E+00  0.64160627098E+00  0.64160627098E+00  0.00000000000E+00 0. -1.
         -2   -1    0    0    0  501 -0.00000000000E+00 -0.00000000000E+00 -0.67028757846E+03  0.67028757846E+03  0.00000000000E+00 0.  1.
          1    1    1    2  502    0  0.19597990808E+02  0.45553325303E+01 -0.25357234619E+03  0.25436935163E+03  0.00000000000E+00 0. -1.
         -1    1    1    2    0  501 -0.19597990808E+02 -0.45553325303E+01 -0.41607362600E+03  0.41655983310E+03  0.00000000000E+00 0.  1.
</event>
<event>
 4    1  0.6769686E+001  0.7959486E+02  0.7546771E-02  0.1204791E+00
          2   -1    0    0  502    0  0.00000000000E+00  0.00000000000E+00  0.97390927002E+02  0.97390927002E+02  0.00000000000E+00 0.  1.
         -2   -1    0    0    0  501 -0.00000000000E+00 -0.00000000000E+00 -0.99357734489E+02  0.99357734489E+02  0.00000000000E+00 0. -1.
          1    1    1    2  502    0 -0.65163965926E+02 -0.45705563173E+02  0.56822606578E+02  0.97796470174E+02  0.00000000000E+00 0.  1.
         -1    1    1    2    0  501  0.65163965926E+02  0.45705563173E+02 -0.58789414065E+02  0.98952191317E+02  0.00000000000E+00 0. -1.
</event>
<event>
 4    1  0.6769686E+001  0.4343443E+02  0.7546771E-02  0.1329456E+00
          2   -1    0    0  502    0  0.00000000000E+00  0.00000000000E+00  0.58604676644E+03  0.58604676644E+03  0.00000000000E+00 0.  1.
         -2   -1    0    0    0  501 -0.00000000000E+00 -0.00000000000E+00 -0.45155215916E+01  0.45155215916E+01  0.00000000000E+00 0. -1.
          1    1    1    2  502    0 -0.15987834115E+02  0.40384883621E+02  0.13254866896E+03  0.13948368833E+03  0.00000000000E+00 0. -1.
         -1    1    1    2    0  501  0.15987834115E+02 -0.40384883621E+02  0.44898257589E+03  0.45107859971E+03  0.00000000000E+00 0.  1.
</event>
<event>
 4    1  0.6769686E+001  0.2534755E+02  0.7546771E-02  0.1464953E+00
          2   -1    0    0  502    0  0.00000000000E+00  0.00000000000E+00  0.61973603648E+03  0.61973603648E+03  0.00000000000E+00 0.  1.
         -2   -1    0    0    0  501 -0.00000000000E+00 -0.00000000000E+00 -0.11812705433E+01  0.11812705433E+01  0.00000000000E+00 0. -1.
          1    1    1    2  502    0 -0.25008300655E+02 -0.41331767571E+01  0.41787632514E+03  0.41864438533E+03  0.00000000000E+00 0.  1.
         -1    1    1    2    0  501  0.25008300655E+02  0.41331767571E+01  0.20067844079E+03  0.20227292169E+03  0.00000000000E+00 0. -1.
</event>
<event>
 4    1  0.6769686E+001  0.2471051E+02  0.7546771E-02  0.1472068E+00
          2   -1    0    0  502    0  0.00000000000E+00  0.00000000000E+00  0.15943630163E+04  0.15943630163E+04  0.00000000000E+00 0. -1.
         -2   -1    0    0    0  501 -0.00000000000E+00 -0.00000000000E+00 -0.50402666620E+00  0.50402666620E+00  0.00000000000E+00 0.  1.
          1    1    1    2  502    0  0.22726534448E+02  0.97012241091E+01  0.40613882882E+03  0.40688985905E+03  0.00000000000E+00 0.  1.
         -1    1    1    2    0  501 -0.22726534448E+02 -0.97012241091E+01  0.11877201608E+04  0.11879771839E+04  0.00000000000E+00 0. -1.
</event>
<event>
 4    1  0.6769686E+001  0.2089756E+02  0.7546771E-02  0.1520732E+00
          2   -1    0    0  502    0  0.00000000000E+00  0.00000000000E+00  0.64028055502E+02  0.64028055502E+02  0.00000000000E+00 0. -1.
         -2   -1    0    0    0  501 -0.00000000000E+00 -0.00000000000E+00 -0.11993032106E+02  0.11993032106E+02  0.00000000000E+00 0.  1.
          1    1    1    2  502    0  0.20138260857E+02 -0.55819714233E+01  0.10550067235E+01  0.20924172493E+02  0.00000000000E+00 0.  1.
         -1    1    1    2    0  501 -0.20138260857E+02  0.55819714233E+01  0.50980016673E+02  0.55096915116E+02  0.00000000000E+00 0. -1.
</event>
<event>
 4    1  0.6769686E+001  0.2117469E+02  0.7546771E-02  0.1516785E+00
          2   -1    0    0  502    0  0.00000000000E+00  0.00000000000E+00  0.92566060553E+03  0.92566060553E+03  0.00000000000E+00 0. -1.
         -2   -1    0    0    0  501 -0.00000000000E+00 -0.00000000000E+00 -0.54118337069E+00  0.54118337069E+00  0.00000000000E+00 0.  1.
          1    1    1    2  502    0 -0.21099796428E+02 -0.17793694022E+01  0.61259956660E+03  0.61296541221E+03  0.00000000000E+00 0. -1.
         -1    1    1    2    0  501  0.21099796428E+02  0.17793694022E+01  0.31251985556E+03  0.31323637669E+03  0.00000000000E+00 0.  1.
</event>
<event>
 4    1  0.6769686E+001  0.2029882E+02  0.7546771E-02  0.1529516E+00
          2   -1    0    0  502    0  0.00000000000E+00  0.00000000000E+00  0.11563877919E+03  0.11563877919E+03  0.00000000000E+00 0.  1.
         -2   -1    0    0    0  501 -0.00000000000E+00 -0.00000000000E+00 -0.37911362752E+01  0.37911362752E+01  0.00000000000E+00 0. -1.
          1    1    1    2  502    0  0.20204866332E+02  0.19507966291E+01  0.70566500239E+02  0.73428013639E+02  0.00000000000E+00 0.  1.
         -1    1    1    2    0  501 -0.20204866332E+02 -0.19507966291E+01  0.41281142674E+02  0.46001901824E+02  0.00000000000E+00 0. -1.
</event>
<event>
 4    1  0.6769686E+001  0.4721441E+02  0.7546771E-02  0.1310724E+00
          2   -1    0    0  502    0  0.00000000000E+00  0.00000000000E+00  0.89350499944E+02  0.89350499944E+02  0.00000000000E+00 0. -1.
         -2   -1    0    0    0  501 -0.00000000000E+00 -0.00000000000E+00 -0.25091758548E+02  0.25091758548E+02  0.00000000000E+00 0.  1.
          1    1    1    2  502    0 -0.39349044136E+02 -0.26093162776E+02  0.27812385828E+02  0.54797164374E+02  0.00000000000E+00 0. -1.
         -1    1    1    2    0  501  0.39349044136E+02  0.26093162776E+02  0.36446355569E+02  0.59645094117E+02  0.00000000000E+00 0.  1.
</event>
<event>
 4    1  0.6769686E+001  0.6468822E+02  0.7546771E-02  0.1244685E+00
          2   -1    0    0  502    0  0.00000000000E+00  0.00000000000E+00  0.79953100707E+02  0.79953100707E+02  0.00000000000E+00 0. -1.
         -2   -1    0    0    0  501 -0.00000000000E+00 -0.00000000000E+00 -0.58624025958E+02  0.58624025958E+02  0.00000000000E+00 0.  1.
          1    1    1    2  502    0  0.56678131051E+02  0.31179395036E+02 -0.12024733309E+02  0.65796348116E+02  0.00000000000E+00 0.  1.
         -1    1    1    2    0  501 -0.56678131051E+02 -0.31179395036E+02  0.33353808058E+02  0.72780778549E+02  0.00000000000E+00 0. -1.
</event>
<event>
 4    1  0.6769686E+001  0.2758622E+02  0.7546771E-02  0.1441807E+00
          2   -1    0    0  502    0  0.00000000000E+00  0.00000000000E+00  0.88490498442E+03  0.88490498442E+03  0.00000000000E+00 0. -1.
         -2   -1    0    0    0  501 -0.00000000000E+00 -0.00000000000E+00 -0.96605840159E+00  0.96605840159E+00  0.00000000000E+00 0.  1.
          1    1    1    2  502    0  0.15989601477E+02  0.22479593811E+02  0.29519353455E+03  0.29647971656E+03  0.00000000000E+00 0.  1.
         -1    1    1    2    0  501 -0.15989601477E+02 -0.22479593811E+02  0.58874539147E+03  0.58939132626E+03  0.00000000000E+00 0. -1.
</event>
<event>
 4    1  0.6769686E+001  0.2061138E+02  0.7546771E-02  0.1524886E+00
          2   -1    0    0  502    0  0.00000000000E+00  0.00000000000E+00  0.14919258365E+02  0.14919258365E+02  0.00000000000E+00 0.  1.
         -2   -1    0    0    0  501 -0.00000000000E+00 -0.00000000000E+00 -0.48253309447E+02  0.48253309447E+02  0.00000000000E+00 0. -1.
          1    1    1    2  502    0 -0.19756906157E+02  0.58731246421E+01 -0.36889175193E+02  0.42256835901E+02  0.00000000000E+00 0. -1.
         -1    1    1    2    0  501  0.19756906157E+02 -0.58731246421E+01  0.35551241114E+01  0.20915731911E+02  0.00000000000E+00 0.  1.
</event>
<event>
 4    1  0.6769686E+001  0.2550704E+02  0.7546771E-02  0.1463210E+00
          2   -1    0    0  502    0  0.00000000000E+00  0.00000000000E+00  0.25435390328E+03  0.25435390328E+03  0.00000000000E+00 0. -1.
         -2   -1    0    0    0  501 -0.00000000000E+00 -0.00000000000E+00 -0.30535425808E+01  0.30535425808E+01  0.00000000000E+00 0.  1.
          1    1    1    2  502    0 -0.15141014606E+02 -0.20527023275E+02  0.73796651375E+02  0.78080437767E+02  0.00000000000E+00 0.  1.
         -1    1    1    2    0  501  0.15141014606E+02  0.20527023275E+02  0.17750370933E+03  0.17932700809E+03  0.00000000000E+00 0. -1.
</event>
<event>
 4    1  0.6769686E+001  0.2456565E+02  0.7546771E-02  0.1473722E+00
          2   -1    0    0  502    0  0.00000000000E+00  0.00000000000E+00  0.56547996348E+01  0.56547996348E+01  0.00000000000E+00 0. -1.
         -2   -1    0    0    0  501 -0.00000000000E+00 -0.00000000000E+00 -0.12835528653E+03  0.12835528653E+03  0.00000000000E+00 0.  1.
          1    1    1    2  502    0  0.14493712308E+02  0.19834397579E+02 -0.88860728802E+02  0.92193818377E+02  0.00000000000E+00 0.  1.
         -1    1    1    2    0  501 -0.14493712308E+02 -0.19834397579E+02 -0.33839758090E+02  0.41816267784E+02  0.00000000000E+00 0. -1.
</event>
<event>
 4    1  0.6769686E+001  0.2316792E+02  0.7546771E-02  0.1490400E+00
          2   -1    0    0  502    0  0.00000000000E+00  0.00000000000E+00  0.72382401359E+02  0.72382401359E+02  0.00000000000E+00 0.  1.
         -2   -1    0    0    0  501 -0.00000000000E+00 -0.00000000000E+00 -0.74758401254E+01  0.74758401254E+01  0.00000000000E+00 0. -1.
          1    1    1    2  502    0 -0.12713435436E+02 -0.19368042808E+02  0.28866359696E+02  0.37013771016E+02  0.00000000000E+00 0.  1.
         -1    1    1    2    0  501  0.12713435436E+02  0.19368042808E+02  0.36040201538E+02  0.42844470468E+02  0.00000000000E+00 0. -1.
</event>
<event>
 4    1  0.6769686E+001  0.2597445E+02  0.7546771E-02  0.1458191E+00
          2   -1    0    0  502    0  0.00000000000E+00  0.00000000000E+00  0.11504076202E+04  0.11504076202E+04  0.00000000000E+00 0. -1.
         -2   -1    0    0    0  501 -0.00000000000E+00 -0.00000000000E+00 -0.63042071821E+00  0.63042071821E+00  0.00000000000E+00 0.  1.
          1    1    1    2  502    0  0.20920674219E+02  0.15394719058E+02  0.42291786976E+03  0.42371475848E+03  0.00000000000E+00 0. -1.
         -1    1    1    2    0  501 -0.20920674219E+02 -0.15394719058E+02  0.72685932970E+03  0.72732328243E+03  0.00000000000E+00 0.  1.
</event>
<event>
 4    1  0.6769686E+001  0.2612722E+02  0.7546771E-02  0.1456578E+00
          2   -1    0    0  502    0  0.00000000000E+00  0.00000000000E+00  0.44918831158E+03  0.44918831158E+03  0.00000000000E+00 0. -1.
         -2   -1    0    0    0  501 -0.00000000000E+00 -0.00000000000E+00 -0.18685854235E+01  0.18685854235E+01  0.00000000000E+00 0.  1.
          1    1    1    2  502    0 -0.21486918255E+02 -0.14864179157E+02  0.32111085520E+03  0.32217202362E+03  0.00000000000E+00 0.  1.
         -1    1    1    2    0  501  0.21486918255E+02  0.14864179157E+02  0.12620887095E+03  0.12888487338E+03  0.00000000000E+00 0. -1.
</event>
<event>
 4    1  0.6769686E+001  0.3406290E+02  0.7546771E-02  0.1387274E+00
          2   -1    0    0  502    0  0.00000000000E+00  0.00000000000E+00  0.16716787366E+03  0.16716787366E+03  0.00000000000E+00 0. -1.
         -2   -1    0    0    0  501 -0.00000000000E+00 -0.00000000000E+00 -0.70545166666E+01  0.70545166666E+01  0.00000000000E+00 0.  1.
          1    1    1    2  502    0  0.12237328481E+02 -0.31788815118E+02  0.68997387178E+02  0.76947517260E+02  0.00000000000E+00 0.  1.
         -1    1    1    2    0  501 -0.12237328481E+02  0.31788815118E+02  0.91115969818E+02  0.97274873070E+02  0.00000000000E+00 0. -1.
</event>
<event>
 4    1  0.6769686E+001  0.2136927E+02  0.7546771E-02  0.1514057E+00
          2   -1    0    0  502    0  0.00000000000E+00  0.00000000000E+00  0.52447595441E+01  0.52447595441E+01  0.00000000000E+00 0. -1.
         -2   -1    0    0    0  501 -0.00000000000E+00 -0.00000000000E+00 -0.10868378659E+03  0.10868378659E+03  0.00000000000E+00 0.  1.
          1    1    1    2  502    0 -0.18318285137E+02 -0.11003913689E+02 -0.77124288296E+02  0.80030003948E+02  0.00000000000E+00 0.  1.
         -1    1    1    2    0  501  0.18318285137E+02  0.11003913689E+02 -0.26314738750E+02  0.33898542186E+02  0.00000000000E+00 0. -1.
</event>
<event>
 4    1  0.6769686E+001  0.2078566E+02  0.7546771E-02  0.1522347E+00
          2   -1    0    0  502    0  0.00000000000E+00  0.00000000000E+00  0.18876671571E+02  0.18876671571E+02  0.00000000000E+00 0. -1.
         -2   -1    0    0    0  501 -0.00000000000E+00 -0.00000000000E+00 -0.23797679005E+02  0.23797679005E+02  0.00000000000E+00 0.  1.
          1    1    1    2  502    0  0.19294767639E+02 -0.77301871245E+01 -0.66328666921E+01  0.21818312762E+02  0.00000000000E+00 0.  1.
         -1    1    1    2    0  501 -0.19294767639E+02  0.77301871245E+01  0.17118592577E+01  0.20856037815E+02  0.00000000000E+00 0. -1.
</event>
<event>
 4    1  0.6769686E+001  0.2171485E+02  0.7546771E-02  0.1509299E+00
          2   -1    0    0  502    0  0.00000000000E+00  0.00000000000E+00  0.78920820496E+02  0.78920820496E+02  0.00000000000E+00 0.  1.
         -2   -1    0    0    0  501 -0.00000000000E+00 -0.00000000000E+00 -0.60158857762E+01  0.60158857762E+01  0.00000000000E+00 0. -1.
          1    1    1    2  502    0  0.21225749295E+02 -0.45828096471E+01  0.32942003198E+02  0.39455166355E+02  0.00000000000E+00 0.  1.
         -1    1    1    2    0  501 -0.21225749295E+02  0.45828096471E+01  0.39962931522E+02  0.45481539918E+02  0.00000000000E+00 0. -1.
</event>
<event>
 4    1  0.6769686E+001  0.2618328E+02  0.7546771E-02  0.1455989E+00
          2   -1    0    0  502    0  0.00000000000E+00  0.00000000000E+00  0.60323761221E+01  0.60323761221E+01  0.00000000000E+00 0.  1.
         -2   -1    0    0    0  501 -0.00000000000E+00 -0.00000000000E+00 -0.12373155936E+03  0.12373155936E+03  0.00000000000E+00 0. -1.
          1    1    1    2  502    0  0.11815225544E+02  0.23365882651E+02 -0.40326945390E+02  0.48081457457E+02  0.00000000000E+00 0. -1.
         -1    1    1    2    0  501 -0.11815225544E+02 -0.23365882651E+02 -0.77372237847E+02  0.81682478024E+02  0.00000000000E+00 0.  1.
</event>
<event>
 4    1  0.6769686E+001  0.4399440E+02  0.7546771E-02  0.1326545E+00
          2   -1    0    0  502    0  0.00000000000E+00  0.00000000000E+00  0.20041648835E+04  0.20041648835E+04  0.00000000000E+00 0. -1.
         -2   -1    0    0    0  501 -0.00000000000E+00 -0.00000000000E+00 -0.11251340925E+01  0.11251340925E+01  0.00000000000E+00 0.  1.
          1    1    1    2  502    0  0.42448355508E+02 -0.11560461376E+02  0.13788989314E+04  0.13796005836E+04  0.00000000000E+00 0. -1.
         -1    1    1    2    0  501 -0.42448355508E+02  0.11560461376E+02  0.62414081800E+03  0.62568943402E+03  0.00000000000E+00 0.  1.
</event>
<event>
 4    1  0.6769686E+001  0.2536428E+02  0.7546771E-02  0.1464769E+00
          2   -1    0    0  502    0  0.00000000000E+00  0.00000000000E+00  0.15062359396E+03  0.15062359396E+03  0.00000000000E+00 0.  1.
         -2   -1    0    0    0  501 -0.00000000000E+00 -0.00000000000E+00 -0.51761519975E+01  0.51761519975E+01  0.00000000000E+00 0. -1.
          1    1    1    2  502    0  0.22567429807E+02 -0.11578323665E+02  0.40151957303E+02  0.47492379834E+02  0.00000000000E+00 0. -1.
         -1    1    1    2    0  501 -0.22567429807E+02  0.11578323665E+02  0.10529548466E+03  0.10830736612E+03  0.00000000000E+00 0.  1.
</event>
<event>
 4    1  0.6769686E+001  0.2022822E+02  0.7546771E-02  0.1530575E+00
          2   -1    0    0  502    0  0.00000000000E+00  0.00000000000E+00  0.11931248398E+03  0.11931248398E+03  0.00000000000E+00 0.  1.
         -2   -1    0    0    0  501 -0.00000000000E+00 -0.00000000000E+00 -0.34295099014E+01  0.34295099014E+01  0.00000000000E+00 0. -1.
          1    1    1    2  502    0 -0.17295205305E+02  0.10490796703E+02  0.58090216190E+02  0.61511414868E+02  0.00000000000E+00 0.  1.
         -1    1    1    2    0  501  0.17295205305E+02 -0.10490796703E+02  0.57792757890E+02  0.61230579015E+02  0.00000000000E+00 0. -1.
</event>
<event>
 4    1  0.6769686E+001  0.5954211E+02  0.7546771E-02  0.1261396E+00
          2   -1    0    0  502    0  0.00000000000E+00  0.00000000000E+00  0.12389710825E+03  0.12389710825E+03  0.00000000000E+00 0.  1.
         -2   -1    0    0    0  501 -0.00000000000E+00 -0.00000000000E+00 -0.39212091305E+02  0.39212091305E+02  0.00000000000E+00 0. -1.
          1    1    1    2  502    0  0.18953962773E+02 -0.56444756985E+02  0.84740030252E+02  0.10356706051E+03  0.00000000000E+00 0.  1.
         -1    1    1    2    0  501 -0.18953962773E+02  0.56444756985E+02 -0.55013302224E-01  0.59542139047E+02  0.00000000000E+00 0. -1.
</event>
<event>
 4    1  0.6769686E+001  0.3350715E+02  0.7546771E-02  0.1391373E+00
          2   -1    0    0  502    0  0.00000000000E+00  0.00000000000E+00  0.11854837620E+03  0.11854837620E+03  0.00000000000E+00 0.  1.
         -2   -1    0    0    0  501 -0.00000000000E+00 -0.00000000000E+00 -0.13711534448E+02  0.13711534448E+02  0.00000000000E+00 0. -1.
          1    1    1    2  502    0 -0.30978165087E+02  0.12770370455E+02  0.15640777533E+02  0.36977871701E+02  0.00000000000E+00 0. -1.
         -1    1    1    2    0  501  0.30978165087E+02 -0.12770370455E+02  0.89196064222E+02  0.95282038949E+02  0.00000000000E+00 0.  1.
</event>
<event>
 4    1  0.6769686E+001  0.3199623E+02  0.7546771E-02  0.1403007E+00
          2   -1    0    0  502    0  0.00000000000E+00  0.00000000000E+00  0.11229630381E+01  0.11229630381E+01  0.00000000000E+00 0.  1.
         -2   -1    0    0    0  501 -0.00000000000E+00 -0.00000000000E+00 -0.92732106817E+03  0.92732106817E+03  0.00000000000E+00 0. -1.
          1    1    1    2  502    0  0.26532766994E+02 -0.17882144917E+02 -0.40276788118E+03  0.40403678662E+03  0.00000000000E+00 0.  1.
         -1    1    1    2    0  501 -0.26532766994E+02  0.17882144917E+02 -0.52343022395E+03  0.52440724459E+03  0.00000000000E+00 0. -1.
</event>
<event>
 4    1  0.6769686E+001  0.2451970E+02  0.7546771E-02  0.1474249E+00
          2   -1    0    0  502    0  0.00000000000E+00  0.00000000000E+00  0.19636232682E+04  0.19636232682E+04  0.00000000000E+00 0. -1.
         -2   -1    0    0    0  501 -0.00000000000E+00 -0.00000000000E+00 -0.31270064056E+00  0.31270064056E+00  0.00000000000E+00 0.  1.
          1    1    1    2  502    0 -0.24518321722E+02  0.25953320710E+00  0.11234930622E+04  0.11237605956E+04  0.00000000000E+00 0. -1.
         -1    1    1    2    0  501  0.24518321722E+02 -0.25953320710E+00  0.83981750542E+03  0.84017537328E+03  0.00000000000E+00 0.  1.
</event>
<event>
 4    1  0.6769686E+001  0.2584816E+02  0.7546771E-02  0.1459535E+00
          2   -1    0    0  502    0  0.00000000000E+00  0.00000000000E+00  0.41575602080E+03  0.41575602080E+03  0.00000000000E+00 0.  1.
         -2   -1    0    0    0  501 -0.00000000000E+00 -0.00000000000E+00 -0.16177854526E+01  0.16177854526E+01  0.00000000000E+00 0. -1.
          1    1    1    2  502    0  0.14740621379E+02  0.21233030629E+02  0.19004414591E+03  0.19179391259E+03  0.00000000000E+00 0.  1.
         -1    1    1    2    0  501 -0.14740621379E+02 -0.21233030629E+02  0.22409408943E+03  0.22557989366E+03  0.00000000000E+00 0. -1.
</event>
<event>
 4    1  0.6769686E+001  0.2114130E+02  0.7546771E-02  0.1517257E+00
          2   -1    0    0  502    0  0.00000000000E+00  0.00000000000E+00  0.12014223223E+03  0.12014223223E+03  0.00000000000E+00 0. -1.
         -2   -1    0    0    0  501 -0.00000000000E+00 -0.00000000000E+00 -0.65448524811E+01  0.65448524811E+01  0.00000000000E+00 0.  1.
          1    1    1    2  502    0 -0.13417171492E+02 -0.16338112962E+02  0.98412175998E+02  0.10065739322E+03  0.00000000000E+00 0. -1.
         -1    1    1    2    0  501  0.13417171492E+02  0.16338112962E+02  0.15185203754E+02  0.26029691490E+02  0.00000000000E+00 0.  1.
</event>
<event>
 4    1  0.6769686E+001  0.2153466E+02  0.7546771E-02  0.1511766E+00
          2   -1    0    0  502    0  0.00000000000E+00  0.00000000000E+00  0.15583978710E+04  0.15583978710E+04  0.00000000000E+00 0.  1.
         -2   -1    0    0    0  501 -0.00000000000E+00 -0.00000000000E+00 -0.29815414323E+00  0.29815414323E+00  0.00000000000E+00 0. -1.
          1    1    1    2  502    0 -0.17592710363E+02  0.12419260042E+02  0.81337461853E+03  0.81365964109E+03  0.00000000000E+00 0. -1.
         -1    1    1    2    0  501  0.17592710363E+02 -0.12419260042E+02  0.74472509834E+03  0.74503638407E+03  0.00000000000E+00 0.  1.
</event>
<event>
 4    1  0.6769686E+001  0.3783527E+02  0.7546771E-02  0.1361660E+00
          2   -1    0    0  502    0  0.00000000000E+00  0.00000000000E+00  0.15444148076E+02  0.15444148076E+02  0.00000000000E+00 0.  1.
         -2   -1    0    0    0  501 -0.00000000000E+00 -0.00000000000E+00 -0.11793618212E+03  0.11793618212E+03  0.00000000000E+00 0. -1.
          1    1    1    2  502    0 -0.18688312777E+02  0.32897644223E+02 -0.82102165499E+02  0.90400628369E+02  0.00000000000E+00 0. -1.
         -1    1    1    2    0  501  0.18688312777E+02 -0.32897644223E+02 -0.20389868544E+02  0.42979701827E+02  0.00000000000E+00 0.  1.
</event>
<event>
 4    1  0.6769686E+001  0.4074008E+02  0.7546771E-02  0.1344203E+00
          2   -1    0    0  502    0  0.00000000000E+00  0.00000000000E+00  0.21411299668E+01  0.21411299668E+01  0.00000000000E+00 0.  1.
         -2   -1    0    0    0  501 -0.00000000000E+00 -0.00000000000E+00 -0.15199469324E+04  0.15199469324E+04  0.00000000000E+00 0. -1.
          1    1    1    2  502    0 -0.20812799087E+02  0.35022586385E+02 -0.12916323598E+04  0.12922747026E+04  0.00000000000E+00 0. -1.
         -1    1    1    2    0  501  0.20812799087E+02 -0.35022586385E+02 -0.22617344262E+03  0.22981335973E+03  0.00000000000E+00 0.  1.
</event>
<event>
 4    1  0.6769686E+001  0.2028984E+02  0.7546771E-02  0.1529650E+00
          2   -1    0    0  502    0  0.00000000000E+00  0.00000000000E+00  0.11037476017E+04  0.11037476017E+04  0.00000000000E+00 0.  1.
         -2   -1    0    0    0  501 -0.00000000000E+00 -0.00000000000E+00 -0.41374185752E+00  0.41374185752E+00  0.00000000000E+00 0. -1.
          1    1    1    2  502    0 -0.15166974041E+02  0.13477399895E+02  0.37838354071E+03  0.37892714509E+03  0.00000000000E+00 0. -1.
         -1    1    1    2    0  501  0.15166974041E+02 -0.13477399895E+02  0.72495031918E+03  0.72523419851E+03  0.00000000000E+00 0.  1.
</event>
<event>
 4    1  0.6769686E+001  0.2282061E+02  0.7546771E-02  0.1494763E+00
          2   -1    0    0  502    0  0.00000000000E+00  0.00000000000E+00  0.30022650154E+02  0.30022650154E+02  0.00000000000E+00 0.  1.
         -2   -1    0    0    0  501 -0.00000000000E+00 -0.00000000000E+00 -0.18359791312E+02  0.18359791312E+02  0.00000000000E+00 0. -1.
          1    1    1    2  502    0 -0.21138308972E+02 -0.85995545876E+01  0.11515301358E+02  0.25561349938E+02  0.00000000000E+00 0.  1.
         -1    1    1    2    0  501  0.21138308972E+02  0.85995545876E+01  0.14755748313E+00  0.22821091528E+02  0.00000000000E+00 0. -1.
</event>
<event>
 4    1  0.6769686E+001  0.2809090E+02  0.7546771E-02  0.1436947E+00
          2   -1    0    0  502    0  0.00000000000E+00  0.00000000000E+00  0.33269156742E+02  0.33269156742E+02  0.00000000000E+00 0. -1.
         -2   -1    0    0    0  501 -0.00000000000E+00 -0.00000000000E+00 -0.32451318906E+02  0.32451318906E+02  0.00000000000E+00 0.  1.
          1    1    1    2  502    0  0.24377183196E+02 -0.13958932678E+02 -0.16637316759E+02  0.32648111293E+02  0.00000000000E+00 0.  1.
         -1    1    1    2    0  501 -0.24377183196E+02  0.13958932678E+02  0.17455154595E+02  0.33072364355E+02  0.00000000000E+00 0. -1.
</event>
<event>
 4    1  0.6769686E+001  0.3314334E+02  0.7546771E-02  0.1394108E+00
          2   -1    0    0  502    0  0.00000000000E+00  0.00000000000E+00  0.10333625509E+03  0.10333625509E+03  0.00000000000E+00 0. -1.
         -2   -1    0    0    0  501 -0.00000000000E+00 -0.00000000000E+00 -0.17464956307E+02  0.17464956307E+02  0.00000000000E+00 0.  1.
          1    1    1    2  502    0 -0.14388259391E+02 -0.29857308470E+02  0.51505694993E+01  0.33541157457E+02  0.00000000000E+00 0.  1.
         -1    1    1    2    0  501  0.14388259391E+02  0.29857308470E+02  0.80720729280E+02  0.87260053936E+02  0.00000000000E+00 0. -1.
</event>
<event>
 4    1  0.6769686E+001  0.7234121E+02  0.7546771E-02  0.1222839E+00
          2   -1    0    0  502    0  0.00000000000E+00  0.00000000000E+00  0.91001215734E+03  0.91001215734E+03  0.00000000000E+00 0. -1.
         -2   -1    0    0    0  501 -0.00000000000E+00 -0.00000000000E+00 -0.14209566595E+02  0.14209566595E+02  0.00000000000E+00 0.  1.
          1    1    1    2  502    0  0.69759333832E+02 -0.19154271408E+02  0.91359364908E+02  0.11653233168E+03  0.00000000000E+00 0.  1.
         -1    1    1    2    0  501 -0.69759333832E+02  0.19154271408E+02  0.80444322583E+03  0.80768939225E+03  0.00000000000E+00 0. -1.
</event>
<event>
 4    1  0.6769686E+001  0.2496839E+02  0.7546771E-02  0.1469157E+00
          2   -1    0    0  502    0  0.00000000000E+00  0.00000000000E+00  0.88729543462E+01  0.88729543462E+01  0.00000000000E+00 0.  1.
         -2   -1    0    0    0  501 -0.00000000000E+00 -0.00000000000E+00 -0.10058904886E+03  0.10058904886E+03  0.00000000000E+00 0. -1.
          1    1    1    2  502    0  0.24953758029E+02 -0.85455733889E+00 -0.15805439239E+02  0.29550502830E+02  0.00000000000E+00 0.  1.
         -1    1    1    2    0  501 -0.24953758029E+02  0.85455733889E+00 -0.75910655274E+02  0.79911500374E+02  0.00000000000E+00 0. -1.
</event>
<event>
 4    1  0.6769686E+001  0.4021941E+02  0.7546771E-02  0.1347205E+00
          2   -1    0    0  502    0  0.00000000000E+00  0.00000000000E+00  0.20155776808E+02  0.20155776808E+02  0.00000000000E+00 0. -1.
         -2   -1    0    0    0  501 -0.00000000000E+00 -0.00000000000E+00 -0.94739727670E+02  0.94739727670E+02  0.00000000000E+00 0.  1.
          1    1    1    2  502    0 -0.31559362587E+02  0.24932061147E+02 -0.59754716842E+02  0.72029349746E+02  0.00000000000E+00 0.  1.
         -1    1    1    2    0  501  0.31559362587E+02 -0.24932061147E+02 -0.14829234020E+02  0.42866154733E+02  0.00000000000E+00 0. -1.
</event>
<event>
 4    1  0.6769686E+001  0.4102810E+02  0.7546771E-02  0.1342564E+00
          2   -1    0    0  502    0  0.00000000000E+00  0.00000000000E+00  0.80198283349E+03  0.80198283349E+03  0.00000000000E+00 0.  1.
         -2   -1    0    0    0  501 -0.00000000000E+00 -0.00000000000E+00 -0.21003489245E+01  0.21003489245E+01  0.00000000000E+00 0. -1.
          1    1    1    2  502    0 -0.40485479803E+02  0.66506097269E+01  0.38948626483E+03  0.39164123273E+03  0.00000000000E+00 0. -1.
         -1    1    1    2    0  501  0.40485479803E+02 -0.66506097269E+01  0.41039621974E+03  0.41244194969E+03  0.00000000000E+00 0.  1.
</event>
<event>
 4    1  0.6769686E+001  0.3932756E+02  0.7546771E-02  0.1352472E+00
          2   -1    0    0  502    0  0.00000000000E+00  0.00000000000E+00  0.15449532674E+02  0.15449532674E+02  0.00000000000E+00 0.  1.
         -2   -1    0    0    0  501 -0.00000000000E+00 -0.00000000000E+00 -0.11448138974E+03  0.11448138974E+03  0.00000000000E+00 0. -1.
          1    1    1    2  502    0 -0.10719744040E+02  0.37838393095E+02 -0.26498311130E+02  0.47421697534E+02  0.00000000000E+00 0.  1.
         -1    1    1    2    0  501  0.10719744040E+02 -0.37838393095E+02 -0.72533545939E+02  0.82509224883E+02  0.00000000000E+00 0. -1.
</event>
<event>
 4    1  0.6769686E+001  0.3024364E+02  0.7546771E-02  0.1417491E+00
          2   -1    0    0  502    0  0.00000000000E+00  0.00000000000E+00  0.61715575599E+01  0.61715575599E+01  0.00000000000E+00 0.  1.
         -2   -1    0    0    0  501 -0.00000000000E+00 -0.00000000000E+00 -0.15585379877E+03  0.15585379877E+03  0.00000000000E+00 0. -1.
          1    1    1    2  502    0  0.19359131590E+02 -0.23235784236E+02 -0.56898334317E+02  0.64436775936E+02  0.00000000000E+00 0.  1.
         -1    1    1    2    0  501 -0.19359131590E+02  0.23235784236E+02 -0.92783906893E+02  0.97588580394E+02  0.00000000000E+00 0. -1.
</event>
<event>
 4    1  0.6769686E+001  0.2114124E+02  0.7546771E-02  0.1517258E+00
          2   -1    0    0  502    0  0.00000000000E+00  0.00000000000E+00  0.11329265048E+03  0.11329265048E+03  0.00000000000E+00 0.  1.
         -2   -1    0    0    0  501 -0.00000000000E+00 -0.00000000000E+00 -0.42241866900E+01  0.42241866900E+01  0.00000000000E+00 0. -1.
          1    1    1    2  502    0 -0.18817203616E+02 -0.96366508696E+01  0.39431385929E+02  0.44741327519E+02  0.00000000000E+00 0. -1.
         -1    1    1    2    0  501  0.18817203616E+02  0.96366508696E+01  0.69637077860E+02  0.72775509650E+02  0.00000000000E+00 0.  1.
</event>
<event>
 4    1  0.6769686E+001  0.2090714E+02  0.7546771E-02  0.1520595E+00
          2   -1    0    0  502    0  0.00000000000E+00  0.00000000000E+00  0.47568716119E+03  0.47568716119E+03  0.00000000000E+00 0.  1.
         -2   -1    0    0    0  501 -0.00000000000E+00 -0.00000000000E+00 -0.95227000971E+00  0.95227000971E+00  0.00000000000E+00 0. -1.
          1    1    1    2  502    0 -0.12913169431E+01  0.20867223845E+02  0.28198066701E+03  0.28275467299E+03  0.00000000000E+00 0.  1.
         -1    1    1    2    0  501  0.12913169431E+01 -0.20867223845E+02  0.19275422417E+03  0.19388475821E+03  0.00000000000E+00 0. -1.
</event>
<event>
 4    1  0.6769686E+001  0.4559404E+02  0.7546771E-02  0.1318495E+00
          2   -1    0    0  502    0  0.00000000000E+00  0.00000000000E+00  0.72954312755E+01  0.72954312755E+01  0.00000000000E+00 0.  1.
         -2   -1    0    0    0  501 -0.00000000000E+00 -0.00000000000E+00 -0.29777760759E+03  0.29777760759E+03  0.00000000000E+00 0. -1.
          1    1    1    2  502    0  0.40649467314E+02  0.20650360447E+02 -0.17690314140E+03  0.18268425772E+03  0.00000000000E+00 0. -1.
         -1    1    1    2    0  501 -0.40649467314E+02 -0.20650360447E+02 -0.11357903491E+03  0.12238878115E+03  0.00000000000E+00 0.  1.
</event>
<event>
 4    1  0.6769686E+001  0.2124887E+02  0.7546771E-02  0.1515741E+00
          2   -1    0    0  502    0  0.00000000000E+00  0.00000000000E+00  0.19530018248E+02  0.19530018248E+02  0.00000000000E+00 0. -1.
         -2   -1    0    0    0  501 -0.00000000000E+00 -0.00000000000E+00 -0.23837898210E+02  0.23837898210E+02  0.00000000000E+00 0.  1.
          1    1    1    2  502    0  0.22372442217E+01  0.21130764711E+02 -0.59195772354E+01  0.22058011552E+02  0.00000000000E+00 0.  1.
         -1    1    1    2    0  501 -0.22372442217E+01 -0.21130764711E+02  0.16116972740E+01  0.21309904906E+02  0.00000000000E+00 0. -1.
</event>
<event>
 4    1  0.6769686E+001  0.2021685E+02  0.7546771E-02  0.1530746E+00
          2   -1    0    0  502    0  0.00000000000E+00  0.00000000000E+00  0.20677181699E+04  0.20677181699E+04  0.00000000000E+00 0. -1.
         -2   -1    0    0    0  501 -0.00000000000E+00 -0.00000000000E+00 -0.22976411273E+00  0.22976411273E+00  0.00000000000E+00 0.  1.
          1    1    1    2  502    0 -0.65718840519E+01 -0.19118879801E+02  0.64729151789E+03  0.64760715743E+03  0.00000000000E+00 0.  1.
         -1    1    1    2    0  501  0.65718840519E+01  0.19118879801E+02  0.14201968879E+04  0.14203407766E+04  0.00000000000E+00 0. -1.
</event>
<event>
 4    1  0.6769686E+001  0.2128150E+02  0.7546771E-02  0.1515283E+00
          2   -1    0    0  502    0  0.00000000000E+00  0.00000000000E+00  0.16421219310E+01  0.16421219310E+01  0.00000000000E+00 0.  1.
         -2   -1    0    0    0  501 -0.00000000000E+00 -0.00000000000E+00 -0.80153282855E+03  0.80153282855E+03  0.00000000000E+00 0. -1.
          1    1    1    2  502    0 -0.12225918982E+02 -0.17419221859E+02 -0.72518295775E+03  0.72549515822E+03  0.00000000000E+00 0. -1.
         -1    1    1    2    0  501  0.12225918982E+02  0.17419221859E+02 -0.74707748870E+02  0.77679792265E+02  0.00000000000E+00 0.  1.
</event>
<event>
 4    1  0.6769686E+001  0.3242964E+02  0.7546771E-02  0.1399594E+00
          2   -1    0    0  502    0  0.00000000000E+00  0.00000000000E+00  0.27512840377E+03  0.27512840377E+03  0.00000000000E+00 0.  1.
         -2   -1    0    0    0  501 -0.00000000000E+00 -0.00000000000E+00 -0.43284318099E+01  0.43284318099E+01  0.00000000000E+00 0. -1.
          1    1    1    2  502    0 -0.35759170021E+01  0.32231885453E+02  0.18317054220E+03  0.18601916340E+03  0.00000000000E+00 0.  1.
         -1    1    1    2    0  501  0.35759170021E+01 -0.32231885453E+02  0.87629429761E+02  0.93437672181E+02  0.00000000000E+00 0. -1.
</event>
<event>
 4    1  0.6769686E+001  0.2969996E+02  0.7546771E-02  0.1422222E+00
          2   -1    0    0  502    0  0.00000000000E+00  0.00000000000E+00  0.15382753442E+04  0.15382753442E+04  0.00000000000E+00 0.  1.
         -2   -1    0    0    0  501 -0.00000000000E+00 -0.00000000000E+00 -0.60257078797E+00  0.60257078797E+00  0.00000000000E+00 0. -1.
          1    1    1    2  502    0  0.15142012074E+02  0.25550084295E+02  0.93805546577E+03  0.93852551600E+03  0.00000000000E+00 0.  1.
         -1    1    1    2    0  501 -0.15142012074E+02 -0.25550084295E+02  0.59961730767E+03  0.60035239901E+03  0.00000000000E+00 0. -1.
</event>
<event>
 4    1  0.6769686E+001  0.3486203E+02  0.7546771E-02  0.1381536E+00
          2   -1    0    0  502    0  0.00000000000E+00  0.00000000000E+00  0.82380234484E+01  0.82380234484E+01  0.00000000000E+00 0.  1.
         -2   -1    0    0    0  501 -0.00000000000E+00 -0.00000000000E+00 -0.16255496355E+03  0.16255496355E+03  0.00000000000E+00 0. -1.
          1    1    1    2  502    0  0.31804925381E+02  0.14276135108E+02 -0.51196561736E+02  0.61939076888E+02  0.00000000000E+00 0.  1.
         -1    1    1    2    0  501 -0.31804925381E+02 -0.14276135108E+02 -0.10312037837E+03  0.10885391011E+03  0.00000000000E+00 0. -1.
</event>
<event>
 4    1  0.6769686E+001  0.2026907E+02  0.7546771E-02  0.1529961E+00
          2   -1    0    0  502    0  0.00000000000E+00  0.00000000000E+00  0.47949617994E+03  0.47949617994E+03  0.00000000000E+00 0.  1.
         -2   -1    0    0    0  501 -0.00000000000E+00 -0.00000000000E+00 -0.23633611299E+01  0.23633611299E+01  0.00000000000E+00 0. -1.
          1    1    1    2  502    0 -0.61019463113E+01 -0.19328775113E+02  0.43092780062E+03  0.43140422419E+03  0.00000000000E+00 0.  1.
         -1    1    1    2    0  501  0.61019463113E+01  0.19328775113E+02  0.46205018191E+02  0.50455316887E+02  0.00000000000E+00 0. -1.
</event>
<event>
 4    1  0.6769686E+001  0.3159342E+02  0.7546771E-02  0.1406237E+00
          2   -1    0    0  502    0  0.00000000000E+00  0.00000000000E+00  0.27789799454E+04  0.27789799454E+04  0.00000000000E+00 0. -1.
         -2   -1    0    0    0  501 -0.00000000000E+00 -0.00000000000E+00 -0.45229522122E+00  0.45229522122E+00  0.00000000000E+00 0.  1.
          1    1    1    2  502    0  0.28343862358E+02  0.13955979624E+02  0.20198347245E+04  0.20200817949E+04  0.00000000000E+00 0. -1.
         -1    1    1    2    0  501 -0.28343862358E+02 -0.13955979624E+02  0.75869292569E+03  0.75935044570E+03  0.00000000000E+00 0.  1.
</event>
<event>
 4    1  0.6769686E+001  0.2221600E+02  0.7546771E-02  0.1502585E+00
          2   -1    0    0  502    0  0.00000000000E+00  0.00000000000E+00  0.27042736164E+02  0.27042736164E+02  0.00000000000E+00 0. -1.
         -2   -1    0    0    0  501 -0.00000000000E+00 -0.00000000000E+00 -0.18280981051E+02  0.18280981051E+02  0.00000000000E+00 0.  1.
          1    1    1    2  502    0 -0.10909248243E+02 -0.19353007260E+02  0.53022263139E+01  0.22839969157E+02  0.00000000000E+00 0.  1.
         -1    1    1    2    0  501  0.10909248243E+02  0.19353007260E+02  0.34595287997E+01  0.22483748058E+02  0.00000000000E+00 0. -1.
</event>
<event>
 4    1  0.6769686E+001  0.2507039E+02  0.7546771E-02  0.1468017E+00
          2   -1    0    0  502    0  0.00000000000E+00  0.00000000000E+00  0.17403166339E+03  0.17403166339E+03  0.00000000000E+00 0. -1.
         -2   -1    0    0    0  501 -0.00000000000E+00 -0.00000000000E+00 -0.36905748227E+01  0.36905748227E+01  0.00000000000E+00 0.  1.
          1    1    1    2  502    0 -0.24587999039E+02 -0.48943630814E+01  0.98173428701E+02  0.10132396849E+03  0.00000000000E+00 0. -1.
         -1    1    1    2    0  501  0.24587999039E+02  0.48943630814E+01  0.72167659863E+02  0.76398269724E+02  0.00000000000E+00 0.  1.
</event>
<event>
 4    1  0.6769686E+001  0.2268832E+02  0.7546771E-02  0.1496449E+00
          2   -1    0    0  502    0  0.00000000000E+00  0.00000000000E+00  0.10925250890E+02  0.10925250890E+02  0.00000000000E+00 0.  1.
         -2   -1    0    0    0  501 -0.00000000000E+00 -0.00000000000E+00 -0.58184991617E+02  0.58184991617E+02  0.00000000000E+00 0. -1.
          1    1    1    2  502    0 -0.82475479619E+00  0.22673327563E+02 -0.38701159434E+02  0.44861339088E+02  0.00000000000E+00 0. -1.
         -1    1    1    2    0  501  0.82475479619E+00 -0.22673327563E+02 -0.85585812926E+01  0.24248903419E+02  0.00000000000E+00 0.  1.
</event>
<event>
 4    1  0.6769686E+001  0.2364717E+02  0.7546771E-02  0.1484528E+00
          2   -1    0    0  502    0  0.00000000000E+00  0.00000000000E+00  0.28778191926E+02  0.28778191926E+02  0.00000000000E+00 0.  1.
         -2   -1    0    0    0  501 -0.00000000000E+00 -0.00000000000E+00 -0.29299178955E+02  0.29299178955E+02  0.00000000000E+00 0. -1.
          1    1    1    2  502    0 -0.11267253136E+02 -0.20790321014E+02  0.16592156392E+02  0.28887507591E+02  0.00000000000E+00 0. -1.
         -1    1    1    2    0  501  0.11267253136E+02  0.20790321014E+02 -0.17113143421E+02  0.29189863289E+02  0.00000000000E+00 0.  1.
</event>
<event>
 4    1  0.6769686E+001  0.2209594E+02  0.7546771E-02  0.1504174E+00
          2   -1    0    0  502    0  0.00000000000E+00  0.00000000000E+00  0.27987377261E+04  0.27987377261E+04  0.00000000000E+00 0.  1.
         -2   -1    0    0    0  501 -0.00000000000E+00 -0.00000000000E+00 -0.17555888863E+00  0.17555888863E+00  0.00000000000E+00 0. -1.
          1    1    1    2  502    0 -0.20410016654E+02  0.84653194801E+01  0.12878907509E+04  0.12880802835E+04  0.00000000000E+00 0. -1.
         -1    1    1    2    0  501  0.20410016654E+02 -0.84653194801E+01  0.15106714163E+04  0.15108330015E+04  0.00000000000E+00 0.  1.
</event>
<event>
 4    1  0.6769686E+001  0.3182762E+02  0.7546771E-02  0.1404352E+00
          2   -1    0    0  502    0  0.00000000000E+00  0.00000000000E+00  0.13742348214E+04  0.13742348214E+04  0.00000000000E+00 0. -1.
         -2   -1    0    0    0  501 -0.00000000000E+00 -0.00000000000E+00 -0.73768414500E+00  0.73768414500E+00  0.00000000000E+00 0.  1.
          1    1    1    2  502    0 -0.19169092666E+02  0.25407546174E+02  0.66800275866E+03  0.66876055737E+03  0.00000000000E+00 0. -1.
         -1    1    1    2    0  501  0.19169092666E+02 -0.25407546174E+02  0.70549437856E+03  0.70621194814E+03  0.00000000000E+00 0.  1.
</event>
<event>
 4    1  0.6769686E+001  0.2097011E+02  0.7546771E-02  0.1519692E+00
          2   -1    0    0  502    0  0.00000000000E+00  0.00000000000E+00  0.39305988364E+01  0.39305988364E+01  0.00000000000E+00 0.  1.
         -2   -1    0    0    0  501 -0.00000000000E+00 -0.00000000000E+00 -0.13145269379E+03  0.13145269379E+03  0.00000000000E+00 0. -1.
          1    1    1    2  502    0  0.26079439260E+01 -0.20807310966E+02 -0.89882865240E+02  0.92296668547E+02  0.00000000000E+00 0. -1.
         -1    1    1    2    0  501 -0.26079439260E+01  0.20807310966E+02 -0.37639229716E+02  0.43086624082E+02  0.00000000000E+00 0.  1.
</event>
<event>
 4    1  0.6769686E+001  0.2196204E+02  0.7546771E-02  0.1505960E+00
          2   -1    0    0  502    0  0.00000000000E+00  0.00000000000E+00  0.52397817502E+03  0.52397817502E+03  0.00000000000E+00 0.  1.
         -2   -1    0    0    0  501 -0.00000000000E+00 -0.00000000000E+00 -0.11261911642E+01  0.11261911642E+01  0.00000000000E+00 0. -1.
          1    1    1    2  502    0 -0.18613473845E+02  0.11656312229E+02  0.37362758733E+03  0.37427250105E+03  0.00000000000E+00 0.  1.
         -1    1    1    2    0  501  0.18613473845E+02 -0.11656312229E+02  0.14922439653E+03  0.15083186514E+03  0.00000000000E+00 0. -1.
</event>
<event>
 4    1  0.6769686E+001  0.3250987E+02  0.7546771E-02  0.1398969E+00
          2   -1    0    0  502    0  0.00000000000E+00  0.00000000000E+00  0.51753834376E+02  0.51753834376E+02  0.00000000000E+00 0. -1.
         -2   -1    0    0    0  501 -0.00000000000E+00 -0.00000000000E+00 -0.20636366570E+02  0.20636366570E+02  0.00000000000E+00 0.  1.
          1    1    1    2  502    0  0.40417459772E+01  0.32257651787E+02  0.11865554562E+02  0.34607559788E+02  0.00000000000E+00 0. -1.
         -1    1    1    2    0  501 -0.40417459772E+01 -0.32257651787E+02  0.19251913244E+02  0.37782641159E+02  0.00000000000E+00 0.  1.
</event>
<event>
 4    1  0.6769686E+001  0.5091372E+02  0.7546771E-02  0.1294259E+00
          2   -1    0    0  502    0  0.00000000000E+00  0.00000000000E+00  0.17182013297E+02  0.17182013297E+02  0.00000000000E+00 0.  1.
         -2   -1    0    0    0  501 -0.00000000000E+00 -0.00000000000E+00 -0.15314571674E+03  0.15314571674E+03  0.00000000000E+00 0. -1.
          1    1    1    2  502    0 -0.40117735916E+02 -0.31349226303E+02 -0.57594516421E+02  0.76872199439E+02  0.00000000000E+00 0.  1.
         -1    1    1    2    0  501  0.40117735916E+02  0.31349226303E+02 -0.78369187024E+02  0.93455530600E+02  0.00000000000E+00 0. -1.
</event>
<event>
 4    1  0.6769686E+001  0.2280564E+02  0.7546771E-02  0.1494953E+00
          2   -1    0    0  502    0  0.00000000000E+00  0.00000000000E+00  0.25919533055E+03  0.25919533055E+03  0.00000000000E+00 0.  1.
         -2   -1    0    0    0  501 -0.00000000000E+00 -0.00000000000E+00 -0.21208158300E+01  0.21208158300E+01  0.00000000000E+00 0. -1.
          1    1    1    2  502    0 -0.22538416613E+02  0.34809533492E+01  0.15886065940E+03  0.16048927181E+03  0.00000000000E+00 0.  1.
         -1    1    1    2    0  501  0.22538416613E+02 -0.34809533492E+01  0.98213855316E+02  0.10082687457E+03  0.00000000000E+00 0. -1.
</event>
<event>
 4    1  0.6769686E+001  0.2278167E+02  0.7546771E-02  0.1495258E+00
          2   -1    0    0  502    0  0.00000000000E+00  0.00000000000E+00  0.34414831049E+01  0.34414831049E+01  0.00000000000E+00 0. -1.
         -2   -1    0    0    0  501 -0.00000000000E+00 -0.00000000000E+00 -0.35073472048E+03  0.35073472048E+03  0.00000000000E+00 0.  1.
          1    1    1    2  502    0  0.17996385653E+02  0.13969060212E+02 -0.39945513948E+02  0.45985308788E+02  0.00000000000E+00 0. -1.
         -1    1    1    2    0  501 -0.17996385653E+02 -0.13969060212E+02 -0.30734772343E+03  0.30819089480E+03  0.00000000000E+00 0.  1.
</event>
<event>
 4    1  0.6769686E+001  0.2036920E+02  0.7546771E-02  0.1528465E+00
          2   -1    0    0  502    0  0.00000000000E+00  0.00000000000E+00  0.38561348435E+03  0.38561348435E+03  0.00000000000E+00 0. -1.
         -2   -1    0    0    0  501 -0.00000000000E+00 -0.00000000000E+00 -0.51303772850E+01  0.51303772850E+01  0.00000000000E+00 0.  1.
          1    1    1    2  502    0 -0.14265518970E+02 -0.14539570372E+02  0.16560751965E+02  0.26251907431E+02  0.00000000000E+00 0.  1.
         -1    1    1    2    0  501  0.14265518970E+02  0.14539570372E+02  0.36392235510E+03  0.36449195421E+03  0.00000000000E+00 0. -1.
</event>
<event>
 4    1  0.6769686E+001  0.2207704E+02  0.7546771E-02  0.1504425E+00
          2   -1    0    0  502    0  0.00000000000E+00  0.00000000000E+00  0.26239979603E+02  0.26239979603E+02  0.00000000000E+00 0. -1.
         -2   -1    0    0    0  501 -0.00000000000E+00 -0.00000000000E+00 -0.25790465374E+02  0.25790465374E+02  0.00000000000E+00 0.  1.
          1    1    1    2  502    0  0.11795696254E+02  0.18661654785E+02  0.13985556864E+02  0.26134108177E+02  0.00000000000E+00 0. -1.
         -1    1    1    2    0  501 -0.11795696254E+02 -0.18661654785E+02 -0.13536042635E+02  0.25896336800E+02  0.00000000000E+00 0.  1.
</event>
<event>
 4    1  0.6769686E+001  0.3147700E+02  0.7546771E-02  0.1407181E+00
          2   -1    0    0  502    0  0.00000000000E+00  0.00000000000E+00  0.12072304948E+04  0.12072304948E+04  0.00000000000E+00 0. -1.
         -2   -1    0    0    0  501 -0.00000000000E+00 -0.00000000000E+00 -0.87922980876E+00  0.87922980876E+00  0.00000000000E+00 0.  1.
          1    1    1    2  502    0 -0.22329651276E+02  0.22185316699E+02  0.44735351717E+03  0.44845955328E+03  0.00000000000E+00 0.  1.
         -1    1    1    2    0  501  0.22329651276E+02 -0.22185316699E+02  0.75899774782E+03  0.75965017133E+03  0.00000000000E+00 0. -1.
</event>
<event>
 4    1  0.6769686E+001  0.2387853E+02  0.7546771E-02  0.1481751E+00
          2   -1    0    0  502    0  0.00000000000E+00  0.00000000000E+00  0.93215252144E+00  0.93215252144E+00  0.00000000000E+00 0. -1.
         -2   -1    0    0    0  501 -0.00000000000E+00 -0.00000000000E+00 -0.78481287998E+03  0.78481287998E+03  0.00000000000E+00 0.  1.
          1    1    1    2  502    0  0.17922166185E+02  0.15779108173E+02 -0.57646370583E+03  0.57695804738E+03  0.00000000000E+00 0.  1.
         -1    1    1    2    0  501 -0.17922166185E+02 -0.15779108173E+02 -0.20741702163E+03  0.20878698512E+03  0.00000000000E+00 0. -1.
</event>
<event>
 4    1  0.6769686E+001  0.2752810E+02  0.7546771E-02  0.1442374E+00
          2   -1    0    0  502    0  0.00000000000E+00  0.00000000000E+00  0.14494596836E+03  0.14494596836E+03  0.00000000000E+00 0.  1.
         -2   -1    0    0    0  501 -0.00000000000E+00 -0.00000000000E+00 -0.53276455968E+01  0.53276455968E+01  0.00000000000E+00 0. -1.
          1    1    1    2  502    0 -0.22206627457E+02 -0.16268439295E+02  0.80078200929E+02  0.84677710669E+02  0.00000000000E+00 0. -1.
         -1    1    1    2    0  501  0.22206627457E+02  0.16268439295E+02  0.59540121833E+02  0.65595903287E+02  0.00000000000E+00 0.  1.
</event>
<event>
 4    1  0.6769686E+001  0.2011979E+02  0.7546771E-02  0.1532212E+00
          2   -1    0    0  502    0  0.00000000000E+00  0.00000000000E+00  0.10544700128E+04  0.10544700128E+04  0.00000000000E+00 0. -1.
         -2   -1    0    0    0  501 -0.00000000000E+00 -0.00000000000E+00 -0.41112154638E+00  0.41112154638E+00  0.00000000000E+00 0.  1.
          1    1    1    2  502    0  0.45841951926E+01  0.19590583265E+02  0.39129676022E+03  0.39181368067E+03  0.00000000000E+00 0.  1.
         -1    1    1    2    0  501 -0.45841951926E+01 -0.19590583265E+02  0.66276213101E+03  0.66306745366E+03  0.00000000000E+00 0. -1.
</event>
<event>
 4    1  0.6769686E+001  0.2214082E+02  0.7546771E-02  0.1503578E+00
          2   -1    0    0  502    0  0.00000000000E+00  0.00000000000E+00  0.15558748756E+04  0.15558748756E+04  0.00000000000E+00 0. -1.
         -2   -1    0    0    0  501 -0.00000000000E+00 -0.00000000000E+00 -0.34376679133E+00  0.34376679133E+00  0.00000000000E+00 0.  1.
          1    1    1    2  502    0 -0.21391475629E+02  0.57114609016E+01  0.10025641658E+04  0.10028086171E+04  0.00000000000E+00 0. -1.
         -1    1    1    2    0  501  0.21391475629E+02 -0.57114609016E+01  0.55296694301E+03  0.55341002528E+03  0.00000000000E+00 0.  1.
</event>
<event>
 4    1  0.6769686E+001  0.2335421E+02  0.7546771E-02  0.1488098E+00
          2   -1    0    0  502    0  0.00000000000E+00  0.00000000000E+00  0.23471805727E+01  0.23471805727E+01  0.00000000000E+00 0.  1.
         -2   -1    0    0    0  501 -0.00000000000E+00 -0.00000000000E+00 -0.27133375347E+03  0.27133375347E+03  0.00000000000E+00 0. -1.
          1    1    1    2  502    0 -0.21584572352E+02  0.89177010670E+01 -0.18634720936E+03  0.18780495625E+03  0.00000000000E+00 0. -1.
         -1    1    1    2    0  501  0.21584572352E+02 -0.89177010670E+01 -0.82639363543E+02  0.85875977798E+02  0.00000000000E+00 0.  1.
</event>
<event>
 4    1  0.6769686E+001  0.4255050E+02  0.7546771E-02  0.1334155E+00
          2   -1    0    0  502    0  0.00000000000E+00  0.00000000000E+00  0.23276839108E+03  0.23276839108E+03  0.00000000000E+00 0.  1.
         -2   -1    0    0    0  501 -0.00000000000E+00 -0.00000000000E+00 -0.89575756314E+01  0.89575756314E+01  0.00000000000E+00 0. -1.
          1    1    1    2  502    0  0.19906603443E+02 -0.37606805399E+02  0.15575887268E+03  0.16146631566E+03  0.00000000000E+00 0.  1.
         -1    1    1    2    0  501 -0.19906603443E+02  0.37606805399E+02  0.68051942769E+02  0.80259651056E+02  0.00000000000E+00 0. -1.
</event>
<event>
 4    1  0.6769686E+001  0.2096760E+02  0.7546771E-02  0.1519728E+00
          2   -1    0    0  502    0  0.00000000000E+00  0.00000000000E+00  0.13290974634E+04  0.13290974634E+04  0.00000000000E+00 0. -1.
         -2   -1    0    0    0  501 -0.00000000000E+00 -0.00000000000E+00 -0.33633205030E+00  0.33633205030E+00  0.00000000000E+00 0.  1.
          1    1    1    2  502    0  0.90471664542E+01  0.18915311668E+02  0.57898432533E+03  0.57936386599E+03  0.00000000000E+00 0. -1.
         -1    1    1    2    0  501 -0.90471664542E+01 -0.18915311668E+02  0.74977680602E+03  0.75006992946E+03  0.00000000000E+00 0.  1.
</event>
<event>
 4    1  0.6769686E+001  0.2409969E+02  0.7546771E-02  0.1479132E+00
          2   -1    0    0  502    0  0.00000000000E+00  0.00000000000E+00  0.84863104718E+02  0.84863104718E+02  0.00000000000E+00 0. -1.
         -2   -1    0    0    0  501 -0.00000000000E+00 -0.00000000000E+00 -0.85981754034E+01  0.85981754034E+01  0.00000000000E+00 0.  1.
          1    1    1    2  502    0 -0.30494850743E+01 -0.23905972786E+02  0.59240462491E+02  0.63954884803E+02  0.00000000000E+00 0. -1.
         -1    1    1    2    0  501  0.30494850743E+01  0.23905972786E+02  0.17024466824E+02  0.29506395318E+02  0.00000000000E+00 0.  1.
</event>
<event>
 4    1  0.6769686E+001  0.4946894E+02  0.7546771E-02  0.1300492E+00
          2   -1    0    0  502    0  0.00000000000E+00  0.00000000000E+00  0.14047080987E+03  0.14047080987E+03  0.00000000000E+00 0.  1.
         -2   -1    0    0    0  501 -0.00000000000E+00 -0.00000000000E+00 -0.18141311119E+02  0.18141311119E+02  0.00000000000E+00 0. -1.
          1    1    1    2  502    0  0.43632017689E+02 -0.23311427171E+02  0.45364646123E+02  0.67120240779E+02  0.00000000000E+00 0.  1.
         -1    1    1    2    0  501 -0.43632017689E+02  0.23311427171E+02  0.76964852633E+02  0.91491880215E+02  0.00000000000E+00 0. -1.
</event>
<event>
 4    1  0.6769686E+001  0.3553834E+02  0.7546771E-02  0.1376818E+00
          2   -1    0    0  502    0  0.00000000000E+00  0.00000000000E+00  0.22722319626E+03  0.22722319626E+03  0.00000000000E+00 0.  1.
         -2   -1    0    0    0  501 -0.00000000000E+00 -0.00000000000E+00 -0.14165164450E+02  0.14165164450E+02  0.00000000000E+00 0. -1.
          1    1    1    2  502    0 -0.16162513533E+02  0.31650381788E+02  0.12448837545E+02  0.37655637921E+02  0.00000000000E+00 0. -1.
         -1    1    1    2    0  501  0.16162513533E+02 -0.31650381788E+02  0.20060919426E+03  0.20373272279E+03  0.00000000000E+00 0.  1.
</event>
<event>
 4    1  0.6769686E+001  0.2093886E+02  0.7546771E-02  0.1520140E+00
          2   -1    0    0  502    0  0.00000000000E+00  0.00000000000E+00  0.71104519445E+01  0.71104519445E+01  0.00000000000E+00 0.  1.
         -2   -1    0    0    0  501 -0.00000000000E+00 -0.00000000000E+00 -0.71283594048E+02  0.71283594048E+02  0.00000000000E+00 0. -1.
          1    1    1    2  502    0  0.20616781934E+02  0.36584091744E+01 -0.17684980062E+02  0.27407921752E+02  0.00000000000E+00 0.  1.
         -1    1    1    2    0  501 -0.20616781934E+02 -0.36584091744E+01 -0.46488162041E+02  0.50986124240E+02  0.00000000000E+00 0. -1.
</event>
<event>
 4    1  0.6769686E+001  0.3103816E+02  0.7546771E-02  0.1410784E+00
          2   -1    0    0  502    0  0.00000000000E+00  0.00000000000E+00  0.21800178402E+03  0.21800178402E+03  0.00000000000E+00 0. -1.
         -2   -1    0    0    0  501 -0.00000000000E+00 -0.00000000000E+00 -0.44781376277E+01  0.44781376277E+01  0.00000000000E+00 0.  1.
          1    1    1    2  502    0  0.30853126582E+02 -0.33840658555E+01  0.93987139863E+02  0.98979542236E+02  0.00000000000E+00 0. -1.
         -1    1    1    2    0  501 -0.30853126582E+02  0.33840658555E+01  0.11953650653E+03  0.12350037941E+03  0.00000000000E+00 0.  1.
</event>
<event>
 4    1  0.6769686E+001  0.4159218E+02  0.7546771E-02  0.1339400E+00
          2   -1    0    0  502    0  0.00000000000E+00  0.00000000000E+00  0.84778437443E+02  0.84778437443E+02  0.00000000000E+00 0.  1.
         -2   -1    0    0    0  501 -0.00000000000E+00 -0.00000000000E+00 -0.27780035193E+02  0.27780035193E+02  0.00000000000E+00 0. -1.
          1    1    1    2  502    0 -0.40956012991E+02  0.72466722772E+01  0.57496799297E+02  0.70963308749E+02  0.00000000000E+00 0.  1.
         -1    1    1    2    0  501  0.40956012991E+02 -0.72466722772E+01 -0.49839704767E+00  0.41595163887E+02  0.00000000000E+00 0. -1.
</event>
<event>
 4    1  0.6769686E+001  0.2451433E+02  0.7546771E-02  0.1474310E+00
          2   -1    0    0  502    0  0.00000000000E+00  0.00000000000E+00  0.22959218228E+03  0.22959218228E+03  0.00000000000E+00 0.  1.
         -2   -1    0    0    0  501 -0.00000000000E+00 -0.00000000000E+00 -0.26899306635E+01  0.26899306635E+01  0.00000000000E+00 0. -1.
          1    1    1    2  502    0 -0.20904672770E+02  0.12804182855E+02  0.13251200724E+03  0.13476047086E+03  0.00000000000E+00 0.  1.
         -1    1    1    2    0  501  0.20904672770E+02 -0.12804182855E+02  0.94390244371E+02  0.97521642083E+02  0.00000000000E+00 0. -1.
</event>
<event>
 4    1  0.6769686E+001  0.2795795E+02  0.7546771E-02  0.1438216E+00
          2   -1    0    0  502    0  0.00000000000E+00  0.00000000000E+00  0.22343910020E+04  0.22343910020E+04  0.00000000000E+00 0. -1.
         -2   -1    0    0    0  501 -0.00000000000E+00 -0.00000000000E+00 -0.41885030817E+00  0.41885030817E+00  0.00000000000E+00 0.  1.
          1    1    1    2  502    0  0.14553535621E+02  0.23871352063E+02  0.15705974215E+04  0.15708462393E+04  0.00000000000E+00 0. -1.
         -1    1    1    2    0  501 -0.14553535621E+02 -0.23871352063E+02  0.66337473019E+03  0.66396361308E+03  0.00000000000E+00 0.  1.
</event>
<event>
 4    1  0.6769686E+001  0.5587293E+02  0.7546771E-02  0.1274539E+00
          2   -1    0    0  502    0  0.00000000000E+00  0.00000000000E+00  0.87623622135E+03  0.87623622135E+03  0.00000000000E+00 0. -1.
         -2   -1    0    0    0  501 -0.00000000000E+00 -0.00000000000E+00 -0.41285938643E+01  0.41285938643E+01  0.00000000000E+00 0.  1.
          1    1    1    2  502    0 -0.54948674583E+01  0.55602075305E+02  0.27308991647E+03  0.27874699429E+03  0.00000000000E+00 0.  1.
         -1    1    1    2    0  501  0.54948674583E+01 -0.55602075305E+02  0.59901771102E+03  0.60161782093E+03  0.00000000000E+00 0. -1.
</event>
<event>
 4    1  0.6769686E+001  0.2303565E+02  0.7546771E-02  0.1492051E+00
          2   -1    0    0  502    0  0.00000000000E+00  0.00000000000E+00  0.19903613953E+02  0.19903613953E+02  0.00000000000E+00 0. -1.
         -2   -1    0    0    0  501 -0.00000000000E+00 -0.00000000000E+00 -0.27921091533E+02  0.27921091533E+02  0.00000000000E+00 0.  1.
          1    1    1    2  502    0  0.16480920717E+02  0.16094114690E+02  0.10720935269E+01  0.23060586720E+02  0.00000000000E+00 0. -1.
         -1    1    1    2    0  501 -0.16480920717E+02 -0.16094114690E+02 -0.90895711072E+01  0.24764118766E+02  0.00000000000E+00 0.  1.
</event>
<event>
 4    1  0.6769686E+001  0.4339394E+02  0.7546771E-02  0.1329668E+00
          2   -1    0    0  502    0  0.00000000000E+00  0.00000000000E+00  0.48936693017E+02  0.48936693017E+02  0.00000000000E+00 0.  1.
         -2   -1    0    0    0  501 -0.00000000000E+00 -0.00000000000E+00 -0.41734718162E+02  0.41734718162E+02  0.00000000000E+00 0. -1.
          1    1    1    2  502    0 -0.43287689517E+02  0.30347706913E+01 -0.90614279472E+01  0.44329937664E+02  0.00000000000E+00 0. -1.
         -1    1    1    2    0  501  0.43287689517E+02 -0.30347706913E+01  0.16263402803E+02  0.46341473515E+02  0.00000000000E+00 0.  1.
</event>
<event>
 4    1  0.6769686E+001  0.2094794E+02  0.7546771E-02  0.1520009E+00
          2   -1    0    0  502    0  0.00000000000E+00  0.00000000000E+00  0.77552991575E+03  0.77552991575E+03  0.00000000000E+00 0. -1.
         -2   -1    0    0    0  501 -0.00000000000E+00 -0.00000000000E+00 -0.58210908049E+00  0.58210908049E+00  0.00000000000E+00 0.  1.
          1    1    1    2  502    0  0.76596640824E+01  0.19497324144E+02  0.32257439853E+03  0.32325386106E+03  0.00000000000E+00 0.  1.
         -1    1    1    2    0  501 -0.76596640824E+01 -0.19497324144E+02  0.45237340815E+03  0.45285816378E+03  0.00000000000E+00 0. -1.
</event>
<event>
 4    1  0.6769686E+001  0.2392554E+02  0.7546771E-02  0.1481192E+00
          2   -1    0    0  502    0  0.00000000000E+00  0.00000000000E+00  0.42093307959E+03  0.42093307959E+03  0.00000000000E+00 0.  1.
         -2   -1    0    0    0  501 -0.00000000000E+00 -0.00000000000E+00 -0.19794703575E+01  0.19794703575E+01  0.00000000000E+00 0. -1.
          1    1    1    2  502    0  0.16942954114E+02  0.16892826664E+02  0.91175990068E+02  0.94262890109E+02  0.00000000000E+00 0. -1.
         -1    1    1    2    0  501 -0.16942954114E+02 -0.16892826664E+02  0.32777761916E+03  0.32864965983E+03  0.00000000000E+00 0.  1.
</event>
<event>
 4    1  0.6769686E+001  0.2042417E+02  0.7546771E-02  0.1527647E+00
          2   -1    0    0  502    0  0.00000000000E+00  0.00000000000E+00  0.45553708732E+02  0.45553708732E+02  0.00000000000E+00 0. -1.
         -2   -1    0    0    0  501 -0.00000000000E+00 -0.00000000000E+00 -0.12234003925E+02  0.12234003925E+02  0.00000000000E+00 0.  1.
          1    1    1    2  502    0  0.18631479009E+02  0.83674847414E+01  0.21698849562E+01  0.20539114190E+02  0.00000000000E+00 0.  1.
         -1    1    1    2    0  501 -0.18631479009E+02 -0.83674847414E+01  0.31149819851E+02  0.37248598467E+02  0.00000000000E+00 0. -1.
</event>
<event>
 4    1  0.6769686E+001  0.2968479E+02  0.7546771E-02  0.1422356E+00
          2   -1    0    0  502    0  0.00000000000E+00  0.00000000000E+00  0.14544336672E+04  0.14544336672E+04  0.00000000000E+00 0.  1.
         -2   -1    0    0    0  501 -0.00000000000E+00 -0.00000000000E+00 -0.74544854690E+00  0.74544854690E+00  0.00000000000E+00 0. -1.
          1    1    1    2  502    0  0.54289572933E+01 -0.29184122835E+02  0.41199761999E+03  0.41306564306E+03  0.00000000000E+00 0. -1.
         -1    1    1    2    0  501 -0.54289572933E+01  0.29184122835E+02  0.10416905987E+04  0.10421134727E+04  0.00000000000E+00 0.  1.
</event>
<event>
 4    1  0.6769686E+001  0.4196522E+02  0.7546771E-02  0.1337339E+00
          2   -1    0    0  502    0  0.00000000000E+00  0.00000000000E+00  0.17782893000E+03  0.17782893000E+03  0.00000000000E+00 0. -1.
         -2   -1    0    0    0  501 -0.00000000000E+00 -0.00000000000E+00 -0.10306848803E+02  0.10306848803E+02  0.00000000000E+00 0.  1.
          1    1    1    2  502    0 -0.37379506317E+02 -0.19074914219E+02  0.65145870251E+02  0.77492349660E+02  0.00000000000E+00 0.  1.
         -1    1    1    2    0  501  0.37379506317E+02  0.19074914219E+02  0.10237621094E+03  0.11064342914E+03  0.00000000000E+00 0. -1.
</event>
<event>
 4    1  0.6769686E+001  0.2051229E+02  0.7546771E-02  0.1526343E+00
          2   -1    0    0  502    0  0.00000000000E+00  0.00000000000E+00  0.84451962516E+01  0.84451962516E+01  0.00000000000E+00 0.  1.
         -2   -1    0    0    0  501 -0.00000000000E+00 -0.00000000000E+00 -0.11604088044E+03  0.11604088044E+03  0.00000000000E+00 0. -1.
          1    1    1    2  502    0 -0.28483349810E+01  0.20313567818E+02 -0.67784325303E+01  0.21603268207E+02  0.00000000000E+00 0.  1.
         -1    1    1    2    0  501  0.28483349810E+01 -0.20313567818E+02 -0.10081725166E+03  0.10288280848E+03  0.00000000000E+00 0. -1.
</event>
<event>
 4    1  0.6769686E+001  0.2895878E+02  0.7546771E-02  0.1428865E+00
          2   -1    0    0  502    0  0.00000000000E+00  0.00000000000E+00  0.12143631469E+04  0.12143631469E+04  0.00000000000E+00 0. -1.
         -2   -1    0    0    0  501 -0.00000000000E+00 -0.00000000000E+00 -0.11357243877E+01  0.11357243877E+01  0.00000000000E+00 0.  1.
          1    1    1    2  502    0 -0.13673934082E+02 -0.25527135850E+02  0.98710091158E+03  0.98752560513E+03  0.00000000000E+00 0. -1.
         -1    1    1    2    0  501  0.13673934082E+02  0.25527135850E+02  0.22612651095E+03  0.22797326618E+03  0.00000000000E+00 0.  1.
</event>
<event>
 4    1  0.6769686E+001  0.2217789E+02  0.7546771E-02  0.1503088E+00
          2   -1    0    0  502    0  0.00000000000E+00  0.00000000000E+00  0.19438701688E+04  0.19438701688E+04  0.00000000000E+00 0.  1.
         -2   -1    0    0    0  501 -0.00000000000E+00 -0.00000000000E+00 -0.30121743166E+00  0.30121743166E+00  0.00000000000E+00 0. -1.
          1    1    1    2  502    0  0.13178681105E+02  0.17837633588E+02  0.58298265800E+03  0.58340435234E+03  0.00000000000E+00 0. -1.
         -1    1    1    2    0  501 -0.13178681105E+02 -0.17837633588E+02  0.13605862933E+04  0.13607670339E+04  0.00000000000E+00 0.  1.
</event>
<event>
 4    1  0.6769686E+001  0.2208322E+02  0.7546771E-02  0.1504343E+00
          2   -1    0    0  502    0  0.00000000000E+00  0.00000000000E+00  0.35640661837E+03  0.35640661837E+03  0.00000000000E+00 0.  1.
         -2   -1    0    0    0  501 -0.00000000000E+00 -0.00000000000E+00 -0.27287726377E+01  0.27287726377E+01  0.00000000000E+00 0. -1.
          1    1    1    2  502    0 -0.21628064735E+02  0.44604445454E+01  0.30363053552E+03  0.30443253908E+03  0.00000000000E+00 0.  1.
         -1    1    1    2    0  501  0.21628064735E+02 -0.44604445454E+01  0.50047310214E+02  0.54702851931E+02  0.00000000000E+00 0. -1.
</event>
<event>
 4    1  0.6769686E+001  0.2595469E+02  0.7546771E-02  0.1458401E+00
          2   -1    0    0  502    0  0.00000000000E+00  0.00000000000E+00  0.31883677808E+03  0.31883677808E+03  0.00000000000E+00 0. -1.
         -2   -1    0    0    0  501 -0.00000000000E+00 -0.00000000000E+00 -0.21455052212E+01  0.21455052212E+01  0.00000000000E+00 0.  1.
          1    1    1    2  502    0 -0.52032255272E-01  0.25954642796E+02  0.13853805774E+03  0.14094835804E+03  0.00000000000E+00 0.  1.
         -1    1    1    2    0  501  0.52032255272E-01 -0.25954642796E+02  0.17815321511E+03  0.18003392526E+03  0.00000000000E+00 0. -1.
</event>
<event>
 4    1  0.6769686E+001  0.2583946E+02  0.7546771E-02  0.1459628E+00
          2   -1    0    0  502    0  0.00000000000E+00  0.00000000000E+00  0.43974645703E+01  0.43974645703E+01  0.00000000000E+00 0. -1.
         -2   -1    0    0    0  501 -0.00000000000E+00 -0.00000000000E+00 -0.20443220738E+03  0.20443220738E+03  0.00000000000E+00 0.  1.
          1    1    1    2  502    0 -0.24079563045E+02  0.93729600149E+01 -0.15298121575E+03  0.15514809090E+03  0.00000000000E+00 0. -1.
         -1    1    1    2    0  501  0.24079563045E+02 -0.93729600149E+01 -0.47053527058E+02  0.53681581054E+02  0.00000000000E+00 0.  1.
</event>
<event>
 4    1  0.6769686E+001  0.2157984E+02  0.7546771E-02  0.1511145E+00
          2   -1    0    0  502    0  0.00000000000E+00  0.00000000000E+00  0.10640250342E+04  0.10640250342E+04  0.00000000000E+00 0. -1.
         -2   -1    0    0    0  501 -0.00000000000E+00 -0.00000000000E+00 -0.50297359481E+00  0.50297359481E+00  0.00000000000E+00 0.  1.
          1    1    1    2  502    0 -0.18982562617E+02 -0.10264108571E+02  0.33996924049E+03  0.34065345160E+03  0.00000000000E+00 0.  1.
         -1    1    1    2    0  501  0.18982562617E+02  0.10264108571E+02  0.72355282010E+03  0.72387455618E+03  0.00000000000E+00 0. -1.
</event>
<event>
 4    1  0.6769686E+001  0.2590620E+02  0.7546771E-02  0.1458916E+00
          2   -1    0    0  502    0  0.00000000000E+00  0.00000000000E+00  0.21755000770E+03  0.21755000770E+03  0.00000000000E+00 0. -1.
         -2   -1    0    0    0  501 -0.00000000000E+00 -0.00000000000E+00 -0.17443071693E+02  0.17443071693E+02  0.00000000000E+00 0.  1.
          1    1    1    2  502    0 -0.19717078811E+02 -0.16803809127E+02 -0.65478042231E+01  0.26720870835E+02  0.00000000000E+00 0.  1.
         -1    1    1    2    0  501  0.19717078811E+02  0.16803809127E+02  0.20665474023E+03  0.20827220856E+03  0.00000000000E+00 0. -1.
</event>
<event>
 4    1  0.6769686E+001  0.2884022E+02  0.7546771E-02  0.1429950E+00
          2   -1    0    0  502    0  0.00000000000E+00  0.00000000000E+00  0.18210324527E+03  0.18210324527E+03  0.00000000000E+00 0.  1.
         -2   -1    0    0    0  501 -0.00000000000E+00 -0.00000000000E+00 -0.45894523025E+01  0.45894523025E+01  0.00000000000E+00 0. -1.
          1    1    1    2  502    0 -0.28638497079E+02  0.34051339497E+01  0.82302512000E+02  0.87209299582E+02  0.00000000000E+00 0. -1.
         -1    1    1    2    0  501  0.28638497079E+02 -0.34051339497E+01  0.95211280966E+02  0.99483397988E+02  0.00000000000E+00 0.  1.
</event>
<event>
 4    1  0.6769686E+001  0.2320097E+02  0.7546771E-02  0.1489990E+00
          2   -1    0    0  502    0  0.00000000000E+00  0.00000000000E+00  0.10646861396E+02  0.10646861396E+02  0.00000000000E+00 0. -1.
         -2   -1    0    0    0  501 -0.00000000000E+00 -0.00000000000E+00 -0.60514184105E+02  0.60514184105E+02  0.00000000000E+00 0.  1.
          1    1    1    2  502    0 -0.17289409793E+02 -0.15471306391E+02 -0.39365715731E+02  0.45694032296E+02  0.00000000000E+00 0.  1.
         -1    1    1    2    0  501  0.17289409793E+02  0.15471306391E+02 -0.10501606979E+02  0.25467013205E+02  0.00000000000E+00 0. -1.
</event>
<event>
 4    1  0.6769686E+001  0.3409406E+02  0.7546771E-02  0.1387046E+00
          2   -1    0    0  502    0  0.00000000000E+00  0.00000000000E+00  0.18945532842E+03  0.18945532842E+03  0.00000000000E+00 0.  1.
         -2   -1    0    0    0  501 -0.00000000000E+00 -0.00000000000E+00 -0.70859859251E+01  0.70859859251E+01  0.00000000000E+00 0. -1.
          1    1    1    2  502    0 -0.33301606157E+02  0.73080833555E+01  0.12717570217E+03  0.13166648882E+03  0.00000000000E+00 0.  1.
         -1    1    1    2    0  501  0.33301606157E+02 -0.73080833555E+01  0.55193640326E+02  0.64874825529E+02  0.00000000000E+00 0. -1.
</event>
<event>
 4    1  0.6769686E+001  0.2761121E+02  0.7546771E-02  0.1441563E+00
          2   -1    0    0  502    0  0.00000000000E+00  0.00000000000E+00  0.22693294546E+01  0.22693294546E+01  0.00000000000E+00 0. -1.
         -2   -1    0    0    0  501 -0.00000000000E+00 -0.00000000000E+00 -0.40017456583E+03  0.40017456583E+03  0.00000000000E+00 0.  1.
          1    1    1    2  502    0 -0.23230471151E+02  0.14923952130E+02 -0.27956547536E+03  0.28092567371E+03  0.00000000000E+00 0.  1.
         -1    1    1    2    0  501  0.23230471151E+02 -0.14923952130E+02 -0.11833976101E+03  0.12151822157E+03  0.00000000000E+00 0. -1.
</event>
<event>
 4    1  0.6769686E+001  0.2175877E+02  0.7546771E-02  0.1508702E+00
          2   -1    0    0  502    0  0.00000000000E+00  0.00000000000E+00  0.21541768434E+01  0.21541768434E+01  0.00000000000E+00 0. -1.
         -2   -1    0    0    0  501 -0.00000000000E+00 -0.00000000000E+00 -0.23368416208E+03  0.23368416208E+03  0.00000000000E+00 0.  1.
          1    1    1    2  502    0  0.10443168233E+02 -0.19088852498E+02 -0.14452897114E+03  0.14615768044E+03  0.00000000000E+00 0.  1.
         -1    1    1    2    0  501 -0.10443168233E+02  0.19088852498E+02 -0.87001014096E+02  0.89680658484E+02  0.00000000000E+00 0. -1.
</event>
<event>
 4    1  0.6769686E+001  0.4112877E+02  0.7546771E-02  0.1341995E+00
          2   -1    0    0  502    0  0.00000000000E+00  0.00000000000E+00  0.31490097180E+03  0.31490097180E+03  0.00000000000E+00 0. -1.
         -2   -1    0    0    0  501 -0.00000000000E+00 -0.00000000000E+00 -0.86361033123E+01  0.86361033123E+01  0.00000000000E+00 0.  1.
          1    1    1    2  502    0 -0.45407808722E+01  0.40877337816E+02  0.53676105006E+02  0.67621739747E+02  0.00000000000E+00 0. -1.
         -1    1    1    2    0  501  0.45407808722E+01 -0.40877337816E+02  0.25258876349E+03  0.25591533537E+03  0.00000000000E+00 0.  1.
</event>
<event>
 4    1  0.6769686E+001  0.3906946E+02  0.7546771E-02  0.1354027E+00
          2   -1    0    0  502    0  0.00000000000E+00  0.00000000000E+00  0.10885746706E+04  0.10885746706E+04  0.00000000000E+00 0. -1.
         -2   -1    0    0    0  501 -0.00000000000E+00 -0.00000000000E+00 -0.19552471142E+01  0.19552471142E+01  0.00000000000E+00 0.  1.
          1    1    1    2  502    0 -0.82535852026E+01 -0.38187705376E+02  0.83329735511E+03  0.83421274537E+03  0.00000000000E+00 0. -1.
         -1    1    1    2    0  501  0.82535852026E+01  0.38187705376E+02  0.25332206841E+03  0.25631717237E+03  0.00000000000E+00 0.  1.
</event>
<event>
 4    1  0.6769686E+001  0.3114866E+02  0.7546771E-02  0.1409870E+00
          2   -1    0    0  502    0  0.00000000000E+00  0.00000000000E+00  0.81026046908E+02  0.81026046908E+02  0.00000000000E+00 0.  1.
         -2   -1    0    0    0  501 -0.00000000000E+00 -0.00000000000E+00 -0.12214369134E+02  0.12214369134E+02  0.00000000000E+00 0. -1.
          1    1    1    2  502    0  0.18577331257E+02  0.25002434749E+02  0.40940284397E+02  0.51442646379E+02  0.00000000000E+00 0.  1.
         -1    1    1    2    0  501 -0.18577331257E+02 -0.25002434749E+02  0.27871393377E+02  0.41797769663E+02  0.00000000000E+00 0. -1.
</event>
<event>
 4    1  0.6769686E+001  0.2349184E+02  0.7546771E-02  0.1486413E+00
          2   -1    0    0  502    0  0.00000000000E+00  0.00000000000E+00  0.92868812899E+03  0.92868812899E+03  0.00000000000E+00 0.  1.
         -2   -1    0    0    0  501 -0.00000000000E+00 -0.00000000000E+00 -0.80483856747E+00  0.80483856747E+00  0.00000000000E+00 0. -1.
          1    1    1    2  502    0 -0.18646098418E+02  0.14289485443E+02  0.70167295313E+03  0.70206609343E+03  0.00000000000E+00 0.  1.
         -1    1    1    2    0  501  0.18646098418E+02 -0.14289485443E+02  0.22621033729E+03  0.22742687413E+03  0.00000000000E+00 0. -1.
</event>
<event>
 4    1  0.6769686E+001  0.3904421E+02  0.7546771E-02  0.1354180E+00
          2   -1    0    0  502    0  0.00000000000E+00  0.00000000000E+00  0.99626840660E+01  0.99626840660E+01  0.00000000000E+00 0.  1.
         -2   -1    0    0    0  501 -0.00000000000E+00 -0.00000000000E+00 -0.22888143632E+03  0.22888143632E+03  0.00000000000E+00 0. -1.
          1    1    1    2  502    0  0.38631701671E+02  0.56605748717E+01 -0.17821387709E+03  0.18244077523E+03  0.00000000000E+00 0. -1.
         -1    1    1    2    0  501 -0.38631701671E+02 -0.56605748717E+01 -0.40704875167E+02  0.56403345151E+02  0.00000000000E+00 0.  1.
</event>
<event>
 4    1  0.6769686E+001  0.4336764E+02  0.7546771E-02  0.1329806E+00
          2   -1    0    0  502    0  0.00000000000E+00  0.00000000000E+00  0.12276418742E+04  0.12276418742E+04  0.00000000000E+00 0. -1.
         -2   -1    0    0    0  501 -0.00000000000E+00 -0.00000000000E+00 -0.27789275038E+01  0.27789275038E+01  0.00000000000E+00 0.  1.
          1    1    1    2  502    0 -0.29118669373E+02 -0.32138070549E+02  0.10245336748E+04  0.10254511218E+04  0.00000000000E+00 0. -1.
         -1    1    1    2    0  501  0.29118669373E+02  0.32138070549E+02  0.20032927188E+03  0.20496967985E+03  0.00000000000E+00 0.  1.
</event>
<event>
 4    1  0.6769686E+001  0.3068079E+02  0.7546771E-02  0.1413771E+00
          2   -1    0    0  502    0  0.00000000000E+00  0.00000000000E+00  0.73598273328E+01  0.73598273328E+01  0.00000000000E+00 0.  1.
         -2   -1    0    0    0  501 -0.00000000000E+00 -0.00000000000E+00 -0.15892737370E+03  0.15892737370E+03  0.00000000000E+00 0. -1.
          1    1    1    2  502    0  0.22900631378E+02 -0.20417446708E+02 -0.39046043267E+02  0.49657874929E+02  0.00000000000E+00 0.  1.
         -1    1    1    2    0  501 -0.22900631378E+02  0.20417446708E+02 -0.11252150310E+03  0.11662932610E+03  0.00000000000E+00 0. -1.
</event>
<event>
 4    1  0.6769686E+001  0.2230502E+02  0.7546771E-02  0.1501414E+00
          2   -1    0    0  502    0  0.00000000000E+00  0.00000000000E+00  0.12490474678E+02  0.12490474678E+02  0.00000000000E+00 0.  1.
         -2   -1    0    0    0  501 -0.00000000000E+00 -0.00000000000E+00 -0.65578205700E+02  0.65578205700E+02  0.00000000000E+00 0. -1.
          1    1    1    2  502    0  0.16988817010E+02 -0.14453170412E+02 -0.51002269686E+02  0.55666377208E+02  0.00000000000E+00 0. -1.
         -1    1    1    2    0  501 -0.16988817010E+02  0.14453170412E+02 -0.20854613361E+01  0.22402303170E+02  0.00000000000E+00 0.  1.
</event>
<event>
 4    1  0.6769686E+001  0.2488008E+02  0.7546771E-02  0.1470149E+00
          2   -1    0    0  502    0  0.00000000000E+00  0.00000000000E+00  0.77458833794E+03  0.77458833794E+03  0.00000000000E+00 0.  1.
         -2   -1    0    0    0  501 -0.00000000000E+00 -0.00000000000E+00 -0.83687729284E+00  0.83687729284E+00  0.00000000000E+00 0. -1.
          1    1    1    2  502    0  0.23552909925E+01 -0.24768348269E+02  0.46918727801E+03  0.46984648591E+03  0.00000000000E+00 0. -1.
         -1    1    1    2    0  501 -0.23552909925E+01  0.24768348269E+02  0.30456418264E+03  0.30557872933E+03  0.00000000000E+00 0.  1.
</event>
<event>
 4    1  0.6769686E+001  0.2983162E+02  0.7546771E-02  0.1421065E+00
          2   -1    0    0  502    0  0.00000000000E+00  0.00000000000E+00  0.27321794203E+02  0.27321794203E+02  0.00000000000E+00 0. -1.
         -2   -1    0    0    0  501 -0.00000000000E+00 -0.00000000000E+00 -0.34686544586E+02  0.34686544586E+02  0.00000000000E+00 0.  1.
          1    1    1    2  502    0 -0.64604885496E+01 -0.29123662417E+02  0.39726647964E+01  0.30094977828E+02  0.00000000000E+00 0. -1.
         -1    1    1    2    0  501  0.64604885496E+01  0.29123662417E+02 -0.11337415179E+02  0.31913360961E+02  0.00000000000E+00 0.  1.
</event>
<event>
 4    1  0.6769686E+001  0.2153075E+02  0.7546771E-02  0.1511820E+00
          2   -1    0    0  502    0  0.00000000000E+00  0.00000000000E+00  0.27617239789E+03  0.27617239789E+03  0.00000000000E+00 0. -1.
         -2   -1    0    0    0  501 -0.00000000000E+00 -0.00000000000E+00 -0.17996150155E+01  0.17996150155E+01  0.00000000000E+00 0.  1.
          1    1    1    2  502    0  0.11072164830E+02  0.18465648651E+02  0.17323310627E+03  0.17456598215E+03  0.00000000000E+00 0. -1.
         -1    1    1    2    0  501 -0.11072164830E+02 -0.18465648651E+02  0.10113967661E+03  0.10340603076E+03  0.00000000000E+00 0.  1.
</event>
<event>
 4    1  0.6769686E+001  0.2004610E+02  0.7546771E-02  0.1533332E+00
          2   -1    0    0  502    0  0.00000000000E+00  0.00000000000E+00  0.31660887692E+02  0.31660887692E+02  0.00000000000E+00 0.  1.
         -2   -1    0    0    0  501 -0.00000000000E+00 -0.00000000000E+00 -0.18659561801E+02  0.18659561801E+02  0.00000000000E+00 0. -1.
          1    1    1    2  502    0 -0.19440860392E+02 -0.48886783154E+01  0.20729030796E+02  0.28836417014E+02  0.00000000000E+00 0.  1.
         -1    1    1    2    0  501  0.19440860392E+02  0.48886783154E+01 -0.77277049051E+01  0.21484032479E+02  0.00000000000E+00 0. -1.
</event>
<event>
 4    1  0.6769686E+001  0.6742011E+02  0.7546771E-02  0.1236512E+00
          2   -1    0    0  502    0  0.00000000000E+00  0.00000000000E+00  0.39481319494E+03  0.39481319494E+03  0.00000000000E+00 0. -1.
         -2   -1    0    0    0  501 -0.00000000000E+00 -0.00000000000E+00 -0.14715583716E+02  0.14715583716E+02  0.00000000000E+00 0.  1.
          1    1    1    2  502    0  0.32966048126E+02 -0.58810806304E+02  0.28557405269E+03  0.29342462548E+03  0.00000000000E+00 0. -1.
         -1    1    1    2    0  501 -0.32966048126E+02  0.58810806304E+02  0.94523558528E+02  0.11610415317E+03  0.00000000000E+00 0.  1.
</event>
<event>
 4    1  0.6769686E+001  0.2554567E+02  0.7546771E-02  0.1462791E+00
          2   -1    0    0  502    0  0.00000000000E+00  0.00000000000E+00  0.94969800684E+02  0.94969800684E+02  0.00000000000E+00 0.  1.
         -2   -1    0    0    0  501 -0.00000000000E+00 -0.00000000000E+00 -0.76873289909E+01  0.76873289909E+01  0.00000000000E+00 0. -1.
          1    1    1    2  502    0  0.22426402997E+02 -0.12232641155E+02  0.26919477111E+02  0.37111174987E+02  0.00000000000E+00 0. -1.
         -1    1    1    2    0  501 -0.22426402997E+02  0.12232641155E+02  0.60362994582E+02  0.65545954688E+02  0.00000000000E+00 0.  1.
</event>
<event>
 4    1  0.6769686E+001  0.2429116E+02  0.7546771E-02  0.1476892E+00
          2   -1    0    0  502    0  0.00000000000E+00  0.00000000000E+00  0.12535018401E+04  0.12535018401E+04  0.00000000000E+00 0. -1.
         -2   -1    0    0    0  501 -0.00000000000E+00 -0.00000000000E+00 -0.77298918094E+00  0.77298918094E+00  0.00000000000E+00 0.  1.
          1    1    1    2  502    0  0.12611400926E+02 -0.20760857772E+02  0.23420206289E+03  0.23545841865E+03  0.00000000000E+00 0.  1.
         -1    1    1    2    0  501 -0.12611400926E+02  0.20760857772E+02  0.10185267880E+04  0.10188164106E+04  0.00000000000E+00 0. -1.
</event>
<event>
 4    1  0.6769686E+001  0.2221819E+02  0.7546771E-02  0.1502556E+00
          2   -1    0    0  502    0  0.00000000000E+00  0.00000000000E+00  0.29850184867E+02  0.29850184867E+02  0.00000000000E+00 0.  1.
         -2   -1    0    0    0  501 -0.00000000000E+00 -0.00000000000E+00 -0.31312802938E+02  0.31312802938E+02  0.00000000000E+00 0. -1.
          1    1    1    2  502    0  0.16926996692E+02 -0.14391831630E+02  0.20275767842E+02  0.30079142213E+02  0.00000000000E+00 0.  1.
         -1    1    1    2    0  501 -0.16926996692E+02  0.14391831630E+02 -0.21738385913E+02  0.31083845592E+02  0.00000000000E+00 0. -1.
</event>
<event>
 4    1  0.6769686E+001  0.2412148E+02  0.7546771E-02  0.1478876E+00
          2   -1    0    0  502    0  0.00000000000E+00  0.00000000000E+00  0.72055778342E+01  0.72055778342E+01  0.00000000000E+00 0.  1.
         -2   -1    0    0    0  501 -0.00000000000E+00 -0.00000000000E+00 -0.10026353492E+03  0.10026353492E+03  0.00000000000E+00 0. -1.
          1    1    1    2  502    0  0.18324176906E+02 -0.15686635375E+02 -0.22823050332E+02  0.33207493358E+02  0.00000000000E+00 0.  1.
         -1    1    1    2    0  501 -0.18324176906E+02  0.15686635375E+02 -0.70234906754E+02  0.74261619396E+02  0.00000000000E+00 0. -1.
</event>
<event>
 4    1  0.6769686E+001  0.3189557E+02  0.7546771E-02  0.1403809E+00
          2   -1    0    0  502    0  0.00000000000E+00  0.00000000000E+00  0.24814828490E+02  0.24814828490E+02  0.00000000000E+00 0. -1.
         -2   -1    0    0    0  501 -0.00000000000E+00 -0.00000000000E+00 -0.46363896032E+02  0.46363896032E+02  0.00000000000E+00 0.  1.
          1    1    1    2  502    0 -0.29021093808E+01  0.31763264510E+02  0.13342947064E+01  0.31923463997E+02  0.00000000000E+00 0. -1.
         -1    1    1    2    0  501  0.29021093808E+01 -0.31763264510E+02 -0.22883362248E+02  0.39255260526E+02  0.00000000000E+00 0.  1.
</event>
<event>
 4    1  0.6769686E+001  0.2792937E+02  0.7546771E-02  0.1438489E+00
          2   -1    0    0  502    0  0.00000000000E+00  0.00000000000E+00  0.14021680743E+01  0.14021680743E+01  0.00000000000E+00 0.  1.
         -2   -1    0    0    0  501 -0.00000000000E+00 -0.00000000000E+00 -0.55972530216E+03  0.55972530216E+03  0.00000000000E+00 0. -1.
          1    1    1    2  502    0 -0.25747663044E+02 -0.10821625100E+02 -0.25726768073E+03  0.25877926746E+03  0.00000000000E+00 0. -1.
         -1    1    1    2    0  501  0.25747663044E+02  0.10821625100E+02 -0.30105545335E+03  0.30234820277E+03  0.00000000000E+00 0.  1.
</event>
<event>
 4    1  0.6769686E+001  0.3770560E+02  0.7546771E-02  0.1362482E+00
          2   -1    0    0  502    0  0.00000000000E+00  0.00000000000E+00  0.20223830061E+04  0.20223830061E+04  0.00000000000E+00 0.  1.
         -2   -1    0    0    0  501 -0.00000000000E+00 -0.00000000000E+00 -0.11523222989E+01  0.11523222989E+01  0.00000000000E+00 0. -1.
          1    1    1    2  502    0  0.28438491377E+02 -0.24758126150E+02  0.37881739374E+03  0.38068928328E+03  0.00000000000E+00 0. -1.
         -1    1    1    2    0  501 -0.28438491377E+02  0.24758126150E+02  0.16424132900E+04  0.16428460451E+04  0.00000000000E+00 0.  1.
</event>
<event>
 4    1  0.6769686E+001  0.3533007E+02  0.7546771E-02  0.1378257E+00
          2   -1    0    0  502    0  0.00000000000E+00  0.00000000000E+00  0.58606105947E+02  0.58606105947E+02  0.00000000000E+00 0.  1.
         -2   -1    0    0    0  501 -0.00000000000E+00 -0.00000000000E+00 -0.24541244237E+02  0.24541244237E+02  0.00000000000E+00 0. -1.
          1    1    1    2  502    0 -0.18457018728E+00 -0.35329587670E+02  0.19199425021E+01  0.35382199060E+02  0.00000000000E+00 0. -1.
         -1    1    1    2    0  501  0.18457018728E+00  0.35329587670E+02  0.32144919207E+02  0.47765151124E+02  0.00000000000E+00 0.  1.
</event>
<event>
 4    1  0.6769686E+001  0.4062089E+02  0.7546771E-02  0.1344885E+00
          2   -1    0    0  502    0  0.00000000000E+00  0.00000000000E+00  0.15689596764E+04  0.15689596764E+04  0.00000000000E+00 0. -1.
         -2   -1    0    0    0  501 -0.00000000000E+00 -0.00000000000E+00 -0.17674232028E+01  0.17674232028E+01  0.00000000000E+00 0.  1.
          1    1    1    2  502    0 -0.35324270936E+02  0.20056235334E+02  0.12833734334E+04  0.12840161316E+04  0.00000000000E+00 0. -1.
         -1    1    1    2    0  501  0.35324270936E+02 -0.20056235334E+02  0.28381881979E+03  0.28671096798E+03  0.00000000000E+00 0.  1.
</event>
<event>
 4    1  0.6769686E+001  0.4327103E+02  0.7546771E-02  0.1330315E+00
          2   -1    0    0  502    0  0.00000000000E+00  0.00000000000E+00  0.48213982900E+03  0.48213982900E+03  0.00000000000E+00 0. -1.
         -2   -1    0    0    0  501 -0.00000000000E+00 -0.00000000000E+00 -0.64652671672E+01  0.64652671672E+01  0.00000000000E+00 0.  1.
          1    1    1    2  502    0  0.30323381163E+02 -0.30868666584E+02  0.39221858020E+03  0.39459827252E+03  0.00000000000E+00 0.  1.
         -1    1    1    2    0  501 -0.30323381163E+02  0.30868666584E+02  0.83455981632E+02  0.94006823646E+02  0.00000000000E+00 0. -1.
</event>
<event>
 4    1  0.6769686E+001  0.2735813E+02  0.7546771E-02  0.1444043E+00
          2   -1    0    0  502    0  0.00000000000E+00  0.00000000000E+00  0.47944103473E+03  0.47944103473E+03  0.00000000000E+00 0. -1.
         -2   -1    0    0    0  501 -0.00000000000E+00 -0.00000000000E+00 -0.16000106717E+01  0.16000106717E+01  0.00000000000E+00 0.  1.
          1    1    1    2  502    0 -0.22050839718E+02 -0.16193450633E+02  0.20142445384E+03  0.20327389892E+03  0.00000000000E+00 0. -1.
         -1    1    1    2    0  501  0.22050839718E+02  0.16193450633E+02  0.27641657021E+03  0.27776714648E+03  0.00000000000E+00 0.  1.
</event>
<event>
 4    1  0.6769686E+001  0.2771827E+02  0.7546771E-02  0.1440523E+00
          2   -1    0    0  502    0  0.00000000000E+00  0.00000000000E+00  0.94511186752E+03  0.94511186752E+03  0.00000000000E+00 0.  1.
         -2   -1    0    0    0  501 -0.00000000000E+00 -0.00000000000E+00 -0.13830265301E+01  0.13830265301E+01  0.00000000000E+00 0. -1.
          1    1    1    2  502    0  0.10127155147E+02 -0.25801997906E+02  0.16802073535E+03  0.17029171993E+03  0.00000000000E+00 0. -1.
         -1    1    1    2    0  501 -0.10127155147E+02  0.25801997906E+02  0.77570810563E+03  0.77620317412E+03  0.00000000000E+00 0.  1.
</event>
<event>
 4    1  0.6769686E+001  0.2422469E+02  0.7546771E-02  0.1477667E+00
          2   -1    0    0  502    0  0.00000000000E+00  0.00000000000E+00  0.14230484354E+04  0.14230484354E+04  0.00000000000E+00 0. -1.
         -2   -1    0    0    0  501 -0.00000000000E+00 -0.00000000000E+00 -0.45787144667E+00  0.45787144667E+00  0.00000000000E+00 0.  1.
          1    1    1    2  502    0  0.22099920811E+02 -0.99211472474E+01  0.48694531011E+03  0.48754750609E+03  0.00000000000E+00 0.  1.
         -1    1    1    2    0  501 -0.22099920811E+02  0.99211472474E+01  0.93564525386E+03  0.93595880077E+03  0.00000000000E+00 0. -1.
</event>
<event>
 4    1  0.6769686E+001  0.4200107E+02  0.7546771E-02  0.1337142E+00
          2   -1    0    0  502    0  0.00000000000E+00  0.00000000000E+00  0.37726051538E+02  0.37726051538E+02  0.00000000000E+00 0.  1.
         -2   -1    0    0    0  501 -0.00000000000E+00 -0.00000000000E+00 -0.57819193894E+02  0.57819193894E+02  0.00000000000E+00 0. -1.
          1    1    1    2  502    0 -0.41998972425E+02  0.41977702922E+00  0.10846127313E+02  0.43378893200E+02  0.00000000000E+00 0.  1.
         -1    1    1    2    0  501  0.41998972425E+02 -0.41977702922E+00 -0.30939269670E+02  0.52166352232E+02  0.00000000000E+00 0. -1.
</event>
<event>
 4    1  0.6769686E+001  0.2001889E+02  0.7546771E-02  0.1533747E+00
          2   -1    0    0  502    0  0.00000000000E+00  0.00000000000E+00  0.82951200334E+03  0.82951200334E+03  0.00000000000E+00 0.  1.
         -2   -1    0    0    0  501 -0.00000000000E+00 -0.00000000000E+00 -0.50182481143E+00  0.50182481143E+00  0.00000000000E+00 0. -1.
          1    1    1    2  502    0 -0.17367690580E+02  0.99558653794E+01  0.33438772599E+03  0.33498642842E+03  0.00000000000E+00 0.  1.
         -1    1    1    2    0  501  0.17367690580E+02 -0.99558653794E+01  0.49462245254E+03  0.49502739974E+03  0.00000000000E+00 0. -1.
</event>
<event>
 4    1  0.6769686E+001  0.2606078E+02  0.7546771E-02  0.1457278E+00
          2   -1    0    0  502    0  0.00000000000E+00  0.00000000000E+00  0.72144023162E+03  0.72144023162E+03  0.00000000000E+00 0. -1.
         -2   -1    0    0    0  501 -0.00000000000E+00 -0.00000000000E+00 -0.94196254574E+00  0.94196254574E+00  0.00000000000E+00 0.  1.
          1    1    1    2  502    0 -0.16488725327E+02 -0.20181332635E+02  0.36907132750E+03  0.36999028235E+03  0.00000000000E+00 0. -1.
         -1    1    1    2    0  501  0.16488725327E+02  0.20181332635E+02  0.35142694157E+03  0.35239191181E+03  0.00000000000E+00 0.  1.
</event>
<event>
 4    1  0.6769686E+001  0.4538160E+02  0.7546771E-02  0.1319542E+00
          2   -1    0    0  502    0  0.00000000000E+00  0.00000000000E+00  0.20827713983E+02  0.20827713983E+02  0.00000000000E+00 0. -1.
         -2   -1    0    0    0  501 -0.00000000000E+00 -0.00000000000E+00 -0.10958618805E+03  0.10958618805E+03  0.00000000000E+00 0.  1.
          1    1    1    2  502    0 -0.13551323337E+02  0.43311095283E+02 -0.64758553356E+02  0.79076921865E+02  0.00000000000E+00 0. -1.
         -1    1    1    2    0  501  0.13551323337E+02 -0.43311095283E+02 -0.23999920714E+02  0.51336980171E+02  0.00000000000E+00 0.  1.
</event>
<event>
 4    1  0.6769686E+001  0.2267217E+02  0.7546771E-02  0.1496656E+00
          2   -1    0    0  502    0  0.00000000000E+00  0.00000000000E+00  0.32302338504E+02  0.32302338504E+02  0.00000000000E+00 0.  1.
         -2   -1    0    0    0  501 -0.00000000000E+00 -0.00000000000E+00 -0.16102728324E+02  0.16102728324E+02  0.00000000000E+00 0. -1.
          1    1    1    2  502    0  0.75409613860E+01 -0.21381324657E+02  0.54727080556E+01  0.23323329012E+02  0.00000000000E+00 0. -1.
         -1    1    1    2    0  501 -0.75409613860E+01  0.21381324657E+02  0.10726902124E+02  0.25081737817E+02  0.00000000000E+00 0.  1.
</event>
<event>
 4    1  0.6769686E+001  0.2047674E+02  0.7546771E-02  0.1526868E+00
          2   -1    0    0  502    0  0.00000000000E+00  0.00000000000E+00  0.43872348771E+03  0.43872348771E+03  0.00000000000E+00 0.  1.
         -2   -1    0    0    0  501 -0.00000000000E+00 -0.00000000000E+00 -0.17499864841E+01  0.17499864841E+01  0.00000000000E+00 0. -1.
          1    1    1    2  502    0 -0.17627957139E+02 -0.10418835855E+02  0.70113568953E+02  0.73042518883E+02  0.00000000000E+00 0. -1.
         -1    1    1    2    0  501  0.17627957139E+02  0.10418835855E+02  0.36685993228E+03  0.36743095532E+03  0.00000000000E+00 0.  1.
</event>
<event>
 4    1  0.6769686E+001  0.2281974E+02  0.7546771E-02  0.1494774E+00
          2   -1    0    0  502    0  0.00000000000E+00  0.00000000000E+00  0.22502834229E+04  0.22502834229E+04  0.00000000000E+00 0.  1.
         -2   -1    0    0    0  501 -0.00000000000E+00 -0.00000000000E+00 -0.24725471553E+00  0.24725471553E+00  0.00000000000E+00 0. -1.
          1    1    1    2  502    0 -0.73161548866E+01 -0.21615143812E+02  0.84017230748E+03  0.84048215140E+03  0.00000000000E+00 0. -1.
         -1    1    1    2    0  501  0.73161548866E+01  0.21615143812E+02  0.14098638607E+04  0.14100485262E+04  0.00000000000E+00 0.  1.
</event>
<event>
 4    1  0.6769686E+001  0.4011253E+02  0.7546771E-02  0.1347828E+00
          2   -1    0    0  502    0  0.00000000000E+00  0.00000000000E+00  0.19159000928E+01  0.19159000928E+01  0.00000000000E+00 0. -1.
         -2   -1    0    0    0  501 -0.00000000000E+00 -0.00000000000E+00 -0.91557131872E+03  0.91557131872E+03  0.00000000000E+00 0.  1.
          1    1    1    2  502    0 -0.26125069536E+02 -0.30438397718E+02 -0.32487664277E+03  0.32734362425E+03  0.00000000000E+00 0. -1.
         -1    1    1    2    0  501  0.26125069536E+02  0.30438397718E+02 -0.58877877585E+03  0.59014359456E+03  0.00000000000E+00 0.  1.
</event>
<event>
 4    1  0.6769686E+001  0.3368164E+02  0.7546771E-02  0.1390076E+00
          2   -1    0    0  502    0  0.00000000000E+00  0.00000000000E+00  0.10763168294E+04  0.10763168294E+04  0.00000000000E+00 0. -1.
         -2   -1    0    0    0  501 -0.00000000000E+00 -0.00000000000E+00 -0.11851750498E+01  0.11851750498E+01  0.00000000000E+00 0.  1.
          1    1    1    2  502    0 -0.32990423163E+02  0.67886044536E+01  0.71679100927E+03  0.71758191459E+03  0.00000000000E+00 0.  1.
         -1    1    1    2    0  501  0.32990423163E+02 -0.67886044536E+01  0.35834064506E+03  0.35992008985E+03  0.00000000000E+00 0. -1.
</event>
<event>
 4    1  0.6769686E+001  0.2975100E+02  0.7546771E-02  0.1421773E+00
          2   -1    0    0  502    0  0.00000000000E+00  0.00000000000E+00  0.28577235389E+04  0.28577235389E+04  0.00000000000E+00 0.  1.
         -2   -1    0    0    0  501 -0.00000000000E+00 -0.00000000000E+00 -0.31275056326E+00  0.31275056326E+00  0.00000000000E+00 0. -1.
          1    1    1    2  502    0 -0.27540805700E+02 -0.11252827848E+02  0.15691476240E+04  0.15694296378E+04  0.00000000000E+00 0.  1.
         -1    1    1    2    0  501  0.27540805700E+02  0.11252827848E+02  0.12882631643E+04  0.12886066516E+04  0.00000000000E+00 0. -1.
</event>
<event>
 4    1  0.6769686E+001  0.2211249E+02  0.7546771E-02  0.1503954E+00
          2   -1    0    0  502    0  0.00000000000E+00  0.00000000000E+00  0.12691582938E+04  0.12691582938E+04  0.00000000000E+00 0. -1.
         -2   -1    0    0    0  501 -0.00000000000E+00 -0.00000000000E+00 -0.38550238800E+00  0.38550238800E+00  0.00000000000E+00 0.  1.
          1    1    1    2  502    0  0.16312097350E+02  0.14929085727E+02  0.61863056746E+03  0.61902563850E+03  0.00000000000E+00 0.  1.
         -1    1    1    2    0  501 -0.16312097350E+02 -0.14929085727E+02  0.65014222397E+03  0.65051815771E+03  0.00000000000E+00 0. -1.
</event>
<event>
 4    1  0.6769686E+001  0.3733287E+02  0.7546771E-02  0.1364866E+00
          2   -1    0    0  502    0  0.00000000000E+00  0.00000000000E+00  0.83627084947E+03  0.83627084947E+03  0.00000000000E+00 0. -1.
         -2   -1    0    0    0  501 -0.00000000000E+00 -0.00000000000E+00 -0.16760919049E+01  0.16760919049E+01  0.00000000000E+00 0.  1.
          1    1    1    2  502    0  0.25983773752E+02  0.26806466209E+02  0.38579615829E+03  0.38759826997E+03  0.00000000000E+00 0.  1.
         -1    1    1    2    0  501 -0.25983773752E+02 -0.26806466209E+02  0.44879859927E+03  0.45034867141E+03  0.00000000000E+00 0. -1.
</event>
<event>
 4    1  0.6769686E+001  0.4208347E+02  0.7546771E-02  0.1336691E+00
          2   -1    0    0  502    0  0.00000000000E+00  0.00000000000E+00  0.69580921256E+03  0.69580921256E+03  0.00000000000E+00 0. -1.
         -2   -1    0    0    0  501 -0.00000000000E+00 -0.00000000000E+00 -0.25483509272E+01  0.25483509272E+01  0.00000000000E+00 0.  1.
          1    1    1    2  502    0  0.29015564877E+02 -0.30481398819E+02  0.35878184645E+03  0.36124151481E+03  0.00000000000E+00 0. -1.
         -1    1    1    2    0  501 -0.29015564877E+02  0.30481398819E+02  0.33447901519E+03  0.33711604869E+03  0.00000000000E+00 0.  1.
</event>
<event>
 4    1  0.6769686E+001  0.2917486E+02  0.7546771E-02  0.1426905E+00
          2   -1    0    0  502    0  0.00000000000E+00  0.00000000000E+00  0.11932046680E+04  0.11932046680E+04  0.00000000000E+00 0. -1.
         -2   -1    0    0    0  501 -0.00000000000E+00 -0.00000000000E+00 -0.10613702479E+01  0.10613702479E+01  0.00000000000E+00 0.  1.
          1    1    1    2  502    0  0.12035850216E+02 -0.26576510393E+02  0.93800374158E+03  0.93845734682E+03  0.00000000000E+00 0. -1.
         -1    1    1    2    0  501 -0.12035850216E+02  0.26576510393E+02  0.25413955614E+03  0.25580869139E+03  0.00000000000E+00 0.  1.
</event>
<event>
 4    1  0.6769686E+001  0.2277220E+02  0.7546771E-02  0.1495379E+00
          2   -1    0    0  502    0  0.00000000000E+00  0.00000000000E+00  0.12382816766E+01  0.12382816766E+01  0.00000000000E+00 0.  1.
         -2   -1    0    0    0  501 -0.00000000000E+00 -0.00000000000E+00 -0.13076808439E+04  0.13076808439E+04  0.00000000000E+00 0. -1.
          1    1    1    2  502    0  0.20226430710E+02 -0.10462538592E+02 -0.11363923708E+03  0.11589844442E+03  0.00000000000E+00 0.  1.
         -1    1    1    2    0  501 -0.20226430710E+02  0.10462538592E+02 -0.11928033251E+04  0.11930206811E+04  0.00000000000E+00 0. -1.
</event>
<event>
 4    1  0.6769686E+001  0.2301716E+02  0.7546771E-02  0.1492283E+00
          2   -1    0    0  502    0  0.00000000000E+00  0.00000000000E+00  0.26565862978E+02  0.26565862978E+02  0.00000000000E+00 0.  1.
         -2   -1    0    0    0  501 -0.00000000000E+00 -0.00000000000E+00 -0.20682964567E+02  0.20682964567E+02  0.00000000000E+00 0. -1.
          1    1    1    2  502    0  0.22466493694E+02  0.50046344224E+01 -0.15285452460E+01  0.23067859787E+02  0.00000000000E+00 0.  1.
         -1    1    1    2    0  501 -0.22466493694E+02 -0.50046344224E+01  0.74114436570E+01  0.24180967757E+02  0.00000000000E+00 0. -1.
</event>
<event>
 4    1  0.6769686E+001  0.2142015E+02  0.7546771E-02  0.1513350E+00
          2   -1    0    0  502    0  0.00000000000E+00  0.00000000000E+00  0.49393153112E+00  0.49393153112E+00  0.00000000000E+00 0. -1.
         -2   -1    0    0    0  501 -0.00000000000E+00 -0.00000000000E+00 -0.95709001370E+03  0.95709001370E+03  0.00000000000E+00 0.  1.
          1    1    1    2  502    0  0.21201752207E+02 -0.30510151446E+01 -0.56043946861E+03  0.56084866138E+03  0.00000000000E+00 0. -1.
         -1    1    1    2    0  501 -0.21201752207E+02  0.30510151446E+01 -0.39615661355E+03  0.39673528385E+03  0.00000000000E+00 0.  1.
</event>
<event>
 4    1  0.6769686E+001  0.3940307E+02  0.7546771E-02  0.1352020E+00
          2   -1    0    0  502    0  0.00000000000E+00  0.00000000000E+00  0.42085359971E+02  0.42085359971E+02  0.00000000000E+00 0. -1.
         -2   -1    0    0    0  501 -0.00000000000E+00 -0.00000000000E+00 -0.39217207983E+02  0.39217207983E+02  0.00000000000E+00 0.  1.
          1    1    1    2  502    0 -0.29590716639E+02  0.26019061151E+02 -0.84649244441E+01  0.40302071910E+02  0.00000000000E+00 0.  1.
         -1    1    1    2    0  501  0.29590716639E+02 -0.26019061151E+02  0.11333076432E+02  0.41000496043E+02  0.00000000000E+00 0. -1.
</event>
<event>
 4    1  0.6769686E+001  0.2952609E+02  0.7546771E-02  0.1423760E+00
          2   -1    0    0  502    0  0.00000000000E+00  0.00000000000E+00  0.32632030228E+03  0.32632030228E+03  0.00000000000E+00 0.  1.
         -2   -1    0    0    0  501 -0.00000000000E+00 -0.00000000000E+00 -0.38770687249E+01  0.38770687249E+01  0.00000000000E+00 0. -1.
          1    1    1    2  502    0  0.29462201260E+02  0.19413694863E+01  0.69161025623E+02  0.75199984600E+02  0.00000000000E+00 0. -1.
         -1    1    1    2    0  501 -0.29462201260E+02 -0.19413694863E+01  0.25328220793E+03  0.25499738640E+03  0.00000000000E+00 0.  1.
</event>
<event>
 4    1  0.6769686E+001  0.7191243E+02  0.7546771E-02  0.1223980E+00
          2   -1    0    0  502    0  0.00000000000E+00  0.00000000000E+00  0.26397723892E+03  0.26397723892E+03  0.00000000000E+00 0. -1.
         -2   -1    0    0    0  501 -0.00000000000E+00 -0.00000000000E+00 -0.33196220343E+02  0.33196220343E+02  0.00000000000E+00 0.  1.
          1    1    1    2  502    0  0.64477276575E+02 -0.31844586438E+02  0.20264462135E+02  0.74713086575E+02  0.00000000000E+00 0.  1.
         -1    1    1    2    0  501 -0.64477276575E+02  0.31844586438E+02  0.21051655644E+03  0.22246037268E+03  0.00000000000E+00 0. -1.
</event>
<event>
 4    1  0.6769686E+001  0.2850719E+02  0.7546771E-02  0.1433028E+00
          2   -1    0    0  502    0  0.00000000000E+00  0.00000000000E+00  0.63917954915E+01  0.63917954915E+01  0.00000000000E+00 0.  1.
         -2   -1    0    0    0  501 -0.00000000000E+00 -0.00000000000E+00 -0.13694573222E+03  0.13694573222E+03  0.00000000000E+00 0. -1.
          1    1    1    2  502    0  0.27534118989E+02  0.73846026680E+01 -0.46100405069E+02  0.54202466850E+02  0.00000000000E+00 0. -1.
         -1    1    1    2    0  501 -0.27534118989E+02 -0.73846026680E+01 -0.84453531659E+02  0.89135060861E+02  0.00000000000E+00 0.  1.
</event>
<event>
 4    1  0.6769686E+001  0.2098537E+02  0.7546771E-02  0.1519474E+00
          2   -1    0    0  502    0  0.00000000000E+00  0.00000000000E+00  0.37405448480E+01  0.37405448480E+01  0.00000000000E+00 0.  1.
         -2   -1    0    0    0  501 -0.00000000000E+00 -0.00000000000E+00 -0.16588609325E+03  0.16588609325E+03  0.00000000000E+00 0. -1.
          1    1    1    2  502    0 -0.17033023528E+02  0.12258133261E+02 -0.35377532605E+02  0.41133387105E+02  0.00000000000E+00 0.  1.
         -1    1    1    2    0  501  0.17033023528E+02 -0.12258133261E+02 -0.12676801580E+03  0.12849325099E+03  0.00000000000E+00 0. -1.
</event>
<event>
 4    1  0.6769686E+001  0.7035239E+02  0.7546771E-02  0.1228211E+00
          2   -1    0    0  502    0  0.00000000000E+00  0.00000000000E+00  0.96504189633E+03  0.96504189633E+03  0.00000000000E+00 0. -1.
         -2   -1    0    0    0  501 -0.00000000000E+00 -0.00000000000E+00 -0.57279809281E+01  0.57279809281E+01  0.00000000000E+00 0.  1.
          1    1    1    2  502    0 -0.28885223826E+00 -0.70351794946E+02  0.63665082098E+03  0.64052613244E+03  0.00000000000E+00 0. -1.
         -1    1    1    2    0  501  0.28885223826E+00  0.70351794946E+02  0.32266309443E+03  0.33024374482E+03  0.00000000000E+00 0.  1.
</event>
<event>
 4    1  0.6769686E+001  0.2305423E+02  0.7546771E-02  0.1491818E+00
          2   -1    0    0  502    0  0.00000000000E+00  0.00000000000E+00  0.18619803328E+04  0.18619803328E+04  0.00000000000E+00 0. -1.
         -2   -1    0    0    0  501 -0.00000000000E+00 -0.00000000000E+00 -0.30560190717E+00  0.30560190717E+00  0.00000000000E+00 0.  1.
          1    1    1    2  502    0  0.15409807818E+02 -0.17147454364E+02  0.69171242629E+03  0.69209650920E+03  0.00000000000E+00 0.  1.
         -1    1    1    2    0  501 -0.15409807818E+02  0.17147454364E+02  0.11699623046E+04  0.11701894255E+04  0.00000000000E+00 0. -1.
</event>
<event>
 4    1  0.6769686E+001  0.6958312E+02  0.7546771E-02  0.1230344E+00
          2   -1    0    0  502    0  0.00000000000E+00  0.00000000000E+00  0.71693236701E+02  0.71693236701E+02  0.00000000000E+00 0. -1.
         -2   -1    0    0    0  501 -0.00000000000E+00 -0.00000000000E+00 -0.89838125126E+02  0.89838125126E+02  0.00000000000E+00 0.  1.
          1    1    1    2  502    0 -0.27808734407E+02  0.63784677677E+02  0.31169437738E+02  0.76245292738E+02  0.00000000000E+00 0. -1.
         -1    1    1    2    0  501  0.27808734407E+02 -0.63784677677E+02 -0.49314326163E+02  0.85286069089E+02  0.00000000000E+00 0.  1.
</event>
<event>
 4    1  0.6769686E+001  0.2765467E+02  0.7546771E-02  0.1441140E+00
          2   -1    0    0  502    0  0.00000000000E+00  0.00000000000E+00  0.59064389892E+00  0.59064389892E+00  0.00000000000E+00 0.  1.
         -2   -1    0    0    0  501 -0.00000000000E+00 -0.00000000000E+00 -0.16044237824E+04  0.16044237824E+04  0.00000000000E+00 0. -1.
          1    1    1    2  502    0  0.27242655478E+02  0.47558998613E+01 -0.11544404776E+04  0.11547716645E+04  0.00000000000E+00 0. -1.
         -1    1    1    2    0  501 -0.27242655478E+02 -0.47558998613E+01 -0.44939266088E+03  0.45024276176E+03  0.00000000000E+00 0.  1.
</event>
<event>
 4    1  0.6769686E+001  0.2189352E+02  0.7546771E-02  0.1506880E+00
          2   -1    0    0  502    0  0.00000000000E+00  0.00000000000E+00  0.34111724978E+03  0.34111724978E+03  0.00000000000E+00 0. -1.
         -2   -1    0    0    0  501 -0.00000000000E+00 -0.00000000000E+00 -0.21179609508E+01  0.21179609508E+01  0.00000000000E+00 0.  1.
          1    1    1    2  502    0 -0.14207403516E+02  0.16657607000E+02  0.26905974525E+03  0.26994901870E+03  0.00000000000E+00 0. -1.
         -1    1    1    2    0  501  0.14207403516E+02 -0.16657607000E+02  0.69939543582E+02  0.73286192029E+02  0.00000000000E+00 0.  1.
</event>
<event>
 4    1  0.6769686E+001  0.2055050E+02  0.7546771E-02  0.1525780E+00
          2   -1    0    0  502    0  0.00000000000E+00  0.00000000000E+00  0.15572164437E+02  0.15572164437E+02  0.00000000000E+00 0.  1.
         -2   -1    0    0    0  501 -0.00000000000E+00 -0.00000000000E+00 -0.53423605289E+02  0.53423605289E+02  0.00000000000E+00 0. -1.
          1    1    1    2  502    0  0.19882695482E+02  0.51963008730E+01  0.52806858620E+01  0.21218123517E+02  0.00000000000E+00 0.  1.
         -1    1    1    2    0  501 -0.19882695482E+02 -0.51963008730E+01 -0.43132126714E+02  0.47777646209E+02  0.00000000000E+00 0. -1.
</event>
<event>
 4    1  0.6769686E+001  0.2145295E+02  0.7546771E-02  0.1512895E+00
          2   -1    0    0  502    0  0.00000000000E+00  0.00000000000E+00  0.23620899699E+02  0.23620899699E+02  0.00000000000E+00 0. -1.
         -2   -1    0    0    0  501 -0.00000000000E+00 -0.00000000000E+00 -0.20455973498E+02  0.20455973498E+02  0.00000000000E+00 0.  1.
          1    1    1    2  502    0 -0.21263533546E+02 -0.28444967451E+01  0.63864685385E+01  0.22383386718E+02  0.00000000000E+00 0. -1.
         -1    1    1    2    0  501  0.21263533546E+02  0.28444967451E+01 -0.32215423369E+01  0.21693486479E+02  0.00000000000E+00 0.  1.
</event>
<event>
 4    1  0.6769686E+001  0.2248189E+02  0.7546771E-02  0.1499109E+00
          2   -1    0    0  502    0  0.00000000000E+00  0.00000000000E+00  0.56033501165E+02  0.56033501165E+02  0.00000000000E+00 0. -1.
         -2   -1    0    0    0  501 -0.00000000000E+00 -0.00000000000E+00 -0.99242123324E+01  0.99242123324E+01  0.00000000000E+00 0.  1.
          1    1    1    2  502    0  0.11248149813E+02 -0.19465729744E+02  0.13101377391E+02  0.26020791653E+02  0.00000000000E+00 0.  1.
         -1    1    1    2    0  501 -0.11248149813E+02  0.19465729744E+02  0.33007911442E+02  0.39936921845E+02  0.00000000000E+00 0. -1.
</event>
<event>
 4    1  0.6769686E+001  0.6703217E+02  0.7546771E-02  0.1237646E+00
          2   -1    0    0  502    0  0.00000000000E+00  0.00000000000E+00  0.27629166725E+03  0.27629166725E+03  0.00000000000E+00 0.  1.
         -2   -1    0    0    0  501 -0.00000000000E+00 -0.00000000000E+00 -0.21155941260E+02  0.21155941260E+02  0.00000000000E+00 0. -1.
          1    1    1    2  502    0  0.38590436829E+02 -0.54809583007E+02  0.19909196131E+03  0.21007360915E+03  0.00000000000E+00 0.  1.
         -1    1    1    2    0  501 -0.38590436829E+02  0.54809583007E+02  0.56043764678E+02  0.87373999355E+02  0.00000000000E+00 0. -1.
</event>
<event>
 4    1  0.6769686E+001  0.3282767E+02  0.7546771E-02  0.1396514E+00
          2   -1    0    0  502    0  0.00000000000E+00  0.00000000000E+00  0.57867765699E+03  0.57867765699E+03  0.00000000000E+00 0.  1.
         -2   -1    0    0    0  501 -0.00000000000E+00 -0.00000000000E+00 -0.20235734558E+01  0.20235734558E+01  0.00000000000E+00 0. -1.
          1    1    1    2  502    0  0.20149102604E+02  0.25916591536E+02  0.37030185167E+03  0.37175410879E+03  0.00000000000E+00 0.  1.
         -1    1    1    2    0  501 -0.20149102604E+02 -0.25916591536E+02  0.20635223187E+03  0.20894712166E+03  0.00000000000E+00 0. -1.
</event>
<event>
 4    1  0.6769686E+001  0.2660472E+02  0.7546771E-02  0.1451620E+00
          2   -1    0    0  502    0  0.00000000000E+00  0.00000000000E+00  0.16537370569E+01  0.16537370569E+01  0.00000000000E+00 0. -1.
         -2   -1    0    0    0  501 -0.00000000000E+00 -0.00000000000E+00 -0.61102348030E+03  0.61102348030E+03  0.00000000000E+00 0.  1.
          1    1    1    2  502    0  0.29614215334E+01  0.26439388323E+02 -0.47234033719E+03  0.47308900368E+03  0.00000000000E+00 0.  1.
         -1    1    1    2    0  501 -0.29614215334E+01 -0.26439388323E+02 -0.13702940606E+03  0.13958821368E+03  0.00000000000E+00 0. -1.
</event>
<event>
 4    1  0.6769686E+001  0.2189722E+02  0.7546771E-02  0.1506830E+00
          2   -1    0    0  502    0  0.00000000000E+00  0.00000000000E+00  0.12717267886E+01  0.12717267886E+01  0.00000000000E+00 0.  1.
         -2   -1    0    0    0  501 -0.00000000000E+00 -0.00000000000E+00 -0.56013509240E+03  0.56013509240E+03  0.00000000000E+00 0. -1.
          1    1    1    2  502    0  0.17223486941E+02  0.13521826308E+02 -0.11894352695E+03  0.12094234532E+03  0.00000000000E+00 0.  1.
         -1    1    1    2    0  501 -0.17223486941E+02 -0.13521826308E+02 -0.43991983866E+03  0.44046447387E+03  0.00000000000E+00 0. -1.
</event>
<event>
 4    1  0.6769686E+001  0.2435306E+02  0.7546771E-02  0.1476172E+00
          2   -1    0    0  502    0  0.00000000000E+00  0.00000000000E+00  0.10688197529E+04  0.10688197529E+04  0.00000000000E+00 0. -1.
         -2   -1    0    0    0  501 -0.00000000000E+00 -0.00000000000E+00 -0.67170732008E+00  0.67170732008E+00  0.00000000000E+00 0.  1.
          1    1    1    2  502    0  0.22852353165E+02  0.84167511629E+01  0.75708216813E+03  0.75747374941E+03  0.00000000000E+00 0. -1.
         -1    1    1    2    0  501 -0.22852353165E+02 -0.84167511629E+01  0.31106587746E+03  0.31201771082E+03  0.00000000000E+00 0.  1.
</event>
<event>
 4    1  0.6769686E+001  0.2855750E+02  0.7546771E-02  0.1432560E+00
          2   -1    0    0  502    0  0.00000000000E+00  0.00000000000E+00  0.15792317896E+04  0.15792317896E+04  0.00000000000E+00 0. -1.
         -2   -1    0    0    0  501 -0.00000000000E+00 -0.00000000000E+00 -0.53742611972E+00  0.53742611972E+00  0.00000000000E+00 0.  1.
          1    1    1    2  502    0  0.45478259984E+01  0.28193052424E+02  0.63314697872E+03  0.63379068121E+03  0.00000000000E+00 0.  1.
         -1    1    1    2    0  501 -0.45478259984E+01 -0.28193052424E+02  0.94554738474E+03  0.94597853449E+03  0.00000000000E+00 0. -1.
</event>
<event>
 4    1  0.6769686E+001  0.2154315E+02  0.7546771E-02  0.1511649E+00
          2   -1    0    0  502    0  0.00000000000E+00  0.00000000000E+00  0.65998071748E+03  0.65998071748E+03  0.00000000000E+00 0. -1.
         -2   -1    0    0    0  501 -0.00000000000E+00 -0.00000000000E+00 -0.12591031054E+01  0.12591031054E+01  0.00000000000E+00 0.  1.
          1    1    1    2  502    0  0.18094941276E+02  0.11691043212E+02  0.10967975065E+03  0.11177546732E+03  0.00000000000E+00 0.  1.
         -1    1    1    2    0  501 -0.18094941276E+02 -0.11691043212E+02  0.54904186372E+03  0.54946435327E+03  0.00000000000E+00 0. -1.
</event>
<event>
 4    1  0.6769686E+001  0.2137995E+02  0.7546771E-02  0.1513909E+00
          2   -1    0    0  502    0  0.00000000000E+00  0.00000000000E+00  0.11354721339E+04  0.11354721339E+04  0.00000000000E+00 0.  1.
         -2   -1    0    0    0  501 -0.00000000000E+00 -0.00000000000E+00 -0.41129778801E+00  0.41129778801E+00  0.00000000000E+00 0. -1.
          1    1    1    2  502    0  0.21137588963E+02  0.32100493646E+01  0.48477703902E+03  0.48524826599E+03  0.00000000000E+00 0. -1.
         -1    1    1    2    0  501 -0.21137588963E+02 -0.32100493646E+01  0.65028379708E+03  0.65063516569E+03  0.00000000000E+00 0.  1.
</event>
<event>
 4    1  0.6769686E+001  0.2281089E+02  0.7546771E-02  0.1494887E+00
          2   -1    0    0  502    0  0.00000000000E+00  0.00000000000E+00  0.16366779076E+02  0.16366779076E+02  0.00000000000E+00 0.  1.
         -2   -1    0    0    0  501 -0.00000000000E+00 -0.00000000000E+00 -0.35172889331E+02  0.35172889331E+02  0.00000000000E+00 0. -1.
          1    1    1    2  502    0 -0.40626932892E+01  0.22446182533E+02 -0.14137760747E+01  0.22854657072E+02  0.00000000000E+00 0.  1.
         -1    1    1    2    0  501  0.40626932892E+01 -0.22446182533E+02 -0.17392334181E+02  0.28685011336E+02  0.00000000000E+00 0. -1.
</event>
<event>
 4    1  0.6769686E+001  0.2424054E+02  0.7546771E-02  0.1477482E+00
          2   -1    0    0  502    0  0.00000000000E+00  0.00000000000E+00  0.24865043614E+03  0.24865043614E+03  0.00000000000E+00 0.  1.
         -2   -1    0    0    0  501 -0.00000000000E+00 -0.00000000000E+00 -0.28282332456E+01  0.28282332456E+01  0.00000000000E+00 0. -1.
          1    1    1    2  502    0 -0.18687714862E+02  0.15439343068E+02  0.17389912143E+03  0.17558048990E+03  0.00000000000E+00 0.  1.
         -1    1    1    2    0  501  0.18687714862E+02 -0.15439343068E+02  0.71923081463E+02  0.75898179479E+02  0.00000000000E+00 0. -1.
</event>
<event>
 4    1  0.6769686E+001  0.2254589E+02  0.7546771E-02  0.1498281E+00
          2   -1    0    0  502    0  0.00000000000E+00  0.00000000000E+00  0.50422760051E+03  0.50422760051E+03  0.00000000000E+00 0. -1.
         -2   -1    0    0    0  501 -0.00000000000E+00 -0.00000000000E+00 -0.15584572617E+01  0.15584572617E+01  0.00000000000E+00 0.  1.
          1    1    1    2  502    0  0.22514985445E+02 -0.11800518231E+01  0.10105233372E+03  0.10353690764E+03  0.00000000000E+00 0.  1.
         -1    1    1    2    0  501 -0.22514985445E+02  0.11800518231E+01  0.40161680953E+03  0.40224915014E+03  0.00000000000E+00 0. -1.
</event>
<event>
 4    1  0.6769686E+001  0.2743070E+02  0.7546771E-02  0.1443329E+00
          2   -1    0    0  502    0  0.00000000000E+00  0.00000000000E+00  0.55161210711E+03  0.55161210711E+03  0.00000000000E+00 0.  1.
         -2   -1    0    0    0  501 -0.00000000000E+00 -0.00000000000E+00 -0.13693827535E+01  0.13693827535E+01  0.00000000000E+00 0. -1.
          1    1    1    2  502    0 -0.25547365239E+02  0.99887605539E+01  0.29232644001E+03  0.29361061074E+03  0.00000000000E+00 0.  1.
         -1    1    1    2    0  501  0.25547365239E+02 -0.99887605539E+01  0.25791628434E+03  0.25937087912E+03  0.00000000000E+00 0. -1.
</event>
<event>
 4    1  0.6769686E+001  0.2995207E+02  0.7546771E-02  0.1420014E+00
          2   -1    0    0  502    0  0.00000000000E+00  0.00000000000E+00  0.11254823238E+04  0.11254823238E+04  0.00000000000E+00 0. -1.
         -2   -1    0    0    0  501 -0.00000000000E+00 -0.00000000000E+00 -0.94567995915E+00  0.94567995915E+00  0.00000000000E+00 0.  1.
          1    1    1    2  502    0  0.12628272546E+02  0.27159770171E+02  0.78551022914E+03  0.78608106863E+03  0.00000000000E+00 0.  1.
         -1    1    1    2    0  501 -0.12628272546E+02 -0.27159770171E+02  0.33902641469E+03  0.34034693511E+03  0.00000000000E+00 0. -1.
</event>
<event>
 4    1  0.6769686E+001  0.3168872E+02  0.7546771E-02  0.1405468E+00
          2   -1    0    0  502    0  0.00000000000E+00  0.00000000000E+00  0.17630232813E+04  0.17630232813E+04  0.00000000000E+00 0.  1.
         -2   -1    0    0    0  501 -0.00000000000E+00 -0.00000000000E+00 -0.60144485218E+00  0.60144485218E+00  0.00000000000E+00 0. -1.
          1    1    1    2  502    0  0.28552275884E+02  0.13745631157E+02  0.10841964213E+04  0.10846594188E+04  0.00000000000E+00 0.  1.
         -1    1    1    2    0  501 -0.28552275884E+02 -0.13745631157E+02  0.67822541514E+03  0.67896530734E+03  0.00000000000E+00 0. -1.
</event>
<event>
 4    1  0.6769686E+001  0.2863642E+02  0.7546771E-02  0.1431828E+00
          2   -1    0    0  502    0  0.00000000000E+00  0.00000000000E+00  0.10991402196E+03  0.10991402196E+03  0.00000000000E+00 0. -1.
         -2   -1    0    0    0  501 -0.00000000000E+00 -0.00000000000E+00 -0.39544983391E+02  0.39544983391E+02  0.00000000000E+00 0.  1.
          1    1    1    2  502    0  0.28527909231E+02 -0.24905264332E+01 -0.32127407811E+02  0.43037363531E+02  0.00000000000E+00 0.  1.
         -1    1    1    2    0  501 -0.28527909231E+02  0.24905264332E+01  0.10249644638E+03  0.10642164182E+03  0.00000000000E+00 0. -1.
</event>
<event>
 4    1  0.6769686E+001  0.2693892E+02  0.7546771E-02  0.1448223E+00
          2   -1    0    0  502    0  0.00000000000E+00  0.00000000000E+00  0.33221658054E+03  0.33221658054E+03  0.00000000000E+00 0. -1.
         -2   -1    0    0    0  501 -0.00000000000E+00 -0.00000000000E+00 -0.10703491427E+02  0.10703491427E+02  0.00000000000E+00 0.  1.
          1    1    1    2  502    0 -0.52548353053E+01  0.26421429305E+02  0.31372291031E+03  0.31487738831E+03  0.00000000000E+00 0. -1.
         -1    1    1    2    0  501  0.52548353053E+01 -0.26421429305E+02  0.77901788056E+01  0.28042683652E+02  0.00000000000E+00 0.  1.
</event>
<event>
 4    1  0.6769686E+001  0.2272235E+02  0.7546771E-02  0.1496014E+00
          2   -1    0    0  502    0  0.00000000000E+00  0.00000000000E+00  0.14291689026E+02  0.14291689026E+02  0.00000000000E+00 0.  1.
         -2   -1    0    0    0  501 -0.00000000000E+00 -0.00000000000E+00 -0.42531427132E+02  0.42531427132E+02  0.00000000000E+00 0. -1.
          1    1    1    2  502    0 -0.14732886129E+02 -0.17298770414E+02 -0.30941981202E+01  0.22932061694E+02  0.00000000000E+00 0.  1.
         -1    1    1    2    0  501  0.14732886129E+02  0.17298770414E+02 -0.25145539985E+02  0.33891054464E+02  0.00000000000E+00 0. -1.
</event>
<event>
 4    1  0.6769686E+001  0.2310106E+02  0.7546771E-02  0.1491233E+00
          2   -1    0    0  502    0  0.00000000000E+00  0.00000000000E+00  0.40988287616E+00  0.40988287616E+00  0.00000000000E+00 0. -1.
         -2   -1    0    0    0  501 -0.00000000000E+00 -0.00000000000E+00 -0.17109040826E+04  0.17109040826E+04  0.00000000000E+00 0.  1.
          1    1    1    2  502    0 -0.24846112152E+01  0.22967054127E+02 -0.43692695406E+03  0.43753722361E+03  0.00000000000E+00 0. -1.
         -1    1    1    2    0  501  0.24846112152E+01 -0.22967054127E+02 -0.12735672457E+04  0.12737767419E+04  0.00000000000E+00 0.  1.
</event>
<event>
 4    1  0.6769686E+001  0.2118583E+02  0.7546771E-02  0.1516628E+00
          2   -1    0    0  502    0  0.00000000000E+00  0.00000000000E+00  0.46439206135E+03  0.46439206135E+03  0.00000000000E+00 0.  1.
         -2   -1    0    0    0  501 -0.00000000000E+00 -0.00000000000E+00 -0.98335709950E+00  0.98335709950E+00  0.00000000000E+00 0. -1.
          1    1    1    2  502    0 -0.17031490621E+02 -0.12600309570E+02  0.20124763548E+03  0.20235970513E+03  0.00000000000E+00 0. -1.
         -1    1    1    2    0  501  0.17031490621E+02  0.12600309570E+02  0.26216106877E+03  0.26301571332E+03  0.00000000000E+00 0.  1.
</event>
<event>
 4    1  0.6769686E+001  0.2283788E+02  0.7546771E-02  0.1494544E+00
          2   -1    0    0  502    0  0.00000000000E+00  0.00000000000E+00  0.10875781895E+03  0.10875781895E+03  0.00000000000E+00 0. -1.
         -2   -1    0    0    0  501 -0.00000000000E+00 -0.00000000000E+00 -0.10990799294E+02  0.10990799294E+02  0.00000000000E+00 0.  1.
          1    1    1    2  502    0 -0.22695106588E+02 -0.25497148304E+01  0.39313748678E+01  0.23173791600E+02  0.00000000000E+00 0.  1.
         -1    1    1    2    0  501  0.22695106588E+02  0.25497148304E+01  0.93835644792E+02  0.96574826649E+02  0.00000000000E+00 0. -1.
</event>
<event>
 4    1  0.6769686E+001  0.2107334E+02  0.7546771E-02  0.1518220E+00
          2   -1    0    0  502    0  0.00000000000E+00  0.00000000000E+00  0.70830820556E+03  0.70830820556E+03  0.00000000000E+00 0. -1.
         -2   -1    0    0    0  501 -0.00000000000E+00 -0.00000000000E+00 -0.62985318763E+00  0.62985318763E+00  0.00000000000E+00 0.  1.
          1    1    1    2  502    0  0.16916709639E+02 -0.12566254572E+02  0.37783448854E+03  0.37842170465E+03  0.00000000000E+00 0. -1.
         -1    1    1    2    0  501 -0.16916709639E+02  0.12566254572E+02  0.32984386383E+03  0.33051635409E+03  0.00000000000E+00 0.  1.
</event>
<event>
 4    1  0.6769686E+001  0.2740793E+02  0.7546771E-02  0.1443553E+00
          2   -1    0    0  502    0  0.00000000000E+00  0.00000000000E+00  0.97451907074E+03  0.97451907074E+03  0.00000000000E+00 0. -1.
         -2   -1    0    0    0  501 -0.00000000000E+00 -0.00000000000E+00 -0.29686904556E+01  0.29686904556E+01  0.00000000000E+00 0.  1.
          1    1    1    2  502    0  0.20313887988E+02 -0.18399465592E+02  0.65243876532E+02  0.70766925920E+02  0.00000000000E+00 0.  1.
         -1    1    1    2    0  501 -0.20313887988E+02  0.18399465592E+02  0.90630650376E+03  0.90672083528E+03  0.00000000000E+00 0. -1.
</event>
<event>
 4    1  0.6769686E+001  0.5180627E+02  0.7546771E-02  0.1290525E+00
          2   -1    0    0  502    0  0.00000000000E+00  0.00000000000E+00  0.10145836533E+03  0.10145836533E+03  0.00000000000E+00 0. -1.
         -2   -1    0    0    0  501 -0.00000000000E+00 -0.00000000000E+00 -0.26818832310E+02  0.26818832310E+02  0.00000000000E+00 0.  1.
          1    1    1    2  502    0  0.30614877319E+02 -0.41792568776E+02  0.44809631294E+02  0.68496661049E+02  0.00000000000E+00 0. -1.
         -1    1    1    2    0  501 -0.30614877319E+02  0.41792568776E+02  0.29829901729E+02  0.59780536593E+02  0.00000000000E+00 0.  1.
</event>
<event>
 4    1  0.6769686E+001  0.3128866E+02  0.7546771E-02  0.1408719E+00
          2   -1    0    0  502    0  0.00000000000E+00  0.00000000000E+00  0.13397159210E+04  0.13397159210E+04  0.00000000000E+00 0. -1.
         -2   -1    0    0    0  501 -0.00000000000E+00 -0.00000000000E+00 -0.11644197891E+01  0.11644197891E+01  0.00000000000E+00 0.  1.
          1    1    1    2  502    0  0.16727154769E+02 -0.26442063709E+02  0.26011763889E+03  0.26199268407E+03  0.00000000000E+00 0.  1.
         -1    1    1    2    0  501 -0.16727154769E+02  0.26442063709E+02  0.10784338623E+04  0.10788876567E+04  0.00000000000E+00 0. -1.
</event>
<event>
 4    1  0.6769686E+001  0.2520713E+02  0.7546771E-02  0.1466500E+00
          2   -1    0    0  502    0  0.00000000000E+00  0.00000000000E+00  0.10629052474E+01  0.10629052474E+01  0.00000000000E+00 0. -1.
         -2   -1    0    0    0  501 -0.00000000000E+00 -0.00000000000E+00 -0.80324495878E+03  0.80324495878E+03  0.00000000000E+00 0.  1.
          1    1    1    2  502    0  0.15764565074E+02  0.19669206958E+02 -0.19770478518E+03  0.19930524653E+03  0.00000000000E+00 0. -1.
         -1    1    1    2    0  501 -0.15764565074E+02 -0.19669206958E+02 -0.60447726835E+03  0.60500261749E+03  0.00000000000E+00 0.  1.
</event>
<event>
 4    1  0.6769686E+001  0.2965759E+02  0.7546771E-02  0.1422596E+00
          2   -1    0    0  502    0  0.00000000000E+00  0.00000000000E+00  0.90443830966E+03  0.90443830966E+03  0.00000000000E+00 0. -1.
         -2   -1    0    0    0  501 -0.00000000000E+00 -0.00000000000E+00 -0.11534361052E+01  0.11534361052E+01  0.00000000000E+00 0.  1.
          1    1    1    2  502    0  0.63936624927E+01  0.28960208838E+02  0.27230957940E+03  0.27391984165E+03  0.00000000000E+00 0.  1.
         -1    1    1    2    0  501 -0.63936624927E+01 -0.28960208838E+02  0.63097529416E+03  0.63167190412E+03  0.00000000000E+00 0. -1.
</event>
<event>
 4    1  0.6769686E+001  0.2177429E+02  0.7546771E-02  0.1508491E+00
          2   -1    0    0  502    0  0.00000000000E+00  0.00000000000E+00  0.13748298443E+03  0.13748298443E+03  0.00000000000E+00 0. -1.
         -2   -1    0    0    0  501 -0.00000000000E+00 -0.00000000000E+00 -0.40304740139E+01  0.40304740139E+01  0.00000000000E+00 0.  1.
          1    1    1    2  502    0  0.20480679106E+02 -0.73933429045E+01  0.93611577902E+02  0.96110599068E+02  0.00000000000E+00 0. -1.
         -1    1    1    2    0  501 -0.20480679106E+02  0.73933429045E+01  0.39840932518E+02  0.45402859379E+02  0.00000000000E+00 0.  1.
</event>
<event>
 4    1  0.6769686E+001  0.2803970E+02  0.7546771E-02  0.1437435E+00
          2   -1    0    0  502    0  0.00000000000E+00  0.00000000000E+00  0.23711104866E+03  0.23711104866E+03  0.00000000000E+00 0.  1.
         -2   -1    0    0    0  501 -0.00000000000E+00 -0.00000000000E+00 -0.64816716692E+01  0.64816716692E+01  0.00000000000E+00 0. -1.
          1    1    1    2  502    0  0.26456146429E+02  0.92896220092E+01  0.30194222329E+02  0.41205774146E+02  0.00000000000E+00 0. -1.
         -1    1    1    2    0  501 -0.26456146429E+02 -0.92896220092E+01  0.20043515467E+03  0.20238694619E+03  0.00000000000E+00 0.  1.
</event>
<event>
 4    1  0.6769686E+001  0.2152941E+02  0.7546771E-02  0.1511839E+00
          2   -1    0    0  502    0  0.00000000000E+00  0.00000000000E+00  0.79460371186E+01  0.79460371186E+01  0.00000000000E+00 0. -1.
         -2   -1    0    0    0  501 -0.00000000000E+00 -0.00000000000E+00 -0.60375541161E+02  0.60375541161E+02  0.00000000000E+00 0.  1.
          1    1    1    2  502    0  0.10670521394E+01 -0.21502952563E+02 -0.32498098385E+02  0.38982585443E+02  0.00000000000E+00 0.  1.
         -1    1    1    2    0  501 -0.10670521394E+01  0.21502952563E+02 -0.19931405658E+02  0.29338992837E+02  0.00000000000E+00 0. -1.
</event>
<event>
 4    1  0.6769686E+001  0.2437268E+02  0.7546771E-02  0.1475945E+00
          2   -1    0    0  502    0  0.00000000000E+00  0.00000000000E+00  0.10883231125E+03  0.10883231125E+03  0.00000000000E+00 0. -1.
         -2   -1    0    0    0  501 -0.00000000000E+00 -0.00000000000E+00 -0.63854313940E+01  0.63854313940E+01  0.00000000000E+00 0.  1.
          1    1    1    2  502    0  0.24343874408E+02 -0.11846560322E+01  0.29270624591E+02  0.38089330461E+02  0.00000000000E+00 0.  1.
         -1    1    1    2    0  501 -0.24343874408E+02  0.11846560322E+01  0.73176255261E+02  0.77128412178E+02  0.00000000000E+00 0. -1.
</event>
<event>
 4    1  0.6769686E+001  0.2470453E+02  0.7546771E-02  0.1472136E+00
          2   -1    0    0  502    0  0.00000000000E+00  0.00000000000E+00  0.44982418828E+02  0.44982418828E+02  0.00000000000E+00 0.  1.
         -2   -1    0    0    0  501 -0.00000000000E+00 -0.00000000000E+00 -0.20236037758E+02  0.20236037758E+02  0.00000000000E+00 0. -1.
          1    1    1    2  502    0 -0.14763311640E+02  0.19808034677E+02 -0.63458027757E+01  0.25506525071E+02  0.00000000000E+00 0. -1.
         -1    1    1    2    0  501  0.14763311640E+02 -0.19808034677E+02  0.31092183846E+02  0.39711931515E+02  0.00000000000E+00 0.  1.
</event>
<event>
 4    1  0.6769686E+001  0.7217911E+02  0.7546771E-02  0.1223269E+00
          2   -1    0    0  502    0  0.00000000000E+00  0.00000000000E+00  0.27548557609E+03  0.27548557609E+03  0.00000000000E+00 0. -1.
         -2   -1    0    0    0  501 -0.00000000000E+00 -0.00000000000E+00 -0.19861670044E+02  0.19861670044E+02  0.00000000000E+00 0.  1.
          1    1    1    2  502    0 -0.28603213675E+02  0.66269757222E+02  0.95511168717E+02  0.11971719970E+03  0.00000000000E+00 0. -1.
         -1    1    1    2    0  501  0.28603213675E+02 -0.66269757222E+02  0.16011273733E+03  0.17563004644E+03  0.00000000000E+00 0.  1.
</event>
<event>
 4    1  0.6769686E+001  0.2378748E+02  0.7546771E-02  0.1482840E+00
          2   -1    0    0  502    0  0.00000000000E+00  0.00000000000E+00  0.12308327256E+03  0.12308327256E+03  0.00000000000E+00 0.  1.
         -2   -1    0    0    0  501 -0.00000000000E+00 -0.00000000000E+00 -0.49323192612E+01  0.49323192612E+01  0.00000000000E+00 0. -1.
          1    1    1    2  502    0 -0.19333575635E+02 -0.13858462175E+02  0.75758584894E+02  0.79405335500E+02  0.00000000000E+00 0.  1.
         -1    1    1    2    0  501  0.19333575635E+02  0.13858462175E+02  0.42392368405E+02  0.48610256322E+02  0.00000000000E+00 0. -1.
</event>
<event>
 4    1  0.6769686E+001  0.3051419E+02  0.7546771E-02  0.1415180E+00
          2   -1    0    0  502    0  0.00000000000E+00  0.00000000000E+00  0.17229337660E+01  0.17229337660E+01  0.00000000000E+00 0.  1.
         -2   -1    0    0    0  501 -0.00000000000E+00 -0.00000000000E+00 -0.67656724668E+03  0.67656724668E+03  0.00000000000E+00 0. -1.
          1    1    1    2  502    0 -0.29659553858E+02  0.71712465738E+01 -0.48955641845E+03  0.49050647576E+03  0.00000000000E+00 0. -1.
         -1    1    1    2    0  501  0.29659553858E+02 -0.71712465738E+01 -0.18528789447E+03  0.18778370470E+03  0.00000000000E+00 0.  1.
</event>
<event>
 4    1  0.6769686E+001  0.2202071E+02  0.7546771E-02  0.1505175E+00
          2   -1    0    0  502    0  0.00000000000E+00  0.00000000000E+00  0.29113117288E+03  0.29113117288E+03  0.00000000000E+00 0. -1.
         -2   -1    0    0    0  501 -0.00000000000E+00 -0.00000000000E+00 -0.17554475052E+01  0.17554475052E+01  0.00000000000E+00 0.  1.
          1    1    1    2  502    0  0.14088327446E+02 -0.16924268168E+02  0.17781604144E+03  0.17917437433E+03  0.00000000000E+00 0. -1.
         -1    1    1    2    0  501 -0.14088327446E+02  0.16924268168E+02  0.11155968394E+03  0.11371224606E+03  0.00000000000E+00 0.  1.
</event>
<event>
 4    1  0.6769686E+001  0.2444924E+02  0.7546771E-02  0.1475060E+00
          2   -1    0    0  502    0  0.00000000000E+00  0.00000000000E+00  0.45410824432E+03  0.45410824432E+03  0.00000000000E+00 0.  1.
         -2   -1    0    0    0  501 -0.00000000000E+00 -0.00000000000E+00 -0.18744990891E+01  0.18744990891E+01  0.00000000000E+00 0. -1.
          1    1    1    2  502    0 -0.93318680567E+01 -0.22598264970E+02  0.10170811746E+03  0.10460548025E+03  0.00000000000E+00 0. -1.
         -1    1    1    2    0  501  0.93318680567E+01  0.22598264970E+02  0.35052562777E+03  0.35137726315E+03  0.00000000000E+00 0.  1.
</event>
<event>
 4    1  0.6769686E+001  0.2013067E+02  0.7546771E-02  0.1532048E+00
          2   -1    0    0  502    0  0.00000000000E+00  0.00000000000E+00  0.71899813417E+01  0.71899813417E+01  0.00000000000E+00 0.  1.
         -2   -1    0    0    0  501 -0.00000000000E+00 -0.00000000000E+00 -0.56451789074E+02  0.56451789074E+02  0.00000000000E+00 0. -1.
          1    1    1    2  502    0 -0.18000651137E+02  0.90122270516E+01 -0.23363752617E+02  0.30840048867E+02  0.00000000000E+00 0. -1.
         -1    1    1    2    0  501  0.18000651137E+02 -0.90122270516E+01 -0.25898055115E+02  0.32801721548E+02  0.00000000000E+00 0.  1.
</event>
<event>
 4    1  0.6769686E+001  0.2449208E+02  0.7546771E-02  0.1474566E+00
          2   -1    0    0  502    0  0.00000000000E+00  0.00000000000E+00  0.24392326561E+01  0.24392326561E+01  0.00000000000E+00 0.  1.
         -2   -1    0    0    0  501 -0.00000000000E+00 -0.00000000000E+00 -0.24888641314E+03  0.24888641314E+03  0.00000000000E+00 0. -1.
          1    1    1    2  502    0 -0.24469476269E+02 -0.10519722469E+01 -0.10951012169E+03  0.11221554557E+03  0.00000000000E+00 0.  1.
         -1    1    1    2    0  501  0.24469476269E+02  0.10519722469E+01 -0.13693705879E+03  0.13911010022E+03  0.00000000000E+00 0. -1.
</event>
<event>
 4    1  0.6769686E+001  0.4609864E+02  0.7546771E-02  0.1316035E+00
          2   -1    0    0  502    0  0.00000000000E+00  0.00000000000E+00  0.79922329431E+03  0.79922329431E+03  0.00000000000E+00 0.  1.
         -2   -1    0    0    0  501 -0.00000000000E+00 -0.00000000000E+00 -0.26982131105E+01  0.26982131105E+01  0.00000000000E+00 0. -1.
          1    1    1    2  502    0  0.32417333911E+02 -0.32775006649E+02  0.44663815829E+03  0.44901083399E+03  0.00000000000E+00 0.  1.
         -1    1    1    2    0  501 -0.32417333911E+02  0.32775006649E+02  0.34988692292E+03  0.35291067344E+03  0.00000000000E+00 0. -1.
</event>
<event>
 4    1  0.6769686E+001  0.2030044E+02  0.7546771E-02  0.1529491E+00
          2   -1    0    0  502    0  0.00000000000E+00  0.00000000000E+00  0.78842926046E+02  0.78842926046E+02  0.00000000000E+00 0.  1.
         -2   -1    0    0    0  501 -0.00000000000E+00 -0.00000000000E+00 -0.69619763416E+01  0.69619763416E+01  0.00000000000E+00 0. -1.
          1    1    1    2  502    0  0.13428353627E+02  0.15224559786E+02  0.57357989762E+02  0.60844448320E+02  0.00000000000E+00 0.  1.
         -1    1    1    2    0  501 -0.13428353627E+02 -0.15224559786E+02  0.14522959942E+02  0.24960454068E+02  0.00000000000E+00 0. -1.
</event>
<event>
 4    1  0.6769686E+001  0.2142564E+02  0.7546771E-02  0.1513274E+00
          2   -1    0    0  502    0  0.00000000000E+00  0.00000000000E+00  0.60357765373E+02  0.60357765373E+02  0.00000000000E+00 0.  1.
         -2   -1    0    0    0  501 -0.00000000000E+00 -0.00000000000E+00 -0.88399190329E+01  0.88399190329E+01  0.00000000000E+00 0. -1.
          1    1    1    2  502    0 -0.16470074033E+02  0.13703816549E+02  0.38687433704E+02  0.44224150113E+02  0.00000000000E+00 0.  1.
         -1    1    1    2    0  501  0.16470074033E+02 -0.13703816549E+02  0.12830412637E+02  0.24973534293E+02  0.00000000000E+00 0. -1.
</event>
<event>
 4    1  0.6769686E+001  0.6448090E+02  0.7546771E-02  0.1245324E+00
          2   -1    0    0  502    0  0.00000000000E+00  0.00000000000E+00  0.31957049527E+02  0.31957049527E+02  0.00000000000E+00 0. -1.
         -2   -1    0    0    0  501 -0.00000000000E+00 -0.00000000000E+00 -0.15767220999E+03  0.15767220999E+03  0.00000000000E+00 0.  1.
          1    1    1    2  502    0 -0.64405813743E+02  0.31108224172E+01 -0.23212372291E+02  0.68531746566E+02  0.00000000000E+00 0. -1.
         -1    1    1    2    0  501  0.64405813743E+02 -0.31108224172E+01 -0.10250278817E+03  0.12109751295E+03  0.00000000000E+00 0.  1.
</event>
<event>
 4    1  0.6769686E+001  0.5946294E+02  0.7546771E-02  0.1261668E+00
          2   -1    0    0  502    0  0.00000000000E+00  0.00000000000E+00  0.16802101627E+04  0.16802101627E+04  0.00000000000E+00 0. -1.
         -2   -1    0    0    0  501 -0.00000000000E+00 -0.00000000000E+00 -0.41631648879E+01  0.41631648879E+01  0.00000000000E+00 0.  1.
          1    1    1    2  502    0  0.35710276333E+02 -0.47545949543E+02  0.14302659012E+04  0.14315014458E+04  0.00000000000E+00 0. -1.
         -1    1    1    2    0  501 -0.35710276333E+02  0.47545949543E+02  0.24578109661E+03  0.25287188180E+03  0.00000000000E+00 0.  1.
</event>
<event>
 4    1  0.6769686E+001  0.5125005E+02  0.7546771E-02  0.1292842E+00
          2   -1    0    0  502    0  0.00000000000E+00  0.00000000000E+00  0.26804679349E+04  0.26804679349E+04  0.00000000000E+00 0.  1.
         -2   -1    0    0    0  501 -0.00000000000E+00 -0.00000000000E+00 -0.20825136670E+01  0.20825136670E+01  0.00000000000E+00 0. -1.
          1    1    1    2  502    0  0.37662417433E+02 -0.34757881847E+02  0.23151646034E+04  0.23157317869E+04  0.00000000000E+00 0.  1.
         -1    1    1    2    0  501 -0.37662417433E+02  0.34757881847E+02  0.36322081781E+03  0.36681866164E+03  0.00000000000E+00 0. -1.
</event>
<event>
 4    1  0.6769686E+001  0.2203573E+02  0.7546771E-02  0.1504975E+00
          2   -1    0    0  502    0  0.00000000000E+00  0.00000000000E+00  0.62443740579E+03  0.62443740579E+03  0.00000000000E+00 0.  1.
         -2   -1    0    0    0  501 -0.00000000000E+00 -0.00000000000E+00 -0.33674917425E+01  0.33674917425E+01  0.00000000000E+00 0. -1.
          1    1    1    2  502    0 -0.16863138280E+02  0.14184780141E+02  0.58581883441E+03  0.58623312784E+03  0.00000000000E+00 0.  1.
         -1    1    1    2    0  501  0.16863138280E+02 -0.14184780141E+02  0.35251079639E+02  0.41571769700E+02  0.00000000000E+00 0. -1.
</event>
<event>
 4    1  0.6769686E+001  0.2874160E+02  0.7546771E-02  0.1430856E+00
          2   -1    0    0  502    0  0.00000000000E+00  0.00000000000E+00  0.11839196577E+03  0.11839196577E+03  0.00000000000E+00 0. -1.
         -2   -1    0    0    0  501 -0.00000000000E+00 -0.00000000000E+00 -0.77878602484E+01  0.77878602484E+01  0.00000000000E+00 0.  1.
          1    1    1    2  502    0  0.18084171249E+02 -0.22339253651E+02  0.34950811209E+02  0.45250842065E+02  0.00000000000E+00 0.  1.
         -1    1    1    2    0  501 -0.18084171249E+02  0.22339253651E+02  0.75653294317E+02  0.80928983958E+02  0.00000000000E+00 0. -1.
</event>
<event>
 4    1  0.6769686E+001  0.3301183E+02  0.7546771E-02  0.1395106E+00
          2   -1    0    0  502    0  0.00000000000E+00  0.00000000000E+00  0.18500450570E+03  0.18500450570E+03  0.00000000000E+00 0. -1.
         -2   -1    0    0    0  501 -0.00000000000E+00 -0.00000000000E+00 -0.73877607483E+01  0.73877607483E+01  0.00000000000E+00 0.  1.
          1    1    1    2  502    0 -0.34976642987E+00  0.33009979937E+02  0.45503131409E+02  0.56216688625E+02  0.00000000000E+00 0.  1.
         -1    1    1    2    0  501  0.34976642987E+00 -0.33009979937E+02  0.13211361354E+03  0.13617557782E+03  0.00000000000E+00 0. -1.
</event>
<event>
 4    1  0.6769686E+001  0.2807986E+02  0.7546771E-02  0.1437052E+00
          2   -1    0    0  502    0  0.00000000000E+00  0.00000000000E+00  0.23764490298E+03  0.23764490298E+03  0.00000000000E+00 0.  1.
         -2   -1    0    0    0  501 -0.00000000000E+00 -0.00000000000E+00 -0.33756585141E+01  0.33756585141E+01  0.00000000000E+00 0. -1.
          1    1    1    2  502    0 -0.13825359650E+02  0.24440503773E+02  0.10136926068E+03  0.10518652863E+03  0.00000000000E+00 0. -1.
         -1    1    1    2    0  501  0.13825359650E+02 -0.24440503773E+02  0.13289998378E+03  0.13583403286E+03  0.00000000000E+00 0.  1.
</event>
<event>
 4    1  0.6769686E+001  0.2347389E+02  0.7546771E-02  0.1486632E+00
          2   -1    0    0  502    0  0.00000000000E+00  0.00000000000E+00  0.89801707059E+02  0.89801707059E+02  0.00000000000E+00 0. -1.
         -2   -1    0    0    0  501 -0.00000000000E+00 -0.00000000000E+00 -0.94461100406E+01  0.94461100406E+01  0.00000000000E+00 0.  1.
          1    1    1    2  502    0  0.69055184441E+01 -0.22435178695E+02  0.10802277965E+02  0.25840136171E+02  0.00000000000E+00 0.  1.
         -1    1    1    2    0  501 -0.69055184441E+01  0.22435178695E+02  0.69553319053E+02  0.73407680929E+02  0.00000000000E+00 0. -1.
</event>
<event>
 4    1  0.6769686E+001  0.5388472E+02  0.7546771E-02  0.1282155E+00
          2   -1    0    0  502    0  0.00000000000E+00  0.00000000000E+00  0.10829997595E+04  0.10829997595E+04  0.00000000000E+00 0. -1.
         -2   -1    0    0    0  501 -0.00000000000E+00 -0.00000000000E+00 -0.32498365195E+01  0.32498365195E+01  0.00000000000E+00 0.  1.
          1    1    1    2  502    0 -0.32036544523E+02  0.43326928566E+02  0.31265404360E+03  0.31726347710E+03  0.00000000000E+00 0.  1.
         -1    1    1    2    0  501  0.32036544523E+02 -0.43326928566E+02  0.76709587939E+03  0.76898611893E+03  0.00000000000E+00 0. -1.
</event>
<event>
 4    1  0.6769686E+001  0.2811006E+02  0.7546771E-02  0.1436765E+00
          2   -1    0    0  502    0  0.00000000000E+00  0.00000000000E+00  0.10932763516E+04  0.10932763516E+04  0.00000000000E+00 0.  1.
         -2   -1    0    0    0  501 -0.00000000000E+00 -0.00000000000E+00 -0.73889503342E+00  0.73889503342E+00  0.00000000000E+00 0. -1.
          1    1    1    2  502    0 -0.27366722539E+02  0.64216648865E+01  0.62710399807E+03  0.62773370125E+03  0.00000000000E+00 0.  1.
         -1    1    1    2    0  501  0.27366722539E+02 -0.64216648865E+01  0.46543345850E+03  0.46628154539E+03  0.00000000000E+00 0. -1.
</event>
<event>
 4    1  0.6769686E+001  0.3575169E+02  0.7546771E-02  0.1375354E+00
          2   -1    0    0  502    0  0.00000000000E+00  0.00000000000E+00  0.27177930756E+03  0.27177930756E+03  0.00000000000E+00 0. -1.
         -2   -1    0    0    0  501 -0.00000000000E+00 -0.00000000000E+00 -0.50734101452E+01  0.50734101452E+01  0.00000000000E+00 0.  1.
          1    1    1    2  502    0  0.97162587848E+01  0.34406072235E+02  0.95950625399E+02  0.10239485342E+03  0.00000000000E+00 0.  1.
         -1    1    1    2    0  501 -0.97162587848E+01 -0.34406072235E+02  0.17075527201E+03  0.17445786429E+03  0.00000000000E+00 0. -1.
</event>
<event>
 4    1  0.6769686E+001  0.6960651E+02  0.7546771E-02  0.1230278E+00
          2   -1    0    0  502    0  0.00000000000E+00  0.00000000000E+00  0.65506708359E+03  0.65506708359E+03  0.00000000000E+00 0.  1.
         -2   -1    0    0    0  501 -0.00000000000E+00 -0.00000000000E+00 -0.17907262490E+02  0.17907262490E+02  0.00000000000E+00 0. -1.
          1    1    1    2  502    0  0.47191806868E+02  0.51166385804E+02  0.57637543745E+03  0.58056327008E+03  0.00000000000E+00 0.  1.
         -1    1    1    2    0  501 -0.47191806868E+02 -0.51166385804E+02  0.60784383650E+02  0.92411076000E+02  0.00000000000E+00 0. -1.
</event>
<event>
 4    1  0.6769686E+001  0.2231829E+02  0.7546771E-02  0.1501240E+00
          2   -1    0    0  502    0  0.00000000000E+00  0.00000000000E+00  0.27793355646E+03  0.27793355646E+03  0.00000000000E+00 0.  1.
         -2   -1    0    0    0  501 -0.00000000000E+00 -0.00000000000E+00 -0.18297133916E+01  0.18297133916E+01  0.00000000000E+00 0. -1.
          1    1    1    2  502    0 -0.86981749212E+01  0.20553540047E+02  0.11801676395E+03  0.12010854603E+03  0.00000000000E+00 0.  1.
         -1    1    1    2    0  501  0.86981749212E+01 -0.20553540047E+02  0.15808707912E+03  0.15965472382E+03  0.00000000000E+00 0. -1.
</event>
<event>
 4    1  0.6769686E+001  0.2137967E+02  0.7546771E-02  0.1513913E+00
          2   -1    0    0  502    0  0.00000000000E+00  0.00000000000E+00  0.80134822087E+03  0.80134822087E+03  0.00000000000E+00 0. -1.
         -2   -1    0    0    0  501 -0.00000000000E+00 -0.00000000000E+00 -0.10824422348E+01  0.10824422348E+01  0.00000000000E+00 0.  1.
          1    1    1    2  502    0 -0.16430871861E+02 -0.13679054928E+02  0.67608103643E+03  0.67641899583E+03  0.00000000000E+00 0. -1.
         -1    1    1    2    0  501  0.16430871861E+02  0.13679054928E+02  0.12418474220E+03  0.12601166727E+03  0.00000000000E+00 0.  1.
</event>
<event>
 4    1  0.6769686E+001  0.4437065E+02  0.7546771E-02  0.1324617E+00
          2   -1    0    0  502    0  0.00000000000E+00  0.00000000000E+00  0.26222955262E+01  0.26222955262E+01  0.00000000000E+00 0.  1.
         -2   -1    0    0    0  501 -0.00000000000E+00 -0.00000000000E+00 -0.18098762258E+04  0.18098762258E+04  0.00000000000E+00 0. -1.
          1    1    1    2  502    0 -0.43719056732E+02  0.75761688629E+01 -0.15968802515E+04  0.15974965702E+04  0.00000000000E+00 0. -1.
         -1    1    1    2    0  501  0.43719056732E+02 -0.75761688629E+01 -0.21037367884E+03  0.21500195116E+03  0.00000000000E+00 0.  1.
</event>
<event>
 4    1  0.6769686E+001  0.2228684E+02  0.7546771E-02  0.1501653E+00
          2   -1    0    0  502    0  0.00000000000E+00  0.00000000000E+00  0.10747738550E+01  0.10747738550E+01  0.00000000000E+00 0.  1.
         -2   -1    0    0    0  501 -0.00000000000E+00 -0.00000000000E+00 -0.62813869139E+03  0.62813869139E+03  0.00000000000E+00 0. -1.
          1    1    1    2  502    0  0.16425435599E+02 -0.15063475674E+02 -0.15180450315E+03  0.15343177771E+03  0.00000000000E+00 0.  1.
         -1    1    1    2    0  501 -0.16425435599E+02  0.15063475674E+02 -0.47525941439E+03  0.47578168754E+03  0.00000000000E+00 0. -1.
</event>
<event>
 4    1  0.6769686E+001  0.2292005E+02  0.7546771E-02  0.1493504E+00
          2   -1    0    0  502    0  0.00000000000E+00  0.00000000000E+00  0.93544433190E+03  0.93544433190E+03  0.00000000000E+00 0. -1.
         -2   -1    0    0    0  501 -0.00000000000E+00 -0.00000000000E+00 -0.80196466192E+00  0.80196466192E+00  0.00000000000E+00 0.  1.
          1    1    1    2  502    0  0.22705367628E+02 -0.31297131864E+01  0.72361253476E+03  0.72397543417E+03  0.00000000000E+00 0. -1.
         -1    1    1    2    0  501 -0.22705367628E+02  0.31297131864E+01  0.21102983248E+03  0.21227086239E+03  0.00000000000E+00 0.  1.
</event>
<event>
 4    1  0.6769686E+001  0.4285114E+02  0.7546771E-02  0.1332542E+00
          2   -1    0    0  502    0  0.00000000000E+00  0.00000000000E+00  0.30101517482E+02  0.30101517482E+02  0.00000000000E+00 0. -1.
         -2   -1    0    0    0  501 -0.00000000000E+00 -0.00000000000E+00 -0.67098475063E+02  0.67098475063E+02  0.00000000000E+00 0.  1.
          1    1    1    2  502    0  0.34136868621E+02  0.25901622008E+02 -0.33149176053E+02  0.54176449634E+02  0.00000000000E+00 0.  1.
         -1    1    1    2    0  501 -0.34136868621E+02 -0.25901622008E+02 -0.38477815277E+01  0.43023542911E+02  0.00000000000E+00 0. -1.
</event>
<event>
 4    1  0.6769686E+001  0.2256315E+02  0.7546771E-02  0.1498058E+00
          2   -1    0    0  502    0  0.00000000000E+00  0.00000000000E+00  0.64553474363E+01  0.64553474363E+01  0.00000000000E+00 0.  1.
         -2   -1    0    0    0  501 -0.00000000000E+00 -0.00000000000E+00 -0.18314615601E+03  0.18314615601E+03  0.00000000000E+00 0. -1.
          1    1    1    2  502    0  0.16143437855E+01  0.22505323617E+02 -0.15988022587E+03  0.16146449245E+03  0.00000000000E+00 0. -1.
         -1    1    1    2    0  501 -0.16143437855E+01 -0.22505323617E+02 -0.16810582697E+02  0.28137010993E+02  0.00000000000E+00 0.  1.
</event>
<event>
 4    1  0.6769686E+001  0.2531541E+02  0.7546771E-02  0.1465306E+00
          2   -1    0    0  502    0  0.00000000000E+00  0.00000000000E+00  0.99466515336E+02  0.99466515336E+02  0.00000000000E+00 0.  1.
         -2   -1    0    0    0  501 -0.00000000000E+00 -0.00000000000E+00 -0.78748574418E+01  0.78748574418E+01  0.00000000000E+00 0. -1.
          1    1    1    2  502    0  0.25158995602E+02 -0.28098097768E+01  0.68681018289E+02  0.73198035246E+02  0.00000000000E+00 0. -1.
         -1    1    1    2    0  501 -0.25158995602E+02  0.28098097768E+01  0.22910639605E+02  0.34143337532E+02  0.00000000000E+00 0.  1.
</event>
<event>
 4    1  0.6769686E+001  0.2258710E+02  0.7546771E-02  0.1497749E+00
          2   -1    0    0  502    0  0.00000000000E+00  0.00000000000E+00  0.10797771203E+04  0.10797771203E+04  0.00000000000E+00 0.  1.
         -2   -1    0    0    0  501 -0.00000000000E+00 -0.00000000000E+00 -0.73013244533E+00  0.73013244533E+00  0.00000000000E+00 0. -1.
          1    1    1    2  502    0 -0.15846125674E+02  0.16095884502E+02  0.21859313740E+03  0.21975699514E+03  0.00000000000E+00 0. -1.
         -1    1    1    2    0  501  0.15846125674E+02 -0.16095884502E+02  0.86045385043E+03  0.86075025758E+03  0.00000000000E+00 0.  1.
</event>
<event>
 4    1  0.6769686E+001  0.3469269E+02  0.7546771E-02  0.1382737E+00
          2   -1    0    0  502    0  0.00000000000E+00  0.00000000000E+00  0.37564285292E+03  0.37564285292E+03  0.00000000000E+00 0. -1.
         -2   -1    0    0    0  501 -0.00000000000E+00 -0.00000000000E+00 -0.32160052578E+01  0.32160052578E+01  0.00000000000E+00 0.  1.
          1    1    1    2  502    0 -0.14759758925E+02  0.31396376121E+02  0.19775736325E+03  0.20077738328E+03  0.00000000000E+00 0.  1.
         -1    1    1    2    0  501  0.14759758925E+02 -0.31396376121E+02  0.17466948440E+03  0.17808147489E+03  0.00000000000E+00 0. -1.
</event>
<event>
 4    1  0.6769686E+001  0.2546887E+02  0.7546771E-02  0.1463626E+00
          2   -1    0    0  502    0  0.00000000000E+00  0.00000000000E+00  0.12542519148E+03  0.12542519148E+03  0.00000000000E+00 0.  1.
         -2   -1    0    0    0  501 -0.00000000000E+00 -0.00000000000E+00 -0.86203961492E+01  0.86203961492E+01  0.00000000000E+00 0. -1.
          1    1    1    2  502    0  0.11427192031E+02 -0.22761432531E+02  0.10079453799E+03  0.10396250487E+03  0.00000000000E+00 0.  1.
         -1    1    1    2    0  501 -0.11427192031E+02  0.22761432531E+02  0.16010257337E+02  0.30083082764E+02  0.00000000000E+00 0. -1.
</event>
<event>
 4    1  0.6769686E+001  0.3272682E+02  0.7546771E-02  0.1397290E+00
          2   -1    0    0  502    0  0.00000000000E+00  0.00000000000E+00  0.16526185070E+02  0.16526185070E+02  0.00000000000E+00 0.  1.
         -2   -1    0    0    0  501 -0.00000000000E+00 -0.00000000000E+00 -0.68219998227E+02  0.68219998227E+02  0.00000000000E+00 0. -1.
          1    1    1    2  502    0  0.32725900752E+02 -0.24482811103E+00 -0.35321900237E+02  0.48152685877E+02  0.00000000000E+00 0. -1.
         -1    1    1    2    0  501 -0.32725900752E+02  0.24482811103E+00 -0.16371912920E+02  0.36593497421E+02  0.00000000000E+00 0.  1.
</event>
<event>
 4    1  0.6769686E+001  0.2694682E+02  0.7546771E-02  0.1448143E+00
          2   -1    0    0  502    0  0.00000000000E+00  0.00000000000E+00  0.85986656363E+03  0.85986656363E+03  0.00000000000E+00 0.  1.
         -2   -1    0    0    0  501 -0.00000000000E+00 -0.00000000000E+00 -0.10554209827E+01  0.10554209827E+01  0.00000000000E+00 0. -1.
          1    1    1    2  502    0 -0.63945007024E+01 -0.26177113891E+02  0.62185313549E+03  0.62243670606E+03  0.00000000000E+00 0.  1.
         -1    1    1    2    0  501  0.63945007024E+01  0.26177113891E+02  0.23695800715E+03  0.23848527855E+03  0.00000000000E+00 0. -1.
</event>
<event>
 4    1  0.6769686E+001  0.2039666E+02  0.7546771E-02  0.1528056E+00
          2   -1    0    0  502    0  0.00000000000E+00  0.00000000000E+00  0.20753822314E+02  0.20753822314E+02  0.00000000000E+00 0. -1.
         -2   -1    0    0    0  501 -0.00000000000E+00 -0.00000000000E+00 -0.21380916116E+02  0.21380916116E+02  0.00000000000E+00 0.  1.
          1    1    1    2  502    0 -0.20326737185E+02  0.16874525545E+01 -0.55783482257E+01  0.21145725564E+02  0.00000000000E+00 0.  1.
         -1    1    1    2    0  501  0.20326737185E+02 -0.16874525545E+01  0.49512544242E+01  0.20989012866E+02  0.00000000000E+00 0. -1.
</event>
<event>
 4    1  0.6769686E+001  0.2405803E+02  0.7546771E-02  0.1479623E+00
          2   -1    0    0  502    0  0.00000000000E+00  0.00000000000E+00  0.44385475125E+02  0.44385475125E+02  0.00000000000E+00 0. -1.
         -2   -1    0    0    0  501 -0.00000000000E+00 -0.00000000000E+00 -0.13105420220E+02  0.13105420220E+02  0.00000000000E+00 0.  1.
          1    1    1    2  502    0  0.18726200200E+02  0.15103585070E+02  0.13609866336E+02  0.27640863184E+02  0.00000000000E+00 0.  1.
         -1    1    1    2    0  501 -0.18726200200E+02 -0.15103585070E+02  0.17670188569E+02  0.29850032160E+02  0.00000000000E+00 0. -1.
</event>
<event>
 4    1  0.6769686E+001  0.2010307E+02  0.7546771E-02  0.1532466E+00
          2   -1    0    0  502    0  0.00000000000E+00  0.00000000000E+00  0.65499134151E+03  0.65499134151E+03  0.00000000000E+00 0.  1.
         -2   -1    0    0    0  501 -0.00000000000E+00 -0.00000000000E+00 -0.69333203734E+00  0.69333203734E+00  0.00000000000E+00 0. -1.
          1    1    1    2  502    0 -0.83398008728E+01  0.18291563921E+02  0.21837358868E+03  0.21929696264E+03  0.00000000000E+00 0. -1.
         -1    1    1    2    0  501  0.83398008728E+01 -0.18291563921E+02  0.43592442079E+03  0.43638771090E+03  0.00000000000E+00 0.  1.
</event>
<event>
 4    1  0.6769686E+001  0.2010739E+02  0.7546771E-02  0.1532400E+00
          2   -1    0    0  502    0  0.00000000000E+00  0.00000000000E+00  0.11285960280E+02  0.11285960280E+02  0.00000000000E+00 0. -1.
         -2   -1    0    0    0  501 -0.00000000000E+00 -0.00000000000E+00 -0.38663733105E+02  0.38663733105E+02  0.00000000000E+00 0.  1.
          1    1    1    2  502    0 -0.20067160359E+02 -0.12713112937E+01 -0.69203145494E+01  0.21264945585E+02  0.00000000000E+00 0. -1.
         -1    1    1    2    0  501  0.20067160359E+02  0.12713112937E+01 -0.20457458275E+02  0.28684747800E+02  0.00000000000E+00 0.  1.
</event>
<event>
 4    1  0.6769686E+001  0.3866278E+02  0.7546771E-02  0.1356505E+00
          2   -1    0    0  502    0  0.00000000000E+00  0.00000000000E+00  0.11946153014E+02  0.11946153014E+02  0.00000000000E+00 0. -1.
         -2   -1    0    0    0  501 -0.00000000000E+00 -0.00000000000E+00 -0.13054582694E+03  0.13054582694E+03  0.00000000000E+00 0.  1.
          1    1    1    2  502    0 -0.28217643213E+02  0.26430565594E+02 -0.44787030948E+02  0.59166614972E+02  0.00000000000E+00 0. -1.
         -1    1    1    2    0  501  0.28217643213E+02 -0.26430565594E+02 -0.73812642980E+02  0.83325364985E+02  0.00000000000E+00 0.  1.
</event>
<event>
 4    1  0.6769686E+001  0.2208017E+02  0.7546771E-02  0.1504383E+00
          2   -1    0    0  502    0  0.00000000000E+00  0.00000000000E+00  0.79703130257E+02  0.79703130257E+02  0.00000000000E+00 0.  1.
         -2   -1    0    0    0  501 -0.00000000000E+00 -0.00000000000E+00 -0.19219316494E+02  0.19219316494E+02  0.00000000000E+00 0. -1.
          1    1    1    2  502    0 -0.12392141941E+02 -0.18274815496E+02  0.71080615800E+02  0.74431095691E+02  0.00000000000E+00 0.  1.
         -1    1    1    2    0  501  0.12392141941E+02  0.18274815496E+02 -0.10596802037E+02  0.24491351059E+02  0.00000000000E+00 0. -1.
</event>
<event>
 4    1  0.6769686E+001  0.3773152E+02  0.7546771E-02  0.1362317E+00
          2   -1    0    0  502    0  0.00000000000E+00  0.00000000000E+00  0.53024503254E+03  0.53024503254E+03  0.00000000000E+00 0.  1.
         -2   -1    0    0    0  501 -0.00000000000E+00 -0.00000000000E+00 -0.91942698295E+01  0.91942698295E+01  0.00000000000E+00 0. -1.
          1    1    1    2  502    0  0.39421957516E+01 -0.37525017319E+02  0.48747143006E+03  0.48892950715E+03  0.00000000000E+00 0.  1.
         -1    1    1    2    0  501 -0.39421957516E+01  0.37525017319E+02  0.33579332643E+02  0.50509795217E+02  0.00000000000E+00 0. -1.
</event>
<event>
 4    1  0.6769686E+001  0.2905864E+02  0.7546771E-02  0.1427957E+00
          2   -1    0    0  502    0  0.00000000000E+00  0.00000000000E+00  0.24518186931E+03  0.24518186931E+03  0.00000000000E+00 0. -1.
         -2   -1    0    0    0  501 -0.00000000000E+00 -0.00000000000E+00 -0.34852089513E+01  0.34852089513E+01  0.00000000000E+00 0.  1.
          1    1    1    2  502    0  0.14865995897E+02  0.24968119662E+02  0.10732752900E+03  0.11119174122E+03  0.00000000000E+00 0.  1.
         -1    1    1    2    0  501 -0.14865995897E+02 -0.24968119662E+02  0.13436913135E+03  0.13747533704E+03  0.00000000000E+00 0. -1.
</event>
<event>
 4    1  0.6769686E+001  0.2187925E+02  0.7546771E-02  0.1507072E+00
          2   -1    0    0  502    0  0.00000000000E+00  0.00000000000E+00  0.19081427616E+03  0.19081427616E+03  0.00000000000E+00 0.  1.
         -2   -1    0    0    0  501 -0.00000000000E+00 -0.00000000000E+00 -0.27672843217E+01  0.27672843217E+01  0.00000000000E+00 0. -1.
          1    1    1    2  502    0 -0.18479323373E+02  0.11713929750E+02  0.12360926129E+03  0.12553067760E+03  0.00000000000E+00 0. -1.
         -1    1    1    2    0  501  0.18479323373E+02 -0.11713929750E+02  0.64437730550E+02  0.68050882882E+02  0.00000000000E+00 0.  1.
</event>
<event>
 4    1  0.6769686E+001  0.5149279E+02  0.7546771E-02  0.1291827E+00
          2   -1    0    0  502    0  0.00000000000E+00  0.00000000000E+00  0.29064094909E+02  0.29064094909E+02  0.00000000000E+00 0.  1.
         -2   -1    0    0    0  501 -0.00000000000E+00 -0.00000000000E+00 -0.11702221205E+03  0.11702221205E+03  0.00000000000E+00 0. -1.
          1    1    1    2  502    0 -0.11005782544E+02 -0.50302880554E+02 -0.78271045747E+02  0.93690253729E+02  0.00000000000E+00 0. -1.
         -1    1    1    2    0  501  0.11005782544E+02  0.50302880554E+02 -0.96870713903E+01  0.52396053225E+02  0.00000000000E+00 0.  1.
</event>
<event>
 4    1  0.6769686E+001  0.3107436E+02  0.7546771E-02  0.1410484E+00
          2   -1    0    0  502    0  0.00000000000E+00  0.00000000000E+00  0.28327085833E+02  0.28327085833E+02  0.00000000000E+00 0. -1.
         -2   -1    0    0    0  501 -0.00000000000E+00 -0.00000000000E+00 -0.36673780256E+02  0.36673780256E+02  0.00000000000E+00 0.  1.
          1    1    1    2  502    0  0.22026763798E+02  0.21918880908E+02  0.44564640982E+01  0.31392287842E+02  0.00000000000E+00 0.  1.
         -1    1    1    2    0  501 -0.22026763798E+02 -0.21918880908E+02 -0.12803158521E+02  0.33608578247E+02  0.00000000000E+00 0. -1.
</event>
<event>
 4    1  0.6769686E+001  0.3036363E+02  0.7546771E-02  0.1416462E+00
          2   -1    0    0  502    0  0.00000000000E+00  0.00000000000E+00  0.84600348875E+02  0.84600348875E+02  0.00000000000E+00 0.  1.
         -2   -1    0    0    0  501 -0.00000000000E+00 -0.00000000000E+00 -0.14907681628E+02  0.14907681628E+02  0.00000000000E+00 0. -1.
          1    1    1    2  502    0  0.28213935156E+02 -0.11221591709E+02  0.90419429202E+01  0.31681335029E+02  0.00000000000E+00 0. -1.
         -1    1    1    2    0  501 -0.28213935156E+02  0.11221591709E+02  0.60650724328E+02  0.67826695474E+02  0.00000000000E+00 0.  1.
</event>
<event>
 4    1  0.6769686E+001  0.2005504E+02  0.7546771E-02  0.1533196E+00
          2   -1    0    0  502    0  0.00000000000E+00  0.00000000000E+00  0.66573624802E+03  0.66573624802E+03  0.00000000000E+00 0.  1.
         -2   -1    0    0    0  501 -0.00000000000E+00 -0.00000000000E+00 -0.80232648682E+00  0.80232648682E+00  0.00000000000E+00 0. -1.
          1    1    1    2  502    0 -0.32035584412E+01 -0.19797523121E+02  0.49809945304E+03  0.49850302891E+03  0.00000000000E+00 0.  1.
         -1    1    1    2    0  501  0.32035584412E+01  0.19797523121E+02  0.16683446849E+03  0.16803554560E+03  0.00000000000E+00 0. -1.
</event>
<event>
 4    1  0.6769686E+001  0.7545506E+02  0.7546771E-02  0.1214811E+00
          2   -1    0    0  502    0  0.00000000000E+00  0.00000000000E+00  0.72046726814E+03  0.72046726814E+03  0.00000000000E+00 0. -1.
         -2   -1    0    0    0  501 -0.00000000000E+00 -0.00000000000E+00 -0.81837184495E+01  0.81837184495E+01  0.00000000000E+00 0.  1.
          1    1    1    2  502    0 -0.75334677783E+02  0.42605312780E+01  0.28860118804E+03  0.29830204750E+03  0.00000000000E+00 0.  1.
         -1    1    1    2    0  501  0.75334677783E+02 -0.42605312780E+01  0.42368236165E+03  0.43034893909E+03  0.00000000000E+00 0. -1.
</event>
<event>
 4    1  0.6769686E+001  0.2286691E+02  0.7546771E-02  0.1494176E+00
          2   -1    0    0  502    0  0.00000000000E+00  0.00000000000E+00  0.77054539564E+03  0.77054539564E+03  0.00000000000E+00 0.  1.
         -2   -1    0    0    0  501 -0.00000000000E+00 -0.00000000000E+00 -0.82951115832E+00  0.82951115832E+00  0.00000000000E+00 0. -1.
          1    1    1    2  502    0  0.60638798216E+01  0.22048239164E+02  0.54936281001E+03  0.54983851494E+03  0.00000000000E+00 0.  1.
         -1    1    1    2    0  501 -0.60638798216E+01 -0.22048239164E+02  0.22035307446E+03  0.22153639185E+03  0.00000000000E+00 0. -1.
</event>
<event>
 4    1  0.6769686E+001  0.2160254E+02  0.7546771E-02  0.1510833E+00
          2   -1    0    0  502    0  0.00000000000E+00  0.00000000000E+00  0.12382149446E+04  0.12382149446E+04  0.00000000000E+00 0.  1.
         -2   -1    0    0    0  501 -0.00000000000E+00 -0.00000000000E+00 -0.38006629897E+00  0.38006629897E+00  0.00000000000E+00 0. -1.
          1    1    1    2  502    0 -0.19364134581E+02  0.95760147277E+01  0.56229493248E+03  0.56270974832E+03  0.00000000000E+00 0. -1.
         -1    1    1    2    0  501  0.19364134581E+02 -0.95760147277E+01  0.67553994581E+03  0.67588526257E+03  0.00000000000E+00 0.  1.
</event>
<event>
 4    1  0.6769686E+001  0.2034095E+02  0.7546771E-02  0.1528886E+00
          2   -1    0    0  502    0  0.00000000000E+00  0.00000000000E+00  0.38966432213E+02  0.38966432213E+02  0.00000000000E+00 0.  1.
         -2   -1    0    0    0  501 -0.00000000000E+00 -0.00000000000E+00 -0.43450069248E+02  0.43450069248E+02  0.00000000000E+00 0. -1.
          1    1    1    2  502    0 -0.16596658178E+02  0.11760326410E+02 -0.38062725923E+02  0.43156986047E+02  0.00000000000E+00 0. -1.
         -1    1    1    2    0  501  0.16596658178E+02 -0.11760326410E+02  0.33579088888E+02  0.39259515414E+02  0.00000000000E+00 0.  1.
</event>
<event>
 4    1  0.6769686E+001  0.2194661E+02  0.7546771E-02  0.1506167E+00
          2   -1    0    0  502    0  0.00000000000E+00  0.00000000000E+00  0.38079928224E+02  0.38079928224E+02  0.00000000000E+00 0.  1.
         -2   -1    0    0    0  501 -0.00000000000E+00 -0.00000000000E+00 -0.23409804782E+02  0.23409804782E+02  0.00000000000E+00 0. -1.
          1    1    1    2  502    0  0.86578567656E+01  0.20166689095E+02 -0.13510147346E+02  0.25771649426E+02  0.00000000000E+00 0. -1.
         -1    1    1    2    0  501 -0.86578567656E+01 -0.20166689095E+02  0.28180270789E+02  0.35718083579E+02  0.00000000000E+00 0.  1.
</event>
<event>
 4    1  0.6769686E+001  0.2048291E+02  0.7546771E-02  0.1526777E+00
          2   -1    0    0  502    0  0.00000000000E+00  0.00000000000E+00  0.92059998375E+01  0.92059998375E+01  0.00000000000E+00 0. -1.
         -2   -1    0    0    0  501 -0.00000000000E+00 -0.00000000000E+00 -0.48753241877E+02  0.48753241877E+02  0.00000000000E+00 0.  1.
          1    1    1    2  502    0 -0.20455546713E+02 -0.10583304191E+01 -0.12372658404E+02  0.23929733191E+02  0.00000000000E+00 0. -1.
         -1    1    1    2    0  501  0.20455546713E+02  0.10583304191E+01 -0.27174583636E+02  0.34029508524E+02  0.00000000000E+00 0.  1.
</event>
<event>
 4    1  0.6769686E+001  0.4039211E+02  0.7546771E-02  0.1346203E+00
          2   -1    0    0  502    0  0.00000000000E+00  0.00000000000E+00  0.22607419572E+03  0.22607419572E+03  0.00000000000E+00 0.  1.
         -2   -1    0    0    0  501 -0.00000000000E+00 -0.00000000000E+00 -0.77859754215E+01  0.77859754215E+01  0.00000000000E+00 0. -1.
          1    1    1    2  502    0  0.38901422247E+02 -0.10872078430E+02  0.14076025233E+03  0.14644101672E+03  0.00000000000E+00 0.  1.
         -1    1    1    2    0  501 -0.38901422247E+02  0.10872078430E+02  0.77527967968E+02  0.87419154420E+02  0.00000000000E+00 0. -1.
</event>
<event>
 4    1  0.6769686E+001  0.2622352E+02  0.7546771E-02  0.1455568E+00
          2   -1    0    0  502    0  0.00000000000E+00  0.00000000000E+00  0.13148851499E+04  0.13148851499E+04  0.00000000000E+00 0. -1.
         -2   -1    0    0    0  501 -0.00000000000E+00 -0.00000000000E+00 -0.53102945107E+00  0.53102945107E+00  0.00000000000E+00 0.  1.
          1    1    1    2  502    0 -0.25362947492E+02 -0.66628571764E+01  0.57625502283E+03  0.57685138824E+03  0.00000000000E+00 0. -1.
         -1    1    1    2    0  501  0.25362947492E+02  0.66628571764E+01  0.73809909765E+03  0.73856479115E+03  0.00000000000E+00 0.  1.
</event>
<event>
 4    1  0.6769686E+001  0.4644483E+02  0.7546771E-02  0.1314369E+00
          2   -1    0    0  502    0  0.00000000000E+00  0.00000000000E+00  0.25719177186E+02  0.25719177186E+02  0.00000000000E+00 0.  1.
         -2   -1    0    0    0  501 -0.00000000000E+00 -0.00000000000E+00 -0.88742240206E+02  0.88742240206E+02  0.00000000000E+00 0. -1.
          1    1    1    2  502    0 -0.35990194674E+02  0.29356913888E+02 -0.44918566618E+02  0.64612693279E+02  0.00000000000E+00 0. -1.
         -1    1    1    2    0  501  0.35990194674E+02 -0.29356913888E+02 -0.18104496402E+02  0.49848724113E+02  0.00000000000E+00 0.  1.
</event>
<event>
 4    1  0.6769686E+001  0.5189494E+02  0.7546771E-02  0.1290159E+00
          2   -1    0    0  502    0  0.00000000000E+00  0.00000000000E+00  0.11491134079E+03  0.11491134079E+03  0.00000000000E+00 0. -1.
         -2   -1    0    0    0  501 -0.00000000000E+00 -0.00000000000E+00 -0.23482188302E+02  0.23482188302E+02  0.00000000000E+00 0.  1.
          1    1    1    2  502    0  0.28867000980E+02 -0.43125174894E+02  0.48777028719E+02  0.71219961990E+02  0.00000000000E+00 0. -1.
         -1    1    1    2    0  501 -0.28867000980E+02  0.43125174894E+02  0.42652123771E+02  0.67173567104E+02  0.00000000000E+00 0.  1.
</event>
<event>
 4    1  0.6769686E+001  0.3170827E+02  0.7546771E-02  0.1405310E+00
          2   -1    0    0  502    0  0.00000000000E+00  0.00000000000E+00  0.11460980622E+02  0.11460980622E+02  0.00000000000E+00 0.  1.
         -2   -1    0    0    0  501 -0.00000000000E+00 -0.00000000000E+00 -0.18702244816E+03  0.18702244816E+03  0.00000000000E+00 0. -1.
          1    1    1    2  502    0 -0.31495832147E+02  0.36642366319E+01 -0.15467710424E+02  0.35279797881E+02  0.00000000000E+00 0.  1.
         -1    1    1    2    0  501  0.31495832147E+02 -0.36642366319E+01 -0.16009375711E+03  0.16320363090E+03  0.00000000000E+00 0. -1.
</event>
<event>
 4    1  0.6769686E+001  0.4342780E+02  0.7546771E-02  0.1329491E+00
          2   -1    0    0  502    0  0.00000000000E+00  0.00000000000E+00  0.27324952625E+04  0.27324952625E+04  0.00000000000E+00 0. -1.
         -2   -1    0    0    0  501 -0.00000000000E+00 -0.00000000000E+00 -0.99202012590E+00  0.99202012590E+00  0.00000000000E+00 0.  1.
          1    1    1    2  502    0 -0.17832109187E+02 -0.39597853197E+02  0.21196266777E+04  0.21200715146E+04  0.00000000000E+00 0. -1.
         -1    1    1    2    0  501  0.17832109187E+02  0.39597853197E+02  0.61187656470E+03  0.61341576808E+03  0.00000000000E+00 0.  1.
</event>
<event>
 4    1  0.6769686E+001  0.2435260E+02  0.7546771E-02  0.1476178E+00
          2   -1    0    0  502    0  0.00000000000E+00  0.00000000000E+00  0.12859914502E+01  0.12859914502E+01  0.00000000000E+00 0.  1.
         -2   -1    0    0    0  501 -0.00000000000E+00 -0.00000000000E+00 -0.46471369639E+03  0.46471369639E+03  0.00000000000E+00 0. -1.
          1    1    1    2  502    0  0.11509107424E+02  0.21461353732E+02 -0.21134180885E+03  0.21274023932E+03  0.00000000000E+00 0. -1.
         -1    1    1    2    0  501 -0.11509107424E+02 -0.21461353732E+02 -0.25208589609E+03  0.25325944852E+03  0.00000000000E+00 0.  1.
</event>
<event>
 4    1  0.6769686E+001  0.2480568E+02  0.7546771E-02  0.1470989E+00
          2   -1    0    0  502    0  0.00000000000E+00  0.00000000000E+00  0.85992011642E+01  0.85992011642E+01  0.00000000000E+00 0. -1.
         -2   -1    0    0    0  501 -0.00000000000E+00 -0.00000000000E+00 -0.78584782644E+02  0.78584782644E+02  0.00000000000E+00 0.  1.
          1    1    1    2  502    0  0.21956655770E+02  0.11542395897E+02 -0.48030089334E+02  0.54057479752E+02  0.00000000000E+00 0.  1.
         -1    1    1    2    0  501 -0.21956655770E+02 -0.11542395897E+02 -0.21955492145E+02  0.33126504056E+02  0.00000000000E+00 0. -1.
</event>
<event>
 4    1  0.6769686E+001  0.4301899E+02  0.7546771E-02  0.1331648E+00
          2   -1    0    0  502    0  0.00000000000E+00  0.00000000000E+00  0.46639991740E+03  0.46639991740E+03  0.00000000000E+00 0.  1.
         -2   -1    0    0    0  501 -0.00000000000E+00 -0.00000000000E+00 -0.39925338760E+01  0.39925338760E+01  0.00000000000E+00 0. -1.
          1    1    1    2  502    0  0.42836102393E+02 -0.39625712096E+01  0.24967383276E+03  0.25335282987E+03  0.00000000000E+00 0. -1.
         -1    1    1    2    0  501 -0.42836102393E+02  0.39625712096E+01  0.21273355077E+03  0.21703962141E+03  0.00000000000E+00 0.  1.
</event>
<event>
 4    1  0.6769686E+001  0.2461985E+02  0.7546771E-02  0.1473101E+00
          2   -1    0    0  502    0  0.00000000000E+00  0.00000000000E+00  0.30310933070E+02  0.30310933070E+02  0.00000000000E+00 0. -1.
         -2   -1    0    0    0  501 -0.00000000000E+00 -0.00000000000E+00 -0.49478037114E+02  0.49478037114E+02  0.00000000000E+00 0.  1.
          1    1    1    2  502    0 -0.24618364581E+02  0.27047920139E+00  0.21211131891E+02  0.32496909849E+02  0.00000000000E+00 0.  1.
         -1    1    1    2    0  501  0.24618364581E+02 -0.27047920139E+00 -0.40378235935E+02  0.47292060336E+02  0.00000000000E+00 0. -1.
</event>
<event>
 4    1  0.6769686E+001  0.1238652E+03  0.7546771E-02  0.1127883E+00
          2   -1    0    0  502    0  0.00000000000E+00  0.00000000000E+00  0.99282190502E+03  0.99282190502E+03  0.00000000000E+00 0.  1.
         -2   -1    0    0    0  501 -0.00000000000E+00 -0.00000000000E+00 -0.21590879809E+02  0.21590879809E+02  0.00000000000E+00 0. -1.
          1    1    1    2  502    0 -0.59766505299E+02  0.10849220771E+03  0.21519458330E+03  0.24829680420E+03  0.00000000000E+00 0. -1.
         -1    1    1    2    0  501  0.59766505299E+02 -0.10849220771E+03  0.75603644190E+03  0.76611598063E+03  0.00000000000E+00 0.  1.
</event>
<event>
 4    1  0.6769686E+001  0.4887960E+02  0.7546771E-02  0.1303105E+00
          2   -1    0    0  502    0  0.00000000000E+00  0.00000000000E+00  0.46724737159E+03  0.46724737159E+03  0.00000000000E+00 0.  1.
         -2   -1    0    0    0  501 -0.00000000000E+00 -0.00000000000E+00 -0.53052709157E+01  0.53052709157E+01  0.00000000000E+00 0. -1.
          1    1    1    2  502    0 -0.22763320263E+02 -0.43255597646E+02  0.27590643974E+03  0.28020274618E+03  0.00000000000E+00 0.  1.
         -1    1    1    2    0  501  0.22763320263E+02  0.43255597646E+02  0.18603566094E+03  0.19234989633E+03  0.00000000000E+00 0. -1.
</event>
<event>
 4    1  0.6769686E+001  0.4317375E+02  0.7546771E-02  0.1330828E+00
          2   -1    0    0  502    0  0.00000000000E+00  0.00000000000E+00  0.18646421827E+04  0.18646421827E+04  0.00000000000E+00 0. -1.
         -2   -1    0    0    0  501 -0.00000000000E+00 -0.00000000000E+00 -0.10596819728E+01  0.10596819728E+01  0.00000000000E+00 0.  1.
          1    1    1    2  502    0  0.63214273568E+01  0.42708458392E+02  0.11538399173E+04  0.11546473607E+04  0.00000000000E+00 0. -1.
         -1    1    1    2    0  501 -0.63214273568E+01 -0.42708458392E+02  0.70974258347E+03  0.71105450399E+03  0.00000000000E+00 0.  1.
</event>
<event>
 4    1  0.6769686E+001  0.2310508E+02  0.7546771E-02  0.1491183E+00
          2   -1    0    0  502    0  0.00000000000E+00  0.00000000000E+00  0.51195478114E+03  0.51195478114E+03  0.00000000000E+00 0. -1.
         -2   -1    0    0    0  501 -0.00000000000E+00 -0.00000000000E+00 -0.12348309151E+01  0.12348309151E+01  0.00000000000E+00 0.  1.
          1    1    1    2  502    0  0.23029371047E+02 -0.18689189888E+01  0.35655927772E+03  0.35730709945E+03  0.00000000000E+00 0. -1.
         -1    1    1    2    0  501 -0.23029371047E+02  0.18689189888E+01  0.15416067250E+03  0.15588251260E+03  0.00000000000E+00 0.  1.
</event>
<event>
 4    1  0.6769686E+001  0.2315155E+02  0.7546771E-02  0.1490604E+00
          2   -1    0    0  502    0  0.00000000000E+00  0.00000000000E+00  0.20884184301E+04  0.20884184301E+04  0.00000000000E+00 0.  1.
         -2   -1    0    0    0  501 -0.00000000000E+00 -0.00000000000E+00 -0.25668476665E+00  0.25668476665E+00  0.00000000000E+00 0. -1.
          1    1    1    2  502    0 -0.17023676492E+02  0.15690396145E+02  0.10561085549E+04  0.10563622834E+04  0.00000000000E+00 0.  1.
         -1    1    1    2    0  501  0.17023676492E+02 -0.15690396145E+02  0.10320531905E+04  0.10323128315E+04  0.00000000000E+00 0. -1.
</event>
<event>
 4    1  0.6769686E+001  0.2758262E+02  0.7546771E-02  0.1441842E+00
          2   -1    0    0  502    0  0.00000000000E+00  0.00000000000E+00  0.58040844722E+01  0.58040844722E+01  0.00000000000E+00 0.  1.
         -2   -1    0    0    0  501 -0.00000000000E+00 -0.00000000000E+00 -0.13845815773E+03  0.13845815773E+03  0.00000000000E+00 0. -1.
          1    1    1    2  502    0  0.51884565363E+01 -0.27090232240E+02 -0.82977657076E+02  0.87441936952E+02  0.00000000000E+00 0.  1.
         -1    1    1    2    0  501 -0.51884565363E+01  0.27090232240E+02 -0.49676416180E+02  0.56820305248E+02  0.00000000000E+00 0. -1.
</event>
<event>
 4    1  0.6769686E+001  0.2130866E+02  0.7546771E-02  0.1514903E+00
          2   -1    0    0  502    0  0.00000000000E+00  0.00000000000E+00  0.18692743037E+01  0.18692743037E+01  0.00000000000E+00 0. -1.
         -2   -1    0    0    0  501 -0.00000000000E+00 -0.00000000000E+00 -0.31170574587E+03  0.31170574587E+03  0.00000000000E+00 0.  1.
          1    1    1    2  502    0 -0.94273154255E+01 -0.19109805966E+02 -0.22857807397E+03  0.22956915050E+03  0.00000000000E+00 0.  1.
         -1    1    1    2    0  501  0.94273154255E+01  0.19109805966E+02 -0.81258397595E+02  0.84005869675E+02  0.00000000000E+00 0. -1.
</event>
<event>
 4    1  0.6769686E+001  0.3635271E+02  0.7546771E-02  0.1371295E+00
          2   -1    0    0  502    0  0.00000000000E+00  0.00000000000E+00  0.13103040932E+04  0.13103040932E+04  0.00000000000E+00 0.  1.
         -2   -1    0    0    0  501 -0.00000000000E+00 -0.00000000000E+00 -0.10106533343E+01  0.10106533343E+01  0.00000000000E+00 0. -1.
          1    1    1    2  502    0  0.29487607654E+01 -0.36232920448E+02  0.68448963251E+03  0.68545428493E+03  0.00000000000E+00 0.  1.
         -1    1    1    2    0  501 -0.29487607654E+01  0.36232920448E+02  0.62480380731E+03  0.62586046156E+03  0.00000000000E+00 0. -1.
</event>
<event>
 4    1  0.6769686E+001  0.2125718E+02  0.7546771E-02  0.1515624E+00
          2   -1    0    0  502    0  0.00000000000E+00  0.00000000000E+00  0.13345948562E+04  0.13345948562E+04  0.00000000000E+00 0. -1.
         -2   -1    0    0    0  501 -0.00000000000E+00 -0.00000000000E+00 -0.34161685386E+00  0.34161685386E+00  0.00000000000E+00 0.  1.
          1    1    1    2  502    0 -0.20970458415E+02 -0.34795950466E+01  0.60419893481E+03  0.60457275868E+03  0.00000000000E+00 0. -1.
         -1    1    1    2    0  501  0.20970458415E+02  0.34795950466E+01  0.73005430456E+03  0.73036371440E+03  0.00000000000E+00 0.  1.
</event>
<event>
 4    1  0.6769686E+001  0.2480496E+02  0.7546771E-02  0.1470997E+00
          2   -1    0    0  502    0  0.00000000000E+00  0.00000000000E+00  0.41141008301E+03  0.41141008301E+03  0.00000000000E+00 0. -1.
         -2   -1    0    0    0  501 -0.00000000000E+00 -0.00000000000E+00 -0.39248641504E+01  0.39248641504E+01  0.00000000000E+00 0.  1.
          1    1    1    2  502    0  0.21288907529E+02 -0.12730604172E+02  0.36712215178E+03  0.36795918278E+03  0.00000000000E+00 0. -1.
         -1    1    1    2    0  501 -0.21288907529E+02  0.12730604172E+02  0.40363067082E+02  0.47375764381E+02  0.00000000000E+00 0.  1.
</event>
<event>
 4    1  0.6769686E+001  0.2264736E+02  0.7546771E-02  0.1496974E+00
          2   -1    0    0  502    0  0.00000000000E+00  0.00000000000E+00  0.30718378742E+03  0.30718378742E+03  0.00000000000E+00 0.  1.
         -2   -1    0    0    0  501 -0.00000000000E+00 -0.00000000000E+00 -0.17292467875E+01  0.17292467875E+01  0.00000000000E+00 0. -1.
          1    1    1    2  502    0 -0.90132270314E+01 -0.20776539194E+02  0.12406373219E+03  0.12611388697E+03  0.00000000000E+00 0. -1.
         -1    1    1    2    0  501  0.90132270314E+01  0.20776539194E+02  0.18139080844E+03  0.18279914723E+03  0.00000000000E+00 0.  1.
</event>
<event>
 4    1  0.6769686E+001  0.2564053E+02  0.7546771E-02  0.1461764E+00
          2   -1    0    0  502    0  0.00000000000E+00  0.00000000000E+00  0.85040150103E+03  0.85040150103E+03  0.00000000000E+00 0. -1.
         -2   -1    0    0    0  501 -0.00000000000E+00 -0.00000000000E+00 -0.93624396781E+00  0.93624396781E+00  0.00000000000E+00 0.  1.
          1    1    1    2  502    0  0.36794692732E+01  0.25375153164E+02  0.24703722115E+03  0.24836430002E+03  0.00000000000E+00 0.  1.
         -1    1    1    2    0  501 -0.36794692732E+01 -0.25375153164E+02  0.60242803592E+03  0.60297344498E+03  0.00000000000E+00 0. -1.
</event>
<event>
 4    1  0.6769686E+001  0.3165014E+02  0.7546771E-02  0.1405779E+00
          2   -1    0    0  502    0  0.00000000000E+00  0.00000000000E+00  0.79603034945E+02  0.79603034945E+02  0.00000000000E+00 0. -1.
         -2   -1    0    0    0  501 -0.00000000000E+00 -0.00000000000E+00 -0.18931145808E+02  0.18931145808E+02  0.00000000000E+00 0.  1.
          1    1    1    2  502    0  0.29546241311E+02  0.11346857144E+02  0.58862853413E+02  0.66832380285E+02  0.00000000000E+00 0. -1.
         -1    1    1    2    0  501 -0.29546241311E+02 -0.11346857144E+02  0.18090357243E+01  0.31701800468E+02  0.00000000000E+00 0.  1.
</event>
<event>
 4    1  0.6769686E+001  0.3647573E+02  0.7546771E-02  0.1370475E+00
          2   -1    0    0  502    0  0.00000000000E+00  0.00000000000E+00  0.50289407840E+02  0.50289407840E+02  0.00000000000E+00 0.  1.
         -2   -1    0    0    0  501 -0.00000000000E+00 -0.00000000000E+00 -0.30828871906E+02  0.30828871906E+02  0.00000000000E+00 0. -1.
          1    1    1    2  502    0 -0.15458105364E+02 -0.33038249266E+02  0.25004916124E+02  0.44223577041E+02  0.00000000000E+00 0.  1.
         -1    1    1    2    0  501  0.15458105364E+02  0.33038249266E+02 -0.55443801908E+01  0.36894702705E+02  0.00000000000E+00 0. -1.
</event>
<event>
 4    1  0.6769686E+001  0.2696034E+02  0.7546771E-02  0.1448007E+00
          2   -1    0    0  502    0  0.00000000000E+00  0.00000000000E+00  0.65109080278E+03  0.65109080278E+03  0.00000000000E+00 0. -1.
         -2   -1    0    0    0  501 -0.00000000000E+00 -0.00000000000E+00 -0.11374711421E+01  0.11374711421E+01  0.00000000000E+00 0.  1.
          1    1    1    2  502    0 -0.14477555791E+02 -0.22743358621E+02  0.36939117364E+03  0.37037372901E+03  0.00000000000E+00 0.  1.
         -1    1    1    2    0  501  0.14477555791E+02  0.22743358621E+02  0.28056215800E+03  0.28185454490E+03  0.00000000000E+00 0. -1.
</event>
<event>
 4    1  0.6769686E+001  0.7310109E+02  0.7546771E-02  0.1220838E+00
          2   -1    0    0  502    0  0.00000000000E+00  0.00000000000E+00  0.24934625414E+03  0.24934625414E+03  0.00000000000E+00 0. -1.
         -2   -1    0    0    0  501 -0.00000000000E+00 -0.00000000000E+00 -0.24083633538E+02  0.24083633538E+02  0.00000000000E+00 0.  1.
          1    1    1    2  502    0  0.14735105626E+02  0.71600598792E+02  0.67259728330E+02  0.99335996196E+02  0.00000000000E+00 0.  1.
         -1    1    1    2    0  501 -0.14735105626E+02 -0.71600598792E+02  0.15800289227E+03  0.17409389148E+03  0.00000000000E+00 0. -1.
</event>
<event>
 4    1  0.6769686E+001  0.2683112E+02  0.7546771E-02  0.1449312E+00
          2   -1    0    0  502    0  0.00000000000E+00  0.00000000000E+00  0.19967912662E+03  0.19967912662E+03  0.00000000000E+00 0.  1.
         -2   -1    0    0    0  501 -0.00000000000E+00 -0.00000000000E+00 -0.48993845013E+01  0.48993845013E+01  0.00000000000E+00 0. -1.
          1    1    1    2  502    0  0.24683369590E+02 -0.10518558052E+02  0.44820130703E+02  0.52237466574E+02  0.00000000000E+00 0. -1.
         -1    1    1    2    0  501 -0.24683369590E+02  0.10518558052E+02  0.14995961141E+03  0.15234104455E+03  0.00000000000E+00 0.  1.
</event>
<event>
 4    1  0.6769686E+001  0.4014707E+02  0.7546771E-02  0.1347626E+00
          2   -1    0    0  502    0  0.00000000000E+00  0.00000000000E+00  0.80711381843E+02  0.80711381843E+02  0.00000000000E+00 0.  1.
         -2   -1    0    0    0  501 -0.00000000000E+00 -0.00000000000E+00 -0.32922832933E+02  0.32922832933E+02  0.00000000000E+00 0. -1.
          1    1    1    2  502    0  0.25572417146E+02  0.30948968159E+02 -0.11744017343E+02  0.41829524168E+02  0.00000000000E+00 0. -1.
         -1    1    1    2    0  501 -0.25572417146E+02 -0.30948968159E+02  0.59532566253E+02  0.71804690609E+02  0.00000000000E+00 0.  1.
</event>
<event>
 4    1  0.6769686E+001  0.3102842E+02  0.7546771E-02  0.1410865E+00
          2   -1    0    0  502    0  0.00000000000E+00  0.00000000000E+00  0.13946269070E+02  0.13946269070E+02  0.00000000000E+00 0. -1.
         -2   -1    0    0    0  501 -0.00000000000E+00 -0.00000000000E+00 -0.69060860533E+02  0.69060860533E+02  0.00000000000E+00 0.  1.
          1    1    1    2  502    0 -0.30927321585E+02 -0.25026969298E+01 -0.28380198240E+02  0.42049950826E+02  0.00000000000E+00 0. -1.
         -1    1    1    2    0  501  0.30927321585E+02  0.25026969298E+01 -0.26734393223E+02  0.40957178776E+02  0.00000000000E+00 0.  1.
</event>
<event>
 4    1  0.6769686E+001  0.2002137E+02  0.7546771E-02  0.1533709E+00
          2   -1    0    0  502    0  0.00000000000E+00  0.00000000000E+00  0.10871878318E+03  0.10871878318E+03  0.00000000000E+00 0. -1.
         -2   -1    0    0    0  501 -0.00000000000E+00 -0.00000000000E+00 -0.37299781805E+01  0.37299781805E+01  0.00000000000E+00 0.  1.
          1    1    1    2  502    0  0.80774609968E+01 -0.18319658132E+02  0.46465026254E+02  0.50594998913E+02  0.00000000000E+00 0. -1.
         -1    1    1    2    0  501 -0.80774609968E+01  0.18319658132E+02  0.58523778747E+02  0.61853762449E+02  0.00000000000E+00 0.  1.
</event>
<event>
 4    1  0.6769686E+001  0.2200950E+02  0.7546771E-02  0.1505325E+00
          2   -1    0    0  502    0  0.00000000000E+00  0.00000000000E+00  0.17955129822E+02  0.17955129822E+02  0.00000000000E+00 0. -1.
         -2   -1    0    0    0  501 -0.00000000000E+00 -0.00000000000E+00 -0.58264889531E+02  0.58264889531E+02  0.00000000000E+00 0.  1.
          1    1    1    2  502    0  0.12487772990E+01  0.21974048817E+02  0.77710223793E+01  0.23341102266E+02  0.00000000000E+00 0. -1.
         -1    1    1    2    0  501 -0.12487772990E+01 -0.21974048817E+02 -0.48080782088E+02  0.52878917088E+02  0.00000000000E+00 0.  1.
</event>
<event>
 4    1  0.6769686E+001  0.2255913E+02  0.7546771E-02  0.1498110E+00
          2   -1    0    0  502    0  0.00000000000E+00  0.00000000000E+00  0.20790119510E+02  0.20790119510E+02  0.00000000000E+00 0.  1.
         -2   -1    0    0    0  501 -0.00000000000E+00 -0.00000000000E+00 -0.24788926390E+02  0.24788926390E+02  0.00000000000E+00 0. -1.
          1    1    1    2  502    0  0.20781091744E+01  0.22463211717E+02 -0.45489834213E+01  0.23013206394E+02  0.00000000000E+00 0. -1.
         -1    1    1    2    0  501 -0.20781091744E+01 -0.22463211717E+02  0.55017654131E+00  0.22565839506E+02  0.00000000000E+00 0.  1.
</event>
<event>
 4    1  0.6769686E+001  0.2816648E+02  0.7546771E-02  0.1436230E+00
          2   -1    0    0  502    0  0.00000000000E+00  0.00000000000E+00  0.14414532871E+02  0.14414532871E+02  0.00000000000E+00 0. -1.
         -2   -1    0    0    0  501 -0.00000000000E+00 -0.00000000000E+00 -0.10049464198E+03  0.10049464198E+03  0.00000000000E+00 0.  1.
          1    1    1    2  502    0  0.27192747962E+02  0.73420061039E+01 -0.81681268364E+02  0.86401274278E+02  0.00000000000E+00 0.  1.
         -1    1    1    2    0  501 -0.27192747962E+02 -0.73420061039E+01 -0.43988407494E+01  0.28507900577E+02  0.00000000000E+00 0. -1.
</event>
<event>
 4    1  0.6769686E+001  0.2023614E+02  0.7546771E-02  0.1530456E+00
          2   -1    0    0  502    0  0.00000000000E+00  0.00000000000E+00  0.96286788175E+00  0.96286788175E+00  0.00000000000E+00 0.  1.
         -2   -1    0    0    0  501 -0.00000000000E+00 -0.00000000000E+00 -0.43285640250E+03  0.43285640250E+03  0.00000000000E+00 0. -1.
          1    1    1    2  502    0  0.10876910203E+02 -0.17064413188E+02 -0.18727506287E+03  0.18836520524E+03  0.00000000000E+00 0.  1.
         -1    1    1    2    0  501 -0.10876910203E+02  0.17064413188E+02 -0.24461847175E+03  0.24545406514E+03  0.00000000000E+00 0. -1.
</event>
<event>
 4    1  0.6769686E+001  0.2013688E+02  0.7546771E-02  0.1531954E+00
          2   -1    0    0  502    0  0.00000000000E+00  0.00000000000E+00  0.29039451750E+03  0.29039451750E+03  0.00000000000E+00 0.  1.
         -2   -1    0    0    0  501 -0.00000000000E+00 -0.00000000000E+00 -0.16459638115E+01  0.16459638115E+01  0.00000000000E+00 0. -1.
          1    1    1    2  502    0  0.20125462052E+02 -0.67793181887E+00  0.87510861460E+02  0.89797798903E+02  0.00000000000E+00 0. -1.
         -1    1    1    2    0  501 -0.20125462052E+02  0.67793181887E+00  0.20123769222E+03  0.20224268240E+03  0.00000000000E+00 0.  1.
</event>
<event>
 4    1  0.6769686E+001  0.2229830E+02  0.7546771E-02  0.1501503E+00
          2   -1    0    0  502    0  0.00000000000E+00  0.00000000000E+00  0.25791339973E+03  0.25791339973E+03  0.00000000000E+00 0.  1.
         -2   -1    0    0    0  501 -0.00000000000E+00 -0.00000000000E+00 -0.20637857640E+01  0.20637857640E+01  0.00000000000E+00 0. -1.
          1    1    1    2  502    0  0.18754402846E+02 -0.12061775818E+02  0.94561711047E+02  0.97155191617E+02  0.00000000000E+00 0. -1.
         -1    1    1    2    0  501 -0.18754402846E+02  0.12061775818E+02  0.16128790292E+03  0.16282199388E+03  0.00000000000E+00 0.  1.
</event>
<event>
 4    1  0.6769686E+001  0.2302915E+02  0.7546771E-02  0.1492132E+00
          2   -1    0    0  502    0  0.00000000000E+00  0.00000000000E+00  0.12441186395E+04  0.12441186395E+04  0.00000000000E+00 0. -1.
         -2   -1    0    0    0  501 -0.00000000000E+00 -0.00000000000E+00 -0.43167729669E+00  0.43167729669E+00  0.00000000000E+00 0.  1.
          1    1    1    2  502    0  0.18606475616E+02  0.13569849002E+02  0.69143052910E+03  0.69181393330E+03  0.00000000000E+00 0. -1.
         -1    1    1    2    0  501 -0.18606475616E+02 -0.13569849002E+02  0.55225643314E+03  0.55273638354E+03  0.00000000000E+00 0.  1.
</event>
<event>
 4    1  0.6769686E+001  0.2016986E+02  0.7546771E-02  0.1531455E+00
          2   -1    0    0  502    0  0.00000000000E+00  0.00000000000E+00  0.81056960908E+01  0.81056960908E+01  0.00000000000E+00 0.  1.
         -2   -1    0    0    0  501 -0.00000000000E+00 -0.00000000000E+00 -0.11300970926E+03  0.11300970926E+03  0.00000000000E+00 0. -1.
          1    1    1    2  502    0  0.49169715340E+01  0.19561354072E+02 -0.97602260866E+02  0.99664559941E+02  0.00000000000E+00 0. -1.
         -1    1    1    2    0  501 -0.49169715340E+01 -0.19561354072E+02 -0.73017523067E+01  0.21450845413E+02  0.00000000000E+00 0.  1.
</event>
<event>
 4    1  0.6769686E+001  0.2830863E+02  0.7546771E-02  0.1434888E+00
          2   -1    0    0  502    0  0.00000000000E+00  0.00000000000E+00  0.33898951220E+03  0.33898951220E+03  0.00000000000E+00 0.  1.
         -2   -1    0    0    0  501 -0.00000000000E+00 -0.00000000000E+00 -0.23996860937E+01  0.23996860937E+01  0.00000000000E+00 0. -1.
          1    1    1    2  502    0  0.65173743252E+01  0.27548185961E+02  0.18910420019E+03  0.19121134184E+03  0.00000000000E+00 0.  1.
         -1    1    1    2    0  501 -0.65173743252E+01 -0.27548185961E+02  0.14748562591E+03  0.15017785645E+03  0.00000000000E+00 0. -1.
</event>
<event>
 4    1  0.6769686E+001  0.2144819E+02  0.7546771E-02  0.1512961E+00
          2   -1    0    0  502    0  0.00000000000E+00  0.00000000000E+00  0.13726429306E+01  0.13726429306E+01  0.00000000000E+00 0. -1.
         -2   -1    0    0    0  501 -0.00000000000E+00 -0.00000000000E+00 -0.42226400563E+03  0.42226400563E+03  0.00000000000E+00 0.  1.
          1    1    1    2  502    0  0.85038206772E+01  0.19690351939E+02 -0.11423015012E+03  0.11622629703E+03  0.00000000000E+00 0. -1.
         -1    1    1    2    0  501 -0.85038206772E+01 -0.19690351939E+02 -0.30666121259E+03  0.30741035153E+03  0.00000000000E+00 0.  1.
</event>
<event>
 4    1  0.6769686E+001  0.2348319E+02  0.7546771E-02  0.1486518E+00
          2   -1    0    0  502    0  0.00000000000E+00  0.00000000000E+00  0.68088219056E+01  0.68088219056E+01  0.00000000000E+00 0.  1.
         -2   -1    0    0    0  501 -0.00000000000E+00 -0.00000000000E+00 -0.99456558135E+02  0.99456558135E+02  0.00000000000E+00 0. -1.
          1    1    1    2  502    0 -0.10707814631E+02 -0.20899836047E+02 -0.23430274546E+02  0.33172853453E+02  0.00000000000E+00 0.  1.
         -1    1    1    2    0  501  0.10707814631E+02  0.20899836047E+02 -0.69217461684E+02  0.73092526587E+02  0.00000000000E+00 0. -1.
</event>
<event>
 4    1  0.6769686E+001  0.3290041E+02  0.7546771E-02  0.1395957E+00
          2   -1    0    0  502    0  0.00000000000E+00  0.00000000000E+00  0.54958716542E+01  0.54958716542E+01  0.00000000000E+00 0. -1.
         -2   -1    0    0    0  501 -0.00000000000E+00 -0.00000000000E+00 -0.19815611357E+03  0.19815611357E+03  0.00000000000E+00 0.  1.
          1    1    1    2  502    0 -0.31278280437E+02  0.10203253015E+02 -0.10425913868E+03  0.10932705611E+03  0.00000000000E+00 0. -1.
         -1    1    1    2    0  501  0.31278280437E+02 -0.10203253015E+02 -0.88401103227E+02  0.94324929107E+02  0.00000000000E+00 0.  1.
</event>
<event>
 4    1  0.6769686E+001  0.2541420E+02  0.7546771E-02  0.1464223E+00
          2   -1    0    0  502    0  0.00000000000E+00  0.00000000000E+00  0.26241196050E+04  0.26241196050E+04  0.00000000000E+00 0. -1.
         -2   -1    0    0    0  501 -0.00000000000E+00 -0.00000000000E+00 -0.24989471176E+00  0.24989471176E+00  0.00000000000E+00 0.  1.
          1    1    1    2  502    0 -0.50619996537E+01  0.24904977631E+02  0.11509354925E+04  0.11512160482E+04  0.00000000000E+00 0.  1.
         -1    1    1    2    0  501  0.50619996537E+01 -0.24904977631E+02  0.14729342178E+04  0.14731534515E+04  0.00000000000E+00 0. -1.
</event>
<event>
 4    1  0.6769686E+001  0.2347675E+02  0.7546771E-02  0.1486597E+00
          2   -1    0    0  502    0  0.00000000000E+00  0.00000000000E+00  0.53727220068E+02  0.53727220068E+02  0.00000000000E+00 0. -1.
         -2   -1    0    0    0  501 -0.00000000000E+00 -0.00000000000E+00 -0.13147472889E+02  0.13147472889E+02  0.00000000000E+00 0.  1.
          1    1    1    2  502    0  0.69162406460E+01  0.22434866325E+02  0.46156261304E+01  0.23926170113E+02  0.00000000000E+00 0.  1.
         -1    1    1    2    0  501 -0.69162406460E+01 -0.22434866325E+02  0.35964121049E+02  0.42948522844E+02  0.00000000000E+00 0. -1.
</event>
<event>
 4    1  0.6769686E+001  0.3476141E+02  0.7546771E-02  0.1382248E+00
          2   -1    0    0  502    0  0.00000000000E+00  0.00000000000E+00  0.42147697501E+03  0.42147697501E+03  0.00000000000E+00 0.  1.
         -2   -1    0    0    0  501 -0.00000000000E+00 -0.00000000000E+00 -0.31725671098E+01  0.31725671098E+01  0.00000000000E+00 0. -1.
          1    1    1    2  502    0  0.34617040696E+02 -0.31648426873E+01  0.14325299931E+03  0.14741023555E+03  0.00000000000E+00 0. -1.
         -1    1    1    2    0  501 -0.34617040696E+02  0.31648426873E+01  0.27505140860E+03  0.27723930657E+03  0.00000000000E+00 0.  1.
</event>
<event>
 4    1  0.6769686E+001  0.2404984E+02  0.7546771E-02  0.1479720E+00
          2   -1    0    0  502    0  0.00000000000E+00  0.00000000000E+00  0.49520121166E+03  0.49520121166E+03  0.00000000000E+00 0. -1.
         -2   -1    0    0    0  501 -0.00000000000E+00 -0.00000000000E+00 -0.16590786926E+01  0.16590786926E+01  0.00000000000E+00 0.  1.
          1    1    1    2  502    0 -0.83505285166E+01 -0.22553568692E+02  0.38193055802E+03  0.38268700780E+03  0.00000000000E+00 0. -1.
         -1    1    1    2    0  501  0.83505285166E+01  0.22553568692E+02  0.11161157495E+03  0.11417328256E+03  0.00000000000E+00 0.  1.
</event>
<event>
 4    1  0.6769686E+001  0.2268261E+02  0.7546771E-02  0.1496523E+00
          2   -1    0    0  502    0  0.00000000000E+00  0.00000000000E+00  0.68301907205E+03  0.68301907205E+03  0.00000000000E+00 0.  1.
         -2   -1    0    0    0  501 -0.00000000000E+00 -0.00000000000E+00 -0.91355556138E+00  0.91355556138E+00  0.00000000000E+00 0. -1.
          1    1    1    2  502    0  0.96229138013E+01  0.20540212064E+02  0.48429037435E+03  0.48482127374E+03  0.00000000000E+00 0.  1.
         -1    1    1    2    0  501 -0.96229138013E+01 -0.20540212064E+02  0.19781514214E+03  0.19911135388E+03  0.00000000000E+00 0. -1.
</event>
<event>
 4    1  0.6769686E+001  0.2180268E+02  0.7546771E-02  0.1508106E+00
          2   -1    0    0  502    0  0.00000000000E+00  0.00000000000E+00  0.72843607166E+03  0.72843607166E+03  0.00000000000E+00 0. -1.
         -2   -1    0    0    0  501 -0.00000000000E+00 -0.00000000000E+00 -0.10584067045E+01  0.10584067045E+01  0.00000000000E+00 0.  1.
          1    1    1    2  502    0 -0.60980917216E+01  0.20932517669E+02  0.58954933400E+03  0.58995234913E+03  0.00000000000E+00 0. -1.
         -1    1    1    2    0  501  0.60980917216E+01 -0.20932517669E+02  0.13782833096E+03  0.13954212924E+03  0.00000000000E+00 0.  1.
</event>
<event>
 4    1  0.6769686E+001  0.3282174E+02  0.7546771E-02  0.1396560E+00
          2   -1    0    0  502    0  0.00000000000E+00  0.00000000000E+00  0.29139121930E+04  0.29139121930E+04  0.00000000000E+00 0.  1.
         -2   -1    0    0    0  501 -0.00000000000E+00 -0.00000000000E+00 -0.37098165375E+00  0.37098165375E+00  0.00000000000E+00 0. -1.
          1    1    1    2  502    0 -0.48625772622E+01  0.32459540466E+02  0.13710446245E+04  0.13714374316E+04  0.00000000000E+00 0. -1.
         -1    1    1    2    0  501  0.48625772622E+01 -0.32459540466E+02  0.15424965868E+04  0.15428457430E+04  0.00000000000E+00 0.  1.
</event>
<event>
 4    1  0.6769686E+001  0.2481603E+02  0.7546771E-02  0.1470872E+00
          2   -1    0    0  502    0  0.00000000000E+00  0.00000000000E+00  0.20768312376E+02  0.20768312376E+02  0.00000000000E+00 0. -1.
         -2   -1    0    0    0  501 -0.00000000000E+00 -0.00000000000E+00 -0.51346963128E+02  0.51346963128E+02  0.00000000000E+00 0.  1.
          1    1    1    2  502    0  0.24417294095E+02  0.44307062187E+01  0.81482609809E+01  0.26119524603E+02  0.00000000000E+00 0. -1.
         -1    1    1    2    0  501 -0.24417294095E+02 -0.44307062187E+01 -0.38726911733E+02  0.45995750900E+02  0.00000000000E+00 0.  1.
</event>
<event>
 4    1  0.6769686E+001  0.2462814E+02  0.7546771E-02  0.1473007E+00
          2   -1    0    0  502    0  0.00000000000E+00  0.00000000000E+00  0.35976450037E+01  0.35976450037E+01  0.00000000000E+00 0.  1.
         -2   -1    0    0    0  501 -0.00000000000E+00 -0.00000000000E+00 -0.39245437949E+03  0.39245437949E+03  0.00000000000E+00 0. -1.
          1    1    1    2  502    0 -0.43696220094E+01  0.24237400213E+02 -0.44868440334E+02  0.51183220918E+02  0.00000000000E+00 0.  1.
         -1    1    1    2    0  501  0.43696220094E+01 -0.24237400213E+02 -0.34398829415E+03  0.34486880358E+03  0.00000000000E+00 0. -1.
</event>
<event>
 4    1  0.6769686E+001  0.2461245E+02  0.7546771E-02  0.1473186E+00
          2   -1    0    0  502    0  0.00000000000E+00  0.00000000000E+00  0.63562789975E+01  0.63562789975E+01  0.00000000000E+00 0. -1.
         -2   -1    0    0    0  501 -0.00000000000E+00 -0.00000000000E+00 -0.16422913693E+03  0.16422913693E+03  0.00000000000E+00 0.  1.
          1    1    1    2  502    0  0.18425320647E+02  0.16318100045E+02 -0.23680538475E+02  0.34154659016E+02  0.00000000000E+00 0. -1.
         -1    1    1    2    0  501 -0.18425320647E+02 -0.16318100045E+02 -0.13419231946E+03  0.13643075692E+03  0.00000000000E+00 0.  1.
</event>
<event>
 4    1  0.6769686E+001  0.3089884E+02  0.7546771E-02  0.1411943E+00
          2   -1    0    0  502    0  0.00000000000E+00  0.00000000000E+00  0.25434249472E+03  0.25434249472E+03  0.00000000000E+00 0. -1.
         -2   -1    0    0    0  501 -0.00000000000E+00 -0.00000000000E+00 -0.41044001139E+01  0.41044001139E+01  0.00000000000E+00 0.  1.
          1    1    1    2  502    0 -0.19766094819E+02 -0.23749516126E+02  0.87348458134E+02  0.92652529156E+02  0.00000000000E+00 0.  1.
         -1    1    1    2    0  501  0.19766094819E+02  0.23749516126E+02  0.16288963648E+03  0.16579436568E+03  0.00000000000E+00 0. -1.
</event>
<event>
 4    1  0.6769686E+001  0.6890775E+02  0.7546771E-02  0.1232242E+00
          2   -1    0    0  502    0  0.00000000000E+00  0.00000000000E+00  0.10150909768E+04  0.10150909768E+04  0.00000000000E+00 0.  1.
         -2   -1    0    0    0  501 -0.00000000000E+00 -0.00000000000E+00 -0.11503821755E+02  0.11503821755E+02  0.00000000000E+00 0. -1.
          1    1    1    2  502    0  0.53288101765E+02  0.43688168757E+02  0.89719244417E+03  0.89983474025E+03  0.00000000000E+00 0.  1.
         -1    1    1    2    0  501 -0.53288101765E+02 -0.43688168757E+02  0.10639471085E+03  0.12676005828E+03  0.00000000000E+00 0. -1.
</event>
<event>
 4    1  0.6769686E+001  0.2086567E+02  0.7546771E-02  0.1521191E+00
          2   -1    0    0  502    0  0.00000000000E+00  0.00000000000E+00  0.14798402799E+04  0.14798402799E+04  0.00000000000E+00 0. -1.
         -2   -1    0    0    0  501 -0.00000000000E+00 -0.00000000000E+00 -0.37515286979E+00  0.37515286979E+00  0.00000000000E+00 0.  1.
          1    1    1    2  502    0  0.99122788394E+01  0.18360909905E+02  0.10835229553E+04  0.10837238444E+04  0.00000000000E+00 0. -1.
         -1    1    1    2    0  501 -0.99122788394E+01 -0.18360909905E+02  0.39594217176E+03  0.39649158838E+03  0.00000000000E+00 0.  1.
</event>
<event>
 4    1  0.6769686E+001  0.3599886E+02  0.7546771E-02  0.1373674E+00
          2   -1    0    0  502    0  0.00000000000E+00  0.00000000000E+00  0.75008449603E+02  0.75008449603E+02  0.00000000000E+00 0. -1.
         -2   -1    0    0    0  501 -0.00000000000E+00 -0.00000000000E+00 -0.18826824872E+02  0.18826824872E+02  0.00000000000E+00 0.  1.
          1    1    1    2  502    0 -0.23754253857E+02  0.27049095001E+02  0.41552337312E+02  0.54977403110E+02  0.00000000000E+00 0. -1.
         -1    1    1    2    0  501  0.23754253857E+02 -0.27049095001E+02  0.14629287419E+02  0.38857871365E+02  0.00000000000E+00 0.  1.
</event>
<event>
 4    1  0.6769686E+001  0.2457206E+02  0.7546771E-02  0.1473648E+00
          2   -1    0    0  502    0  0.00000000000E+00  0.00000000000E+00  0.14441886563E+04  0.14441886563E+04  0.00000000000E+00 0. -1.
         -2   -1    0    0    0  501 -0.00000000000E+00 -0.00000000000E+00 -0.43575407221E+00  0.43575407221E+00  0.00000000000E+00 0.  1.
          1    1    1    2  502    0 -0.24243951347E+02 -0.40021193263E+01  0.86734688321E+03  0.86769487837E+03  0.00000000000E+00 0. -1.
         -1    1    1    2    0  501  0.24243951347E+02  0.40021193263E+01  0.57640601905E+03  0.57692953203E+03  0.00000000000E+00 0.  1.
</event>
<event>
 4    1  0.6769686E+001  0.4434469E+02  0.7546771E-02  0.1324749E+00
          2   -1    0    0  502    0  0.00000000000E+00  0.00000000000E+00  0.46853895768E+03  0.46853895768E+03  0.00000000000E+00 0. -1.
         -2   -1    0    0    0  501 -0.00000000000E+00 -0.00000000000E+00 -0.19134805372E+02  0.19134805372E+02  0.00000000000E+00 0.  1.
          1    1    1    2  502    0 -0.36880907084E+02  0.24622152957E+02  0.92597825016E+01  0.45301162188E+02  0.00000000000E+00 0.  1.
         -1    1    1    2    0  501  0.36880907084E+02 -0.24622152957E+02  0.44014436981E+03  0.44237260087E+03  0.00000000000E+00 0. -1.
</event>
<event>
 4    1  0.6769686E+001  0.5684548E+02  0.7546771E-02  0.1270944E+00
          2   -1    0    0  502    0  0.00000000000E+00  0.00000000000E+00  0.94951978488E+03  0.94951978488E+03  0.00000000000E+00 0.  1.
         -2   -1    0    0    0  501 -0.00000000000E+00 -0.00000000000E+00 -0.95919064317E+01  0.95919064317E+01  0.00000000000E+00 0. -1.
          1    1    1    2  502    0  0.50519343385E+02  0.26061545868E+02  0.84763679591E+02  0.10206022539E+03  0.00000000000E+00 0. -1.
         -1    1    1    2    0  501 -0.50519343385E+02 -0.26061545868E+02  0.85516419886E+03  0.85705146592E+03  0.00000000000E+00 0.  1.
</event>
<event>
 4    1  0.6769686E+001  0.4274883E+02  0.7546771E-02  0.1333089E+00
          2   -1    0    0  502    0  0.00000000000E+00  0.00000000000E+00  0.36363867218E+01  0.36363867218E+01  0.00000000000E+00 0. -1.
         -2   -1    0    0    0  501 -0.00000000000E+00 -0.00000000000E+00 -0.18405225130E+04  0.18405225130E+04  0.00000000000E+00 0.  1.
          1    1    1    2  502    0 -0.32175297543E+02  0.28146271496E+02 -0.13226387963E+03  0.13900070584E+03  0.00000000000E+00 0. -1.
         -1    1    1    2    0  501  0.32175297543E+02 -0.28146271496E+02 -0.17046222466E+04  0.17051581938E+04  0.00000000000E+00 0.  1.
</event>
<event>
 4    1  0.6769686E+001  0.5416753E+02  0.7546771E-02  0.1281049E+00
          2   -1    0    0  502    0  0.00000000000E+00  0.00000000000E+00  0.22340587997E+04  0.22340587997E+04  0.00000000000E+00 0. -1.
         -2   -1    0    0    0  501 -0.00000000000E+00 -0.00000000000E+00 -0.14624178110E+01  0.14624178110E+01  0.00000000000E+00 0.  1.
          1    1    1    2  502    0  0.79403079208E+01 -0.53582389999E+02  0.14731533983E+04  0.14741489260E+04  0.00000000000E+00 0.  1.
         -1    1    1    2    0  501 -0.79403079208E+01  0.53582389999E+02  0.75944298357E+03  0.76137229153E+03  0.00000000000E+00 0. -1.
</event>
<event>
 4    1  0.6769686E+001  0.4344882E+02  0.7546771E-02  0.1329380E+00
          2   -1    0    0  502    0  0.00000000000E+00  0.00000000000E+00  0.23630968832E+02  0.23630968832E+02  0.00000000000E+00 0. -1.
         -2   -1    0    0    0  501 -0.00000000000E+00 -0.00000000000E+00 -0.83127337451E+02  0.83127337451E+02  0.00000000000E+00 0.  1.
          1    1    1    2  502    0 -0.61514810786E+01  0.43011149106E+02 -0.40287593016E+02  0.59252762112E+02  0.00000000000E+00 0. -1.
         -1    1    1    2    0  501  0.61514810786E+01 -0.43011149106E+02 -0.19208775603E+02  0.47505544171E+02  0.00000000000E+00 0.  1.
</event>
<event>
 4    1  0.6769686E+001  0.2322601E+02  0.7546771E-02  0.1489679E+00
          2   -1    0    0  502    0  0.00000000000E+00  0.00000000000E+00  0.12594423195E+02  0.12594423195E+02  0.00000000000E+00 0. -1.
         -2   -1    0    0    0  501 -0.00000000000E+00 -0.00000000000E+00 -0.57534122587E+02  0.57534122587E+02  0.00000000000E+00 0.  1.
          1    1    1    2  502    0 -0.12965855207E+02 -0.19270037643E+02 -0.40194925538E+02  0.46422836956E+02  0.00000000000E+00 0.  1.
         -1    1    1    2    0  501  0.12965855207E+02  0.19270037643E+02 -0.47447738535E+01  0.23705708826E+02  0.00000000000E+00 0. -1.
</event>
<event>
 4    1  0.6769686E+001  0.2686789E+02  0.7546771E-02  0.1448940E+00
          2   -1    0    0  502    0  0.00000000000E+00  0.00000000000E+00  0.24729381651E+04  0.24729381651E+04  0.00000000000E+00 0. -1.
         -2   -1    0    0    0  501 -0.00000000000E+00 -0.00000000000E+00 -0.29763269322E+00  0.29763269322E+00  0.00000000000E+00 0.  1.
          1    1    1    2  502    0  0.80983979158E+01 -0.25618342450E+02  0.10648967008E+04  0.10652355922E+04  0.00000000000E+00 0.  1.
         -1    1    1    2    0  501 -0.80983979158E+01  0.25618342450E+02  0.14077438316E+04  0.14080002056E+04  0.00000000000E+00 0. -1.
</event>
<event>
 4    1  0.6769686E+001  0.3397450E+02  0.7546771E-02  0.1387920E+00
          2   -1    0    0  502    0  0.00000000000E+00  0.00000000000E+00  0.10727689180E+02  0.10727689180E+02  0.00000000000E+00 0.  1.
         -2   -1    0    0    0  501 -0.00000000000E+00 -0.00000000000E+00 -0.22380937453E+03  0.22380937453E+03  0.00000000000E+00 0. -1.
          1    1    1    2  502    0  0.33969280608E+02 -0.59535549384E+00 -0.19104316813E+03  0.19404061060E+03  0.00000000000E+00 0. -1.
         -1    1    1    2    0  501 -0.33969280608E+02  0.59535549384E+00 -0.22038517220E+02  0.40496453110E+02  0.00000000000E+00 0.  1.
</event>
<event>
 4    1  0.6769686E+001  0.4956901E+02  0.7546771E-02  0.1300052E+00
          2   -1    0    0  502    0  0.00000000000E+00  0.00000000000E+00  0.20824014590E+04  0.20824014590E+04  0.00000000000E+00 0. -1.
         -2   -1    0    0    0  501 -0.00000000000E+00 -0.00000000000E+00 -0.15642420342E+01  0.15642420342E+01  0.00000000000E+00 0.  1.
          1    1    1    2  502    0 -0.48947367241E+02 -0.78257304229E+01  0.52394171599E+03  0.52628130175E+03  0.00000000000E+00 0.  1.
         -1    1    1    2    0  501  0.48947367241E+02  0.78257304229E+01  0.15568955010E+04  0.15576843993E+04  0.00000000000E+00 0. -1.
</event>
<event>
 4    1  0.6769686E+001  0.6521076E+02  0.7546771E-02  0.1243087E+00
          2   -1    0    0  502    0  0.00000000000E+00  0.00000000000E+00  0.45484735301E+03  0.45484735301E+03  0.00000000000E+00 0. -1.
         -2   -1    0    0    0  501 -0.00000000000E+00 -0.00000000000E+00 -0.10112927160E+02  0.10112927160E+02  0.00000000000E+00 0.  1.
          1    1    1    2  502    0 -0.57391942870E+02  0.30961392150E+02  0.28625627531E+03  0.29359001697E+03  0.00000000000E+00 0.  1.
         -1    1    1    2    0  501  0.57391942870E+02 -0.30961392150E+02  0.15847815053E+03  0.17137026319E+03  0.00000000000E+00 0. -1.
</event>
<event>
 4    1  0.6769686E+001  0.5533045E+02  0.7546771E-02  0.1276580E+00
          2   -1    0    0  502    0  0.00000000000E+00  0.00000000000E+00  0.23010149314E+04  0.23010149314E+04  0.00000000000E+00 0. -1.
         -2   -1    0    0    0  501 -0.00000000000E+00 -0.00000000000E+00 -0.13548422123E+01  0.13548422123E+01  0.00000000000E+00 0.  1.
          1    1    1    2  502    0 -0.17232509461E+02  0.52578501238E+02  0.13041934139E+04  0.13053665842E+04  0.00000000000E+00 0. -1.
         -1    1    1    2    0  501  0.17232509461E+02 -0.52578501238E+02  0.99546667526E+03  0.99700318943E+03  0.00000000000E+00 0.  1.
</event>
<event>
 4    1  0.6769686E+001  0.3391832E+02  0.7546771E-02  0.1388331E+00
          2   -1    0    0  502    0  0.00000000000E+00  0.00000000000E+00  0.50328761780E+03  0.50328761780E+03  0.00000000000E+00 0.  1.
         -2   -1    0    0    0  501 -0.00000000000E+00 -0.00000000000E+00 -0.22872326879E+01  0.22872326879E+01  0.00000000000E+00 0. -1.
          1    1    1    2  502    0 -0.17225228226E+01  0.33874551732E+02  0.24434023640E+03  0.24668320467E+03  0.00000000000E+00 0. -1.
         -1    1    1    2    0  501  0.17225228226E+01 -0.33874551732E+02  0.25666014871E+03  0.25889164582E+03  0.00000000000E+00 0.  1.
</event>
<event>
 4    1  0.6769686E+001  0.4165783E+02  0.7546771E-02  0.1339036E+00
          2   -1    0    0  502    0  0.00000000000E+00  0.00000000000E+00  0.98218724382E+02  0.98218724382E+02  0.00000000000E+00 0.  1.
         -2   -1    0    0    0  501 -0.00000000000E+00 -0.00000000000E+00 -0.17720232504E+02  0.17720232504E+02  0.00000000000E+00 0. -1.
          1    1    1    2  502    0  0.22438704053E+02  0.35098137314E+02  0.43382302015E+02  0.60144815326E+02  0.00000000000E+00 0. -1.
         -1    1    1    2    0  501 -0.22438704053E+02 -0.35098137314E+02  0.37116189863E+02  0.55794141560E+02  0.00000000000E+00 0.  1.
</event>
<event>
 4    1  0.6769686E+001  0.2245670E+02  0.7546771E-02  0.1499435E+00
          2   -1    0    0  502    0  0.00000000000E+00  0.00000000000E+00  0.14037507807E+04  0.14037507807E+04  0.00000000000E+00 0. -1.
         -2   -1    0    0    0  501 -0.00000000000E+00 -0.00000000000E+00 -0.16708646307E+01  0.16708646307E+01  0.00000000000E+00 0.  1.
          1    1    1    2  502    0  0.12480415389E+02  0.18669290662E+02  0.78440896572E+02  0.81592140781E+02  0.00000000000E+00 0.  1.
         -1    1    1    2    0  501 -0.12480415389E+02 -0.18669290662E+02  0.13236390195E+04  0.13238295045E+04  0.00000000000E+00 0. -1.
</event>
<event>
 4    1  0.6769686E+001  0.4778711E+02  0.7546771E-02  0.1308063E+00
          2   -1    0    0  502    0  0.00000000000E+00  0.00000000000E+00  0.12613530355E+03  0.12613530355E+03  0.00000000000E+00 0. -1.
         -2   -1    0    0    0  501 -0.00000000000E+00 -0.00000000000E+00 -0.27898392413E+02  0.27898392413E+02  0.00000000000E+00 0.  1.
          1    1    1    2  502    0 -0.20496674501E+01 -0.47743134403E+02  0.34858439737E+01  0.47914080681E+02  0.00000000000E+00 0.  1.
         -1    1    1    2    0  501  0.20496674501E+01  0.47743134403E+02  0.94751067166E+02  0.10611961529E+03  0.00000000000E+00 0. -1.
</event>
<event>
 4    1  0.6769686E+001  0.2250308E+02  0.7546771E-02  0.1498834E+00
          2   -1    0    0  502    0  0.00000000000E+00  0.00000000000E+00  0.71971032687E+02  0.71971032687E+02  0.00000000000E+00 0. -1.
         -2   -1    0    0    0  501 -0.00000000000E+00 -0.00000000000E+00 -0.72724421348E+01  0.72724421348E+01  0.00000000000E+00 0.  1.
          1    1    1    2  502    0  0.19205286930E+02 -0.11727973224E+02  0.25205104264E+02  0.33788839621E+02  0.00000000000E+00 0. -1.
         -1    1    1    2    0  501 -0.19205286930E+02  0.11727973224E+02  0.39493486288E+02  0.45454635200E+02  0.00000000000E+00 0.  1.
</event>
<event>
 4    1  0.6769686E+001  0.2196502E+02  0.7546771E-02  0.1505920E+00
          2   -1    0    0  502    0  0.00000000000E+00  0.00000000000E+00  0.87023047664E+01  0.87023047664E+01  0.00000000000E+00 0. -1.
         -2   -1    0    0    0  501 -0.00000000000E+00 -0.00000000000E+00 -0.59971144606E+02  0.59971144606E+02  0.00000000000E+00 0.  1.
          1    1    1    2  502    0 -0.15482968631E+02 -0.15580106130E+02 -0.16196913804E+02  0.27291061567E+02  0.00000000000E+00 0. -1.
         -1    1    1    2    0  501  0.15482968631E+02  0.15580106130E+02 -0.35071926036E+02  0.41382387806E+02  0.00000000000E+00 0.  1.
</event>
<event>
 4    1  0.6769686E+001  0.2670176E+02  0.7546771E-02  0.1450627E+00
          2   -1    0    0  502    0  0.00000000000E+00  0.00000000000E+00  0.23487701817E+01  0.23487701817E+01  0.00000000000E+00 0. -1.
         -2   -1    0    0    0  501 -0.00000000000E+00 -0.00000000000E+00 -0.81443005168E+03  0.81443005168E+03  0.00000000000E+00 0.  1.
          1    1    1    2  502    0  0.26692169537E+02  0.71557025077E+00 -0.72948857211E+03  0.72997709608E+03  0.00000000000E+00 0.  1.
         -1    1    1    2    0  501 -0.26692169537E+02 -0.71557025077E+00 -0.82592709383E+02  0.86801725781E+02  0.00000000000E+00 0. -1.
</event>
<event>
 4    1  0.6769686E+001  0.2119653E+02  0.7546771E-02  0.1516477E+00
          2   -1    0    0  502    0  0.00000000000E+00  0.00000000000E+00  0.95476874385E+02  0.95476874385E+02  0.00000000000E+00 0. -1.
         -2   -1    0    0    0  501 -0.00000000000E+00 -0.00000000000E+00 -0.48915927892E+01  0.48915927892E+01  0.00000000000E+00 0.  1.
          1    1    1    2  502    0 -0.76585515101E+01 -0.19764596357E+02  0.35511581493E+02  0.41356560550E+02  0.00000000000E+00 0.  1.
         -1    1    1    2    0  501  0.76585515101E+01  0.19764596357E+02  0.55073700103E+02  0.59011906624E+02  0.00000000000E+00 0. -1.
</event>
<event>
 4    1  0.6769686E+001  0.2563956E+02  0.7546771E-02  0.1461774E+00
          2   -1    0    0  502    0  0.00000000000E+00  0.00000000000E+00  0.22415073958E+03  0.22415073958E+03  0.00000000000E+00 0.  1.
         -2   -1    0    0    0  501 -0.00000000000E+00 -0.00000000000E+00 -0.60153144776E+01  0.60153144776E+01  0.00000000000E+00 0. -1.
          1    1    1    2  502    0  0.16339996007E+02  0.19758325737E+02  0.19145029842E+03  0.19315952907E+03  0.00000000000E+00 0. -1.
         -1    1    1    2    0  501 -0.16339996007E+02 -0.19758325737E+02  0.26685126675E+02  0.37006524980E+02  0.00000000000E+00 0.  1.
</event>
<event>
 4    1  0.6769686E+001  0.2089998E+02  0.7546771E-02  0.1520698E+00
          2   -1    0    0  502    0  0.00000000000E+00  0.00000000000E+00  0.12141441991E+04  0.12141441991E+04  0.00000000000E+00 0. -1.
         -2   -1    0    0    0  501 -0.00000000000E+00 -0.00000000000E+00 -0.41482008348E+00  0.41482008348E+00  0.00000000000E+00 0.  1.
          1    1    1    2  502    0  0.17002490547E+02 -0.12154196771E+02  0.82809723656E+03  0.82836093727E+03  0.00000000000E+00 0. -1.
         -1    1    1    2    0  501 -0.17002490547E+02  0.12154196771E+02  0.38563214246E+03  0.38619808193E+03  0.00000000000E+00 0.  1.
</event>
<event>
 4    1  0.6769686E+001  0.2094612E+02  0.7546771E-02  0.1520035E+00
          2   -1    0    0  502    0  0.00000000000E+00  0.00000000000E+00  0.41167862683E+03  0.41167862683E+03  0.00000000000E+00 0. -1.
         -2   -1    0    0    0  501 -0.00000000000E+00 -0.00000000000E+00 -0.10658664664E+01  0.10658664664E+01  0.00000000000E+00 0.  1.
          1    1    1    2  502    0 -0.10518201101E+02 -0.18113734601E+02  0.20760649599E+03  0.20866048287E+03  0.00000000000E+00 0.  1.
         -1    1    1    2    0  501  0.10518201101E+02  0.18113734601E+02  0.20300626438E+03  0.20408401043E+03  0.00000000000E+00 0. -1.
</event>
<event>
 4    1  0.6769686E+001  0.2516186E+02  0.7546771E-02  0.1467001E+00
          2   -1    0    0  502    0  0.00000000000E+00  0.00000000000E+00  0.33880731992E+03  0.33880731992E+03  0.00000000000E+00 0. -1.
         -2   -1    0    0    0  501 -0.00000000000E+00 -0.00000000000E+00 -0.94278917454E+01  0.94278917454E+01  0.00000000000E+00 0.  1.
          1    1    1    2  502    0  0.25141868427E+02  0.10027055550E+01  0.87797235813E+01  0.26649624999E+02  0.00000000000E+00 0.  1.
         -1    1    1    2    0  501 -0.25141868427E+02 -0.10027055550E+01  0.32059970459E+03  0.32158558667E+03  0.00000000000E+00 0. -1.
</event>
<event>
 4    1  0.6769686E+001  0.2309517E+02  0.7546771E-02  0.1491307E+00
          2   -1    0    0  502    0  0.00000000000E+00  0.00000000000E+00  0.61033120500E+03  0.61033120500E+03  0.00000000000E+00 0.  1.
         -2   -1    0    0    0  501 -0.00000000000E+00 -0.00000000000E+00 -0.14603253390E+01  0.14603253390E+01  0.00000000000E+00 0. -1.
          1    1    1    2  502    0 -0.23086354933E+02  0.63805056686E+00  0.11059525179E+03  0.11298095685E+03  0.00000000000E+00 0. -1.
         -1    1    1    2    0  501  0.23086354933E+02 -0.63805056686E+00  0.49827562788E+03  0.49881057349E+03  0.00000000000E+00 0.  1.
</event>
<event>
 4    1  0.6769686E+001  0.4059006E+02  0.7546771E-02  0.1345062E+00
          2   -1    0    0  502    0  0.00000000000E+00  0.00000000000E+00  0.84940097117E+03  0.84940097117E+03  0.00000000000E+00 0. -1.
         -2   -1    0    0    0  501 -0.00000000000E+00 -0.00000000000E+00 -0.20076620106E+01  0.20076620106E+01  0.00000000000E+00 0.  1.
          1    1    1    2  502    0  0.37952483319E+02  0.14393118968E+02  0.34535198843E+03  0.34772913133E+03  0.00000000000E+00 0. -1.
         -1    1    1    2    0  501 -0.37952483319E+02 -0.14393118968E+02  0.50204132074E+03  0.50367950186E+03  0.00000000000E+00 0.  1.
</event>
<event>
 4    1  0.6769686E+001  0.2610536E+02  0.7546771E-02  0.1456808E+00
          2   -1    0    0  502    0  0.00000000000E+00  0.00000000000E+00  0.75762206282E+00  0.75762206282E+00  0.00000000000E+00 0.  1.
         -2   -1    0    0    0  501 -0.00000000000E+00 -0.00000000000E+00 -0.95105109735E+03  0.95105109735E+03  0.00000000000E+00 0. -1.
          1    1    1    2  502    0 -0.29226593890E+01 -0.25941239632E+02 -0.36436000626E+03  0.36529399669E+03  0.00000000000E+00 0.  1.
         -1    1    1    2    0  501  0.29226593890E+01  0.25941239632E+02 -0.58593346903E+03  0.58651472273E+03  0.00000000000E+00 0. -1.
</event>
<event>
 4    1  0.6769686E+001  0.2717231E+02  0.7546771E-02  0.1445885E+00
          2   -1    0    0  502    0  0.00000000000E+00  0.00000000000E+00  0.90784956997E+01  0.90784956997E+01  0.00000000000E+00 0.  1.
         -2   -1    0    0    0  501 -0.00000000000E+00 -0.00000000000E+00 -0.81769289305E+02  0.81769289305E+02  0.00000000000E+00 0. -1.
          1    1    1    2  502    0 -0.75320124204E+01 -0.26107527595E+02 -0.33007733527E+02  0.42753300234E+02  0.00000000000E+00 0.  1.
         -1    1    1    2    0  501  0.75320124204E+01  0.26107527595E+02 -0.39683060078E+02  0.48094484771E+02  0.00000000000E+00 0. -1.
</event>
<event>
 4    1  0.6769686E+001  0.2180625E+02  0.7546771E-02  0.1508058E+00
          2   -1    0    0  502    0  0.00000000000E+00  0.00000000000E+00  0.11231629430E+04  0.11231629430E+04  0.00000000000E+00 0. -1.
         -2   -1    0    0    0  501 -0.00000000000E+00 -0.00000000000E+00 -0.63749748515E+00  0.63749748515E+00  0.00000000000E+00 0.  1.
          1    1    1    2  502    0 -0.21440247863E+02 -0.39784982504E+01  0.88691709356E+03  0.88718512359E+03  0.00000000000E+00 0. -1.
         -1    1    1    2    0  501  0.21440247863E+02  0.39784982504E+01  0.23560835191E+03  0.23661531685E+03  0.00000000000E+00 0.  1.
</event>
<event>
 4    1  0.6769686E+001  0.2060430E+02  0.7546771E-02  0.1524990E+00
          2   -1    0    0  502    0  0.00000000000E+00  0.00000000000E+00  0.17171829079E+04  0.17171829079E+04  0.00000000000E+00 0.  1.
         -2   -1    0    0    0  501 -0.00000000000E+00 -0.00000000000E+00 -0.25134898005E+00  0.25134898005E+00  0.00000000000E+00 0. -1.
          1    1    1    2  502    0 -0.73790919506E+01  0.19237622346E+02  0.74852257914E+03  0.74880610881E+03  0.00000000000E+00 0.  1.
         -1    1    1    2    0  501  0.73790919506E+01 -0.19237622346E+02  0.96840897974E+03  0.96862814803E+03  0.00000000000E+00 0. -1.
</event>
<event>
 4    1  0.6769686E+001  0.2606341E+02  0.7546771E-02  0.1457250E+00
          2   -1    0    0  502    0  0.00000000000E+00  0.00000000000E+00  0.13456476610E+03  0.13456476610E+03  0.00000000000E+00 0.  1.
         -2   -1    0    0    0  501 -0.00000000000E+00 -0.00000000000E+00 -0.50807268951E+01  0.50807268951E+01  0.00000000000E+00 0. -1.
          1    1    1    2  502    0  0.10546573527E+02  0.23834242650E+02  0.59149887731E+02  0.64637532088E+02  0.00000000000E+00 0. -1.
         -1    1    1    2    0  501 -0.10546573527E+02 -0.23834242650E+02  0.70334151476E+02  0.75007960909E+02  0.00000000000E+00 0.  1.
</event>
<event>
 4    1  0.6769686E+001  0.2594452E+02  0.7546771E-02  0.1458509E+00
          2   -1    0    0  502    0  0.00000000000E+00  0.00000000000E+00  0.77159915375E+03  0.77159915375E+03  0.00000000000E+00 0.  1.
         -2   -1    0    0    0  501 -0.00000000000E+00 -0.00000000000E+00 -0.10684637251E+01  0.10684637251E+01  0.00000000000E+00 0. -1.
          1    1    1    2  502    0  0.16467310564E+02 -0.20048580010E+02  0.55077283500E+03  0.55138356310E+03  0.00000000000E+00 0.  1.
         -1    1    1    2    0  501 -0.16467310564E+02  0.20048580010E+02  0.21975785503E+03  0.22128405438E+03  0.00000000000E+00 0. -1.
</event>
<event>
 4    1  0.6769686E+001  0.2839951E+02  0.7546771E-02  0.1434035E+00
          2   -1    0    0  502    0  0.00000000000E+00  0.00000000000E+00  0.10768236605E+04  0.10768236605E+04  0.00000000000E+00 0.  1.
         -2   -1    0    0    0  501 -0.00000000000E+00 -0.00000000000E+00 -0.79284363269E+00  0.79284363269E+00  0.00000000000E+00 0. -1.
          1    1    1    2  502    0 -0.44112020414E+01  0.28054832145E+02  0.66473195763E+03  0.66533834085E+03  0.00000000000E+00 0.  1.
         -1    1    1    2    0  501  0.44112020414E+01 -0.28054832145E+02  0.41129885929E+03  0.41227816333E+03  0.00000000000E+00 0. -1.
</event>
<event>
 4    1  0.6769686E+001  0.2737042E+02  0.7546771E-02  0.1443922E+00
          2   -1    0    0  502    0  0.00000000000E+00  0.00000000000E+00  0.92150924959E+01  0.92150924959E+01  0.00000000000E+00 0. -1.
         -2   -1    0    0    0  501 -0.00000000000E+00 -0.00000000000E+00 -0.12079797364E+03  0.12079797364E+03  0.00000000000E+00 0.  1.
          1    1    1    2  502    0 -0.21070177510E+02 -0.17469618334E+02 -0.92965729568E+02  0.96911128459E+02  0.00000000000E+00 0.  1.
         -1    1    1    2    0  501  0.21070177510E+02  0.17469618334E+02 -0.18617151572E+02  0.33101937673E+02  0.00000000000E+00 0. -1.
</event>
<event>
 4    1  0.6769686E+001  0.3179715E+02  0.7546771E-02  0.1404596E+00
          2   -1    0    0  502    0  0.00000000000E+00  0.00000000000E+00  0.68138254501E+01  0.68138254501E+01  0.00000000000E+00 0. -1.
         -2   -1    0    0    0  501 -0.00000000000E+00 -0.00000000000E+00 -0.22315500907E+03  0.22315500907E+03  0.00000000000E+00 0.  1.
          1    1    1    2  502    0  0.30342339430E+02  0.95079520801E+01 -0.17472916105E+03  0.17759881316E+03  0.00000000000E+00 0.  1.
         -1    1    1    2    0  501 -0.30342339430E+02 -0.95079520801E+01 -0.41612022570E+02  0.52370021360E+02  0.00000000000E+00 0. -1.
</event>
<event>
 4    1  0.6769686E+001  0.4661418E+02  0.7546771E-02  0.1313560E+00
          2   -1    0    0  502    0  0.00000000000E+00  0.00000000000E+00  0.73505779008E+03  0.73505779008E+03  0.00000000000E+00 0.  1.
         -2   -1    0    0    0  501 -0.00000000000E+00 -0.00000000000E+00 -0.29739288613E+01  0.29739288613E+01  0.00000000000E+00 0. -1.
          1    1    1    2  502    0 -0.36073111955E+02 -0.29523081763E+02  0.39463858351E+03  0.39738204961E+03  0.00000000000E+00 0. -1.
         -1    1    1    2    0  501  0.36073111955E+02  0.29523081763E+02  0.33744527771E+03  0.34064966933E+03  0.00000000000E+00 0.  1.
</event>
<event>
 4    1  0.6769686E+001  0.2051468E+02  0.7546771E-02  0.1526308E+00
          2   -1    0    0  502    0  0.00000000000E+00  0.00000000000E+00  0.28357714650E+03  0.28357714650E+03  0.00000000000E+00 0.  1.
         -2   -1    0    0    0  501 -0.00000000000E+00 -0.00000000000E+00 -0.19433815629E+01  0.19433815629E+01  0.00000000000E+00 0. -1.
          1    1    1    2  502    0  0.12598310334E+02  0.16190570343E+02  0.71414257247E+02  0.74302409984E+02  0.00000000000E+00 0. -1.
         -1    1    1    2    0  501 -0.12598310334E+02 -0.16190570343E+02  0.21021950769E+03  0.21121811808E+03  0.00000000000E+00 0.  1.
</event>
<event>
 4    1  0.6769686E+001  0.2596018E+02  0.7546771E-02  0.1458342E+00
          2   -1    0    0  502    0  0.00000000000E+00  0.00000000000E+00  0.95577866660E+03  0.95577866660E+03  0.00000000000E+00 0. -1.
         -2   -1    0    0    0  501 -0.00000000000E+00 -0.00000000000E+00 -0.80037189327E+00  0.80037189327E+00  0.00000000000E+00 0.  1.
          1    1    1    2  502    0 -0.25674275173E+02  0.38421748489E+01  0.31248278274E+03  0.31355927704E+03  0.00000000000E+00 0.  1.
         -1    1    1    2    0  501  0.25674275173E+02 -0.38421748489E+01  0.64249551197E+03  0.64301976145E+03  0.00000000000E+00 0. -1.
</event>
<event>
 4    1  0.6769686E+001  0.3258302E+02  0.7546771E-02  0.1398401E+00
          2   -1    0    0  502    0  0.00000000000E+00  0.00000000000E+00  0.88332298838E+02  0.88332298838E+02  0.00000000000E+00 0.  1.
         -2   -1    0    0    0  501 -0.00000000000E+00 -0.00000000000E+00 -0.12041929061E+02  0.12041929061E+02  0.00000000000E+00 0. -1.
          1    1    1    2  502    0  0.17596164380E+02 -0.27423137764E+02  0.35948517951E+02  0.48517516719E+02  0.00000000000E+00 0. -1.
         -1    1    1    2    0  501 -0.17596164380E+02  0.27423137764E+02  0.40341851826E+02  0.51856711181E+02  0.00000000000E+00 0.  1.
</event>
<event>
 4    1  0.6769686E+001  0.2298531E+02  0.7546771E-02  0.1492683E+00
          2   -1    0    0  502    0  0.00000000000E+00  0.00000000000E+00  0.79063419396E+01  0.79063419396E+01  0.00000000000E+00 0. -1.
         -2   -1    0    0    0  501 -0.00000000000E+00 -0.00000000000E+00 -0.77873243253E+02  0.77873243253E+02  0.00000000000E+00 0.  1.
          1    1    1    2  502    0 -0.96041919998E+01  0.20882624663E+02 -0.18826918605E+02  0.29711569817E+02  0.00000000000E+00 0. -1.
         -1    1    1    2    0  501  0.96041919998E+01 -0.20882624663E+02 -0.51139982708E+02  0.56068015376E+02  0.00000000000E+00 0.  1.
</event>
<event>
 4    1  0.6769686E+001  0.2063459E+02  0.7546771E-02  0.1524546E+00
          2   -1    0    0  502    0  0.00000000000E+00  0.00000000000E+00  0.21247261841E+03  0.21247261841E+03  0.00000000000E+00 0. -1.
         -2   -1    0    0    0  501 -0.00000000000E+00 -0.00000000000E+00 -0.26905949283E+01  0.26905949283E+01  0.00000000000E+00 0.  1.
          1    1    1    2  502    0 -0.20272462743E+02 -0.38488393548E+01  0.50543797711E+02  0.54593605826E+02  0.00000000000E+00 0.  1.
         -1    1    1    2    0  501  0.20272462743E+02  0.38488393548E+01  0.15923822577E+03  0.16056960751E+03  0.00000000000E+00 0. -1.
</event>
<event>
 4    1  0.6769686E+001  0.2258507E+02  0.7546771E-02  0.1497775E+00
          2   -1    0    0  502    0  0.00000000000E+00  0.00000000000E+00  0.11870433272E+04  0.11870433272E+04  0.00000000000E+00 0. -1.
         -2   -1    0    0    0  501 -0.00000000000E+00 -0.00000000000E+00 -0.71719870352E+00  0.71719870352E+00  0.00000000000E+00 0.  1.
          1    1    1    2  502    0  0.52277941315E+01  0.21971703734E+02  0.96916386301E+03  0.96942698485E+03  0.00000000000E+00 0. -1.
         -1    1    1    2    0  501 -0.52277941315E+01 -0.21971703734E+02  0.21716226547E+03  0.21833354103E+03  0.00000000000E+00 0.  1.
</event>
<event>
 4    1  0.6769686E+001  0.3626453E+02  0.7546771E-02  0.1371885E+00
          2   -1    0    0  502    0  0.00000000000E+00  0.00000000000E+00  0.15963629177E+04  0.15963629177E+04  0.00000000000E+00 0. -1.
         -2   -1    0    0    0  501 -0.00000000000E+00 -0.00000000000E+00 -0.96546355377E+00  0.96546355377E+00  0.00000000000E+00 0.  1.
          1    1    1    2  502    0 -0.30872278707E+02 -0.19026783687E+02  0.49178828455E+03  0.49312354731E+03  0.00000000000E+00 0.  1.
         -1    1    1    2    0  501  0.30872278707E+02  0.19026783687E+02  0.11036091696E+04  0.11042048339E+04  0.00000000000E+00 0. -1.
</event>
<event>
 4    1  0.6769686E+001  0.2032466E+02  0.7546771E-02  0.1529129E+00
          2   -1    0    0  502    0  0.00000000000E+00  0.00000000000E+00  0.16054326369E+04  0.16054326369E+04  0.00000000000E+00 0.  1.
         -2   -1    0    0    0  501 -0.00000000000E+00 -0.00000000000E+00 -0.41004685330E+00  0.41004685330E+00  0.00000000000E+00 0. -1.
          1    1    1    2  502    0 -0.12576939431E+02  0.15965972462E+02  0.12925497011E+04  0.12927094884E+04  0.00000000000E+00 0.  1.
         -1    1    1    2    0  501  0.12576939431E+02 -0.15965972462E+02  0.31247288896E+03  0.31313319533E+03  0.00000000000E+00 0. -1.
</event>
<event>
 4    1  0.6769686E+001  0.3899016E+02  0.7546771E-02  0.1354507E+00
          2   -1    0    0  502    0  0.00000000000E+00  0.00000000000E+00  0.10834742593E+04  0.10834742593E+04  0.00000000000E+00 0.  1.
         -2   -1    0    0    0  501 -0.00000000000E+00 -0.00000000000E+00 -0.15650585412E+01  0.15650585412E+01  0.00000000000E+00 0. -1.
          1    1    1    2  502    0 -0.15417224448E+02  0.35812587097E+02  0.36643653327E+03  0.36850504083E+03  0.00000000000E+00 0.  1.
         -1    1    1    2    0  501  0.15417224448E+02 -0.35812587097E+02  0.71547266751E+03  0.71653427703E+03  0.00000000000E+00 0. -1.
</event>
<event>
 4    1  0.6769686E+001  0.2568356E+02  0.7546771E-02  0.1461300E+00
          2   -1    0    0  502    0  0.00000000000E+00  0.00000000000E+00  0.12824352958E+02  0.12824352958E+02  0.00000000000E+00 0.  1.
         -2   -1    0    0    0  501 -0.00000000000E+00 -0.00000000000E+00 -0.12759071690E+03  0.12759071690E+03  0.00000000000E+00 0. -1.
          1    1    1    2  502    0 -0.21784892199E+02  0.13603805984E+02 -0.11162322187E+03  0.11453990015E+03  0.00000000000E+00 0. -1.
         -1    1    1    2    0  501  0.21784892199E+02 -0.13603805984E+02 -0.31431420715E+01  0.25875169708E+02  0.00000000000E+00 0.  1.
</event>
<event>
 4    1  0.6769686E+001  0.3369205E+02  0.7546771E-02  0.1389999E+00
          2   -1    0    0  502    0  0.00000000000E+00  0.00000000000E+00  0.90348991946E+01  0.90348991946E+01  0.00000000000E+00 0. -1.
         -2   -1    0    0    0  501 -0.00000000000E+00 -0.00000000000E+00 -0.19076095637E+03  0.19076095637E+03  0.00000000000E+00 0.  1.
          1    1    1    2  502    0 -0.30985401239E+01  0.33549271282E+02 -0.32495877627E+02  0.46809578263E+02  0.00000000000E+00 0. -1.
         -1    1    1    2    0  501  0.30985401239E+01 -0.33549271282E+02 -0.14923017955E+03  0.15298627731E+03  0.00000000000E+00 0.  1.
</event>
<event>
 4    1  0.6769686E+001  0.2193790E+02  0.7546771E-02  0.1506284E+00
          2   -1    0    0  502    0  0.00000000000E+00  0.00000000000E+00  0.20915001178E+02  0.20915001178E+02  0.00000000000E+00 0.  1.
         -2   -1    0    0    0  501 -0.00000000000E+00 -0.00000000000E+00 -0.28291466384E+02  0.28291466384E+02  0.00000000000E+00 0. -1.
          1    1    1    2  502    0 -0.97765492918E+01 -0.19639007376E+02 -0.14317604821E+02  0.26196666478E+02  0.00000000000E+00 0. -1.
         -1    1    1    2    0  501  0.97765492918E+01  0.19639007376E+02  0.69411396150E+01  0.23009801084E+02  0.00000000000E+00 0.  1.
</event>
<event>
 4    1  0.6769686E+001  0.2776316E+02  0.7546771E-02  0.1440089E+00
          2   -1    0    0  502    0  0.00000000000E+00  0.00000000000E+00  0.45390900241E+02  0.45390900241E+02  0.00000000000E+00 0. -1.
         -2   -1    0    0    0  501 -0.00000000000E+00 -0.00000000000E+00 -0.23757679888E+02  0.23757679888E+02  0.00000000000E+00 0.  1.
          1    1    1    2  502    0 -0.14344537482E+02 -0.23770306855E+02  0.29281742549E+02  0.40351129975E+02  0.00000000000E+00 0. -1.
         -1    1    1    2    0  501  0.14344537482E+02  0.23770306855E+02 -0.76485221955E+01  0.28797450153E+02  0.00000000000E+00 0.  1.
</event>
<event>
 4    1  0.6769686E+001  0.2529672E+02  0.7546771E-02  0.1465511E+00
          2   -1    0    0  502    0  0.00000000000E+00  0.00000000000E+00  0.56783109378E+03  0.56783109378E+03  0.00000000000E+00 0. -1.
         -2   -1    0    0    0  501 -0.00000000000E+00 -0.00000000000E+00 -0.11633633319E+01  0.11633633319E+01  0.00000000000E+00 0.  1.
          1    1    1    2  502    0  0.24765918713E+02 -0.51549280407E+01  0.33365837363E+03  0.33461595047E+03  0.00000000000E+00 0.  1.
         -1    1    1    2    0  501 -0.24765918713E+02  0.51549280407E+01  0.23300935682E+03  0.23437850664E+03  0.00000000000E+00 0. -1.
</event>
<event>
 4    1  0.6769686E+001  0.2288972E+02  0.7546771E-02  0.1493888E+00
          2   -1    0    0  502    0  0.00000000000E+00  0.00000000000E+00  0.18333761941E+04  0.18333761941E+04  0.00000000000E+00 0. -1.
         -2   -1    0    0    0  501 -0.00000000000E+00 -0.00000000000E+00 -0.29482588468E+00  0.29482588468E+00  0.00000000000E+00 0.  1.
          1    1    1    2  502    0  0.93970839904E+01  0.20871851062E+02  0.75593088489E+03  0.75627735791E+03  0.00000000000E+00 0. -1.
         -1    1    1    2    0  501 -0.93970839904E+01 -0.20871851062E+02  0.10771504833E+04  0.10773936621E+04  0.00000000000E+00 0.  1.
</event>
<event>
 4    1  0.6769686E+001  0.2006518E+02  0.7546771E-02  0.1533042E+00
          2   -1    0    0  502    0  0.00000000000E+00  0.00000000000E+00  0.31915333580E+01  0.31915333580E+01  0.00000000000E+00 0.  1.
         -2   -1    0    0    0  501 -0.00000000000E+00 -0.00000000000E+00 -0.17432742357E+03  0.17432742357E+03  0.00000000000E+00 0. -1.
          1    1    1    2  502    0 -0.10580333115E+02 -0.17048988610E+02 -0.13222897686E+03  0.13374271487E+03  0.00000000000E+00 0. -1.
         -1    1    1    2    0  501  0.10580333115E+02  0.17048988610E+02 -0.38906913353E+02  0.43776242052E+02  0.00000000000E+00 0.  1.
</event>
<event>
 4    1  0.6769686E+001  0.2552571E+02  0.7546771E-02  0.1463007E+00
          2   -1    0    0  502    0  0.00000000000E+00  0.00000000000E+00  0.21192963721E+04  0.21192963721E+04  0.00000000000E+00 0.  1.
         -2   -1    0    0    0  501 -0.00000000000E+00 -0.00000000000E+00 -0.36896195274E+00  0.36896195274E+00  0.00000000000E+00 0. -1.
          1    1    1    2  502    0  0.85173453538E+01  0.24062766718E+02  0.14922290835E+04  0.14924473858E+04  0.00000000000E+00 0.  1.
         -1    1    1    2    0  501 -0.85173453538E+01 -0.24062766718E+02  0.62669832675E+03  0.62721794829E+03  0.00000000000E+00 0. -1.
</event>
<event>
 4    1  0.6769686E+001  0.7838120E+02  0.7546771E-02  0.1207656E+00
          2   -1    0    0  502    0  0.00000000000E+00  0.00000000000E+00  0.11419271970E+04  0.11419271970E+04  0.00000000000E+00 0.  1.
         -2   -1    0    0    0  501 -0.00000000000E+00 -0.00000000000E+00 -0.57063319807E+01  0.57063319807E+01  0.00000000000E+00 0. -1.
          1    1    1    2  502    0 -0.45927227757E+02 -0.63516159048E+02  0.43089635645E+03  0.43796721648E+03  0.00000000000E+00 0.  1.
         -1    1    1    2    0  501  0.45927227757E+02  0.63516159048E+02  0.70532450861E+03  0.70966631254E+03  0.00000000000E+00 0. -1.
</event>
<event>
 4    1  0.6769686E+001  0.3340716E+02  0.7546771E-02  0.1392121E+00
          2   -1    0    0  502    0  0.00000000000E+00  0.00000000000E+00  0.15552552471E+01  0.15552552471E+01  0.00000000000E+00 0. -1.
         -2   -1    0    0    0  501 -0.00000000000E+00 -0.00000000000E+00 -0.84777834123E+03  0.84777834123E+03  0.00000000000E+00 0.  1.
          1    1    1    2  502    0  0.30049712958E+02 -0.14596330685E+02 -0.58952579178E+03  0.59047158890E+03  0.00000000000E+00 0.  1.
         -1    1    1    2    0  501 -0.30049712958E+02  0.14596330685E+02 -0.25669729420E+03  0.25886200758E+03  0.00000000000E+00 0. -1.
</event>
<event>
 4    1  0.6769686E+001  0.3041830E+02  0.7546771E-02  0.1415996E+00
          2   -1    0    0  502    0  0.00000000000E+00  0.00000000000E+00  0.80142344809E+03  0.80142344809E+03  0.00000000000E+00 0. -1.
         -2   -1    0    0    0  501 -0.00000000000E+00 -0.00000000000E+00 -0.33883564479E+01  0.33883564479E+01  0.00000000000E+00 0.  1.
          1    1    1    2  502    0  0.29500122462E+02  0.74172507503E+01  0.72283904046E+02  0.78423437938E+02  0.00000000000E+00 0.  1.
         -1    1    1    2    0  501 -0.29500122462E+02 -0.74172507503E+01  0.72575118759E+03  0.72638836659E+03  0.00000000000E+00 0. -1.
</event>
<event>
 4    1  0.6769686E+001  0.2912431E+02  0.7546771E-02  0.1427362E+00
          2   -1    0    0  502    0  0.00000000000E+00  0.00000000000E+00  0.30095013256E+04  0.30095013256E+04  0.00000000000E+00 0. -1.
         -2   -1    0    0    0  501 -0.00000000000E+00 -0.00000000000E+00 -0.28251614373E+00  0.28251614373E+00  0.00000000000E+00 0.  1.
          1    1    1    2  502    0  0.26478277437E+02 -0.12129557260E+02  0.15777318186E+04  0.15780006074E+04  0.00000000000E+00 0. -1.
         -1    1    1    2    0  501 -0.26478277437E+02  0.12129557260E+02  0.14314869908E+04  0.14317832344E+04  0.00000000000E+00 0.  1.
</event>
<event>
 4    1  0.6769686E+001  0.2065140E+02  0.7546771E-02  0.1524301E+00
          2   -1    0    0  502    0  0.00000000000E+00  0.00000000000E+00  0.79008142323E+00  0.79008142323E+00  0.00000000000E+00 0. -1.
         -2   -1    0    0    0  501 -0.00000000000E+00 -0.00000000000E+00 -0.54053657335E+03  0.54053657335E+03  0.00000000000E+00 0.  1.
          1    1    1    2  502    0 -0.76089454828E+01 -0.19198552167E+02 -0.25983481475E+03  0.26065419892E+03  0.00000000000E+00 0. -1.
         -1    1    1    2    0  501  0.76089454828E+01  0.19198552167E+02 -0.27991167717E+03  0.28067245585E+03  0.00000000000E+00 0.  1.
</event>
<event>
 4    1  0.6769686E+001  0.2434907E+02  0.7546771E-02  0.1476219E+00
          2   -1    0    0  502    0  0.00000000000E+00  0.00000000000E+00  0.23627692635E+01  0.23627692635E+01  0.00000000000E+00 0.  1.
         -2   -1    0    0    0  501 -0.00000000000E+00 -0.00000000000E+00 -0.37547414760E+03  0.37547414760E+03  0.00000000000E+00 0. -1.
          1    1    1    2  502    0 -0.22863206236E+02  0.83756112701E+01 -0.29536231768E+03  0.29636426196E+03  0.00000000000E+00 0. -1.
         -1    1    1    2    0  501  0.22863206236E+02 -0.83756112701E+01 -0.77749060654E+02  0.81472654898E+02  0.00000000000E+00 0.  1.
</event>
<event>
 4    1  0.6769686E+001  0.2365717E+02  0.7546771E-02  0.1484407E+00
          2   -1    0    0  502    0  0.00000000000E+00  0.00000000000E+00  0.10015062394E+04  0.10015062394E+04  0.00000000000E+00 0. -1.
         -2   -1    0    0    0  501 -0.00000000000E+00 -0.00000000000E+00 -0.63672106197E+00  0.63672106197E+00  0.00000000000E+00 0.  1.
          1    1    1    2  502    0 -0.20596342645E+02  0.11638408203E+02  0.67570021340E+03  0.67611422132E+03  0.00000000000E+00 0. -1.
         -1    1    1    2    0  501  0.20596342645E+02 -0.11638408203E+02  0.32516930498E+03  0.32602873919E+03  0.00000000000E+00 0.  1.
</event>
<event>
 4    1  0.6769686E+001  0.2085319E+02  0.7546771E-02  0.1521371E+00
          2   -1    0    0  502    0  0.00000000000E+00  0.00000000000E+00  0.10893598147E+04  0.10893598147E+04  0.00000000000E+00 0.  1.
         -2   -1    0    0    0  501 -0.00000000000E+00 -0.00000000000E+00 -0.40040336472E+00  0.40040336472E+00  0.00000000000E+00 0. -1.
          1    1    1    2  502    0  0.12250933266E+02 -0.16875131743E+02  0.51441556634E+03  0.51483806224E+03  0.00000000000E+00 0.  1.
         -1    1    1    2    0  501 -0.12250933266E+02  0.16875131743E+02  0.57454384504E+03  0.57492215587E+03  0.00000000000E+00 0. -1.
</event>
<event>
 4    1  0.6769686E+001  0.2615102E+02  0.7546771E-02  0.1456328E+00
          2   -1    0    0  502    0  0.00000000000E+00  0.00000000000E+00  0.77967638832E+02  0.77967638832E+02  0.00000000000E+00 0. -1.
         -2   -1    0    0    0  501 -0.00000000000E+00 -0.00000000000E+00 -0.15349192434E+02  0.15349192434E+02  0.00000000000E+00 0.  1.
          1    1    1    2  502    0  0.22989505371E+01 -0.26049769204E+02  0.76483640247E+00  0.26162198376E+02  0.00000000000E+00 0.  1.
         -1    1    1    2    0  501 -0.22989505371E+01  0.26049769204E+02  0.61853609995E+02  0.67154632890E+02  0.00000000000E+00 0. -1.
</event>
<event>
 4    1  0.6769686E+001  0.3636920E+02  0.7546771E-02  0.1371185E+00
          2   -1    0    0  502    0  0.00000000000E+00  0.00000000000E+00  0.79467430042E+03  0.79467430042E+03  0.00000000000E+00 0.  1.
         -2   -1    0    0    0  501 -0.00000000000E+00 -0.00000000000E+00 -0.39289127332E+01  0.39289127332E+01  0.00000000000E+00 0. -1.
          1    1    1    2  502    0  0.39210484207E+01  0.36157210906E+02  0.69851370435E+03  0.69945987282E+03  0.00000000000E+00 0.  1.
         -1    1    1    2    0  501 -0.39210484207E+01 -0.36157210906E+02  0.92231683337E+02  0.99143340333E+02  0.00000000000E+00 0. -1.
</event>
<event>
 4    1  0.6769686E+001  0.2800402E+02  0.7546771E-02  0.1437775E+00
          2   -1    0    0  502    0  0.00000000000E+00  0.00000000000E+00  0.24206327390E+03  0.24206327390E+03  0.00000000000E+00 0. -1.
         -2   -1    0    0    0  501 -0.00000000000E+00 -0.00000000000E+00 -0.32471425961E+01  0.32471425961E+01  0.00000000000E+00 0.  1.
          1    1    1    2  502    0 -0.26956014300E+02  0.75893742592E+01  0.11355700440E+03  0.11695904649E+03  0.00000000000E+00 0.  1.
         -1    1    1    2    0  501  0.26956014300E+02 -0.75893742592E+01  0.12525912691E+03  0.12835137001E+03  0.00000000000E+00 0. -1.
</event>
<event>
 4    1  0.6769686E+001  0.3214725E+02  0.7546771E-02  0.1401811E+00
          2   -1    0    0  502    0  0.00000000000E+00  0.00000000000E+00  0.25293084024E+02  0.25293084024E+02  0.00000000000E+00 0.  1.
         -2   -1    0    0    0  501 -0.00000000000E+00 -0.00000000000E+00 -0.41370808468E+02  0.41370808468E+02  0.00000000000E+00 0. -1.
          1    1    1    2  502    0 -0.30824471367E+02  0.91267611000E+01 -0.11746862890E+02  0.34226226654E+02  0.00000000000E+00 0. -1.
         -1    1    1    2    0  501  0.30824471367E+02 -0.91267611000E+01 -0.43308615542E+01  0.32437665838E+02  0.00000000000E+00 0.  1.
</event>
<event>
 4    1  0.6769686E+001  0.2195131E+02  0.7546771E-02  0.1506104E+00
          2   -1    0    0  502    0  0.00000000000E+00  0.00000000000E+00  0.12240271090E+01  0.12240271090E+01  0.00000000000E+00 0. -1.
         -2   -1    0    0    0  501 -0.00000000000E+00 -0.00000000000E+00 -0.46292421702E+03  0.46292421702E+03  0.00000000000E+00 0.  1.
          1    1    1    2  502    0  0.21497718709E+02 -0.44393698424E+01 -0.14108610538E+03  0.14278357415E+03  0.00000000000E+00 0. -1.
         -1    1    1    2    0  501 -0.21497718709E+02  0.44393698424E+01 -0.32061408453E+03  0.32136466998E+03  0.00000000000E+00 0.  1.
</event>
<event>
 4    1  0.6769686E+001  0.3156924E+02  0.7546771E-02  0.1406433E+00
          2   -1    0    0  502    0  0.00000000000E+00  0.00000000000E+00  0.40465984872E+02  0.40465984872E+02  0.00000000000E+00 0.  1.
         -2   -1    0    0    0  501 -0.00000000000E+00 -0.00000000000E+00 -0.42958394743E+02  0.42958394743E+02  0.00000000000E+00 0. -1.
          1    1    1    2  502    0  0.32959289639E+01 -0.31396718949E+02 -0.28493210329E+02  0.42526228887E+02  0.00000000000E+00 0. -1.
         -1    1    1    2    0  501 -0.32959289639E+01  0.31396718949E+02  0.26000800458E+02  0.40898150727E+02  0.00000000000E+00 0.  1.
</event>
<event>
 4    1  0.6769686E+001  0.2633180E+02  0.7546771E-02  0.1454438E+00
          2   -1    0    0  502    0  0.00000000000E+00  0.00000000000E+00  0.15862651663E+04  0.15862651663E+04  0.00000000000E+00 0. -1.
         -2   -1    0    0    0  501 -0.00000000000E+00 -0.00000000000E+00 -0.44562543784E+00  0.44562543784E+00  0.00000000000E+00 0.  1.
          1    1    1    2  502    0 -0.15238292992E+02  0.21474593414E+02  0.90261440980E+03  0.90299841446E+03  0.00000000000E+00 0. -1.
         -1    1    1    2    0  501  0.15238292992E+02 -0.21474593414E+02  0.68320513107E+03  0.68371237729E+03  0.00000000000E+00 0.  1.
</event>
<event>
 4    1  0.6769686E+001  0.1266824E+03  0.7546771E-02  0.1124241E+00
          2   -1    0    0  502    0  0.00000000000E+00  0.00000000000E+00  0.53687444482E+03  0.53687444482E+03  0.00000000000E+00 0.  1.
         -2   -1    0    0    0  501 -0.00000000000E+00 -0.00000000000E+00 -0.29895308644E+02  0.29895308644E+02  0.00000000000E+00 0. -1.
          1    1    1    2  502    0  0.27189151706E+02 -0.12373029288E+03  0.25631181268E+03  0.28590939240E+03  0.00000000000E+00 0. -1.
         -1    1    1    2    0  501 -0.27189151706E+02  0.12373029288E+03  0.25066732350E+03  0.28086036106E+03  0.00000000000E+00 0.  1.
</event>
<event>
 4    1  0.6769686E+001  0.2036098E+02  0.7546771E-02  0.1528587E+00
          2   -1    0    0  502    0  0.00000000000E+00  0.00000000000E+00  0.15870984994E+02  0.15870984994E+02  0.00000000000E+00 0.  1.
         -2   -1    0    0    0  501 -0.00000000000E+00 -0.00000000000E+00 -0.39691164601E+02  0.39691164601E+02  0.00000000000E+00 0. -1.
          1    1    1    2  502    0 -0.72280465292E+00  0.20348149606E+02  0.43338365044E+01  0.20817103011E+02  0.00000000000E+00 0.  1.
         -1    1    1    2    0  501  0.72280465292E+00 -0.20348149606E+02 -0.28154016111E+02  0.34745046584E+02  0.00000000000E+00 0. -1.
</event>
<event>
 4    1  0.6769686E+001  0.2580143E+02  0.7546771E-02  0.1460034E+00
          2   -1    0    0  502    0  0.00000000000E+00  0.00000000000E+00  0.77966487920E+03  0.77966487920E+03  0.00000000000E+00 0.  1.
         -2   -1    0    0    0  501 -0.00000000000E+00 -0.00000000000E+00 -0.19896745914E+01  0.19896745914E+01  0.00000000000E+00 0. -1.
          1    1    1    2  502    0  0.12743554447E+00  0.25801119487E+02  0.93546628314E+02  0.97039608798E+02  0.00000000000E+00 0. -1.
         -1    1    1    2    0  501 -0.12743554447E+00 -0.25801119487E+02  0.68412857629E+03  0.68461494499E+03  0.00000000000E+00 0.  1.
</event>
<event>
 4    1  0.6769686E+001  0.2003113E+02  0.7546771E-02  0.1533560E+00
          2   -1    0    0  502    0  0.00000000000E+00  0.00000000000E+00  0.73144914367E+01  0.73144914367E+01  0.00000000000E+00 0. -1.
         -2   -1    0    0    0  501 -0.00000000000E+00 -0.00000000000E+00 -0.79126376958E+02  0.79126376958E+02  0.00000000000E+00 0.  1.
          1    1    1    2  502    0 -0.12839161600E+02  0.15375376824E+02 -0.59842607558E+02  0.63106132526E+02  0.00000000000E+00 0.  1.
         -1    1    1    2    0  501  0.12839161600E+02 -0.15375376824E+02 -0.11969277963E+02  0.23334735868E+02  0.00000000000E+00 0. -1.
</event>
<event>
 4    1  0.6769686E+001  0.2155644E+02  0.7546771E-02  0.1511467E+00
          2   -1    0    0  502    0  0.00000000000E+00  0.00000000000E+00  0.18047968760E+04  0.18047968760E+04  0.00000000000E+00 0.  1.
         -2   -1    0    0    0  501 -0.00000000000E+00 -0.00000000000E+00 -0.26423765647E+00  0.26423765647E+00  0.00000000000E+00 0. -1.
          1    1    1    2  502    0 -0.47199745913E+01 -0.21033353971E+02  0.75782217817E+03  0.75812870534E+03  0.00000000000E+00 0. -1.
         -1    1    1    2    0  501  0.47199745913E+01  0.21033353971E+02  0.10467104602E+04  0.10469324083E+04  0.00000000000E+00 0.  1.
</event>
<event>
 4    1  0.6769686E+001  0.2718934E+02  0.7546771E-02  0.1445715E+00
          2   -1    0    0  502    0  0.00000000000E+00  0.00000000000E+00  0.89326085849E+03  0.89326085849E+03  0.00000000000E+00 0. -1.
         -2   -1    0    0    0  501 -0.00000000000E+00 -0.00000000000E+00 -0.82960336046E+00  0.82960336046E+00  0.00000000000E+00 0.  1.
          1    1    1    2  502    0 -0.14868871615E+02 -0.22763502356E+02  0.46819802936E+03  0.46898683892E+03  0.00000000000E+00 0.  1.
         -1    1    1    2    0  501  0.14868871615E+02  0.22763502356E+02  0.42423322577E+03  0.42510362293E+03  0.00000000000E+00 0. -1.
</event>
<event>
 4    1  0.6769686E+001  0.3258453E+02  0.7546771E-02  0.1398389E+00
          2   -1    0    0  502    0  0.00000000000E+00  0.00000000000E+00  0.13954304246E+02  0.13954304246E+02  0.00000000000E+00 0. -1.
         -2   -1    0    0    0  501 -0.00000000000E+00 -0.00000000000E+00 -0.76871869431E+02  0.76871869431E+02  0.00000000000E+00 0.  1.
          1    1    1    2  502    0 -0.21362086958E+02  0.24605136990E+02 -0.36045374955E+02  0.48590334236E+02  0.00000000000E+00 0. -1.
         -1    1    1    2    0  501  0.21362086958E+02 -0.24605136990E+02 -0.26872190230E+02  0.42235839441E+02  0.00000000000E+00 0.  1.
</event>
<event>
 4    1  0.6769686E+001  0.2434482E+02  0.7546771E-02  0.1476268E+00
          2   -1    0    0  502    0  0.00000000000E+00  0.00000000000E+00  0.27240652628E+01  0.27240652628E+01  0.00000000000E+00 0.  1.
         -2   -1    0    0    0  501 -0.00000000000E+00 -0.00000000000E+00 -0.23681510045E+03  0.23681510045E+03  0.00000000000E+00 0. -1.
          1    1    1    2  502    0  0.23147154455E+02  0.75418406496E+01 -0.82900947771E+02  0.86401604505E+02  0.00000000000E+00 0.  1.
         -1    1    1    2    0  501 -0.23147154455E+02 -0.75418406496E+01 -0.15119008742E+03  0.15313756121E+03  0.00000000000E+00 0. -1.
</event>
<event>
 4    1  0.6769686E+001  0.2874886E+02  0.7546771E-02  0.1430789E+00
          2   -1    0    0  502    0  0.00000000000E+00  0.00000000000E+00  0.35213015739E+03  0.35213015739E+03  0.00000000000E+00 0. -1.
         -2   -1    0    0    0  501 -0.00000000000E+00 -0.00000000000E+00 -0.24031065537E+01  0.24031065537E+01  0.00000000000E+00 0.  1.
          1    1    1    2  502    0 -0.12633210392E+02 -0.25824390832E+02  0.20191696641E+03  0.20395332429E+03  0.00000000000E+00 0. -1.
         -1    1    1    2    0  501  0.12633210392E+02  0.25824390832E+02  0.14781008444E+03  0.15057993966E+03  0.00000000000E+00 0.  1.
</event>
<event>
 4    1  0.6769686E+001  0.9709140E+02  0.7546771E-02  0.1168946E+00
          2   -1    0    0  502    0  0.00000000000E+00  0.00000000000E+00  0.23396670232E+03  0.23396670232E+03  0.00000000000E+00 0. -1.
         -2   -1    0    0    0  501 -0.00000000000E+00 -0.00000000000E+00 -0.63668093072E+02  0.63668093072E+02  0.00000000000E+00 0.  1.
          1    1    1    2  502    0 -0.96422025729E+02  0.11381217986E+02 -0.50261962200E+01  0.97221406166E+02  0.00000000000E+00 0.  1.
         -1    1    1    2    0  501  0.96422025729E+02 -0.11381217986E+02  0.17532480546E+03  0.20041338922E+03  0.00000000000E+00 0. -1.
</event>
<event>
 4    1  0.6769686E+001  0.2479579E+02  0.7546771E-02  0.1471101E+00
          2   -1    0    0  502    0  0.00000000000E+00  0.00000000000E+00  0.93356149887E+03  0.93356149887E+03  0.00000000000E+00 0. -1.
         -2   -1    0    0    0  501 -0.00000000000E+00 -0.00000000000E+00 -0.81068178480E+00  0.81068178480E+00  0.00000000000E+00 0.  1.
          1    1    1    2  502    0 -0.24133441805E+01 -0.24678064929E+02  0.26401647119E+03  0.26517829507E+03  0.00000000000E+00 0.  1.
         -1    1    1    2    0  501  0.24133441805E+01  0.24678064929E+02  0.66873434590E+03  0.66919388559E+03  0.00000000000E+00 0. -1.
</event>
<event>
 4    1  0.6769686E+001  0.2874694E+02  0.7546771E-02  0.1430807E+00
          2   -1    0    0  502    0  0.00000000000E+00  0.00000000000E+00  0.22509374377E+03  0.22509374377E+03  0.00000000000E+00 0. -1.
         -2   -1    0    0    0  501 -0.00000000000E+00 -0.00000000000E+00 -0.59700719852E+01  0.59700719852E+01  0.00000000000E+00 0.  1.
          1    1    1    2  502    0  0.20930344768E+02 -0.19705513014E+02  0.37871577533E+02  0.47546219199E+02  0.00000000000E+00 0.  1.
         -1    1    1    2    0  501 -0.20930344768E+02  0.19705513014E+02  0.18125209425E+03  0.18351759656E+03  0.00000000000E+00 0. -1.
</event>
<event>
 4    1  0.6769686E+001  0.9137108E+02  0.7546771E-02  0.1179663E+00
          2   -1    0    0  502    0  0.00000000000E+00  0.00000000000E+00  0.26252666968E+04  0.26252666968E+04  0.00000000000E+00 0. -1.
         -2   -1    0    0    0  501 -0.00000000000E+00 -0.00000000000E+00 -0.77317666620E+01  0.77317666620E+01  0.00000000000E+00 0.  1.
          1    1    1    2  502    0  0.91279938384E+02 -0.40800988536E+01  0.29866528840E+03  0.31232935958E+03  0.00000000000E+00 0.  1.
         -1    1    1    2    0  501 -0.91279938384E+02  0.40800988536E+01  0.23188696418E+04  0.23206691039E+04  0.00000000000E+00 0. -1.
</event>
<event>
 4    1  0.6769686E+001  0.3013400E+02  0.7546771E-02  0.1418435E+00
          2   -1    0    0  502    0  0.00000000000E+00  0.00000000000E+00  0.44079905630E+03  0.44079905630E+03  0.00000000000E+00 0.  1.
         -2   -1    0    0    0  501 -0.00000000000E+00 -0.00000000000E+00 -0.21583766318E+01  0.21583766318E+01  0.00000000000E+00 0. -1.
          1    1    1    2  502    0 -0.25781629206E+02 -0.15600171216E+02  0.26659798199E+03  0.26829562380E+03  0.00000000000E+00 0.  1.
         -1    1    1    2    0  501  0.25781629206E+02  0.15600171216E+02  0.17204269767E+03  0.17466180913E+03  0.00000000000E+00 0. -1.
</event>
<event>
 4    1  0.6769686E+001  0.3014878E+02  0.7546771E-02  0.1418308E+00
          2   -1    0    0  502    0  0.00000000000E+00  0.00000000000E+00  0.58030760901E+03  0.58030760901E+03  0.00000000000E+00 0.  1.
         -2   -1    0    0    0  501 -0.00000000000E+00 -0.00000000000E+00 -0.16308239016E+01  0.16308239016E+01  0.00000000000E+00 0. -1.
          1    1    1    2  502    0 -0.15677829732E+02  0.25751783546E+02  0.34720513539E+03  0.34851162785E+03  0.00000000000E+00 0.  1.
         -1    1    1    2    0  501  0.15677829732E+02 -0.25751783546E+02  0.23147164972E+03  0.23342680507E+03  0.00000000000E+00 0. -1.
</event>
<event>
 4    1  0.6769686E+001  0.2820125E+02  0.7546771E-02  0.1435901E+00
          2   -1    0    0  502    0  0.00000000000E+00  0.00000000000E+00  0.77837274569E+03  0.77837274569E+03  0.00000000000E+00 0. -1.
         -2   -1    0    0    0  501 -0.00000000000E+00 -0.00000000000E+00 -0.11696289049E+01  0.11696289049E+01  0.00000000000E+00 0.  1.
          1    1    1    2  502    0 -0.11711149770E+02  0.25654622803E+02  0.25001438051E+03  0.25159988307E+03  0.00000000000E+00 0.  1.
         -1    1    1    2    0  501  0.11711149770E+02 -0.25654622803E+02  0.52718873628E+03  0.52794249153E+03  0.00000000000E+00 0. -1.
</event>
<event>
 4    1  0.6769686E+001  0.2443530E+02  0.7546771E-02  0.1475221E+00
          2   -1    0    0  502    0  0.00000000000E+00  0.00000000000E+00  0.10990125479E+02  0.10990125479E+02  0.00000000000E+00 0.  1.
         -2   -1    0    0    0  501 -0.00000000000E+00 -0.00000000000E+00 -0.98823905812E+02  0.98823905812E+02  0.00000000000E+00 0. -1.
          1    1    1    2  502    0 -0.58465575270E+01 -0.23725547205E+02 -0.70741942625E+01  0.25438711634E+02  0.00000000000E+00 0. -1.
         -1    1    1    2    0  501  0.58465575270E+01  0.23725547205E+02 -0.80759586070E+02  0.84375319658E+02  0.00000000000E+00 0.  1.
</event>
<event>
 4    1  0.6769686E+001  0.2107161E+02  0.7546771E-02  0.1518245E+00
          2   -1    0    0  502    0  0.00000000000E+00  0.00000000000E+00  0.46028385970E+02  0.46028385970E+02  0.00000000000E+00 0. -1.
         -2   -1    0    0    0  501 -0.00000000000E+00 -0.00000000000E+00 -0.96499104520E+01  0.96499104520E+01  0.00000000000E+00 0.  1.
          1    1    1    2  502    0  0.15012130755E+02 -0.14786775119E+02  0.17665816374E+02  0.27497160879E+02  0.00000000000E+00 0. -1.
         -1    1    1    2    0  501 -0.15012130755E+02  0.14786775119E+02  0.18712659143E+02  0.28181135543E+02  0.00000000000E+00 0.  1.
</event>
<event>
 4    1  0.6769686E+001  0.2420594E+02  0.7546771E-02  0.1477886E+00
          2   -1    0    0  502    0  0.00000000000E+00  0.00000000000E+00  0.32037087696E+03  0.32037087696E+03  0.00000000000E+00 0. -1.
         -2   -1    0    0    0  501 -0.00000000000E+00 -0.00000000000E+00 -0.18291889698E+01  0.18291889698E+01  0.00000000000E+00 0.  1.
          1    1    1    2  502    0  0.12286029098E+01 -0.24174742367E+02  0.15726066668E+03  0.15911267994E+03  0.00000000000E+00 0.  1.
         -1    1    1    2    0  501 -0.12286029098E+01  0.24174742367E+02  0.16128102132E+03  0.16308738599E+03  0.00000000000E+00 0. -1.
</event>
<event>
 4    1  0.6769686E+001  0.2386830E+02  0.7546771E-02  0.1481874E+00
          2   -1    0    0  502    0  0.00000000000E+00  0.00000000000E+00  0.35674938150E+03  0.35674938150E+03  0.00000000000E+00 0.  1.
         -2   -1    0    0    0  501 -0.00000000000E+00 -0.00000000000E+00 -0.15969295047E+01  0.15969295047E+01  0.00000000000E+00 0. -1.
          1    1    1    2  502    0  0.97918678088E+00 -0.23848202718E+02  0.17824904760E+03  0.17983998040E+03  0.00000000000E+00 0. -1.
         -1    1    1    2    0  501 -0.97918678088E+00  0.23848202718E+02  0.17690340440E+03  0.17850633061E+03  0.00000000000E+00 0.  1.
</event>
<event>
 4    1  0.6769686E+001  0.2944563E+02  0.7546771E-02  0.1424476E+00
          2   -1    0    0  502    0  0.00000000000E+00  0.00000000000E+00  0.52796061487E+03  0.52796061487E+03  0.00000000000E+00 0. -1.
         -2   -1    0    0    0  501 -0.00000000000E+00 -0.00000000000E+00 -0.16449727294E+01  0.16449727294E+01  0.00000000000E+00 0.  1.
          1    1    1    2  502    0  0.51151003193E+01  0.28997948197E+02  0.25239184181E+03  0.25410369353E+03  0.00000000000E+00 0.  1.
         -1    1    1    2    0  501 -0.51151003193E+01 -0.28997948197E+02  0.27392380032E+03  0.27550189407E+03  0.00000000000E+00 0. -1.
</event>
<event>
 4    1  0.6769686E+001  0.4559376E+02  0.7546771E-02  0.1318497E+00
          2   -1    0    0  502    0  0.00000000000E+00  0.00000000000E+00  0.17911083859E+03  0.17911083859E+03  0.00000000000E+00 0. -1.
         -2   -1    0    0    0  501 -0.00000000000E+00 -0.00000000000E+00 -0.12320864890E+02  0.12320864890E+02  0.00000000000E+00 0.  1.
          1    1    1    2  502    0 -0.31057270759E+02  0.33380193088E+02  0.10644773650E+03  0.11580117428E+03  0.00000000000E+00 0. -1.
         -1    1    1    2    0  501  0.31057270759E+02 -0.33380193088E+02  0.60342237199E+02  0.75630529204E+02  0.00000000000E+00 0.  1.
</event>
<event>
 4    1  0.6769686E+001  0.3824309E+02  0.7546771E-02  0.1359101E+00
          2   -1    0    0  502    0  0.00000000000E+00  0.00000000000E+00  0.24702232449E+02  0.24702232449E+02  0.00000000000E+00 0.  1.
         -2   -1    0    0    0  501 -0.00000000000E+00 -0.00000000000E+00 -0.71613666261E+02  0.71613666261E+02  0.00000000000E+00 0. -1.
          1    1    1    2  502    0 -0.37905035742E+02 -0.50736758716E+01 -0.43500690355E+02  0.57921015036E+02  0.00000000000E+00 0. -1.
         -1    1    1    2    0  501  0.37905035742E+02  0.50736758716E+01 -0.34107434572E+01  0.38394883675E+02  0.00000000000E+00 0.  1.
</event>
<event>
 4    1  0.6769686E+001  0.2525021E+02  0.7546771E-02  0.1466024E+00
          2   -1    0    0  502    0  0.00000000000E+00  0.00000000000E+00  0.51494912855E+03  0.51494912855E+03  0.00000000000E+00 0.  1.
         -2   -1    0    0    0  501 -0.00000000000E+00 -0.00000000000E+00 -0.23821223457E+01  0.23821223457E+01  0.00000000000E+00 0. -1.
          1    1    1    2  502    0 -0.10556466066E+02  0.22937609520E+02  0.43553741255E+03  0.43626873672E+03  0.00000000000E+00 0.  1.
         -1    1    1    2    0  501  0.10556466066E+02 -0.22937609520E+02  0.77029593650E+02  0.81062514174E+02  0.00000000000E+00 0. -1.
</event>
<event>
 4    1  0.6769686E+001  0.2302420E+02  0.7546771E-02  0.1492194E+00
          2   -1    0    0  502    0  0.00000000000E+00  0.00000000000E+00  0.10285196975E+04  0.10285196975E+04  0.00000000000E+00 0. -1.
         -2   -1    0    0    0  501 -0.00000000000E+00 -0.00000000000E+00 -0.62973254410E+00  0.62973254410E+00  0.00000000000E+00 0.  1.
          1    1    1    2  502    0 -0.21828021391E+02 -0.73247029466E+01  0.29470079505E+03  0.29559883693E+03  0.00000000000E+00 0. -1.
         -1    1    1    2    0  501  0.21828021391E+02  0.73247029466E+01  0.73318916991E+03  0.73355059312E+03  0.00000000000E+00 0.  1.
</event>
<event>
 4    1  0.6769686E+001  0.3092317E+02  0.7546771E-02  0.1411740E+00
          2   -1    0    0  502    0  0.00000000000E+00  0.00000000000E+00  0.24922193043E+04  0.24922193043E+04  0.00000000000E+00 0.  1.
         -2   -1    0    0    0  501 -0.00000000000E+00 -0.00000000000E+00 -0.40811116856E+00  0.40811116856E+00  0.00000000000E+00 0. -1.
          1    1    1    2  502    0 -0.14035567749E+02  0.27554404904E+02  0.94103784997E+03  0.94154579148E+03  0.00000000000E+00 0. -1.
         -1    1    1    2    0  501  0.14035567749E+02 -0.27554404904E+02  0.15507733432E+04  0.15510816240E+04  0.00000000000E+00 0.  1.
</event>
<event>
 4    1  0.6769686E+001  0.2872355E+02  0.7546771E-02  0.1431023E+00
          2   -1    0    0  502    0  0.00000000000E+00  0.00000000000E+00  0.46066405018E+03  0.46066405018E+03  0.00000000000E+00 0.  1.
         -2   -1    0    0    0  501 -0.00000000000E+00 -0.00000000000E+00 -0.18060244594E+01  0.18060244594E+01  0.00000000000E+00 0. -1.
          1    1    1    2  502    0  0.26567792727E+02 -0.10917644300E+02  0.25053000199E+03  0.25217122053E+03  0.00000000000E+00 0. -1.
         -1    1    1    2    0  501 -0.26567792727E+02  0.10917644300E+02  0.20832802373E+03  0.21029885411E+03  0.00000000000E+00 0.  1.
</event>
<event>
 4    1  0.6769686E+001  0.2600226E+02  0.7546771E-02  0.1457896E+00
          2   -1    0    0  502    0  0.00000000000E+00  0.00000000000E+00  0.94120407041E+03  0.94120407041E+03  0.00000000000E+00 0. -1.
         -2   -1    0    0    0  501 -0.00000000000E+00 -0.00000000000E+00 -0.16765087834E+01  0.16765087834E+01  0.00000000000E+00 0.  1.
          1    1    1    2  502    0 -0.41720434227E+01 -0.25665374718E+02  0.11336050483E+03  0.11630443440E+03  0.00000000000E+00 0.  1.
         -1    1    1    2    0  501  0.41720434227E+01  0.25665374718E+02  0.82616705680E+03  0.82657614479E+03  0.00000000000E+00 0. -1.
</event>
<event>
 4    1  0.6769686E+001  0.2989992E+02  0.7546771E-02  0.1420468E+00
          2   -1    0    0  502    0  0.00000000000E+00  0.00000000000E+00  0.50678333579E+03  0.50678333579E+03  0.00000000000E+00 0.  1.
         -2   -1    0    0    0  501 -0.00000000000E+00 -0.00000000000E+00 -0.21977137149E+01  0.21977137149E+01  0.00000000000E+00 0. -1.
          1    1    1    2  502    0  0.28379541269E+01  0.29764935022E+02  0.13924853597E+03  0.14242247052E+03  0.00000000000E+00 0. -1.
         -1    1    1    2    0  501 -0.28379541269E+01 -0.29764935022E+02  0.36533708610E+03  0.36655857898E+03  0.00000000000E+00 0.  1.
</event>
<event>
 4    1  0.6769686E+001  0.3409693E+02  0.7546771E-02  0.1387026E+00
          2   -1    0    0  502    0  0.00000000000E+00  0.00000000000E+00  0.90820922700E+01  0.90820922700E+01  0.00000000000E+00 0. -1.
         -2   -1    0    0    0  501 -0.00000000000E+00 -0.00000000000E+00 -0.17454580471E+03  0.17454580471E+03  0.00000000000E+00 0.  1.
          1    1    1    2  502    0  0.31814024787E+02  0.12266562906E+02 -0.13013929456E+03  0.13453191713E+03  0.00000000000E+00 0.  1.
         -1    1    1    2    0  501 -0.31814024787E+02 -0.12266562906E+02 -0.35324417881E+02  0.49095979848E+02  0.00000000000E+00 0. -1.
</event>
<event>
 4    1  0.6769686E+001  0.2989267E+02  0.7546771E-02  0.1420532E+00
          2   -1    0    0  502    0  0.00000000000E+00  0.00000000000E+00  0.25684332699E+02  0.25684332699E+02  0.00000000000E+00 0.  1.
         -2   -1    0    0    0  501 -0.00000000000E+00 -0.00000000000E+00 -0.36178252123E+02  0.36178252123E+02  0.00000000000E+00 0. -1.
          1    1    1    2  502    0  0.25038058958E+02  0.16329949041E+02  0.81098095623E+00  0.29903667370E+02  0.00000000000E+00 0.  1.
         -1    1    1    2    0  501 -0.25038058958E+02 -0.16329949041E+02 -0.11304900380E+02  0.31958917452E+02  0.00000000000E+00 0. -1.
</event>
<event>
 4    1  0.6769686E+001  0.2928815E+02  0.7546771E-02  0.1425885E+00
          2   -1    0    0  502    0  0.00000000000E+00  0.00000000000E+00  0.38449626058E+03  0.38449626058E+03  0.00000000000E+00 0. -1.
         -2   -1    0    0    0  501 -0.00000000000E+00 -0.00000000000E+00 -0.24972890047E+01  0.24972890047E+01  0.00000000000E+00 0.  1.
          1    1    1    2  502    0 -0.18296629841E+02 -0.22869831403E+02  0.25418949274E+03  0.25587124511E+03  0.00000000000E+00 0. -1.
         -1    1    1    2    0  501  0.18296629841E+02  0.22869831403E+02  0.12780947883E+03  0.13112230447E+03  0.00000000000E+00 0.  1.
</event>
<event>
 4    1  0.6769686E+001  0.2662977E+02  0.7546771E-02  0.1451363E+00
          2   -1    0    0  502    0  0.00000000000E+00  0.00000000000E+00  0.10470185106E+04  0.10470185106E+04  0.00000000000E+00 0. -1.
         -2   -1    0    0    0  501 -0.00000000000E+00 -0.00000000000E+00 -0.75076133426E+00  0.75076133426E+00  0.00000000000E+00 0.  1.
          1    1    1    2  502    0  0.23353450803E+02 -0.12796912262E+02  0.68701048374E+03  0.68752639905E+03  0.00000000000E+00 0. -1.
         -1    1    1    2    0  501 -0.23353450803E+02  0.12796912262E+02  0.35925726556E+03  0.36024287291E+03  0.00000000000E+00 0.  1.
</event>
<event>
 4    1  0.6769686E+001  0.2319288E+02  0.7546771E-02  0.1490090E+00
          2   -1    0    0  502    0  0.00000000000E+00  0.00000000000E+00  0.10082970369E+01  0.10082970369E+01  0.00000000000E+00 0. -1.
         -2   -1    0    0    0  501 -0.00000000000E+00 -0.00000000000E+00 -0.58295449654E+03  0.58295449654E+03  0.00000000000E+00 0.  1.
          1    1    1    2  502    0  0.18135604068E+02 -0.14457165338E+02 -0.20591543053E+03  0.20721745654E+03  0.00000000000E+00 0.  1.
         -1    1    1    2    0  501 -0.18135604068E+02  0.14457165338E+02 -0.37603076898E+03  0.37674533704E+03  0.00000000000E+00 0. -1.
</event>
<event>
 4    1  0.6769686E+001  0.3315458E+02  0.7546771E-02  0.1394023E+00
          2   -1    0    0  502    0  0.00000000000E+00  0.00000000000E+00  0.29661340825E+02  0.29661340825E+02  0.00000000000E+00 0.  1.
         -2   -1    0    0    0  501 -0.00000000000E+00 -0.00000000000E+00 -0.49191550307E+02  0.49191550307E+02  0.00000000000E+00 0. -1.
          1    1    1    2  502    0  0.28567769113E+02 -0.16825841374E+02  0.98149703876E+01  0.34576871081E+02  0.00000000000E+00 0. -1.
         -1    1    1    2    0  501 -0.28567769113E+02  0.16825841374E+02 -0.29345179869E+02  0.44276020051E+02  0.00000000000E+00 0.  1.
</event>
<event>
 4    1  0.6769686E+001  0.2003206E+02  0.7546771E-02  0.1533546E+00
          2   -1    0    0  502    0  0.00000000000E+00  0.00000000000E+00  0.24868480647E+03  0.24868480647E+03  0.00000000000E+00 0. -1.
         -2   -1    0    0    0  501 -0.00000000000E+00 -0.00000000000E+00 -0.17126576841E+01  0.17126576841E+01  0.00000000000E+00 0.  1.
          1    1    1    2  502    0 -0.14708642735E+02  0.13599233016E+02  0.93379579813E+02  0.95504079681E+02  0.00000000000E+00 0.  1.
         -1    1    1    2    0  501  0.14708642735E+02 -0.13599233016E+02  0.15359256898E+03  0.15489338447E+03  0.00000000000E+00 0. -1.
</event>
<event>
 4    1  0.6769686E+001  0.2988183E+02  0.7546771E-02  0.1420626E+00
          2   -1    0    0  502    0  0.00000000000E+00  0.00000000000E+00  0.81034372874E+03  0.81034372874E+03  0.00000000000E+00 0.  1.
         -2   -1    0    0    0  501 -0.00000000000E+00 -0.00000000000E+00 -0.11643316295E+01  0.11643316295E+01  0.00000000000E+00 0. -1.
          1    1    1    2  502    0  0.19650125696E+02 -0.22512136384E+02  0.49854065482E+03  0.49943538944E+03  0.00000000000E+00 0.  1.
         -1    1    1    2    0  501 -0.19650125696E+02  0.22512136384E+02  0.31063874229E+03  0.31207267092E+03  0.00000000000E+00 0. -1.
</event>
<event>
 4    1  0.6769686E+001  0.2452466E+02  0.7546771E-02  0.1474192E+00
          2   -1    0    0  502    0  0.00000000000E+00  0.00000000000E+00  0.23292131964E+04  0.23292131964E+04  0.00000000000E+00 0. -1.
         -2   -1    0    0    0  501 -0.00000000000E+00 -0.00000000000E+00 -0.27107321163E+00  0.27107321163E+00  0.00000000000E+00 0.  1.
          1    1    1    2  502    0  0.16982662560E+01 -0.24465788843E+02  0.14180559650E+04  0.14182680208E+04  0.00000000000E+00 0. -1.
         -1    1    1    2    0  501 -0.16982662560E+01  0.24465788843E+02  0.91088615818E+03  0.91121624881E+03  0.00000000000E+00 0.  1.
</event>
<event>
 4    1  0.6769686E+001  0.2359220E+02  0.7546771E-02  0.1485193E+00
          2   -1    0    0  502    0  0.00000000000E+00  0.00000000000E+00  0.34777926974E+03  0.34777926974E+03  0.00000000000E+00 0.  1.
         -2   -1    0    0    0  501 -0.00000000000E+00 -0.00000000000E+00 -0.48764443233E+01  0.48764443233E+01  0.00000000000E+00 0. -1.
          1    1    1    2  502    0  0.15854596480E+02  0.17470649443E+02  0.26926385921E+02  0.35799749723E+02  0.00000000000E+00 0. -1.
         -1    1    1    2    0  501 -0.15854596480E+02 -0.17470649443E+02  0.31597643949E+03  0.31685596434E+03  0.00000000000E+00 0.  1.
</event>
<event>
 4    1  0.6769686E+001  0.2621780E+02  0.7546771E-02  0.1455628E+00
          2   -1    0    0  502    0  0.00000000000E+00  0.00000000000E+00  0.79356382413E+03  0.79356382413E+03  0.00000000000E+00 0.  1.
         -2   -1    0    0    0  501 -0.00000000000E+00 -0.00000000000E+00 -0.11511298148E+01  0.11511298148E+01  0.00000000000E+00 0. -1.
          1    1    1    2  502    0 -0.22838947783E+02  0.12874604934E+02  0.59390317765E+03  0.59448158710E+03  0.00000000000E+00 0. -1.
         -1    1    1    2    0  501  0.22838947783E+02 -0.12874604934E+02  0.19850951667E+03  0.20023336684E+03  0.00000000000E+00 0.  1.
</event>
<event>
 4    1  0.6769686E+001  0.2024957E+02  0.7546771E-02  0.1530254E+00
          2   -1    0    0  502    0  0.00000000000E+00  0.00000000000E+00  0.60648156089E+03  0.60648156089E+03  0.00000000000E+00 0. -1.
         -2   -1    0    0    0  501 -0.00000000000E+00 -0.00000000000E+00 -0.67920176533E+00  0.67920176533E+00  0.00000000000E+00 0.  1.
          1    1    1    2  502    0 -0.20203939330E+02 -0.13586616716E+01  0.32340046970E+03  0.32403380831E+03  0.00000000000E+00 0. -1.
         -1    1    1    2    0  501  0.20203939330E+02  0.13586616716E+01  0.28240188942E+03  0.28312695434E+03  0.00000000000E+00 0.  1.
</event>
<event>
 4    1  0.6769686E+001  0.2881630E+02  0.7546771E-02  0.1430169E+00
          2   -1    0    0  502    0  0.00000000000E+00  0.00000000000E+00  0.73399757874E+01  0.73399757874E+01  0.00000000000E+00 0. -1.
         -2   -1    0    0    0  501 -0.00000000000E+00 -0.00000000000E+00 -0.18957665834E+03  0.18957665834E+03  0.00000000000E+00 0.  1.
          1    1    1    2  502    0 -0.84112062640E+01  0.27561395426E+02 -0.28595839565E+02  0.40596809592E+02  0.00000000000E+00 0. -1.
         -1    1    1    2    0  501  0.84112062640E+01 -0.27561395426E+02 -0.15364084298E+03  0.15631982453E+03  0.00000000000E+00 0.  1.
</event>
<event>
 4    1  0.6769686E+001  0.3744596E+02  0.7546771E-02  0.1364139E+00
          2   -1    0    0  502    0  0.00000000000E+00  0.00000000000E+00  0.77420567042E+03  0.77420567042E+03  0.00000000000E+00 0. -1.
         -2   -1    0    0    0  501 -0.00000000000E+00 -0.00000000000E+00 -0.28731644706E+01  0.28731644706E+01  0.00000000000E+00 0.  1.
          1    1    1    2  502    0  0.34722664036E+02 -0.14019152613E+02  0.62188846655E+03  0.62301481914E+03  0.00000000000E+00 0. -1.
         -1    1    1    2    0  501 -0.34722664036E+02  0.14019152613E+02  0.14944403939E+03  0.15406401575E+03  0.00000000000E+00 0.  1.
</event>
<event>
 4    1  0.6769686E+001  0.5040544E+02  0.7546771E-02  0.1296424E+00
          2   -1    0    0  502    0  0.00000000000E+00  0.00000000000E+00  0.48443990560E+03  0.48443990560E+03  0.00000000000E+00 0. -1.
         -2   -1    0    0    0  501 -0.00000000000E+00 -0.00000000000E+00 -0.53585735894E+01  0.53585735894E+01  0.00000000000E+00 0.  1.
          1    1    1    2  502    0 -0.25645556863E+02  0.43393712345E+02  0.27525188333E+03  0.27982906950E+03  0.00000000000E+00 0.  1.
         -1    1    1    2    0  501  0.25645556863E+02 -0.43393712345E+02  0.20382944868E+03  0.20996940970E+03  0.00000000000E+00 0. -1.
</event>
<event>
 4    1  0.6769686E+001  0.2057275E+02  0.7546771E-02  0.1525453E+00
          2   -1    0    0  502    0  0.00000000000E+00  0.00000000000E+00  0.11873791854E+04  0.11873791854E+04  0.00000000000E+00 0.  1.
         -2   -1    0    0    0  501 -0.00000000000E+00 -0.00000000000E+00 -0.53990589732E+00  0.53990589732E+00  0.00000000000E+00 0. -1.
          1    1    1    2  502    0 -0.19711237201E+02  0.58911241350E+01  0.93965128112E+03  0.93987646440E+03  0.00000000000E+00 0.  1.
         -1    1    1    2    0  501  0.19711237201E+02 -0.58911241350E+01  0.24718799838E+03  0.24804262690E+03  0.00000000000E+00 0. -1.
</event>
<event>
 4    1  0.6769686E+001  0.2433146E+02  0.7546771E-02  0.1476423E+00
          2   -1    0    0  502    0  0.00000000000E+00  0.00000000000E+00  0.41229921385E+01  0.41229921385E+01  0.00000000000E+00 0.  1.
         -2   -1    0    0    0  501 -0.00000000000E+00 -0.00000000000E+00 -0.14546882715E+03  0.14546882715E+03  0.00000000000E+00 0. -1.
          1    1    1    2  502    0  0.63631286608E+01  0.23484686152E+02 -0.62172275181E+02  0.66763850182E+02  0.00000000000E+00 0. -1.
         -1    1    1    2    0  501 -0.63631286608E+01 -0.23484686152E+02 -0.79173559830E+02  0.82827969105E+02  0.00000000000E+00 0.  1.
</event>
<event>
 4    1  0.6769686E+001  0.2791661E+02  0.7546771E-02  0.1438612E+00
          2   -1    0    0  502    0  0.00000000000E+00  0.00000000000E+00  0.24402675637E+02  0.24402675637E+02  0.00000000000E+00 0.  1.
         -2   -1    0    0    0  501 -0.00000000000E+00 -0.00000000000E+00 -0.34544926572E+02  0.34544926572E+02  0.00000000000E+00 0. -1.
          1    1    1    2  502    0 -0.23845786612E+02  0.14516048857E+02  0.30278363506E+01  0.28080331311E+02  0.00000000000E+00 0. -1.
         -1    1    1    2    0  501  0.23845786612E+02 -0.14516048857E+02 -0.13170087286E+02  0.30867270898E+02  0.00000000000E+00 0.  1.
</event>
<event>
 4    1  0.6769686E+001  0.2152640E+02  0.7546771E-02  0.1511880E+00
          2   -1    0    0  502    0  0.00000000000E+00  0.00000000000E+00  0.38841436985E+03  0.38841436985E+03  0.00000000000E+00 0. -1.
         -2   -1    0    0    0  501 -0.00000000000E+00 -0.00000000000E+00 -0.13248987685E+01  0.13248987685E+01  0.00000000000E+00 0.  1.
          1    1    1    2  502    0  0.20169074453E+02  0.75229093715E+01  0.13206359974E+03  0.13380650248E+03  0.00000000000E+00 0.  1.
         -1    1    1    2    0  501 -0.20169074453E+02 -0.75229093715E+01  0.25502587135E+03  0.25593276614E+03  0.00000000000E+00 0. -1.
</event>
<event>
 4    1  0.6769686E+001  0.2466385E+02  0.7546771E-02  0.1472599E+00
          2   -1    0    0  502    0  0.00000000000E+00  0.00000000000E+00  0.71990187861E+03  0.71990187861E+03  0.00000000000E+00 0. -1.
         -2   -1    0    0    0  501 -0.00000000000E+00 -0.00000000000E+00 -0.12409479375E+01  0.12409479375E+01  0.00000000000E+00 0.  1.
          1    1    1    2  502    0 -0.17261602569E+02  0.17616547601E+02  0.56300758727E+03  0.56354755699E+03  0.00000000000E+00 0. -1.
         -1    1    1    2    0  501  0.17261602569E+02 -0.17616547601E+02  0.15565334341E+03  0.15759526956E+03  0.00000000000E+00 0.  1.
</event>
<event>
 4    1  0.6769686E+001  0.2061411E+02  0.7546771E-02  0.1524846E+00
          2   -1    0    0  502    0  0.00000000000E+00  0.00000000000E+00  0.37285713554E+02  0.37285713554E+02  0.00000000000E+00 0.  1.
         -2   -1    0    0    0  501 -0.00000000000E+00 -0.00000000000E+00 -0.11751864447E+02  0.11751864447E+02  0.00000000000E+00 0. -1.
          1    1    1    2  502    0 -0.14717035921E+02  0.14434345398E+02  0.85056521657E+01  0.22299946011E+02  0.00000000000E+00 0.  1.
         -1    1    1    2    0  501  0.14717035921E+02 -0.14434345398E+02  0.17028196942E+02  0.26737631990E+02  0.00000000000E+00 0. -1.
</event>
<event>
 4    1  0.6769686E+001  0.2390008E+02  0.7546771E-02  0.1481495E+00
          2   -1    0    0  502    0  0.00000000000E+00  0.00000000000E+00  0.69396778721E+03  0.69396778721E+03  0.00000000000E+00 0. -1.
         -2   -1    0    0    0  501 -0.00000000000E+00 -0.00000000000E+00 -0.95561688862E+00  0.95561688862E+00  0.00000000000E+00 0.  1.
          1    1    1    2  502    0  0.22836052211E+02  0.70518380555E+01  0.21712230534E+03  0.21843376382E+03  0.00000000000E+00 0.  1.
         -1    1    1    2    0  501 -0.22836052211E+02 -0.70518380555E+01  0.47588986499E+03  0.47648964028E+03  0.00000000000E+00 0. -1.
</event>
<event>
 4    1  0.6769686E+001  0.2698290E+02  0.7546771E-02  0.1447780E+00
          2   -1    0    0  502    0  0.00000000000E+00  0.00000000000E+00  0.97132697242E+03  0.97132697242E+03  0.00000000000E+00 0. -1.
         -2   -1    0    0    0  501 -0.00000000000E+00 -0.00000000000E+00 -0.18231575851E+01  0.18231575851E+01  0.00000000000E+00 0.  1.
          1    1    1    2  502    0  0.23203435177E+02 -0.13772336363E+02  0.85813674144E+03  0.85856085612E+03  0.00000000000E+00 0. -1.
         -1    1    1    2    0  501 -0.23203435177E+02  0.13772336363E+02  0.11136707340E+03  0.11458927389E+03  0.00000000000E+00 0.  1.
</event>
<event>
 4    1  0.6769686E+001  0.2780884E+02  0.7546771E-02  0.1439648E+00
          2   -1    0    0  502    0  0.00000000000E+00  0.00000000000E+00  0.72132798477E+01  0.72132798477E+01  0.00000000000E+00 0. -1.
         -2   -1    0    0    0  501 -0.00000000000E+00 -0.00000000000E+00 -0.11081776237E+03  0.11081776237E+03  0.00000000000E+00 0.  1.
          1    1    1    2  502    0 -0.96223612392E+01 -0.26091023422E+02 -0.41153036519E+02  0.49667934865E+02  0.00000000000E+00 0.  1.
         -1    1    1    2    0  501  0.96223612392E+01  0.26091023422E+02 -0.62451446005E+02  0.68363107354E+02  0.00000000000E+00 0. -1.
</event>
<event>
 4    1  0.6769686E+001  0.2658016E+02  0.7546771E-02  0.1451872E+00
          2   -1    0    0  502    0  0.00000000000E+00  0.00000000000E+00  0.15155203416E+02  0.15155203416E+02  0.00000000000E+00 0. -1.
         -2   -1    0    0    0  501 -0.00000000000E+00 -0.00000000000E+00 -0.49218032688E+02  0.49218032688E+02  0.00000000000E+00 0.  1.
          1    1    1    2  502    0 -0.87429020574E+01  0.25101130197E+02 -0.96335952613E+01  0.28272092799E+02  0.00000000000E+00 0.  1.
         -1    1    1    2    0  501  0.87429020574E+01 -0.25101130197E+02 -0.24429234011E+02  0.36101143305E+02  0.00000000000E+00 0. -1.
</event>
<event>
 4    1  0.6769686E+001  0.3703882E+02  0.7546771E-02  0.1366770E+00
          2   -1    0    0  502    0  0.00000000000E+00  0.00000000000E+00  0.12430077418E+02  0.12430077418E+02  0.00000000000E+00 0. -1.
         -2   -1    0    0    0  501 -0.00000000000E+00 -0.00000000000E+00 -0.18526020386E+03  0.18526020386E+03  0.00000000000E+00 0.  1.
          1    1    1    2  502    0 -0.33016554652E+02  0.16786349749E+02 -0.23568068993E+02  0.43901347304E+02  0.00000000000E+00 0. -1.
         -1    1    1    2    0  501  0.33016554652E+02 -0.16786349749E+02 -0.14926205745E+03  0.15378893398E+03  0.00000000000E+00 0.  1.
</event>
<event>
 4    1  0.6769686E+001  0.3245622E+02  0.7546771E-02  0.1399387E+00
          2   -1    0    0  502    0  0.00000000000E+00  0.00000000000E+00  0.24606716146E+02  0.24606716146E+02  0.00000000000E+00 0.  1.
         -2   -1    0    0    0  501 -0.00000000000E+00 -0.00000000000E+00 -0.68678494357E+02  0.68678494357E+02  0.00000000000E+00 0. -1.
          1    1    1    2  502    0 -0.29338541268E+02 -0.13880076538E+02 -0.50661870051E+02  0.60166698476E+02  0.00000000000E+00 0. -1.
         -1    1    1    2    0  501  0.29338541268E+02  0.13880076538E+02  0.65900918394E+01  0.33118512027E+02  0.00000000000E+00 0.  1.
</event>
<event>
 4    1  0.6769686E+001  0.3221202E+02  0.7546771E-02  0.1401300E+00
          2   -1    0    0  502    0  0.00000000000E+00  0.00000000000E+00  0.13711760027E+03  0.13711760027E+03  0.00000000000E+00 0.  1.
         -2   -1    0    0    0  501 -0.00000000000E+00 -0.00000000000E+00 -0.77578355091E+01  0.77578355091E+01  0.00000000000E+00 0. -1.
          1    1    1    2  502    0 -0.81597315759E+01  0.31161407383E+02  0.76031164706E+02  0.82573316126E+02  0.00000000000E+00 0.  1.
         -1    1    1    2    0  501  0.81597315759E+01 -0.31161407383E+02  0.53328600054E+02  0.62302119653E+02  0.00000000000E+00 0. -1.
</event>
<event>
 4    1  0.6769686E+001  0.2306903E+02  0.7546771E-02  0.1491633E+00
          2   -1    0    0  502    0  0.00000000000E+00  0.00000000000E+00  0.74684879818E+03  0.74684879818E+03  0.00000000000E+00 0.  1.
         -2   -1    0    0    0  501 -0.00000000000E+00 -0.00000000000E+00 -0.75513047772E+00  0.75513047772E+00  0.00000000000E+00 0. -1.
          1    1    1    2  502    0 -0.76062551261E+01  0.21779002851E+02  0.46179252095E+03  0.46236837315E+03  0.00000000000E+00 0.  1.
         -1    1    1    2    0  501  0.76062551261E+01 -0.21779002851E+02  0.28430114675E+03  0.28523555551E+03  0.00000000000E+00 0. -1.
</event>
<event>
 4    1  0.6769686E+001  0.2138511E+02  0.7546771E-02  0.1513837E+00
          2   -1    0    0  502    0  0.00000000000E+00  0.00000000000E+00  0.74403205495E+02  0.74403205495E+02  0.00000000000E+00 0. -1.
         -2   -1    0    0    0  501 -0.00000000000E+00 -0.00000000000E+00 -0.11179202200E+02  0.11179202200E+02  0.00000000000E+00 0.  1.
          1    1    1    2  502    0 -0.20580944901E+02  0.58092834186E+01  0.29010536615E+01  0.21580991154E+02  0.00000000000E+00 0.  1.
         -1    1    1    2    0  501  0.20580944901E+02 -0.58092834186E+01  0.60322949633E+02  0.64001416541E+02  0.00000000000E+00 0. -1.
</event>
<event>
 4    1  0.6769686E+001  0.2153887E+02  0.7546771E-02  0.1511708E+00
          2   -1    0    0  502    0  0.00000000000E+00  0.00000000000E+00  0.12977496042E+01  0.12977496042E+01  0.00000000000E+00 0.  1.
         -2   -1    0    0    0  501 -0.00000000000E+00 -0.00000000000E+00 -0.44185059196E+03  0.44185059196E+03  0.00000000000E+00 0. -1.
          1    1    1    2  502    0  0.21320475481E+02 -0.30594819483E+01 -0.12345535336E+03  0.12532017945E+03  0.00000000000E+00 0.  1.
         -1    1    1    2    0  501 -0.21320475481E+02  0.30594819483E+01 -0.31709748899E+03  0.31782816211E+03  0.00000000000E+00 0. -1.
</event>
<event>
 4    1  0.6769686E+001  0.2133646E+02  0.7546771E-02  0.1514515E+00
          2   -1    0    0  502    0  0.00000000000E+00  0.00000000000E+00  0.24056024881E+03  0.24056024881E+03  0.00000000000E+00 0. -1.
         -2   -1    0    0    0  501 -0.00000000000E+00 -0.00000000000E+00 -0.22119052954E+01  0.22119052954E+01  0.00000000000E+00 0.  1.
          1    1    1    2  502    0 -0.81321904132E+01 -0.19725925653E+02  0.16530601109E+03  0.16667729889E+03  0.00000000000E+00 0.  1.
         -1    1    1    2    0  501  0.81321904132E+01  0.19725925653E+02  0.73042332425E+02  0.76094855213E+02  0.00000000000E+00 0. -1.
</event>
<event>
 4    1  0.6769686E+001  0.2320547E+02  0.7546771E-02  0.1489934E+00
          2   -1    0    0  502    0  0.00000000000E+00  0.00000000000E+00  0.37223507237E+03  0.37223507237E+03  0.00000000000E+00 0.  1.
         -2   -1    0    0    0  501 -0.00000000000E+00 -0.00000000000E+00 -0.24294223909E+01  0.24294223909E+01  0.00000000000E+00 0. -1.
          1    1    1    2  502    0  0.18078980746E+02  0.14547994640E+02  0.30405105788E+03  0.30493530378E+03  0.00000000000E+00 0.  1.
         -1    1    1    2    0  501 -0.18078980746E+02 -0.14547994640E+02  0.65754592099E+02  0.69729190981E+02  0.00000000000E+00 0. -1.
</event>
<event>
 4    1  0.6769686E+001  0.2162257E+02  0.7546771E-02  0.1510559E+00
          2   -1    0    0  502    0  0.00000000000E+00  0.00000000000E+00  0.15397570124E+04  0.15397570124E+04  0.00000000000E+00 0. -1.
         -2   -1    0    0    0  501 -0.00000000000E+00 -0.00000000000E+00 -0.90445859406E+00  0.90445859406E+00  0.00000000000E+00 0.  1.
          1    1    1    2  502    0 -0.11093251029E+02  0.18560047435E+02  0.14157948268E+03  0.14322110701E+03  0.00000000000E+00 0.  1.
         -1    1    1    2    0  501  0.11093251029E+02 -0.18560047435E+02  0.13972730712E+04  0.13974403640E+04  0.00000000000E+00 0. -1.
</event>
<event>
 4    1  0.6769686E+001  0.2386876E+02  0.7546771E-02  0.1481868E+00
          2   -1    0    0  502    0  0.00000000000E+00  0.00000000000E+00  0.11785545358E+03  0.11785545358E+03  0.00000000000E+00 0. -1.
         -2   -1    0    0    0  501 -0.00000000000E+00 -0.00000000000E+00 -0.54472233482E+01  0.54472233482E+01  0.00000000000E+00 0.  1.
          1    1    1    2  502    0 -0.92702526611E+01  0.21995004983E+02  0.35519352554E+02  0.42794184587E+02  0.00000000000E+00 0.  1.
         -1    1    1    2    0  501  0.92702526611E+01 -0.21995004983E+02  0.76888877679E+02  0.80508492343E+02  0.00000000000E+00 0. -1.
</event>
<event>
 4    1  0.6769686E+001  0.2872442E+02  0.7546771E-02  0.1431015E+00
          2   -1    0    0  502    0  0.00000000000E+00  0.00000000000E+00  0.56960903581E+00  0.56960903581E+00  0.00000000000E+00 0. -1.
         -2   -1    0    0    0  501 -0.00000000000E+00 -0.00000000000E+00 -0.15992360988E+04  0.15992360988E+04  0.00000000000E+00 0.  1.
          1    1    1    2  502    0 -0.19454788548E+02 -0.21132997495E+02 -0.10448917373E+04  0.10452864847E+04  0.00000000000E+00 0.  1.
         -1    1    1    2    0  501  0.19454788548E+02  0.21132997495E+02 -0.55377475245E+03  0.55451922314E+03  0.00000000000E+00 0. -1.
</event>
<event>
 4    1  0.6769686E+001  0.4331558E+02  0.7546771E-02  0.1330080E+00
          2   -1    0    0  502    0  0.00000000000E+00  0.00000000000E+00  0.80816881926E+02  0.80816881926E+02  0.00000000000E+00 0. -1.
         -2   -1    0    0    0  501 -0.00000000000E+00 -0.00000000000E+00 -0.32035479679E+02  0.32035479679E+02  0.00000000000E+00 0.  1.
          1    1    1    2  502    0 -0.86634449217E+01 -0.42440362031E+02 -0.52158680065E+01  0.43628487096E+02  0.00000000000E+00 0.  1.
         -1    1    1    2    0  501  0.86634449217E+01  0.42440362031E+02  0.53997270254E+02  0.69223874509E+02  0.00000000000E+00 0. -1.
</event>
<event>
 4    1  0.6769686E+001  0.2016568E+02  0.7546771E-02  0.1531518E+00
          2   -1    0    0  502    0  0.00000000000E+00  0.00000000000E+00  0.16375842737E+04  0.16375842737E+04  0.00000000000E+00 0. -1.
         -2   -1    0    0    0  501 -0.00000000000E+00 -0.00000000000E+00 -0.25826663205E+00  0.25826663205E+00  0.00000000000E+00 0.  1.
          1    1    1    2  502    0  0.17433718029E+02  0.10135092953E+02  0.65799973914E+03  0.65830867482E+03  0.00000000000E+00 0. -1.
         -1    1    1    2    0  501 -0.17433718029E+02 -0.10135092953E+02  0.97932626793E+03  0.97953386552E+03  0.00000000000E+00 0.  1.
</event>
<event>
 4    1  0.6769686E+001  0.2066406E+02  0.7546771E-02  0.1524116E+00
          2   -1    0    0  502    0  0.00000000000E+00  0.00000000000E+00  0.92248561377E+02  0.92248561377E+02  0.00000000000E+00 0. -1.
         -2   -1    0    0    0  501 -0.00000000000E+00 -0.00000000000E+00 -0.52100258765E+01  0.52100258765E+01  0.00000000000E+00 0.  1.
          1    1    1    2  502    0 -0.20396787454E+02  0.33127941430E+01  0.27243972886E+02  0.34194116484E+02  0.00000000000E+00 0.  1.
         -1    1    1    2    0  501  0.20396787454E+02 -0.33127941430E+01  0.59794562614E+02  0.63264470770E+02  0.00000000000E+00 0. -1.
</event>
<event>
 4    1  0.6769686E+001  0.2481271E+02  0.7546771E-02  0.1470910E+00
          2   -1    0    0  502    0  0.00000000000E+00  0.00000000000E+00  0.17708570181E+04  0.17708570181E+04  0.00000000000E+00 0. -1.
         -2   -1    0    0    0  501 -0.00000000000E+00 -0.00000000000E+00 -0.35033727305E+00  0.35033727305E+00  0.00000000000E+00 0.  1.
          1    1    1    2  502    0 -0.22381714310E+02  0.10711182269E+02  0.96255370905E+03  0.96287346695E+03  0.00000000000E+00 0.  1.
         -1    1    1    2    0  501  0.22381714310E+02 -0.10711182269E+02  0.80795297183E+03  0.80833388847E+03  0.00000000000E+00 0. -1.
</event>
<event>
 4    1  0.6769686E+001  0.2606038E+02  0.7546771E-02  0.1457282E+00
          2   -1    0    0  502    0  0.00000000000E+00  0.00000000000E+00  0.19858021978E+04  0.19858021978E+04  0.00000000000E+00 0. -1.
         -2   -1    0    0    0  501 -0.00000000000E+00 -0.00000000000E+00 -0.34532658686E+00  0.34532658686E+00  0.00000000000E+00 0.  1.
          1    1    1    2  502    0 -0.20041558850E+02 -0.16657705173E+02  0.89525123727E+03  0.89563046010E+03  0.00000000000E+00 0. -1.
         -1    1    1    2    0  501  0.20041558850E+02  0.16657705173E+02  0.10902056339E+04  0.10905170643E+04  0.00000000000E+00 0.  1.
</event>
<event>
 4    1  0.6769686E+001  0.2585936E+02  0.7546771E-02  0.1459415E+00
          2   -1    0    0  502    0  0.00000000000E+00  0.00000000000E+00  0.21711281493E+03  0.21711281493E+03  0.00000000000E+00 0.  1.
         -2   -1    0    0    0  501 -0.00000000000E+00 -0.00000000000E+00 -0.33637052513E+01  0.33637052513E+01  0.00000000000E+00 0. -1.
          1    1    1    2  502    0  0.19535220073E+02  0.16943482926E+02  0.13889008607E+03  0.14127689990E+03  0.00000000000E+00 0.  1.
         -1    1    1    2    0  501 -0.19535220073E+02 -0.16943482926E+02  0.74859023602E+02  0.79199620275E+02  0.00000000000E+00 0. -1.
</event>
<event>
 4    1  0.6769686E+001  0.2404433E+02  0.7546771E-02  0.1479785E+00
          2   -1    0    0  502    0  0.00000000000E+00  0.00000000000E+00  0.32683209782E+01  0.32683209782E+01  0.00000000000E+00 0.  1.
         -2   -1    0    0    0  501 -0.00000000000E+00 -0.00000000000E+00 -0.19445041610E+03  0.19445041610E+03  0.00000000000E+00 0. -1.
          1    1    1    2  502    0 -0.23914337572E+02  0.24968201962E+01 -0.12530049580E+03  0.12758661333E+03  0.00000000000E+00 0. -1.
         -1    1    1    2    0  501  0.23914337572E+02 -0.24968201962E+01 -0.65881599319E+02  0.70132123748E+02  0.00000000000E+00 0.  1.
</event>
<event>
 4    1  0.6769686E+001  0.2197027E+02  0.7546771E-02  0.1505850E+00
          2   -1    0    0  502    0  0.00000000000E+00  0.00000000000E+00  0.62567991245E+03  0.62567991245E+03  0.00000000000E+00 0. -1.
         -2   -1    0    0    0  501 -0.00000000000E+00 -0.00000000000E+00 -0.79574005326E+00  0.79574005326E+00  0.00000000000E+00 0.  1.
          1    1    1    2  502    0  0.21893559511E+02  0.18343069343E+01  0.36714787453E+03  0.36780464163E+03  0.00000000000E+00 0. -1.
         -1    1    1    2    0  501 -0.21893559511E+02 -0.18343069343E+01  0.25773629786E+03  0.25867101087E+03  0.00000000000E+00 0.  1.
</event>
<event>
 4    1  0.6769686E+001  0.2123202E+02  0.7546771E-02  0.1515978E+00
          2   -1    0    0  502    0  0.00000000000E+00  0.00000000000E+00  0.98541850595E+03  0.98541850595E+03  0.00000000000E+00 0. -1.
         -2   -1    0    0    0  501 -0.00000000000E+00 -0.00000000000E+00 -0.56267445682E+00  0.56267445682E+00  0.00000000000E+00 0.  1.
          1    1    1    2  502    0  0.13572457042E+02  0.16327493109E+02  0.27925661363E+03  0.28006259100E+03  0.00000000000E+00 0.  1.
         -1    1    1    2    0  501 -0.13572457042E+02 -0.16327493109E+02  0.70559921786E+03  0.70591858941E+03  0.00000000000E+00 0. -1.
</event>
<event>
 4    1  0.6769686E+001  0.4317451E+02  0.7546771E-02  0.1330824E+00
          2   -1    0    0  502    0  0.00000000000E+00  0.00000000000E+00  0.26308465194E+04  0.26308465194E+04  0.00000000000E+00 0.  1.
         -2   -1    0    0    0  501 -0.00000000000E+00 -0.00000000000E+00 -0.18564876099E+01  0.18564876099E+01  0.00000000000E+00 0. -1.
          1    1    1    2  502    0 -0.42902093891E+02 -0.48423788990E+01  0.27938040087E+03  0.28269673979E+03  0.00000000000E+00 0. -1.
         -1    1    1    2    0  501  0.42902093891E+02  0.48423788990E+01  0.23496096309E+04  0.23500062673E+04  0.00000000000E+00 0.  1.
</event>
<event>
 4    1  0.6769686E+001  0.5841498E+02  0.7546771E-02  0.1265315E+00
          2   -1    0    0  502    0  0.00000000000E+00  0.00000000000E+00  0.12434819692E+04  0.12434819692E+04  0.00000000000E+00 0.  1.
         -2   -1    0    0    0  501 -0.00000000000E+00 -0.00000000000E+00 -0.27957268387E+01  0.27957268387E+01  0.00000000000E+00 0. -1.
          1    1    1    2  502    0  0.80989196227E+01 -0.57850824770E+02  0.53571142242E+03  0.53888685133E+03  0.00000000000E+00 0.  1.
         -1    1    1    2    0  501 -0.80989196227E+01  0.57850824770E+02  0.70497481989E+03  0.70739084466E+03  0.00000000000E+00 0. -1.
</event>
<event>
 4    1  0.6769686E+001  0.2967097E+02  0.7546771E-02  0.1422478E+00
          2   -1    0    0  502    0  0.00000000000E+00  0.00000000000E+00  0.11900955414E+04  0.11900955414E+04  0.00000000000E+00 0.  1.
         -2   -1    0    0    0  501 -0.00000000000E+00 -0.00000000000E+00 -0.80604338060E+00  0.80604338060E+00  0.00000000000E+00 0. -1.
          1    1    1    2  502    0  0.21707274539E+01 -0.29591456555E+02  0.76541826401E+03  0.76599313655E+03  0.00000000000E+00 0.  1.
         -1    1    1    2    0  501 -0.21707274539E+01  0.29591456555E+02  0.42387123401E+03  0.42490844823E+03  0.00000000000E+00 0. -1.
</event>
<event>
 4    1  0.6769686E+001  0.2495931E+02  0.7546771E-02  0.1469259E+00
          2   -1    0    0  502    0  0.00000000000E+00  0.00000000000E+00  0.20953008282E+02  0.20953008282E+02  0.00000000000E+00 0. -1.
         -2   -1    0    0    0  501 -0.00000000000E+00 -0.00000000000E+00 -0.56107060694E+02  0.56107060694E+02  0.00000000000E+00 0.  1.
          1    1    1    2  502    0  0.19300879975E+02 -0.15825390746E+02  0.88403979880E+01  0.26478663045E+02  0.00000000000E+00 0. -1.
         -1    1    1    2    0  501 -0.19300879975E+02  0.15825390746E+02 -0.43994450400E+02  0.50581405932E+02  0.00000000000E+00 0.  1.
</event>
<event>
 4    1  0.6769686E+001  0.2141056E+02  0.7546771E-02  0.1513483E+00
          2   -1    0    0  502    0  0.00000000000E+00  0.00000000000E+00  0.95520097067E+03  0.95520097067E+03  0.00000000000E+00 0.  1.
         -2   -1    0    0    0  501 -0.00000000000E+00 -0.00000000000E+00 -0.49291553146E+00  0.49291553146E+00  0.00000000000E+00 0. -1.
          1    1    1    2  502    0  0.17637328585E+02 -0.12138241881E+02  0.55496721795E+03  0.55538007281E+03  0.00000000000E+00 0.  1.
         -1    1    1    2    0  501 -0.17637328585E+02  0.12138241881E+02  0.39974083719E+03  0.40031381339E+03  0.00000000000E+00 0. -1.
</event>
<event>
 4    1  0.6769686E+001  0.2734289E+02  0.7546771E-02  0.1444194E+00
          2   -1    0    0  502    0  0.00000000000E+00  0.00000000000E+00  0.24257197473E+04  0.24257197473E+04  0.00000000000E+00 0.  1.
         -2   -1    0    0    0  501 -0.00000000000E+00 -0.00000000000E+00 -0.37812983450E+00  0.37812983450E+00  0.00000000000E+00 0. -1.
          1    1    1    2  502    0 -0.61696780802E+01 -0.26637734093E+02  0.69105041723E+03  0.69159114581E+03  0.00000000000E+00 0. -1.
         -1    1    1    2    0  501  0.61696780802E+01  0.26637734093E+02  0.17342912003E+04  0.17345067314E+04  0.00000000000E+00 0.  1.
</event>
<event>
 4    1  0.6769686E+001  0.2358536E+02  0.7546771E-02  0.1485276E+00
          2   -1    0    0  502    0  0.00000000000E+00  0.00000000000E+00  0.55127783105E+03  0.55127783105E+03  0.00000000000E+00 0. -1.
         -2   -1    0    0    0  501 -0.00000000000E+00 -0.00000000000E+00 -0.13009555417E+01  0.13009555417E+01  0.00000000000E+00 0.  1.
          1    1    1    2  502    0  0.22408095848E+02 -0.73584198160E+01  0.14411510025E+03  0.14603229514E+03  0.00000000000E+00 0.  1.
         -1    1    1    2    0  501 -0.22408095848E+02  0.73584198160E+01  0.40586177526E+03  0.40654649146E+03  0.00000000000E+00 0. -1.
</event>
<event>
 4    1  0.6769686E+001  0.3465115E+02  0.7546771E-02  0.1383032E+00
          2   -1    0    0  502    0  0.00000000000E+00  0.00000000000E+00  0.16887677148E+02  0.16887677148E+02  0.00000000000E+00 0. -1.
         -2   -1    0    0    0  501 -0.00000000000E+00 -0.00000000000E+00 -0.85944953428E+02  0.85944953428E+02  0.00000000000E+00 0.  1.
          1    1    1    2  502    0  0.14076683666E+02 -0.31663058055E+02 -0.55897933744E+02  0.65766870575E+02  0.00000000000E+00 0.  1.
         -1    1    1    2    0  501 -0.14076683666E+02  0.31663058055E+02 -0.13159342536E+02  0.37065760000E+02  0.00000000000E+00 0. -1.
</event>
<event>
 4    1  0.6769686E+001  0.2381582E+02  0.7546771E-02  0.1482500E+00
          2   -1    0    0  502    0  0.00000000000E+00  0.00000000000E+00  0.13844769172E+04  0.13844769172E+04  0.00000000000E+00 0.  1.
         -2   -1    0    0    0  501 -0.00000000000E+00 -0.00000000000E+00 -0.53341469081E+00  0.53341469081E+00  0.00000000000E+00 0. -1.
          1    1    1    2  502    0 -0.23815361275E+02  0.14734009746E+00  0.35844132318E+03  0.35923164574E+03  0.00000000000E+00 0. -1.
         -1    1    1    2    0  501  0.23815361275E+02 -0.14734009746E+00  0.10255021793E+04  0.10257786861E+04  0.00000000000E+00 0.  1.
</event>
<event>
 4    1  0.6769686E+001  0.2269131E+02  0.7546771E-02  0.1496411E+00
          2   -1    0    0  502    0  0.00000000000E+00  0.00000000000E+00  0.79746222101E+01  0.79746222101E+01  0.00000000000E+00 0.  1.
         -2   -1    0    0    0  501 -0.00000000000E+00 -0.00000000000E+00 -0.64631350647E+02  0.64631350647E+02  0.00000000000E+00 0. -1.
          1    1    1    2  502    0  0.17330283115E+02  0.14647761912E+02 -0.29475866252E+02  0.37198418423E+02  0.00000000000E+00 0. -1.
         -1    1    1    2    0  501 -0.17330283115E+02 -0.14647761912E+02 -0.27180862185E+02  0.35407554434E+02  0.00000000000E+00 0.  1.
</event>
<event>
 4    1  0.6769686E+001  0.2628279E+02  0.7546771E-02  0.1454949E+00
          2   -1    0    0  502    0  0.00000000000E+00  0.00000000000E+00  0.19452058820E+04  0.19452058820E+04  0.00000000000E+00 0.  1.
         -2   -1    0    0    0  501 -0.00000000000E+00 -0.00000000000E+00 -0.42705412640E+00  0.42705412640E+00  0.00000000000E+00 0. -1.
          1    1    1    2  502    0 -0.25633027183E+02 -0.58080019615E+01  0.57313330010E+03  0.57373562261E+03  0.00000000000E+00 0.  1.
         -1    1    1    2    0  501  0.25633027183E+02  0.58080019615E+01  0.13716455278E+04  0.13718973135E+04  0.00000000000E+00 0. -1.
</event>
<event>
 4    1  0.6769686E+001  0.2221377E+02  0.7546771E-02  0.1502614E+00
          2   -1    0    0  502    0  0.00000000000E+00  0.00000000000E+00  0.93085975226E+02  0.93085975226E+02  0.00000000000E+00 0.  1.
         -2   -1    0    0    0  501 -0.00000000000E+00 -0.00000000000E+00 -0.78574802691E+01  0.78574802691E+01  0.00000000000E+00 0. -1.
          1    1    1    2  502    0 -0.18554511855E+02  0.12213989523E+02  0.13825333298E+02  0.26164695509E+02  0.00000000000E+00 0. -1.
         -1    1    1    2    0  501  0.18554511855E+02 -0.12213989523E+02  0.71403161658E+02  0.74778759986E+02  0.00000000000E+00 0.  1.
</event>
<event>
 4    1  0.6769686E+001  0.2186118E+02  0.7546771E-02  0.1507316E+00
          2   -1    0    0  502    0  0.00000000000E+00  0.00000000000E+00  0.15379207664E+04  0.15379207664E+04  0.00000000000E+00 0.  1.
         -2   -1    0    0    0  501 -0.00000000000E+00 -0.00000000000E+00 -0.32422549255E+00  0.32422549255E+00  0.00000000000E+00 0. -1.
          1    1    1    2  502    0  0.16934947015E+02 -0.13824563275E+02  0.92558966880E+03  0.92584779849E+03  0.00000000000E+00 0.  1.
         -1    1    1    2    0  501 -0.16934947015E+02  0.13824563275E+02  0.61200687209E+03  0.61239719339E+03  0.00000000000E+00 0. -1.
</event>
<event>
 4    1  0.6769686E+001  0.3373152E+02  0.7546771E-02  0.1389707E+00
          2   -1    0    0  502    0  0.00000000000E+00  0.00000000000E+00  0.94692649521E+02  0.94692649521E+02  0.00000000000E+00 0.  1.
         -2   -1    0    0    0  501 -0.00000000000E+00 -0.00000000000E+00 -0.21383292240E+02  0.21383292240E+02  0.00000000000E+00 0. -1.
          1    1    1    2  502    0  0.16883526037E+02 -0.29202088936E+02  0.75068257143E+02  0.82298594642E+02  0.00000000000E+00 0.  1.
         -1    1    1    2    0  501 -0.16883526037E+02  0.29202088936E+02 -0.17588998622E+01  0.33777347119E+02  0.00000000000E+00 0. -1.
</event>
<event>
 4    1  0.6769686E+001  0.2161722E+02  0.7546771E-02  0.1510632E+00
          2   -1    0    0  502    0  0.00000000000E+00  0.00000000000E+00  0.46646433409E+02  0.46646433409E+02  0.00000000000E+00 0. -1.
         -2   -1    0    0    0  501 -0.00000000000E+00 -0.00000000000E+00 -0.10047983399E+02  0.10047983399E+02  0.00000000000E+00 0.  1.
          1    1    1    2  502    0 -0.12565670281E+02 -0.17590000347E+02  0.16750842111E+02  0.27347667053E+02  0.00000000000E+00 0. -1.
         -1    1    1    2    0  501  0.12565670281E+02  0.17590000347E+02  0.19847607900E+02  0.29346749755E+02  0.00000000000E+00 0.  1.
</event>
<event>
 4    1  0.6769686E+001  0.2255632E+02  0.7546771E-02  0.1498146E+00
          2   -1    0    0  502    0  0.00000000000E+00  0.00000000000E+00  0.35443620430E+03  0.35443620430E+03  0.00000000000E+00 0.  1.
         -2   -1    0    0    0  501 -0.00000000000E+00 -0.00000000000E+00 -0.22755719743E+01  0.22755719743E+01  0.00000000000E+00 0. -1.
          1    1    1    2  502    0  0.11635747470E+02 -0.19323485544E+02  0.67711484235E+02  0.71369691116E+02  0.00000000000E+00 0. -1.
         -1    1    1    2    0  501 -0.11635747470E+02  0.19323485544E+02  0.28444914809E+03  0.28534208516E+03  0.00000000000E+00 0.  1.
</event>
<event>
 4    1  0.6769686E+001  0.3397162E+02  0.7546771E-02  0.1387941E+00
          2   -1    0    0  502    0  0.00000000000E+00  0.00000000000E+00  0.27401199319E+04  0.27401199319E+04  0.00000000000E+00 0.  1.
         -2   -1    0    0    0  501 -0.00000000000E+00 -0.00000000000E+00 -0.47986229855E+00  0.47986229855E+00  0.00000000000E+00 0. -1.
          1    1    1    2  502    0  0.24970168444E+02  0.23033927394E+02  0.89060783108E+03  0.89125550764E+03  0.00000000000E+00 0. -1.
         -1    1    1    2    0  501 -0.24970168444E+02 -0.23033927394E+02  0.18490322386E+04  0.18493442866E+04  0.00000000000E+00 0.  1.
</event>
<event>
 4    1  0.6769686E+001  0.2680444E+02  0.7546771E-02  0.1449582E+00
          2   -1    0    0  502    0  0.00000000000E+00  0.00000000000E+00  0.36003399979E+01  0.36003399979E+01  0.00000000000E+00 0.  1.
         -2   -1    0    0    0  501 -0.00000000000E+00 -0.00000000000E+00 -0.27658549488E+03  0.27658549488E+03  0.00000000000E+00 0. -1.
          1    1    1    2  502    0 -0.69058853571E+01 -0.25899551360E+02 -0.21042301870E+03  0.21212337167E+03  0.00000000000E+00 0. -1.
         -1    1    1    2    0  501  0.69058853571E+01  0.25899551360E+02 -0.62562136188E+02  0.68062463206E+02  0.00000000000E+00 0.  1.
</event>
<event>
 4    1  0.6769686E+001  0.2286541E+02  0.7546771E-02  0.1494195E+00
          2   -1    0    0  502    0  0.00000000000E+00  0.00000000000E+00  0.37132639333E+00  0.37132639333E+00  0.00000000000E+00 0.  1.
         -2   -1    0    0    0  501 -0.00000000000E+00 -0.00000000000E+00 -0.14795570708E+04  0.14795570708E+04  0.00000000000E+00 0. -1.
          1    1    1    2  502    0  0.73682960921E+01 -0.21645677714E+02 -0.57686030277E+03  0.57731329108E+03  0.00000000000E+00 0.  1.
         -1    1    1    2    0  501 -0.73682960921E+01  0.21645677714E+02 -0.90232544168E+03  0.90261510616E+03  0.00000000000E+00 0. -1.
</event>
<event>
 4    1  0.6769686E+001  0.4102450E+02  0.7546771E-02  0.1342585E+00
          2   -1    0    0  502    0  0.00000000000E+00  0.00000000000E+00  0.34369774278E+02  0.34369774278E+02  0.00000000000E+00 0. -1.
         -2   -1    0    0    0  501 -0.00000000000E+00 -0.00000000000E+00 -0.83705426536E+02  0.83705426536E+02  0.00000000000E+00 0.  1.
          1    1    1    2  502    0  0.33597506552E+02  0.23541820051E+02 -0.62700110793E+02  0.74928723673E+02  0.00000000000E+00 0.  1.
         -1    1    1    2    0  501 -0.33597506552E+02 -0.23541820051E+02  0.13364458535E+02  0.43146477142E+02  0.00000000000E+00 0. -1.
</event>
<event>
 4    1  0.6769686E+001  0.2258731E+02  0.7546771E-02  0.1497746E+00
          2   -1    0    0  502    0  0.00000000000E+00  0.00000000000E+00  0.91148493470E+01  0.91148493470E+01  0.00000000000E+00 0.  1.
         -2   -1    0    0    0  501 -0.00000000000E+00 -0.00000000000E+00 -0.57200131868E+02  0.57200131868E+02  0.00000000000E+00 0. -1.
          1    1    1    2  502    0 -0.17763387183E+02 -0.13951651144E+02 -0.28898977343E+02  0.36678841112E+02  0.00000000000E+00 0. -1.
         -1    1    1    2    0  501  0.17763387183E+02  0.13951651144E+02 -0.19186305178E+02  0.29636140103E+02  0.00000000000E+00 0.  1.
</event>
<event>
 4    1  0.6769686E+001  0.2375760E+02  0.7546771E-02  0.1483198E+00
          2   -1    0    0  502    0  0.00000000000E+00  0.00000000000E+00  0.20181927001E+04  0.20181927001E+04  0.00000000000E+00 0.  1.
         -2   -1    0    0    0  501 -0.00000000000E+00 -0.00000000000E+00 -0.30210190117E+00  0.30210190117E+00  0.00000000000E+00 0. -1.
          1    1    1    2  502    0 -0.17270677696E+02  0.16314023707E+02  0.12839717442E+04  0.12841915214E+04  0.00000000000E+00 0. -1.
         -1    1    1    2    0  501  0.17270677696E+02 -0.16314023707E+02  0.73391885398E+03  0.73430328061E+03  0.00000000000E+00 0.  1.
</event>
<event>
 4    1  0.6769686E+001  0.2238915E+02  0.7546771E-02  0.1500314E+00
          2   -1    0    0  502    0  0.00000000000E+00  0.00000000000E+00  0.67874472424E+02  0.67874472424E+02  0.00000000000E+00 0. -1.
         -2   -1    0    0    0  501 -0.00000000000E+00 -0.00000000000E+00 -0.73879492693E+01  0.73879492693E+01  0.00000000000E+00 0.  1.
          1    1    1    2  502    0 -0.10061326285E+02 -0.20001088726E+02  0.29531638620E+02  0.37059297301E+02  0.00000000000E+00 0. -1.
         -1    1    1    2    0  501  0.10061326285E+02  0.20001088726E+02  0.30954884534E+02  0.38203124392E+02  0.00000000000E+00 0.  1.
</event>
<event>
 4    1  0.6769686E+001  0.2073124E+02  0.7546771E-02  0.1523137E+00
          2   -1    0    0  502    0  0.00000000000E+00  0.00000000000E+00  0.20696937131E+03  0.20696937131E+03  0.00000000000E+00 0.  1.
         -2   -1    0    0    0  501 -0.00000000000E+00 -0.00000000000E+00 -0.20778140032E+01  0.20778140032E+01  0.00000000000E+00 0. -1.
          1    1    1    2  502    0  0.12615383741E+02 -0.16451029307E+02  0.99877758754E+02  0.10200662217E+03  0.00000000000E+00 0. -1.
         -1    1    1    2    0  501 -0.12615383741E+02  0.16451029307E+02  0.10501379856E+03  0.10704056315E+03  0.00000000000E+00 0.  1.
</event>
<event>
 4    1  0.6769686E+001  0.2583739E+02  0.7546771E-02  0.1459650E+00
          2   -1    0    0  502    0  0.00000000000E+00  0.00000000000E+00  0.82764374291E+01  0.82764374291E+01  0.00000000000E+00 0. -1.
         -2   -1    0    0    0  501 -0.00000000000E+00 -0.00000000000E+00 -0.81563176041E+02  0.81563176041E+02  0.00000000000E+00 0.  1.
          1    1    1    2  502    0 -0.23922032616E+02  0.97625281019E+01 -0.31914299428E+02  0.41062064091E+02  0.00000000000E+00 0. -1.
         -1    1    1    2    0  501  0.23922032616E+02 -0.97625281019E+01 -0.41372439184E+02  0.48777549379E+02  0.00000000000E+00 0.  1.
</event>
<event>
 4    1  0.6769686E+001  0.2441849E+02  0.7546771E-02  0.1475415E+00
          2   -1    0    0  502    0  0.00000000000E+00  0.00000000000E+00  0.11333105003E+04  0.11333105003E+04  0.00000000000E+00 0.  1.
         -2   -1    0    0    0  501 -0.00000000000E+00 -0.00000000000E+00 -0.55283259050E+00  0.55283259050E+00  0.00000000000E+00 0. -1.
          1    1    1    2  502    0  0.46505969436E+01 -0.23971536160E+02  0.69098916286E+03  0.69142048406E+03  0.00000000000E+00 0. -1.
         -1    1    1    2    0  501 -0.46505969436E+01  0.23971536160E+02  0.44176850482E+03  0.44244284879E+03  0.00000000000E+00 0.  1.
</event>
<event>
 4    1  0.6769686E+001  0.3304758E+02  0.7546771E-02  0.1394835E+00
          2   -1    0    0  502    0  0.00000000000E+00  0.00000000000E+00  0.64606907396E+03  0.64606907396E+03  0.00000000000E+00 0. -1.
         -2   -1    0    0    0  501 -0.00000000000E+00 -0.00000000000E+00 -0.22577824736E+01  0.22577824736E+01  0.00000000000E+00 0.  1.
          1    1    1    2  502    0  0.31988054122E+02 -0.83010012114E+01  0.48440247560E+03  0.48552847558E+03  0.00000000000E+00 0. -1.
         -1    1    1    2    0  501 -0.31988054122E+02  0.83010012114E+01  0.15940881589E+03  0.16279838086E+03  0.00000000000E+00 0.  1.
</event>
<event>
 4    1  0.6769686E+001  0.4112591E+02  0.7546771E-02  0.1342011E+00
          2   -1    0    0  502    0  0.00000000000E+00  0.00000000000E+00  0.10024055128E+04  0.10024055128E+04  0.00000000000E+00 0.  1.
         -2   -1    0    0    0  501 -0.00000000000E+00 -0.00000000000E+00 -0.24183553229E+01  0.24183553229E+01  0.00000000000E+00 0. -1.
          1    1    1    2  502    0 -0.30576741286E+02  0.27502795620E+02  0.22375754404E+03  0.22750555903E+03  0.00000000000E+00 0. -1.
         -1    1    1    2    0  501  0.30576741286E+02 -0.27502795620E+02  0.77622961341E+03  0.77731830906E+03  0.00000000000E+00 0.  1.
</event>
<event>
 4    1  0.6769686E+001  0.2327408E+02  0.7546771E-02  0.1489085E+00
          2   -1    0    0  502    0  0.00000000000E+00  0.00000000000E+00  0.31362409484E+03  0.31362409484E+03  0.00000000000E+00 0.  1.
         -2   -1    0    0    0  501 -0.00000000000E+00 -0.00000000000E+00 -0.33712137974E+01  0.33712137974E+01  0.00000000000E+00 0. -1.
          1    1    1    2  502    0 -0.90950511178E+01 -0.21423420358E+02  0.44442131045E+02  0.50167578240E+02  0.00000000000E+00 0. -1.
         -1    1    1    2    0  501  0.90950511178E+01  0.21423420358E+02  0.26581075000E+03  0.26682773040E+03  0.00000000000E+00 0.  1.
</event>
<event>
 4    1  0.6769686E+001  0.3280635E+02  0.7546771E-02  0.1396678E+00
          2   -1    0    0  502    0  0.00000000000E+00  0.00000000000E+00  0.32288991114E+03  0.32288991114E+03  0.00000000000E+00 0. -1.
         -2   -1    0    0    0  501 -0.00000000000E+00 -0.00000000000E+00 -0.41286855003E+01  0.41286855003E+01  0.00000000000E+00 0.  1.
          1    1    1    2  502    0  0.22842074940E+02  0.23547736395E+02  0.87608950570E+02  0.93549903778E+02  0.00000000000E+00 0.  1.
         -1    1    1    2    0  501 -0.22842074940E+02 -0.23547736395E+02  0.23115227507E+03  0.23346869286E+03  0.00000000000E+00 0. -1.
</event>
<event>
 4    1  0.6769686E+001  0.2171960E+02  0.7546771E-02  0.1509234E+00
          2   -1    0    0  502    0  0.00000000000E+00  0.00000000000E+00  0.24934938153E+03  0.24934938153E+03  0.00000000000E+00 0.  1.
         -2   -1    0    0    0  501 -0.00000000000E+00 -0.00000000000E+00 -0.26594423895E+01  0.26594423895E+01  0.00000000000E+00 0. -1.
          1    1    1    2  502    0 -0.37683522365E+00  0.21716327603E+02  0.19103820633E+03  0.19226891888E+03  0.00000000000E+00 0.  1.
         -1    1    1    2    0  501  0.37683522365E+00 -0.21716327603E+02  0.55651732809E+02  0.59739905038E+02  0.00000000000E+00 0. -1.
</event>
<event>
 4    1  0.6769686E+001  0.2606802E+02  0.7546771E-02  0.1457201E+00
          2   -1    0    0  502    0  0.00000000000E+00  0.00000000000E+00  0.39452746183E+03  0.39452746183E+03  0.00000000000E+00 0. -1.
         -2   -1    0    0    0  501 -0.00000000000E+00 -0.00000000000E+00 -0.17304844645E+01  0.17304844645E+01  0.00000000000E+00 0.  1.
          1    1    1    2  502    0 -0.25535404154E+02  0.52425905396E+01  0.20992473057E+03  0.21153707506E+03  0.00000000000E+00 0.  1.
         -1    1    1    2    0  501  0.25535404154E+02 -0.52425905396E+01  0.18287224679E+03  0.18472087123E+03  0.00000000000E+00 0. -1.
</event>
<event>
 4    1  0.6769686E+001  0.2122658E+02  0.7546771E-02  0.1516054E+00
          2   -1    0    0  502    0  0.00000000000E+00  0.00000000000E+00  0.54002884610E+03  0.54002884610E+03  0.00000000000E+00 0. -1.
         -2   -1    0    0    0  501 -0.00000000000E+00 -0.00000000000E+00 -0.10607755302E+01  0.10607755302E+01  0.00000000000E+00 0.  1.
          1    1    1    2  502    0  0.20054189887E+02 -0.69568160124E+01  0.39448100249E+03  0.39505167908E+03  0.00000000000E+00 0. -1.
         -1    1    1    2    0  501 -0.20054189887E+02  0.69568160124E+01  0.14448706808E+03  0.14603794255E+03  0.00000000000E+00 0.  1.
</event>
<event>
 4    1  0.6769686E+001  0.3311204E+02  0.7546771E-02  0.1394345E+00
          2   -1    0    0  502    0  0.00000000000E+00  0.00000000000E+00  0.89598275191E+03  0.89598275191E+03  0.00000000000E+00 0. -1.
         -2   -1    0    0    0  501 -0.00000000000E+00 -0.00000000000E+00 -0.18965583159E+01  0.18965583159E+01  0.00000000000E+00 0.  1.
          1    1    1    2  502    0 -0.21451206879E+02 -0.25224051480E+02  0.17963828536E+03  0.18266450289E+03  0.00000000000E+00 0.  1.
         -1    1    1    2    0  501  0.21451206879E+02  0.25224051480E+02  0.71444790824E+03  0.71521480734E+03  0.00000000000E+00 0. -1.
</event>
<event>
 4    1  0.6769686E+001  0.2146388E+02  0.7546771E-02  0.1512744E+00
          2   -1    0    0  502    0  0.00000000000E+00  0.00000000000E+00  0.73223588071E+01  0.73223588071E+01  0.00000000000E+00 0.  1.
         -2   -1    0    0    0  501 -0.00000000000E+00 -0.00000000000E+00 -0.74434310080E+02  0.74434310080E+02  0.00000000000E+00 0. -1.
          1    1    1    2  502    0 -0.20889914858E+02  0.49304741652E+01 -0.17475859915E+02  0.27678580131E+02  0.00000000000E+00 0.  1.
         -1    1    1    2    0  501  0.20889914858E+02 -0.49304741652E+01 -0.49636091357E+02  0.54078088756E+02  0.00000000000E+00 0. -1.
</event>
<event>
 4    1  0.6769686E+001  0.3879453E+02  0.7546771E-02  0.1355698E+00
          2   -1    0    0  502    0  0.00000000000E+00  0.00000000000E+00  0.47987308095E+03  0.47987308095E+03  0.00000000000E+00 0.  1.
         -2   -1    0    0    0  501 -0.00000000000E+00 -0.00000000000E+00 -0.31875794134E+01  0.31875794134E+01  0.00000000000E+00 0. -1.
          1    1    1    2  502    0  0.22658343987E+02  0.31489922494E+02  0.26898371613E+03  0.27176691358E+03  0.00000000000E+00 0. -1.
         -1    1    1    2    0  501 -0.22658343987E+02 -0.31489922494E+02  0.20770178540E+03  0.21129374679E+03  0.00000000000E+00 0.  1.
</event>
<event>
 4    1  0.6769686E+001  0.2091150E+02  0.7546771E-02  0.1520532E+00
          2   -1    0    0  502    0  0.00000000000E+00  0.00000000000E+00  0.30095920632E+03  0.30095920632E+03  0.00000000000E+00 0. -1.
         -2   -1    0    0    0  501 -0.00000000000E+00 -0.00000000000E+00 -0.17776788639E+01  0.17776788639E+01  0.00000000000E+00 0.  1.
          1    1    1    2  502    0 -0.20612996857E+02 -0.35206831440E+01  0.84900027834E+02  0.87437438066E+02  0.00000000000E+00 0.  1.
         -1    1    1    2    0  501  0.20612996857E+02  0.35206831440E+01  0.21428149962E+03  0.21529944712E+03  0.00000000000E+00 0. -1.
</event>
<event>
 4    1  0.6769686E+001  0.2247505E+02  0.7546771E-02  0.1499197E+00
          2   -1    0    0  502    0  0.00000000000E+00  0.00000000000E+00  0.78031657462E+03  0.78031657462E+03  0.00000000000E+00 0. -1.
         -2   -1    0    0    0  501 -0.00000000000E+00 -0.00000000000E+00 -0.89880051658E+00  0.89880051658E+00  0.00000000000E+00 0.  1.
          1    1    1    2  502    0 -0.55565526601E+01  0.21777344608E+02  0.18310124899E+03  0.18447546015E+03  0.00000000000E+00 0.  1.
         -1    1    1    2    0  501  0.55565526601E+01 -0.21777344608E+02  0.59631652511E+03  0.59673991498E+03  0.00000000000E+00 0. -1.
</event>
<event>
 4    1  0.6769686E+001  0.2449636E+02  0.7546771E-02  0.1474517E+00
          2   -1    0    0  502    0  0.00000000000E+00  0.00000000000E+00  0.12264430988E+03  0.12264430988E+03  0.00000000000E+00 0. -1.
         -2   -1    0    0    0  501 -0.00000000000E+00 -0.00000000000E+00 -0.61399191097E+01  0.61399191097E+01  0.00000000000E+00 0.  1.
          1    1    1    2  502    0 -0.22205414836E+02  0.10343646033E+02  0.29231417740E+02  0.38138527035E+02  0.00000000000E+00 0.  1.
         -1    1    1    2    0  501  0.22205414836E+02 -0.10343646033E+02  0.87272973028E+02  0.90645701952E+02  0.00000000000E+00 0. -1.
</event>
<event>
 4    1  0.6769686E+001  0.2509304E+02  0.7546771E-02  0.1467765E+00
          2   -1    0    0  502    0  0.00000000000E+00  0.00000000000E+00  0.12139082672E+03  0.12139082672E+03  0.00000000000E+00 0.  1.
         -2   -1    0    0    0  501 -0.00000000000E+00 -0.00000000000E+00 -0.98343720233E+01  0.98343720233E+01  0.00000000000E+00 0. -1.
          1    1    1    2  502    0  0.24636852269E+02  0.47629987671E+01  0.10088223913E+03  0.10395617740E+03  0.00000000000E+00 0.  1.
         -1    1    1    2    0  501 -0.24636852269E+02 -0.47629987671E+01  0.10674215558E+02  0.27269021339E+02  0.00000000000E+00 0. -1.
</event>
<event>
 4    1  0.6769686E+001  0.2067385E+02  0.7546771E-02  0.1523973E+00
          2   -1    0    0  502    0  0.00000000000E+00  0.00000000000E+00  0.10494626213E+02  0.10494626213E+02  0.00000000000E+00 0. -1.
         -2   -1    0    0    0  501 -0.00000000000E+00 -0.00000000000E+00 -0.46576757409E+02  0.46576757409E+02  0.00000000000E+00 0.  1.
          1    1    1    2  502    0  0.13414474030E+02 -0.15730860691E+02 -0.79276960633E+01  0.22141735624E+02  0.00000000000E+00 0. -1.
         -1    1    1    2    0  501 -0.13414474030E+02  0.15730860691E+02 -0.28154435133E+02  0.34929647998E+02  0.00000000000E+00 0.  1.
</event>
<event>
 4    1  0.6769686E+001  0.2767132E+02  0.7546771E-02  0.1440979E+00
          2   -1    0    0  502    0  0.00000000000E+00  0.00000000000E+00  0.42097373928E+02  0.42097373928E+02  0.00000000000E+00 0.  1.
         -2   -1    0    0    0  501 -0.00000000000E+00 -0.00000000000E+00 -0.19287951247E+02  0.19287951247E+02  0.00000000000E+00 0. -1.
          1    1    1    2  502    0 -0.77222568558E+01 -0.26571951648E+02  0.40779027673E+01  0.27970183344E+02  0.00000000000E+00 0. -1.
         -1    1    1    2    0  501  0.77222568558E+01  0.26571951648E+02  0.18731519913E+02  0.33415141831E+02  0.00000000000E+00 0.  1.
</event>
<event>
 4    1  0.6769686E+001  0.2549549E+02  0.7546771E-02  0.1463336E+00
          2   -1    0    0  502    0  0.00000000000E+00  0.00000000000E+00  0.95540029427E+03  0.95540029427E+03  0.00000000000E+00 0. -1.
         -2   -1    0    0    0  501 -0.00000000000E+00 -0.00000000000E+00 -0.18266875367E+01  0.18266875367E+01  0.00000000000E+00 0.  1.
          1    1    1    2  502    0 -0.18375439746E+02 -0.17673803873E+02  0.97640893147E+02  0.10091463791E+03  0.00000000000E+00 0.  1.
         -1    1    1    2    0  501  0.18375439746E+02  0.17673803873E+02  0.85593271358E+03  0.85631234390E+03  0.00000000000E+00 0. -1.
</event>
<event>
 4    1  0.6769686E+001  0.7441282E+02  0.7546771E-02  0.1217448E+00
          2   -1    0    0  502    0  0.00000000000E+00  0.00000000000E+00  0.59123401247E+03  0.59123401247E+03  0.00000000000E+00 0.  1.
         -2   -1    0    0    0  501 -0.00000000000E+00 -0.00000000000E+00 -0.99114766206E+01  0.99114766206E+01  0.00000000000E+00 0. -1.
          1    1    1    2  502    0  0.45580641876E+02  0.58818979811E+02  0.36119934311E+03  0.36878480549E+03  0.00000000000E+00 0.  1.
         -1    1    1    2    0  501 -0.45580641876E+02 -0.58818979811E+02  0.22012319274E+03  0.23236068359E+03  0.00000000000E+00 0. -1.
</event>
<event>
 4    1  0.6769686E+001  0.2576062E+02  0.7546771E-02  0.1460471E+00
          2   -1    0    0  502    0  0.00000000000E+00  0.00000000000E+00  0.47893157065E+02  0.47893157065E+02  0.00000000000E+00 0.  1.
         -2   -1    0    0    0  501 -0.00000000000E+00 -0.00000000000E+00 -0.56170942977E+02  0.56170942977E+02  0.00000000000E+00 0. -1.
          1    1    1    2  502    0  0.15378243162E+02  0.20666861695E+02  0.41021919945E+02  0.48439730089E+02  0.00000000000E+00 0.  1.
         -1    1    1    2    0  501 -0.15378243162E+02 -0.20666861695E+02 -0.49299705857E+02  0.55624369953E+02  0.00000000000E+00 0. -1.
</event>
<event>
 4    1  0.6769686E+001  0.2169612E+02  0.7546771E-02  0.1509554E+00
          2   -1    0    0  502    0  0.00000000000E+00  0.00000000000E+00  0.53924206025E+01  0.53924206025E+01  0.00000000000E+00 0.  1.
         -2   -1    0    0    0  501 -0.00000000000E+00 -0.00000000000E+00 -0.10501834092E+03  0.10501834092E+03  0.00000000000E+00 0. -1.
          1    1    1    2  502    0  0.18463677255E+02 -0.11393599103E+02 -0.72493013511E+02  0.75670063342E+02  0.00000000000E+00 0. -1.
         -1    1    1    2    0  501 -0.18463677255E+02  0.11393599103E+02 -0.27132906804E+02  0.34740698178E+02  0.00000000000E+00 0.  1.
</event>
<event>
 4    1  0.6769686E+001  0.2955620E+02  0.7546771E-02  0.1423493E+00
          2   -1    0    0  502    0  0.00000000000E+00  0.00000000000E+00  0.16874532471E+02  0.16874532471E+02  0.00000000000E+00 0. -1.
         -2   -1    0    0    0  501 -0.00000000000E+00 -0.00000000000E+00 -0.53343382369E+02  0.53343382369E+02  0.00000000000E+00 0.  1.
          1    1    1    2  502    0 -0.42843169200E+00  0.29553096688E+02 -0.24267003682E+02  0.38242078203E+02  0.00000000000E+00 0.  1.
         -1    1    1    2    0  501  0.42843169200E+00 -0.29553096688E+02 -0.12201846216E+02  0.31975836637E+02  0.00000000000E+00 0. -1.
</event>
<event>
 4    1  0.6769686E+001  0.2169598E+02  0.7546771E-02  0.1509556E+00
          2   -1    0    0  502    0  0.00000000000E+00  0.00000000000E+00  0.17453709362E+02  0.17453709362E+02  0.00000000000E+00 0.  1.
         -2   -1    0    0    0  501 -0.00000000000E+00 -0.00000000000E+00 -0.93263681472E+02  0.93263681472E+02  0.00000000000E+00 0. -1.
          1    1    1    2  502    0 -0.16039855703E+02  0.14609541183E+02  0.87682248628E+01  0.23400799811E+02  0.00000000000E+00 0.  1.
         -1    1    1    2    0  501  0.16039855703E+02 -0.14609541183E+02 -0.84578196973E+02  0.87316591022E+02  0.00000000000E+00 0. -1.
</event>
<event>
 4    1  0.6769686E+001  0.2295631E+02  0.7546771E-02  0.1493047E+00
          2   -1    0    0  502    0  0.00000000000E+00  0.00000000000E+00  0.58956635132E+03  0.58956635132E+03  0.00000000000E+00 0.  1.
         -2   -1    0    0    0  501 -0.00000000000E+00 -0.00000000000E+00 -0.89450703264E+00  0.89450703264E+00  0.00000000000E+00 0. -1.
          1    1    1    2  502    0 -0.22771466500E+02  0.29073430031E+01  0.28642230063E+03  0.28734078484E+03  0.00000000000E+00 0.  1.
         -1    1    1    2    0  501  0.22771466500E+02 -0.29073430031E+01  0.30224954365E+03  0.30312007352E+03  0.00000000000E+00 0. -1.
</event>
<event>
 4    1  0.6769686E+001  0.2239864E+02  0.7546771E-02  0.1500191E+00
          2   -1    0    0  502    0  0.00000000000E+00  0.00000000000E+00  0.15242422108E+03  0.15242422108E+03  0.00000000000E+00 0.  1.
         -2   -1    0    0    0  501 -0.00000000000E+00 -0.00000000000E+00 -0.60883951190E+01  0.60883951190E+01  0.00000000000E+00 0. -1.
          1    1    1    2  502    0  0.20471197932E+02 -0.90900621259E+01  0.19449504524E+02  0.29664497306E+02  0.00000000000E+00 0. -1.
         -1    1    1    2    0  501 -0.20471197932E+02  0.90900621259E+01  0.12688632144E+03  0.12884811889E+03  0.00000000000E+00 0.  1.
</event>
<event>
 4    1  0.6769686E+001  0.2059480E+02  0.7546771E-02  0.1525129E+00
          2   -1    0    0  502    0  0.00000000000E+00  0.00000000000E+00  0.12326151897E+04  0.12326151897E+04  0.00000000000E+00 0. -1.
         -2   -1    0    0    0  501 -0.00000000000E+00 -0.00000000000E+00 -0.34650244211E+00  0.34650244211E+00  0.00000000000E+00 0.  1.
          1    1    1    2  502    0 -0.84497038093E+01  0.18781591924E+02  0.66744260206E+03  0.66776026592E+03  0.00000000000E+00 0. -1.
         -1    1    1    2    0  501  0.84497038093E+01 -0.18781591924E+02  0.56482608521E+03  0.56520142624E+03  0.00000000000E+00 0.  1.
</event>
<event>
 4    1  0.6769686E+001  0.2369357E+02  0.7546771E-02  0.1483968E+00
          2   -1    0    0  502    0  0.00000000000E+00  0.00000000000E+00  0.53034695314E+03  0.53034695314E+03  0.00000000000E+00 0.  1.
         -2   -1    0    0    0  501 -0.00000000000E+00 -0.00000000000E+00 -0.11583118167E+01  0.11583118167E+01  0.00000000000E+00 0. -1.
          1    1    1    2  502    0  0.11234952804E+01 -0.23666921860E+02  0.34259560082E+03  0.34341393556E+03  0.00000000000E+00 0.  1.
         -1    1    1    2    0  501 -0.11234952804E+01  0.23666921860E+02  0.18659304050E+03  0.18809132940E+03  0.00000000000E+00 0. -1.
</event>
<event>
 4    1  0.6769686E+001  0.2029631E+02  0.7546771E-02  0.1529553E+00
          2   -1    0    0  502    0  0.00000000000E+00  0.00000000000E+00  0.17082137997E+03  0.17082137997E+03  0.00000000000E+00 0.  1.
         -2   -1    0    0    0  501 -0.00000000000E+00 -0.00000000000E+00 -0.31511888577E+01  0.31511888577E+01  0.00000000000E+00 0. -1.
          1    1    1    2  502    0 -0.13749136086E+02  0.14929888717E+02  0.41691628438E+02  0.46369518027E+02  0.00000000000E+00 0. -1.
         -1    1    1    2    0  501  0.13749136086E+02 -0.14929888717E+02  0.12597856268E+03  0.12760305080E+03  0.00000000000E+00 0.  1.
</event>
<event>
 4    1  0.6769686E+001  0.2346577E+02  0.7546771E-02  0.1486731E+00
          2   -1    0    0  502    0  0.00000000000E+00  0.00000000000E+00  0.73132289847E+01  0.73132289847E+01  0.00000000000E+00 0.  1.
         -2   -1    0    0    0  501 -0.00000000000E+00 -0.00000000000E+00 -0.78964015403E+02  0.78964015403E+02  0.00000000000E+00 0. -1.
          1    1    1    2  502    0  0.77552312165E+01 -0.22147211453E+02 -0.26525392396E+02  0.35415237231E+02  0.00000000000E+00 0.  1.
         -1    1    1    2    0  501 -0.77552312165E+01  0.22147211453E+02 -0.45125394022E+02  0.50862007156E+02  0.00000000000E+00 0. -1.
</event>
<event>
 4    1  0.6769686E+001  0.2249698E+02  0.7546771E-02  0.1498913E+00
          2   -1    0    0  502    0  0.00000000000E+00  0.00000000000E+00  0.15884874031E+04  0.15884874031E+04  0.00000000000E+00 0.  1.
         -2   -1    0    0    0  501 -0.00000000000E+00 -0.00000000000E+00 -0.30938753107E+01  0.30938753107E+01  0.00000000000E+00 0. -1.
          1    1    1    2  502    0  0.52903380621E+01  0.21866107428E+02  0.38995292209E+02  0.45019408540E+02  0.00000000000E+00 0. -1.
         -1    1    1    2    0  501 -0.52903380621E+01 -0.21866107428E+02  0.15463982356E+04  0.15465618699E+04  0.00000000000E+00 0.  1.
</event>
<event>
 4    1  0.6769686E+001  0.2134866E+02  0.7546771E-02  0.1514345E+00
          2   -1    0    0  502    0  0.00000000000E+00  0.00000000000E+00  0.49174393297E+03  0.49174393297E+03  0.00000000000E+00 0.  1.
         -2   -1    0    0    0  501 -0.00000000000E+00 -0.00000000000E+00 -0.11646448674E+01  0.11646448674E+01  0.00000000000E+00 0. -1.
          1    1    1    2  502    0  0.72394233660E+01  0.20083727858E+02  0.35665619422E+03  0.35729456510E+03  0.00000000000E+00 0. -1.
         -1    1    1    2    0  501 -0.72394233660E+01 -0.20083727858E+02  0.13392309388E+03  0.13561401274E+03  0.00000000000E+00 0.  1.
</event>
<event>
 4    1  0.6769686E+001  0.5323770E+02  0.7546771E-02  0.1284714E+00
          2   -1    0    0  502    0  0.00000000000E+00  0.00000000000E+00  0.22079154711E+04  0.22079154711E+04  0.00000000000E+00 0.  1.
         -2   -1    0    0    0  501 -0.00000000000E+00 -0.00000000000E+00 -0.13339544979E+01  0.13339544979E+01  0.00000000000E+00 0. -1.
          1    1    1    2  502    0  0.12274704708E+02 -0.51803322144E+02  0.88884045290E+03  0.89043337947E+03  0.00000000000E+00 0. -1.
         -1    1    1    2    0  501 -0.12274704708E+02  0.51803322144E+02  0.13177410637E+04  0.13188160461E+04  0.00000000000E+00 0.  1.
</event>
<event>
 4    1  0.6769686E+001  0.2457573E+02  0.7546771E-02  0.1473606E+00
          2   -1    0    0  502    0  0.00000000000E+00  0.00000000000E+00  0.14537045728E+03  0.14537045728E+03  0.00000000000E+00 0.  1.
         -2   -1    0    0    0  501 -0.00000000000E+00 -0.00000000000E+00 -0.42179327771E+01  0.42179327771E+01  0.00000000000E+00 0. -1.
          1    1    1    2  502    0 -0.37652645854E+01  0.24285575861E+02  0.79736126006E+02  0.83437498781E+02  0.00000000000E+00 0.  1.
         -1    1    1    2    0  501  0.37652645854E+01 -0.24285575861E+02  0.61416398495E+02  0.66150891274E+02  0.00000000000E+00 0. -1.
</event>
<event>
 4    1  0.6769686E+001  0.2797478E+02  0.7546771E-02  0.1438055E+00
          2   -1    0    0  502    0  0.00000000000E+00  0.00000000000E+00  0.10355090603E+04  0.10355090603E+04  0.00000000000E+00 0.  1.
         -2   -1    0    0    0  501 -0.00000000000E+00 -0.00000000000E+00 -0.10345995175E+01  0.10345995175E+01  0.00000000000E+00 0. -1.
          1    1    1    2  502    0 -0.11284141395E+02 -0.25597975790E+02  0.78630069666E+03  0.78679817856E+03  0.00000000000E+00 0.  1.
         -1    1    1    2    0  501  0.11284141395E+02  0.25597975790E+02  0.24817376409E+03  0.24974548123E+03  0.00000000000E+00 0. -1.
</event>
<event>
 4    1  0.6769686E+001  0.8273314E+02  0.7546771E-02  0.1197641E+00
          2   -1    0    0  502    0  0.00000000000E+00  0.00000000000E+00  0.22037615105E+02  0.22037615105E+02  0.00000000000E+00 0.  1.
         -2   -1    0    0    0  501 -0.00000000000E+00 -0.00000000000E+00 -0.33667019811E+03  0.33667019811E+03  0.00000000000E+00 0. -1.
          1    1    1    2  502    0  0.24047489388E+02  0.79161168696E+02 -0.10740226884E+03  0.13557293139E+03  0.00000000000E+00 0. -1.
         -1    1    1    2    0  501 -0.24047489388E+02 -0.79161168696E+02 -0.20723031417E+03  0.22313488183E+03  0.00000000000E+00 0.  1.
</event>
<event>
 4    1  0.6769686E+001  0.3061468E+02  0.7546771E-02  0.1414329E+00
          2   -1    0    0  502    0  0.00000000000E+00  0.00000000000E+00  0.30053618060E+02  0.30053618060E+02  0.00000000000E+00 0.  1.
         -2   -1    0    0    0  501 -0.00000000000E+00 -0.00000000000E+00 -0.40353551973E+02  0.40353551973E+02  0.00000000000E+00 0. -1.
          1    1    1    2  502    0 -0.25542898688E+02 -0.16876581967E+02 -0.21929023185E+02  0.37658209598E+02  0.00000000000E+00 0. -1.
         -1    1    1    2    0  501  0.25542898688E+02  0.16876581967E+02  0.11629089272E+02  0.32748960435E+02  0.00000000000E+00 0.  1.
</event>
<event>
 4    1  0.6769686E+001  0.2377343E+02  0.7546771E-02  0.1483008E+00
          2   -1    0    0  502    0  0.00000000000E+00  0.00000000000E+00  0.66570332149E+03  0.66570332149E+03  0.00000000000E+00 0.  1.
         -2   -1    0    0    0  501 -0.00000000000E+00 -0.00000000000E+00 -0.85008792023E+00  0.85008792023E+00  0.00000000000E+00 0. -1.
          1    1    1    2  502    0  0.51747255434E+01 -0.23203412499E+02  0.32045484707E+03  0.32133547135E+03  0.00000000000E+00 0. -1.
         -1    1    1    2    0  501 -0.51747255434E+01  0.23203412499E+02  0.34439838649E+03  0.34521793806E+03  0.00000000000E+00 0.  1.
</event>
<event>
 4    1  0.6769686E+001  0.2536492E+02  0.7546771E-02  0.1464762E+00
          2   -1    0    0  502    0  0.00000000000E+00  0.00000000000E+00  0.18196721658E+04  0.18196721658E+04  0.00000000000E+00 0.  1.
         -2   -1    0    0    0  501 -0.00000000000E+00 -0.00000000000E+00 -0.72260640403E+00  0.72260640403E+00  0.00000000000E+00 0. -1.
          1    1    1    2  502    0  0.23607343925E+02  0.92775150986E+01  0.25901552267E+03  0.26025452918E+03  0.00000000000E+00 0. -1.
         -1    1    1    2    0  501 -0.23607343925E+02 -0.92775150986E+01  0.15599340368E+04  0.15601402431E+04  0.00000000000E+00 0.  1.
</event>
<event>
 4    1  0.6769686E+001  0.3017648E+02  0.7546771E-02  0.1418069E+00
          2   -1    0    0  502    0  0.00000000000E+00  0.00000000000E+00  0.58618019188E+03  0.58618019188E+03  0.00000000000E+00 0.  1.
         -2   -1    0    0    0  501 -0.00000000000E+00 -0.00000000000E+00 -0.17956895175E+01  0.17956895175E+01  0.00000000000E+00 0. -1.
          1    1    1    2  502    0 -0.25496003133E+02 -0.16142304735E+02  0.40016347051E+03  0.40129966771E+03  0.00000000000E+00 0.  1.
         -1    1    1    2    0  501  0.25496003133E+02  0.16142304735E+02  0.18422103186E+03  0.18667621368E+03  0.00000000000E+00 0. -1.
</event>
<event>
 4    1  0.6769686E+001  0.2136694E+02  0.7546771E-02  0.1514090E+00
          2   -1    0    0  502    0  0.00000000000E+00  0.00000000000E+00  0.73819827974E+03  0.73819827974E+03  0.00000000000E+00 0. -1.
         -2   -1    0    0    0  501 -0.00000000000E+00 -0.00000000000E+00 -0.61862643586E+00  0.61862643586E+00  0.00000000000E+00 0.  1.
          1    1    1    2  502    0  0.57981238620E+01  0.20565211717E+02  0.37484742941E+03  0.37545591153E+03  0.00000000000E+00 0. -1.
         -1    1    1    2    0  501 -0.57981238620E+01 -0.20565211717E+02  0.36273222390E+03  0.36336099465E+03  0.00000000000E+00 0.  1.
</event>
<event>
 4    1  0.6769686E+001  0.5864068E+02  0.7546771E-02  0.1264522E+00
          2   -1    0    0  502    0  0.00000000000E+00  0.00000000000E+00  0.67680609914E+03  0.67680609914E+03  0.00000000000E+00 0.  1.
         -2   -1    0    0    0  501 -0.00000000000E+00 -0.00000000000E+00 -0.71947115745E+01  0.71947115745E+01  0.00000000000E+00 0. -1.
          1    1    1    2  502    0  0.37014328622E+02  0.45482622535E+02  0.14942634395E+03  0.16052090750E+03  0.00000000000E+00 0. -1.
         -1    1    1    2    0  501 -0.37014328622E+02 -0.45482622535E+02  0.52018504362E+03  0.52347990322E+03  0.00000000000E+00 0.  1.
</event>
<event>
 4    1  0.6769686E+001  0.2711491E+02  0.7546771E-02  0.1446457E+00
          2   -1    0    0  502    0  0.00000000000E+00  0.00000000000E+00  0.14169946323E+04  0.14169946323E+04  0.00000000000E+00 0. -1.
         -2   -1    0    0    0  501 -0.00000000000E+00 -0.00000000000E+00 -0.56023973594E+00  0.56023973594E+00  0.00000000000E+00 0.  1.
          1    1    1    2  502    0  0.34472403893E+01  0.26894890510E+02  0.51558505178E+03  0.51629755395E+03  0.00000000000E+00 0.  1.
         -1    1    1    2    0  501 -0.34472403893E+01 -0.26894890510E+02  0.90084934082E+03  0.90125731811E+03  0.00000000000E+00 0. -1.
</event>
<event>
 4    1  0.6769686E+001  0.2435661E+02  0.7546771E-02  0.1476131E+00
          2   -1    0    0  502    0  0.00000000000E+00  0.00000000000E+00  0.86463569028E+02  0.86463569028E+02  0.00000000000E+00 0.  1.
         -2   -1    0    0    0  501 -0.00000000000E+00 -0.00000000000E+00 -0.14963033392E+02  0.14963033392E+02  0.00000000000E+00 0. -1.
          1    1    1    2  502    0  0.31620790517E+01  0.24150483580E+02  0.73066988993E+02  0.77019669446E+02  0.00000000000E+00 0.  1.
         -1    1    1    2    0  501 -0.31620790517E+01 -0.24150483580E+02 -0.15664533577E+01  0.24406932974E+02  0.00000000000E+00 0. -1.
</event>
<event>
 4    1  0.6769686E+001  0.5889070E+02  0.7546771E-02  0.1263649E+00
          2   -1    0    0  502    0  0.00000000000E+00  0.00000000000E+00  0.20538966572E+04  0.20538966572E+04  0.00000000000E+00 0. -1.
         -2   -1    0    0    0  501 -0.00000000000E+00 -0.00000000000E+00 -0.16885604474E+01  0.16885604474E+01  0.00000000000E+00 0.  1.
          1    1    1    2  502    0 -0.28221668350E+02 -0.51688025143E+02  0.10240279458E+04  0.10257199171E+04  0.00000000000E+00 0. -1.
         -1    1    1    2    0  501  0.28221668350E+02  0.51688025143E+02  0.10281801510E+04  0.10298653006E+04  0.00000000000E+00 0.  1.
</event>
<event>
 4    1  0.6769686E+001  0.3909522E+02  0.7546771E-02  0.1353871E+00
          2   -1    0    0  502    0  0.00000000000E+00  0.00000000000E+00  0.33346836876E+01  0.33346836876E+01  0.00000000000E+00 0.  1.
         -2   -1    0    0    0  501 -0.00000000000E+00 -0.00000000000E+00 -0.57491883603E+03  0.57491883603E+03  0.00000000000E+00 0. -1.
          1    1    1    2  502    0 -0.36140847134E+02  0.14908911923E+02 -0.15559984604E+03  0.16043611992E+03  0.00000000000E+00 0.  1.
         -1    1    1    2    0  501  0.36140847134E+02 -0.14908911923E+02 -0.41598430630E+03  0.41781739980E+03  0.00000000000E+00 0. -1.
</event>
<event>
 4    1  0.6769686E+001  0.3616427E+02  0.7546771E-02  0.1372558E+00
          2   -1    0    0  502    0  0.00000000000E+00  0.00000000000E+00  0.15586974945E+02  0.15586974945E+02  0.00000000000E+00 0.  1.
         -2   -1    0    0    0  501 -0.00000000000E+00 -0.00000000000E+00 -0.83906895932E+02  0.83906895932E+02  0.00000000000E+00 0. -1.
          1    1    1    2  502    0  0.18500444586E+02 -0.31073909498E+02 -0.34133030328E+02  0.49728443176E+02  0.00000000000E+00 0.  1.
         -1    1    1    2    0  501 -0.18500444586E+02  0.31073909498E+02 -0.34186890659E+02  0.49765427701E+02  0.00000000000E+00 0. -1.
</event>
<event>
 4    1  0.6769686E+001  0.3542179E+02  0.7546771E-02  0.1377622E+00
          2   -1    0    0  502    0  0.00000000000E+00  0.00000000000E+00  0.68031938962E+01  0.68031938962E+01  0.00000000000E+00 0. -1.
         -2   -1    0    0    0  501 -0.00000000000E+00 -0.00000000000E+00 -0.28232666366E+03  0.28232666366E+03  0.00000000000E+00 0.  1.
          1    1    1    2  502    0  0.32652169088E+02 -0.13730954202E+02 -0.52633399800E+02  0.63442714506E+02  0.00000000000E+00 0. -1.
         -1    1    1    2    0  501 -0.32652169088E+02  0.13730954202E+02 -0.22289006997E+03  0.22568714305E+03  0.00000000000E+00 0.  1.
</event>
<event>
 4    1  0.6769686E+001  0.2636656E+02  0.7546771E-02  0.1454077E+00
          2   -1    0    0  502    0  0.00000000000E+00  0.00000000000E+00  0.21589147327E+03  0.21589147327E+03  0.00000000000E+00 0.  1.
         -2   -1    0    0    0  501 -0.00000000000E+00 -0.00000000000E+00 -0.47723934041E+01  0.47723934041E+01  0.00000000000E+00 0. -1.
          1    1    1    2  502    0 -0.10735728189E+02  0.24081940126E+02  0.16848374022E+03  0.17053435554E+03  0.00000000000E+00 0.  1.
         -1    1    1    2    0  501  0.10735728189E+02 -0.24081940126E+02  0.42635339639E+02  0.50129511130E+02  0.00000000000E+00 0. -1.
</event>
<event>
 4    1  0.6769686E+001  0.2090064E+02  0.7546771E-02  0.1520688E+00
          2   -1    0    0  502    0  0.00000000000E+00  0.00000000000E+00  0.23505648941E+01  0.23505648941E+01  0.00000000000E+00 0.  1.
         -2   -1    0    0    0  501 -0.00000000000E+00 -0.00000000000E+00 -0.29327316331E+03  0.29327316331E+03  0.00000000000E+00 0. -1.
          1    1    1    2  502    0 -0.13733382460E+02 -0.15755348098E+02 -0.55999917752E+02  0.59773134230E+02  0.00000000000E+00 0.  1.
         -1    1    1    2    0  501  0.13733382460E+02  0.15755348098E+02 -0.23492268067E+03  0.23585059398E+03  0.00000000000E+00 0. -1.
</event>
<event>
 4    1  0.6769686E+001  0.2540142E+02  0.7546771E-02  0.1464362E+00
          2   -1    0    0  502    0  0.00000000000E+00  0.00000000000E+00  0.18386222337E+03  0.18386222337E+03  0.00000000000E+00 0.  1.
         -2   -1    0    0    0  501 -0.00000000000E+00 -0.00000000000E+00 -0.42686932142E+01  0.42686932142E+01  0.00000000000E+00 0. -1.
          1    1    1    2  502    0  0.25375075365E+02 -0.11565303368E+01  0.50122457666E+02  0.56191572096E+02  0.00000000000E+00 0. -1.
         -1    1    1    2    0  501 -0.25375075365E+02  0.11565303368E+01  0.12947107249E+03  0.13193934449E+03  0.00000000000E+00 0.  1.
</event>
<event>
 4    1  0.6769686E+001  0.5798403E+02  0.7546771E-02  0.1266840E+00
          2   -1    0    0  502    0  0.00000000000E+00  0.00000000000E+00  0.78165608113E+02  0.78165608113E+02  0.00000000000E+00 0. -1.
         -2   -1    0    0    0  501 -0.00000000000E+00 -0.00000000000E+00 -0.58301801921E+02  0.58301801921E+02  0.00000000000E+00 0.  1.
          1    1    1    2  502    0 -0.37554671650E+02 -0.44179122503E+02 -0.25009690370E+02  0.63147706532E+02  0.00000000000E+00 0.  1.
         -1    1    1    2    0  501  0.37554671650E+02  0.44179122503E+02  0.44873496562E+02  0.73319703502E+02  0.00000000000E+00 0. -1.
</event>
<event>
 4    1  0.6769686E+001  0.3855659E+02  0.7546771E-02  0.1357158E+00
          2   -1    0    0  502    0  0.00000000000E+00  0.00000000000E+00  0.12567966760E+04  0.12567966760E+04  0.00000000000E+00 0.  1.
         -2   -1    0    0    0  501 -0.00000000000E+00 -0.00000000000E+00 -0.19604025057E+01  0.19604025057E+01  0.00000000000E+00 0. -1.
          1    1    1    2  502    0  0.37848049025E+02  0.73577182276E+01  0.10237894304E+04  0.10245152066E+04  0.00000000000E+00 0.  1.
         -1    1    1    2    0  501 -0.37848049025E+02 -0.73577182276E+01  0.23104684310E+03  0.23424187188E+03  0.00000000000E+00 0. -1.
</event>
<event>
 4    1  0.6769686E+001  0.2372589E+02  0.7546771E-02  0.1483579E+00
          2   -1    0    0  502    0  0.00000000000E+00  0.00000000000E+00  0.65653932558E+02  0.65653932558E+02  0.00000000000E+00 0.  1.
         -2   -1    0    0    0  501 -0.00000000000E+00 -0.00000000000E+00 -0.98019195302E+01  0.98019195302E+01  0.00000000000E+00 0. -1.
          1    1    1    2  502    0 -0.22761819231E+01 -0.23616452972E+02  0.14572678265E+02  0.27843864799E+02  0.00000000000E+00 0. -1.
         -1    1    1    2    0  501  0.22761819231E+01  0.23616452972E+02  0.41279334763E+02  0.47611987289E+02  0.00000000000E+00 0.  1.
</event>
<event>
 4    1  0.6769686E+001  0.2043617E+02  0.7546771E-02  0.1527469E+00
          2   -1    0    0  502    0  0.00000000000E+00  0.00000000000E+00  0.95748847868E+03  0.95748847868E+03  0.00000000000E+00 0.  1.
         -2   -1    0    0    0  501 -0.00000000000E+00 -0.00000000000E+00 -0.49651207678E+00  0.49651207678E+00  0.00000000000E+00 0. -1.
          1    1    1    2  502    0  0.65781007331E+01 -0.19348532031E+02  0.64546611091E+03  0.64578954578E+03  0.00000000000E+00 0.  1.
         -1    1    1    2    0  501 -0.65781007331E+01  0.19348532031E+02  0.31152585570E+03  0.31219544498E+03  0.00000000000E+00 0. -1.
</event>
<event>
 4    1  0.6769686E+001  0.2015592E+02  0.7546771E-02  0.1531665E+00
          2   -1    0    0  502    0  0.00000000000E+00  0.00000000000E+00  0.10243313789E+02  0.10243313789E+02  0.00000000000E+00 0. -1.
         -2   -1    0    0    0  501 -0.00000000000E+00 -0.00000000000E+00 -0.11405559865E+03  0.11405559865E+03  0.00000000000E+00 0.  1.
          1    1    1    2  502    0  0.18679713514E+02 -0.75716258173E+01 -0.17124199834E+01  0.20228534220E+02  0.00000000000E+00 0. -1.
         -1    1    1    2    0  501 -0.18679713514E+02  0.75716258173E+01 -0.10209986487E+03  0.10407037821E+03  0.00000000000E+00 0.  1.
</event>
<event>
 4    1  0.6769686E+001  0.5781433E+02  0.7546771E-02  0.1267445E+00
          2   -1    0    0  502    0  0.00000000000E+00  0.00000000000E+00  0.20454016670E+04  0.20454016670E+04  0.00000000000E+00 0. -1.
         -2   -1    0    0    0  501 -0.00000000000E+00 -0.00000000000E+00 -0.49576510825E+01  0.49576510825E+01  0.00000000000E+00 0.  1.
          1    1    1    2  502    0  0.41932943046E+02 -0.39801068416E+02  0.18596042906E+04  0.18605027854E+04  0.00000000000E+00 0. -1.
         -1    1    1    2    0  501 -0.41932943046E+02  0.39801068416E+02  0.18083972530E+03  0.18985653270E+03  0.00000000000E+00 0.  1.
</event>
<event>
 4    1  0.6769686E+001  0.3851059E+02  0.7546771E-02  0.1357442E+00
          2   -1    0    0  502    0  0.00000000000E+00  0.00000000000E+00  0.12080488715E+03  0.12080488715E+03  0.00000000000E+00 0.  1.
         -2   -1    0    0    0  501 -0.00000000000E+00 -0.00000000000E+00 -0.32851889451E+02  0.32851889451E+02  0.00000000000E+00 0. -1.
          1    1    1    2  502    0  0.20110334720E+01  0.38458043376E+02  0.10477812786E+03  0.11163118486E+03  0.00000000000E+00 0.  1.
         -1    1    1    2    0  501 -0.20110334720E+01 -0.38458043376E+02 -0.16825130162E+02  0.42025591738E+02  0.00000000000E+00 0. -1.
</event>
<event>
 4    1  0.6769686E+001  0.2173647E+02  0.7546771E-02  0.1509004E+00
          2   -1    0    0  502    0  0.00000000000E+00  0.00000000000E+00  0.45425936418E+00  0.45425936418E+00  0.00000000000E+00 0. -1.
         -2   -1    0    0    0  501 -0.00000000000E+00 -0.00000000000E+00 -0.12105283339E+04  0.12105283339E+04  0.00000000000E+00 0.  1.
          1    1    1    2  502    0  0.18883153724E+02  0.10765712835E+02 -0.83222975267E+03  0.83251356464E+03  0.00000000000E+00 0.  1.
         -1    1    1    2    0  501 -0.18883153724E+02 -0.10765712835E+02 -0.37784432187E+03  0.37846902864E+03  0.00000000000E+00 0. -1.
</event>
<event>
 4    1  0.6769686E+001  0.2302113E+02  0.7546771E-02  0.1492233E+00
          2   -1    0    0  502    0  0.00000000000E+00  0.00000000000E+00  0.39607137901E+02  0.39607137901E+02  0.00000000000E+00 0.  1.
         -2   -1    0    0    0  501 -0.00000000000E+00 -0.00000000000E+00 -0.14273983650E+02  0.14273983650E+02  0.00000000000E+00 0. -1.
          1    1    1    2  502    0 -0.22585213990E+02 -0.44587585298E+01  0.19405980204E+02  0.30109209327E+02  0.00000000000E+00 0.  1.
         -1    1    1    2    0  501  0.22585213990E+02  0.44587585298E+01  0.59271740468E+01  0.23771912224E+02  0.00000000000E+00 0. -1.
</event>
<event>
 4    1  0.6769686E+001  0.2195159E+02  0.7546771E-02  0.1506100E+00
          2   -1    0    0  502    0  0.00000000000E+00  0.00000000000E+00  0.53380106931E+01  0.53380106931E+01  0.00000000000E+00 0. -1.
         -2   -1    0    0    0  501 -0.00000000000E+00 -0.00000000000E+00 -0.93770383104E+02  0.93770383104E+02  0.00000000000E+00 0.  1.
          1    1    1    2  502    0  0.21920121141E+02  0.11750238407E+01 -0.34644527511E+02  0.41013603576E+02  0.00000000000E+00 0. -1.
         -1    1    1    2    0  501 -0.21920121141E+02 -0.11750238407E+01 -0.53787844900E+02  0.58094790221E+02  0.00000000000E+00 0.  1.
</event>
<event>
 4    1  0.6769686E+001  0.2481727E+02  0.7546771E-02  0.1470858E+00
          2   -1    0    0  502    0  0.00000000000E+00  0.00000000000E+00  0.16057644958E+02  0.16057644958E+02  0.00000000000E+00 0.  1.
         -2   -1    0    0    0  501 -0.00000000000E+00 -0.00000000000E+00 -0.85826384314E+02  0.85826384314E+02  0.00000000000E+00 0. -1.
          1    1    1    2  502    0 -0.14403797982E+02  0.20209588483E+02 -0.72770476368E+02  0.76885883579E+02  0.00000000000E+00 0. -1.
         -1    1    1    2    0  501  0.14403797982E+02 -0.20209588483E+02  0.30017370117E+01  0.24998145692E+02  0.00000000000E+00 0.  1.
</event>
<event>
 4    1  0.6769686E+001  0.3318221E+02  0.7546771E-02  0.1393814E+00
          2   -1    0    0  502    0  0.00000000000E+00  0.00000000000E+00  0.18353757462E+03  0.18353757462E+03  0.00000000000E+00 0. -1.
         -2   -1    0    0    0  501 -0.00000000000E+00 -0.00000000000E+00 -0.65642947687E+01  0.65642947687E+01  0.00000000000E+00 0.  1.
          1    1    1    2  502    0 -0.26608483642E+02  0.19825425187E+02  0.60595625744E+02  0.69086096611E+02  0.00000000000E+00 0. -1.
         -1    1    1    2    0  501  0.26608483642E+02 -0.19825425187E+02  0.11637765411E+03  0.12101577278E+03  0.00000000000E+00 0.  1.
</event>
<event>
 4    1  0.6769686E+001  0.2093422E+02  0.7546771E-02  0.1520206E+00
          2   -1    0    0  502    0  0.00000000000E+00  0.00000000000E+00  0.23617933603E+01  0.23617933603E+01  0.00000000000E+00 0.  1.
         -2   -1    0    0    0  501 -0.00000000000E+00 -0.00000000000E+00 -0.18563892530E+03  0.18563892530E+03  0.00000000000E+00 0. -1.
          1    1    1    2  502    0  0.12408093921E+02  0.16860623050E+02 -0.93643090457E+02  0.95954519408E+02  0.00000000000E+00 0. -1.
         -1    1    1    2    0  501 -0.12408093921E+02 -0.16860623050E+02 -0.89634041482E+02  0.92046199252E+02  0.00000000000E+00 0.  1.
</event>
<event>
 4    1  0.6769686E+001  0.2845923E+02  0.7546771E-02  0.1433476E+00
          2   -1    0    0  502    0  0.00000000000E+00  0.00000000000E+00  0.24332020070E+02  0.24332020070E+02  0.00000000000E+00 0. -1.
         -2   -1    0    0    0  501 -0.00000000000E+00 -0.00000000000E+00 -0.33289179556E+02  0.33289179556E+02  0.00000000000E+00 0.  1.
          1    1    1    2  502    0  0.26946818351E+02 -0.91540710703E+01 -0.42205933375E+01  0.28770496077E+02  0.00000000000E+00 0.  1.
         -1    1    1    2    0  501 -0.26946818351E+02  0.91540710703E+01 -0.47365661485E+01  0.28850703549E+02  0.00000000000E+00 0. -1.
</event>
<event>
 4    1  0.6769686E+001  0.2117774E+02  0.7546771E-02  0.1516742E+00
          2   -1    0    0  502    0  0.00000000000E+00  0.00000000000E+00  0.16793366790E+03  0.16793366790E+03  0.00000000000E+00 0. -1.
         -2   -1    0    0    0  501 -0.00000000000E+00 -0.00000000000E+00 -0.61903791319E+01  0.61903791319E+01  0.00000000000E+00 0.  1.
          1    1    1    2  502    0 -0.71892734074E+01  0.19920111927E+02  0.14651988860E+03  0.14804247453E+03  0.00000000000E+00 0. -1.
         -1    1    1    2    0  501  0.71892734074E+01 -0.19920111927E+02  0.15223400175E+02  0.26081572502E+02  0.00000000000E+00 0.  1.
</event>
<event>
 4    1  0.6769686E+001  0.2242158E+02  0.7546771E-02  0.1499892E+00
          2   -1    0    0  502    0  0.00000000000E+00  0.00000000000E+00  0.25104594415E+02  0.25104594415E+02  0.00000000000E+00 0.  1.
         -2   -1    0    0    0  501 -0.00000000000E+00 -0.00000000000E+00 -0.20506372035E+02  0.20506372035E+02  0.00000000000E+00 0. -1.
          1    1    1    2  502    0  0.21370788360E+02  0.67835431642E+01 -0.11938968633E+01  0.22453339233E+02  0.00000000000E+00 0. -1.
         -1    1    1    2    0  501 -0.21370788360E+02 -0.67835431642E+01  0.57921192441E+01  0.23157627217E+02  0.00000000000E+00 0.  1.
</event>
<event>
 4    1  0.6769686E+001  0.2795767E+02  0.7546771E-02  0.1438218E+00
          2   -1    0    0  502    0  0.00000000000E+00  0.00000000000E+00  0.51579394912E+03  0.51579394912E+03  0.00000000000E+00 0. -1.
         -2   -1    0    0    0  501 -0.00000000000E+00 -0.00000000000E+00 -0.15715887589E+01  0.15715887589E+01  0.00000000000E+00 0.  1.
          1    1    1    2  502    0  0.16362800860E+02 -0.22669148833E+02  0.20819616796E+03  0.21006493261E+03  0.00000000000E+00 0. -1.
         -1    1    1    2    0  501 -0.16362800860E+02  0.22669148833E+02  0.30602619240E+03  0.30730060527E+03  0.00000000000E+00 0.  1.
</event>
<event>
 4    1  0.6769686E+001  0.2019497E+02  0.7546771E-02  0.1531076E+00
          2   -1    0    0  502    0  0.00000000000E+00  0.00000000000E+00  0.44247048673E+03  0.44247048673E+03  0.00000000000E+00 0. -1.
         -2   -1    0    0    0  501 -0.00000000000E+00 -0.00000000000E+00 -0.93536114500E+00  0.93536114500E+00  0.00000000000E+00 0.  1.
          1    1    1    2  502    0  0.12688944970E+02 -0.15710741673E+02  0.24753490706E+03  0.24835733720E+03  0.00000000000E+00 0.  1.
         -1    1    1    2    0  501 -0.12688944970E+02  0.15710741673E+02  0.19400021852E+03  0.19504851067E+03  0.00000000000E+00 0. -1.
</event>
<event>
 4    1  0.6769686E+001  0.2127170E+02  0.7546771E-02  0.1515421E+00
          2   -1    0    0  502    0  0.00000000000E+00  0.00000000000E+00  0.21588784598E+02  0.21588784598E+02  0.00000000000E+00 0. -1.
         -2   -1    0    0    0  501 -0.00000000000E+00 -0.00000000000E+00 -0.24366951113E+02  0.24366951113E+02  0.00000000000E+00 0.  1.
          1    1    1    2  502    0  0.20035757880E+02 -0.71451934692E+01 -0.99819477105E+01  0.23497333118E+02  0.00000000000E+00 0.  1.
         -1    1    1    2    0  501 -0.20035757880E+02  0.71451934692E+01  0.72037811952E+01  0.22458402594E+02  0.00000000000E+00 0. -1.
</event>
<event>
 4    1  0.6769686E+001  0.2077648E+02  0.7546771E-02  0.1522480E+00
          2   -1    0    0  502    0  0.00000000000E+00  0.00000000000E+00  0.23676597750E+01  0.23676597750E+01  0.00000000000E+00 0. -1.
         -2   -1    0    0    0  501 -0.00000000000E+00 -0.00000000000E+00 -0.30104460256E+03  0.30104460256E+03  0.00000000000E+00 0.  1.
          1    1    1    2  502    0  0.44697847849E+01 -0.20289978613E+02 -0.54066439358E+02  0.57920998550E+02  0.00000000000E+00 0. -1.
         -1    1    1    2    0  501 -0.44697847849E+01  0.20289978613E+02 -0.24461050343E+03  0.24549126379E+03  0.00000000000E+00 0.  1.
</event>
<event>
 4    1  0.6769686E+001  0.4715113E+02  0.7546771E-02  0.1311020E+00
          2   -1    0    0  502    0  0.00000000000E+00  0.00000000000E+00  0.25151139439E+04  0.25151139439E+04  0.00000000000E+00 0. -1.
         -2   -1    0    0    0  501 -0.00000000000E+00 -0.00000000000E+00 -0.11350059331E+01  0.11350059331E+01  0.00000000000E+00 0.  1.
          1    1    1    2  502    0 -0.14282731668E+02 -0.44935870940E+02  0.66527543445E+03  0.66694425000E+03  0.00000000000E+00 0.  1.
         -1    1    1    2    0  501  0.14282731668E+02  0.44935870940E+02  0.18487035035E+04  0.18493046998E+04  0.00000000000E+00 0. -1.
</event>
<event>
 4    1  0.6769686E+001  0.2992222E+02  0.7546771E-02  0.1420274E+00
          2   -1    0    0  502    0  0.00000000000E+00  0.00000000000E+00  0.99173976324E+03  0.99173976324E+03  0.00000000000E+00 0.  1.
         -2   -1    0    0    0  501 -0.00000000000E+00 -0.00000000000E+00 -0.90861212261E+00  0.90861212261E+00  0.00000000000E+00 0. -1.
          1    1    1    2  502    0  0.22725669621E+02  0.19464928180E+02  0.53512219650E+03  0.53595811840E+03  0.00000000000E+00 0.  1.
         -1    1    1    2    0  501 -0.22725669621E+02 -0.19464928180E+02  0.45570895461E+03  0.45669025696E+03  0.00000000000E+00 0. -1.
</event>
<event>
 4    1  0.6769686E+001  0.3350467E+02  0.7546771E-02  0.1391392E+00
          2   -1    0    0  502    0  0.00000000000E+00  0.00000000000E+00  0.61609638273E+03  0.61609638273E+03  0.00000000000E+00 0. -1.
         -2   -1    0    0    0  501 -0.00000000000E+00 -0.00000000000E+00 -0.18861199794E+01  0.18861199794E+01  0.00000000000E+00 0.  1.
          1    1    1    2  502    0  0.26866033856E+02  0.20019475539E+02  0.25015921048E+03  0.25239293525E+03  0.00000000000E+00 0.  1.
         -1    1    1    2    0  501 -0.26866033856E+02 -0.20019475539E+02  0.36405105227E+03  0.36558956746E+03  0.00000000000E+00 0. -1.
</event>
<event>
 4    1  0.6769686E+001  0.5267052E+02  0.7546771E-02  0.1286991E+00
          2   -1    0    0  502    0  0.00000000000E+00  0.00000000000E+00  0.81308804460E+01  0.81308804460E+01  0.00000000000E+00 0.  1.
         -2   -1    0    0    0  501 -0.00000000000E+00 -0.00000000000E+00 -0.35034802828E+03  0.35034802828E+03  0.00000000000E+00 0. -1.
          1    1    1    2  502    0 -0.12813687730E+02 -0.51088093915E+02 -0.14213120151E+03  0.15157658915E+03  0.00000000000E+00 0. -1.
         -1    1    1    2    0  501  0.12813687730E+02  0.51088093915E+02 -0.20008594632E+03  0.20690231958E+03  0.00000000000E+00 0.  1.
</event>
<event>
 4    1  0.6769686E+001  0.2145104E+02  0.7546771E-02  0.1512922E+00
          2   -1    0    0  502    0  0.00000000000E+00  0.00000000000E+00  0.82829826284E+01  0.82829826284E+01  0.00000000000E+00 0.  1.
         -2   -1    0    0    0  501 -0.00000000000E+00 -0.00000000000E+00 -0.63257465177E+02  0.63257465177E+02  0.00000000000E+00 0. -1.
          1    1    1    2  502    0 -0.72791718338E+01  0.20178220902E+02 -0.15003958094E+02  0.26177580099E+02  0.00000000000E+00 0.  1.
         -1    1    1    2    0  501  0.72791718338E+01 -0.20178220902E+02 -0.39970524454E+02  0.45362867706E+02  0.00000000000E+00 0. -1.
</event>
<event>
 4    1  0.6769686E+001  0.2121101E+02  0.7546771E-02  0.1516273E+00
          2   -1    0    0  502    0  0.00000000000E+00  0.00000000000E+00  0.30872042410E+01  0.30872042410E+01  0.00000000000E+00 0.  1.
         -2   -1    0    0    0  501 -0.00000000000E+00 -0.00000000000E+00 -0.14619146288E+03  0.14619146288E+03  0.00000000000E+00 0. -1.
          1    1    1    2  502    0  0.16686097619E+02 -0.13095082009E+02 -0.75732713022E+02  0.78647001522E+02  0.00000000000E+00 0.  1.
         -1    1    1    2    0  501 -0.16686097619E+02  0.13095082009E+02 -0.67371545614E+02  0.70631665597E+02  0.00000000000E+00 0. -1.
</event>
<event>
 4    1  0.6769686E+001  0.2767404E+02  0.7546771E-02  0.1440952E+00
          2   -1    0    0  502    0  0.00000000000E+00  0.00000000000E+00  0.50323818626E+02  0.50323818626E+02  0.00000000000E+00 0. -1.
         -2   -1    0    0    0  501 -0.00000000000E+00 -0.00000000000E+00 -0.15258104843E+02  0.15258104843E+02  0.00000000000E+00 0.  1.
          1    1    1    2  502    0 -0.20330327014E+02  0.18775792098E+02  0.19203674426E+02  0.33684323904E+02  0.00000000000E+00 0. -1.
         -1    1    1    2    0  501  0.20330327014E+02 -0.18775792098E+02  0.15862039357E+02  0.31897599565E+02  0.00000000000E+00 0.  1.
</event>
<event>
 4    1  0.6769686E+001  0.2588466E+02  0.7546771E-02  0.1459145E+00
          2   -1    0    0  502    0  0.00000000000E+00  0.00000000000E+00  0.26973296618E+03  0.26973296618E+03  0.00000000000E+00 0. -1.
         -2   -1    0    0    0  501 -0.00000000000E+00 -0.00000000000E+00 -0.26400649096E+01  0.26400649096E+01  0.00000000000E+00 0.  1.
          1    1    1    2  502    0 -0.90045030433E+01 -0.24267970340E+02  0.10043442303E+03  0.10371638630E+03  0.00000000000E+00 0.  1.
         -1    1    1    2    0  501  0.90045030433E+01  0.24267970340E+02  0.16665847825E+03  0.16865664479E+03  0.00000000000E+00 0. -1.
</event>
<event>
 4    1  0.6769686E+001  0.2090859E+02  0.7546771E-02  0.1520574E+00
          2   -1    0    0  502    0  0.00000000000E+00  0.00000000000E+00  0.18245587181E+04  0.18245587181E+04  0.00000000000E+00 0.  1.
         -2   -1    0    0    0  501 -0.00000000000E+00 -0.00000000000E+00 -0.25077994687E+00  0.25077994687E+00  0.00000000000E+00 0. -1.
          1    1    1    2  502    0 -0.19838884235E+02  0.66021086622E+01  0.71953065039E+03  0.71983437401E+03  0.00000000000E+00 0. -1.
         -1    1    1    2    0  501  0.19838884235E+02 -0.66021086622E+01  0.11047772878E+04  0.11049751240E+04  0.00000000000E+00 0.  1.
</event>
<event>
 4    1  0.6769686E+001  0.2706186E+02  0.7546771E-02  0.1446988E+00
          2   -1    0    0  502    0  0.00000000000E+00  0.00000000000E+00  0.84061624843E+03  0.84061624843E+03  0.00000000000E+00 0.  1.
         -2   -1    0    0    0  501 -0.00000000000E+00 -0.00000000000E+00 -0.87618282356E+00  0.87618282356E+00  0.00000000000E+00 0. -1.
          1    1    1    2  502    0  0.26259404054E+01 -0.26934153252E+02  0.45160199688E+03  0.45241209948E+03  0.00000000000E+00 0. -1.
         -1    1    1    2    0  501 -0.26259404054E+01  0.26934153252E+02  0.38813806873E+03  0.38908033177E+03  0.00000000000E+00 0.  1.
</event>
<event>
 4    1  0.6769686E+001  0.2074629E+02  0.7546771E-02  0.1522918E+00
          2   -1    0    0  502    0  0.00000000000E+00  0.00000000000E+00  0.49034010997E+03  0.49034010997E+03  0.00000000000E+00 0.  1.
         -2   -1    0    0    0  501 -0.00000000000E+00 -0.00000000000E+00 -0.22486627467E+01  0.22486627467E+01  0.00000000000E+00 0. -1.
          1    1    1    2  502    0  0.20064301036E+02 -0.52756454119E+01  0.43635188302E+03  0.43684479444E+03  0.00000000000E+00 0.  1.
         -1    1    1    2    0  501 -0.20064301036E+02  0.52756454119E+01  0.51739564196E+02  0.55743978273E+02  0.00000000000E+00 0. -1.
</event>
<event>
 4    1  0.6769686E+001  0.3362825E+02  0.7546771E-02  0.1390472E+00
          2   -1    0    0  502    0  0.00000000000E+00  0.00000000000E+00  0.48322575768E+03  0.48322575768E+03  0.00000000000E+00 0.  1.
         -2   -1    0    0    0  501 -0.00000000000E+00 -0.00000000000E+00 -0.34477908305E+01  0.34477908305E+01  0.00000000000E+00 0. -1.
          1    1    1    2  502    0  0.14346690274E+01  0.33597629990E+02  0.37780707765E+03  0.37930073417E+03  0.00000000000E+00 0.  1.
         -1    1    1    2    0  501 -0.14346690274E+01 -0.33597629990E+02  0.10197088919E+03  0.10737281434E+03  0.00000000000E+00 0. -1.
</event>
<event>
 4    1  0.6769686E+001  0.2141135E+02  0.7546771E-02  0.1513472E+00
          2   -1    0    0  502    0  0.00000000000E+00  0.00000000000E+00  0.18232063527E+04  0.18232063527E+04  0.00000000000E+00 0.  1.
         -2   -1    0    0    0  501 -0.00000000000E+00 -0.00000000000E+00 -0.27965436650E+00  0.27965436650E+00  0.00000000000E+00 0. -1.
          1    1    1    2  502    0  0.34272590749E+01 -0.21135275094E+02  0.12010088150E+04  0.12011996585E+04  0.00000000000E+00 0.  1.
         -1    1    1    2    0  501 -0.34272590749E+01  0.21135275094E+02  0.62191788339E+03  0.62228634859E+03  0.00000000000E+00 0. -1.
</event>
<event>
 4    1  0.6769686E+001  0.2307875E+02  0.7546771E-02  0.1491512E+00
          2   -1    0    0  502    0  0.00000000000E+00  0.00000000000E+00  0.81863171425E+01  0.81863171425E+01  0.00000000000E+00 0. -1.
         -2   -1    0    0    0  501 -0.00000000000E+00 -0.00000000000E+00 -0.68306542021E+02  0.68306542021E+02  0.00000000000E+00 0.  1.
          1    1    1    2  502    0  0.14673141257E+02  0.17813687263E+02 -0.21726146580E+02  0.31696276965E+02  0.00000000000E+00 0. -1.
         -1    1    1    2    0  501 -0.14673141257E+02 -0.17813687263E+02 -0.38394078299E+02  0.44796582198E+02  0.00000000000E+00 0.  1.
</event>
<event>
 4    1  0.6769686E+001  0.2454233E+02  0.7546771E-02  0.1473989E+00
          2   -1    0    0  502    0  0.00000000000E+00  0.00000000000E+00  0.10260799168E+03  0.10260799168E+03  0.00000000000E+00 0. -1.
         -2   -1    0    0    0  501 -0.00000000000E+00 -0.00000000000E+00 -0.10017183542E+02  0.10017183542E+02  0.00000000000E+00 0.  1.
          1    1    1    2  502    0  0.80695904339E+01  0.23177739787E+02  0.82528097655E+02  0.86100016342E+02  0.00000000000E+00 0. -1.
         -1    1    1    2    0  501 -0.80695904339E+01 -0.23177739787E+02  0.10062710484E+02  0.26525158882E+02  0.00000000000E+00 0.  1.
</event>
<event>
 4    1  0.6769686E+001  0.2150926E+02  0.7546771E-02  0.1512117E+00
          2   -1    0    0  502    0  0.00000000000E+00  0.00000000000E+00  0.15634310909E+03  0.15634310909E+03  0.00000000000E+00 0.  1.
         -2   -1    0    0    0  501 -0.00000000000E+00 -0.00000000000E+00 -0.30947548897E+01  0.30947548897E+01  0.00000000000E+00 0. -1.
          1    1    1    2  502    0  0.13593593148E+02 -0.16669205249E+02  0.59939030947E+02  0.63681517013E+02  0.00000000000E+00 0. -1.
         -1    1    1    2    0  501 -0.13593593148E+02  0.16669205249E+02  0.93309323255E+02  0.95756346967E+02  0.00000000000E+00 0.  1.
</event>
<event>
 4    1  0.6769686E+001  0.3019832E+02  0.7546771E-02  0.1417881E+00
          2   -1    0    0  502    0  0.00000000000E+00  0.00000000000E+00  0.21119613486E+04  0.21119613486E+04  0.00000000000E+00 0.  1.
         -2   -1    0    0    0  501 -0.00000000000E+00 -0.00000000000E+00 -0.48098017672E+00  0.48098017672E+00  0.00000000000E+00 0. -1.
          1    1    1    2  502    0  0.34542971880E+01 -0.30000104437E+02  0.13934936823E+04  0.13938208569E+04  0.00000000000E+00 0.  1.
         -1    1    1    2    0  501 -0.34542971880E+01  0.30000104437E+02  0.71798668607E+03  0.71862147185E+03  0.00000000000E+00 0. -1.
</event>
<event>
 4    1  0.6769686E+001  0.2206164E+02  0.7546771E-02  0.1504630E+00
          2   -1    0    0  502    0  0.00000000000E+00  0.00000000000E+00  0.25892431366E+03  0.25892431366E+03  0.00000000000E+00 0.  1.
         -2   -1    0    0    0  501 -0.00000000000E+00 -0.00000000000E+00 -0.20096622404E+01  0.20096622404E+01  0.00000000000E+00 0. -1.
          1    1    1    2  502    0  0.21706727324E+02 -0.39413317380E+01  0.16162720872E+03  0.16312593511E+03  0.00000000000E+00 0.  1.
         -1    1    1    2    0  501 -0.21706727324E+02  0.39413317380E+01  0.95287442705E+02  0.97808040796E+02  0.00000000000E+00 0. -1.
</event>
<event>
 4    1  0.6769686E+001  0.2007245E+02  0.7546771E-02  0.1532931E+00
          2   -1    0    0  502    0  0.00000000000E+00  0.00000000000E+00  0.48757452034E+02  0.48757452034E+02  0.00000000000E+00 0.  1.
         -2   -1    0    0    0  501 -0.00000000000E+00 -0.00000000000E+00 -0.11591227377E+02  0.11591227377E+02  0.00000000000E+00 0. -1.
          1    1    1    2  502    0  0.68271759988E+01 -0.18875726683E+02  0.24152710055E+01  0.20217243234E+02  0.00000000000E+00 0. -1.
         -1    1    1    2    0  501 -0.68271759988E+01  0.18875726683E+02  0.34750953651E+02  0.40131436177E+02  0.00000000000E+00 0.  1.
</event>
<event>
 4    1  0.6769686E+001  0.2234308E+02  0.7546771E-02  0.1500916E+00
          2   -1    0    0  502    0  0.00000000000E+00  0.00000000000E+00  0.58070139086E+03  0.58070139086E+03  0.00000000000E+00 0.  1.
         -2   -1    0    0    0  501 -0.00000000000E+00 -0.00000000000E+00 -0.11906731175E+01  0.11906731175E+01  0.00000000000E+00 0. -1.
          1    1    1    2  502    0  0.17677966587E+02 -0.13663917344E+02  0.44315714873E+03  0.44372003742E+03  0.00000000000E+00 0.  1.
         -1    1    1    2    0  501 -0.17677966587E+02  0.13663917344E+02  0.13635356901E+03  0.13817202656E+03  0.00000000000E+00 0. -1.
</event>
<event>
 4    1  0.6769686E+001  0.2168745E+02  0.7546771E-02  0.1509672E+00
          2   -1    0    0  502    0  0.00000000000E+00  0.00000000000E+00  0.19364485777E+02  0.19364485777E+02  0.00000000000E+00 0.  1.
         -2   -1    0    0    0  501 -0.00000000000E+00 -0.00000000000E+00 -0.24297349506E+02  0.24297349506E+02  0.00000000000E+00 0. -1.
          1    1    1    2  502    0  0.13238762949E+02 -0.17177907297E+02 -0.20634325852E+01  0.21785387248E+02  0.00000000000E+00 0. -1.
         -1    1    1    2    0  501 -0.13238762949E+02  0.17177907297E+02 -0.28694311430E+01  0.21876448035E+02  0.00000000000E+00 0.  1.
</event>
<event>
 4    1  0.6769686E+001  0.2044576E+02  0.7546771E-02  0.1527327E+00
          2   -1    0    0  502    0  0.00000000000E+00  0.00000000000E+00  0.19933016099E+04  0.19933016099E+04  0.00000000000E+00 0.  1.
         -2   -1    0    0    0  501 -0.00000000000E+00 -0.00000000000E+00 -0.21522974697E+00  0.21522974697E+00  0.00000000000E+00 0. -1.
          1    1    1    2  502    0 -0.12801613240E+02 -0.15942019434E+02  0.83702075225E+03  0.83727042763E+03  0.00000000000E+00 0. -1.
         -1    1    1    2    0  501  0.12801613240E+02  0.15942019434E+02  0.11560656279E+04  0.11562464120E+04  0.00000000000E+00 0.  1.
</event>
<event>
 4    1  0.6769686E+001  0.3000873E+02  0.7546771E-02  0.1419521E+00
          2   -1    0    0  502    0  0.00000000000E+00  0.00000000000E+00  0.28067079024E+03  0.28067079024E+03  0.00000000000E+00 0.  1.
         -2   -1    0    0    0  501 -0.00000000000E+00 -0.00000000000E+00 -0.38590584662E+01  0.38590584662E+01  0.00000000000E+00 0. -1.
          1    1    1    2  502    0 -0.86153740627E+01 -0.28745423718E+02  0.79992793852E+02  0.85436357151E+02  0.00000000000E+00 0.  1.
         -1    1    1    2    0  501  0.86153740627E+01  0.28745423718E+02  0.19681893792E+03  0.19909349155E+03  0.00000000000E+00 0. -1.
</event>
<event>
 4    1  0.6769686E+001  0.3509033E+02  0.7546771E-02  0.1379929E+00
          2   -1    0    0  502    0  0.00000000000E+00  0.00000000000E+00  0.17008577547E+04  0.17008577547E+04  0.00000000000E+00 0.  1.
         -2   -1    0    0    0  501 -0.00000000000E+00 -0.00000000000E+00 -0.10928669308E+01  0.10928669308E+01  0.00000000000E+00 0. -1.
          1    1    1    2  502    0 -0.32515821218E+02 -0.13192912089E+02  0.13443059822E+04  0.13447638846E+04  0.00000000000E+00 0.  1.
         -1    1    1    2    0  501  0.32515821218E+02  0.13192912089E+02  0.35545890557E+03  0.35718673703E+03  0.00000000000E+00 0. -1.
</event>
<event>
 4    1  0.6769686E+001  0.2257429E+02  0.7546771E-02  0.1497914E+00
          2   -1    0    0  502    0  0.00000000000E+00  0.00000000000E+00  0.45871462865E+02  0.45871462865E+02  0.00000000000E+00 0. -1.
         -2   -1    0    0    0  501 -0.00000000000E+00 -0.00000000000E+00 -0.12823604359E+02  0.12823604359E+02  0.00000000000E+00 0.  1.
          1    1    1    2  502    0 -0.20248814141E+02  0.99791753707E+01  0.27254293369E+02  0.35389192167E+02  0.00000000000E+00 0.  1.
         -1    1    1    2    0  501  0.20248814141E+02 -0.99791753707E+01  0.57935651370E+01  0.23305875057E+02  0.00000000000E+00 0. -1.
</event>
<event>
 4    1  0.6769686E+001  0.2252743E+02  0.7546771E-02  0.1498519E+00
          2   -1    0    0  502    0  0.00000000000E+00  0.00000000000E+00  0.13965804892E+04  0.13965804892E+04  0.00000000000E+00 0.  1.
         -2   -1    0    0    0  501 -0.00000000000E+00 -0.00000000000E+00 -0.42735908183E+00  0.42735908183E+00  0.00000000000E+00 0. -1.
          1    1    1    2  502    0  0.20861576276E+02 -0.85017506863E+01  0.42780409828E+03  0.42839681562E+03  0.00000000000E+00 0. -1.
         -1    1    1    2    0  501 -0.20861576276E+02  0.85017506863E+01  0.96834903188E+03  0.96861103270E+03  0.00000000000E+00 0.  1.
</event>
<event>
 4    1  0.6769686E+001  0.2101710E+02  0.7546771E-02  0.1519021E+00
          2   -1    0    0  502    0  0.00000000000E+00  0.00000000000E+00  0.22410588172E+01  0.22410588172E+01  0.00000000000E+00 0. -1.
         -2   -1    0    0    0  501 -0.00000000000E+00 -0.00000000000E+00 -0.27144407688E+03  0.27144407688E+03  0.00000000000E+00 0.  1.
          1    1    1    2  502    0 -0.19760713820E+02  0.71577004570E+01 -0.20621530027E+03  0.20728354626E+03  0.00000000000E+00 0.  1.
         -1    1    1    2    0  501  0.19760713820E+02 -0.71577004570E+01 -0.62987717798E+02  0.66401589438E+02  0.00000000000E+00 0. -1.
</event>
<event>
 4    1  0.6769686E+001  0.2491711E+02  0.7546771E-02  0.1469733E+00
          2   -1    0    0  502    0  0.00000000000E+00  0.00000000000E+00  0.10142768193E+04  0.10142768193E+04  0.00000000000E+00 0. -1.
         -2   -1    0    0    0  501 -0.00000000000E+00 -0.00000000000E+00 -0.66695056198E+00  0.66695056198E+00  0.00000000000E+00 0.  1.
          1    1    1    2  502    0 -0.15548704308E+02 -0.19470496978E+02  0.65230510563E+03  0.65278083098E+03  0.00000000000E+00 0.  1.
         -1    1    1    2    0  501  0.15548704308E+02  0.19470496978E+02  0.36130476306E+03  0.36216293884E+03  0.00000000000E+00 0. -1.
</event>
<event>
 4    1  0.6769686E+001  0.2025136E+02  0.7546771E-02  0.1530227E+00
          2   -1    0    0  502    0  0.00000000000E+00  0.00000000000E+00  0.83995536529E+02  0.83995536529E+02  0.00000000000E+00 0.  1.
         -2   -1    0    0    0  501 -0.00000000000E+00 -0.00000000000E+00 -0.75271209848E+01  0.75271209848E+01  0.00000000000E+00 0. -1.
          1    1    1    2  502    0  0.10887820132E+02 -0.17075510461E+02  0.11110026818E+02  0.23098709502E+02  0.00000000000E+00 0. -1.
         -1    1    1    2    0  501 -0.10887820132E+02  0.17075510461E+02  0.65358388726E+02  0.68423948012E+02  0.00000000000E+00 0.  1.
</event>
<event>
 4    1  0.6769686E+001  0.2849130E+02  0.7546771E-02  0.1433177E+00
          2   -1    0    0  502    0  0.00000000000E+00  0.00000000000E+00  0.10246498262E+02  0.10246498262E+02  0.00000000000E+00 0. -1.
         -2   -1    0    0    0  501 -0.00000000000E+00 -0.00000000000E+00 -0.10798751529E+03  0.10798751529E+03  0.00000000000E+00 0.  1.
          1    1    1    2  502    0 -0.56426147394E+01  0.27926959307E+02 -0.18359450470E+02  0.33894300093E+02  0.00000000000E+00 0. -1.
         -1    1    1    2    0  501  0.56426147394E+01 -0.27926959307E+02 -0.79381566560E+02  0.84339713461E+02  0.00000000000E+00 0.  1.
</event>
<event>
 4    1  0.6769686E+001  0.2543548E+02  0.7546771E-02  0.1463990E+00
          2   -1    0    0  502    0  0.00000000000E+00  0.00000000000E+00  0.13594033739E+03  0.13594033739E+03  0.00000000000E+00 0.  1.
         -2   -1    0    0    0  501 -0.00000000000E+00 -0.00000000000E+00 -0.51310083450E+01  0.51310083450E+01  0.00000000000E+00 0. -1.
          1    1    1    2  502    0 -0.12810375816E+02 -0.21974027984E+02  0.84392810785E+02  0.88142555821E+02  0.00000000000E+00 0.  1.
         -1    1    1    2    0  501  0.12810375816E+02  0.21974027984E+02  0.46416518260E+02  0.52928789914E+02  0.00000000000E+00 0. -1.
</event>
<event>
 4    1  0.6769686E+001  0.2043056E+02  0.7546771E-02  0.1527552E+00
          2   -1    0    0  502    0  0.00000000000E+00  0.00000000000E+00  0.15057574425E+03  0.15057574425E+03  0.00000000000E+00 0.  1.
         -2   -1    0    0    0  501 -0.00000000000E+00 -0.00000000000E+00 -0.31671772256E+01  0.31671772256E+01  0.00000000000E+00 0. -1.
          1    1    1    2  502    0 -0.19402241190E+02  0.64000651191E+01  0.46553540681E+02  0.50839354310E+02  0.00000000000E+00 0. -1.
         -1    1    1    2    0  501  0.19402241190E+02 -0.64000651191E+01  0.10085502634E+03  0.10290356717E+03  0.00000000000E+00 0.  1.
</event>
<event>
 4    1  0.6769686E+001  0.1289948E+03  0.7546771E-02  0.1121328E+00
          2   -1    0    0  502    0  0.00000000000E+00  0.00000000000E+00  0.65429002688E+02  0.65429002688E+02  0.00000000000E+00 0. -1.
         -2   -1    0    0    0  501 -0.00000000000E+00 -0.00000000000E+00 -0.30063559713E+03  0.30063559713E+03  0.00000000000E+00 0.  1.
          1    1    1    2  502    0  0.26988355946E+02 -0.12613992787E+03 -0.45759518071E+02  0.13687069173E+03  0.00000000000E+00 0. -1.
         -1    1    1    2    0  501 -0.26988355946E+02  0.12613992787E+03 -0.18944707637E+03  0.22919390809E+03  0.00000000000E+00 0.  1.
</event>
<event>
 4    1  0.6769686E+001  0.3888284E+02  0.7546771E-02  0.1355160E+00
          2   -1    0    0  502    0  0.00000000000E+00  0.00000000000E+00  0.11491950595E+03  0.11491950595E+03  0.00000000000E+00 0.  1.
         -2   -1    0    0    0  501 -0.00000000000E+00 -0.00000000000E+00 -0.13310981086E+02  0.13310981086E+02  0.00000000000E+00 0. -1.
          1    1    1    2  502    0  0.33346651513E+02  0.19996902301E+02  0.43884905647E+02  0.58632416055E+02  0.00000000000E+00 0.  1.
         -1    1    1    2    0  501 -0.33346651513E+02 -0.19996902301E+02  0.57723619214E+02  0.69598070978E+02  0.00000000000E+00 0. -1.
</event>
<event>
 4    1  0.6769686E+001  0.3232493E+02  0.7546771E-02  0.1400413E+00
          2   -1    0    0  502    0  0.00000000000E+00  0.00000000000E+00  0.21586994190E+04  0.21586994190E+04  0.00000000000E+00 0. -1.
         -2   -1    0    0    0  501 -0.00000000000E+00 -0.00000000000E+00 -0.64027778278E+00  0.64027778278E+00  0.00000000000E+00 0.  1.
          1    1    1    2  502    0  0.30757731202E+02  0.99430025191E+01  0.16123606817E+04  0.16126846775E+04  0.00000000000E+00 0. -1.
         -1    1    1    2    0  501 -0.30757731202E+02 -0.99430025191E+01  0.54569845954E+03  0.54665501925E+03  0.00000000000E+00 0.  1.
</event>
<event>
 4    1  0.6769686E+001  0.2676262E+02  0.7546771E-02  0.1450007E+00
          2   -1    0    0  502    0  0.00000000000E+00  0.00000000000E+00  0.22381326231E+01  0.22381326231E+01  0.00000000000E+00 0. -1.
         -2   -1    0    0    0  501 -0.00000000000E+00 -0.00000000000E+00 -0.32376423399E+03  0.32376423399E+03  0.00000000000E+00 0.  1.
          1    1    1    2  502    0  0.89821534489E+01 -0.25210292789E+02 -0.17830175885E+03  0.18029907141E+03  0.00000000000E+00 0.  1.
         -1    1    1    2    0  501 -0.89821534489E+01  0.25210292789E+02 -0.14322434253E+03  0.14570329521E+03  0.00000000000E+00 0. -1.
</event>
<event>
 4    1  0.6769686E+001  0.2839858E+02  0.7546771E-02  0.1434043E+00
          2   -1    0    0  502    0  0.00000000000E+00  0.00000000000E+00  0.11019049179E+03  0.11019049179E+03  0.00000000000E+00 0.  1.
         -2   -1    0    0    0  501 -0.00000000000E+00 -0.00000000000E+00 -0.21899077236E+02  0.21899077236E+02  0.00000000000E+00 0. -1.
          1    1    1    2  502    0  0.96362051473E+01 -0.26713720604E+02  0.98035460308E+02  0.10206581600E+03  0.00000000000E+00 0.  1.
         -1    1    1    2    0  501 -0.96362051473E+01  0.26713720604E+02 -0.97440457521E+01  0.30023753026E+02  0.00000000000E+00 0. -1.
</event>
<event>
 4    1  0.6769686E+001  0.2027340E+02  0.7546771E-02  0.1529897E+00
          2   -1    0    0  502    0  0.00000000000E+00  0.00000000000E+00  0.10663504539E+03  0.10663504539E+03  0.00000000000E+00 0.  1.
         -2   -1    0    0    0  501 -0.00000000000E+00 -0.00000000000E+00 -0.47519351391E+01  0.47519351391E+01  0.00000000000E+00 0. -1.
          1    1    1    2  502    0 -0.20224159747E+02 -0.14121618929E+01  0.26736707332E+02  0.33553872469E+02  0.00000000000E+00 0.  1.
         -1    1    1    2    0  501  0.20224159747E+02  0.14121618929E+01  0.75146402922E+02  0.77833108064E+02  0.00000000000E+00 0. -1.
</event>
<event>
 4    1  0.6769686E+001  0.2319957E+02  0.7546771E-02  0.1490007E+00
          2   -1    0    0  502    0  0.00000000000E+00  0.00000000000E+00  0.19492851139E+03  0.19492851139E+03  0.00000000000E+00 0.  1.
         -2   -1    0    0    0  501 -0.00000000000E+00 -0.00000000000E+00 -0.35832478407E+01  0.35832478407E+01  0.00000000000E+00 0. -1.
          1    1    1    2  502    0 -0.20547902016E+02 -0.10770511082E+02  0.48129409345E+02  0.53429020486E+02  0.00000000000E+00 0. -1.
         -1    1    1    2    0  501  0.20547902016E+02  0.10770511082E+02  0.14321585421E+03  0.14508273875E+03  0.00000000000E+00 0.  1.
</event>
<event>
 4    1  0.6769686E+001  0.3286533E+02  0.7546771E-02  0.1396225E+00
          2   -1    0    0  502    0  0.00000000000E+00  0.00000000000E+00  0.27538902662E+03  0.27538902662E+03  0.00000000000E+00 0. -1.
         -2   -1    0    0    0  501 -0.00000000000E+00 -0.00000000000E+00 -0.76212526868E+01  0.76212526868E+01  0.00000000000E+00 0.  1.
          1    1    1    2  502    0 -0.27553053709E+01 -0.32749633582E+02  0.35300342841E+02  0.48231156031E+02  0.00000000000E+00 0.  1.
         -1    1    1    2    0  501  0.27553053709E+01  0.32749633582E+02  0.23246743109E+03  0.23477912327E+03  0.00000000000E+00 0. -1.
</event>
<event>
 4    1  0.6769686E+001  0.3927866E+02  0.7546771E-02  0.1352765E+00
          2   -1    0    0  502    0  0.00000000000E+00  0.00000000000E+00  0.79300457164E+01  0.79300457164E+01  0.00000000000E+00 0.  1.
         -2   -1    0    0    0  501 -0.00000000000E+00 -0.00000000000E+00 -0.37004230808E+03  0.37004230808E+03  0.00000000000E+00 0. -1.
          1    1    1    2  502    0 -0.31394810056E+02  0.23604647383E+02 -0.31120182117E+03  0.31367082583E+03  0.00000000000E+00 0. -1.
         -1    1    1    2    0  501  0.31394810056E+02 -0.23604647383E+02 -0.50910441195E+02  0.64301527969E+02  0.00000000000E+00 0.  1.
</event>
<event>
 4    1  0.6769686E+001  0.2439915E+02  0.7546771E-02  0.1475639E+00
          2   -1    0    0  502    0  0.00000000000E+00  0.00000000000E+00  0.59036412998E+03  0.59036412998E+03  0.00000000000E+00 0. -1.
         -2   -1    0    0    0  501 -0.00000000000E+00 -0.00000000000E+00 -0.10083920353E+01  0.10083920353E+01  0.00000000000E+00 0.  1.
          1    1    1    2  502    0 -0.11803428278E+02  0.21354099432E+02  0.29470467229E+03  0.29571297291E+03  0.00000000000E+00 0. -1.
         -1    1    1    2    0  501  0.11803428278E+02 -0.21354099432E+02  0.29465106565E+03  0.29565954910E+03  0.00000000000E+00 0.  1.
</event>
<event>
 4    1  0.6769686E+001  0.2685505E+02  0.7546771E-02  0.1449070E+00
          2   -1    0    0  502    0  0.00000000000E+00  0.00000000000E+00  0.80126893891E+02  0.80126893891E+02  0.00000000000E+00 0. -1.
         -2   -1    0    0    0  501 -0.00000000000E+00 -0.00000000000E+00 -0.13391563862E+02  0.13391563862E+02  0.00000000000E+00 0.  1.
          1    1    1    2  502    0 -0.26854341488E+02  0.19496828700E+00  0.60142662182E+02  0.65866026780E+02  0.00000000000E+00 0. -1.
         -1    1    1    2    0  501  0.26854341488E+02 -0.19496828700E+00  0.65926678465E+01  0.27652430973E+02  0.00000000000E+00 0.  1.
</event>
<event>
 4    1  0.6769686E+001  0.2618391E+02  0.7546771E-02  0.1455983E+00
          2   -1    0    0  502    0  0.00000000000E+00  0.00000000000E+00  0.10120842701E+02  0.10120842701E+02  0.00000000000E+00 0. -1.
         -2   -1    0    0    0  501 -0.00000000000E+00 -0.00000000000E+00 -0.13637664874E+03  0.13637664874E+03  0.00000000000E+00 0.  1.
          1    1    1    2  502    0 -0.16748449801E+02  0.20126760077E+02 -0.11509216132E+03  0.11803305740E+03  0.00000000000E+00 0.  1.
         -1    1    1    2    0  501  0.16748449801E+02 -0.20126760077E+02 -0.11163644720E+02  0.28464434042E+02  0.00000000000E+00 0. -1.
</event>
<event>
 4    1  0.6769686E+001  0.2417992E+02  0.7546771E-02  0.1478191E+00
          2   -1    0    0  502    0  0.00000000000E+00  0.00000000000E+00  0.50645695916E+02  0.50645695916E+02  0.00000000000E+00 0.  1.
         -2   -1    0    0    0  501 -0.00000000000E+00 -0.00000000000E+00 -0.13835545437E+02  0.13835545437E+02  0.00000000000E+00 0. -1.
          1    1    1    2  502    0 -0.55568310299E+01  0.23532741783E+02  0.52848117817E+01  0.24750707919E+02  0.00000000000E+00 0.  1.
         -1    1    1    2    0  501  0.55568310299E+01 -0.23532741783E+02  0.31525338697E+02  0.39730533433E+02  0.00000000000E+00 0. -1.
</event>
<event>
 4    1  0.6769686E+001  0.3498446E+02  0.7546771E-02  0.1380672E+00
          2   -1    0    0  502    0  0.00000000000E+00  0.00000000000E+00  0.25179101848E+03  0.25179101848E+03  0.00000000000E+00 0. -1.
         -2   -1    0    0    0  501 -0.00000000000E+00 -0.00000000000E+00 -0.48638179560E+01  0.48638179560E+01  0.00000000000E+00 0.  1.
          1    1    1    2  502    0 -0.33904527413E+02  0.86252791777E+01  0.12664620149E+03  0.13138939368E+03  0.00000000000E+00 0. -1.
         -1    1    1    2    0  501  0.33904527413E+02 -0.86252791777E+01  0.12028099903E+03  0.12526544275E+03  0.00000000000E+00 0.  1.
</event>
<event>
 4    1  0.6769686E+001  0.3853395E+02  0.7546771E-02  0.1357298E+00
          2   -1    0    0  502    0  0.00000000000E+00  0.00000000000E+00  0.18163785326E+03  0.18163785326E+03  0.00000000000E+00 0.  1.
         -2   -1    0    0    0  501 -0.00000000000E+00 -0.00000000000E+00 -0.12759310609E+02  0.12759310609E+02  0.00000000000E+00 0. -1.
          1    1    1    2  502    0  0.31363410327E+02 -0.22387528530E+02  0.14270185413E+03  0.14781300387E+03  0.00000000000E+00 0. -1.
         -1    1    1    2    0  501 -0.31363410327E+02  0.22387528530E+02  0.26176688527E+02  0.46584160004E+02  0.00000000000E+00 0.  1.
</event>
<event>
 4    1  0.6769686E+001  0.2324498E+02  0.7546771E-02  0.1489445E+00
          2   -1    0    0  502    0  0.00000000000E+00  0.00000000000E+00  0.41416955299E+02  0.41416955299E+02  0.00000000000E+00 0.  1.
         -2   -1    0    0    0  501 -0.00000000000E+00 -0.00000000000E+00 -0.13054540189E+02  0.13054540189E+02  0.00000000000E+00 0. -1.
          1    1    1    2  502    0 -0.55920574517E+01 -0.22562318281E+02  0.14874154751E+02  0.27596553994E+02  0.00000000000E+00 0.  1.
         -1    1    1    2    0  501  0.55920574517E+01  0.22562318281E+02  0.13488260360E+02  0.26874941494E+02  0.00000000000E+00 0. -1.
</event>
<event>
 4    1  0.6769686E+001  0.2860432E+02  0.7546771E-02  0.1432126E+00
          2   -1    0    0  502    0  0.00000000000E+00  0.00000000000E+00  0.26257978120E+04  0.26257978120E+04  0.00000000000E+00 0.  1.
         -2   -1    0    0    0  501 -0.00000000000E+00 -0.00000000000E+00 -0.41092715227E+00  0.41092715227E+00  0.00000000000E+00 0. -1.
          1    1    1    2  502    0 -0.17141653787E+02 -0.22899145253E+02  0.66712290610E+03  0.66773586020E+03  0.00000000000E+00 0. -1.
         -1    1    1    2    0  501  0.17141653787E+02  0.22899145253E+02  0.19582639787E+04  0.19584728789E+04  0.00000000000E+00 0.  1.
</event>
<event>
 4    1  0.6769686E+001  0.3206457E+02  0.7546771E-02  0.1402465E+00
          2   -1    0    0  502    0  0.00000000000E+00  0.00000000000E+00  0.27394280615E+01  0.27394280615E+01  0.00000000000E+00 0.  1.
         -2   -1    0    0    0  501 -0.00000000000E+00 -0.00000000000E+00 -0.63762044331E+03  0.63762044331E+03  0.00000000000E+00 0. -1.
          1    1    1    2  502    0 -0.32009569140E+02 -0.18773058704E+01 -0.52280254694E+03  0.52378491758E+03  0.00000000000E+00 0. -1.
         -1    1    1    2    0  501  0.32009569140E+02  0.18773058704E+01 -0.11207846830E+03  0.11657495379E+03  0.00000000000E+00 0.  1.
</event>
<event>
 4    1  0.6769686E+001  0.2411690E+02  0.7546771E-02  0.1478930E+00
          2   -1    0    0  502    0  0.00000000000E+00  0.00000000000E+00  0.79912980247E+01  0.79912980247E+01  0.00000000000E+00 0.  1.
         -2   -1    0    0    0  501 -0.00000000000E+00 -0.00000000000E+00 -0.73462515928E+02  0.73462515928E+02  0.00000000000E+00 0. -1.
          1    1    1    2  502    0  0.21808595338E+02  0.10296123201E+02 -0.28816615026E+02  0.37576884984E+02  0.00000000000E+00 0.  1.
         -1    1    1    2    0  501 -0.21808595338E+02 -0.10296123201E+02 -0.36654602877E+02  0.43876928968E+02  0.00000000000E+00 0. -1.
</event>
<event>
 4    1  0.6769686E+001  0.2066064E+02  0.7546771E-02  0.1524166E+00
          2   -1    0    0  502    0  0.00000000000E+00  0.00000000000E+00  0.10946254247E+03  0.10946254247E+03  0.00000000000E+00 0. -1.
         -2   -1    0    0    0  501 -0.00000000000E+00 -0.00000000000E+00 -0.81668921538E+01  0.81668921538E+01  0.00000000000E+00 0.  1.
          1    1    1    2  502    0  0.38501353667E+01  0.20298734310E+02  0.81337388122E+01  0.22204050622E+02  0.00000000000E+00 0. -1.
         -1    1    1    2    0  501 -0.38501353667E+01 -0.20298734310E+02  0.93161911508E+02  0.95425384007E+02  0.00000000000E+00 0.  1.
</event>
<event>
 4    1  0.6769686E+001  0.3065680E+02  0.7546771E-02  0.1413973E+00
          2   -1    0    0  502    0  0.00000000000E+00  0.00000000000E+00  0.12998686013E+04  0.12998686013E+04  0.00000000000E+00 0.  1.
         -2   -1    0    0    0  501 -0.00000000000E+00 -0.00000000000E+00 -0.11890352073E+01  0.11890352073E+01  0.00000000000E+00 0. -1.
          1    1    1    2  502    0  0.28309166249E+02  0.11765642899E+02  0.10565946380E+04  0.10570392936E+04  0.00000000000E+00 0.  1.
         -1    1    1    2    0  501 -0.28309166249E+02 -0.11765642899E+02  0.24208492810E+03  0.24401834287E+03  0.00000000000E+00 0. -1.
</event>
<event>
 4    1  0.6769686E+001  0.3548722E+02  0.7546771E-02  0.1377170E+00
          2   -1    0    0  502    0  0.00000000000E+00  0.00000000000E+00  0.10711785688E+04  0.10711785688E+04  0.00000000000E+00 0. -1.
         -2   -1    0    0    0  501 -0.00000000000E+00 -0.00000000000E+00 -0.13236354605E+01  0.13236354605E+01  0.00000000000E+00 0.  1.
          1    1    1    2  502    0  0.40793120537E+01 -0.35251974853E+02  0.71422646455E+03  0.71510753400E+03  0.00000000000E+00 0. -1.
         -1    1    1    2    0  501 -0.40793120537E+01  0.35251974853E+02  0.35562846874E+03  0.35739467021E+03  0.00000000000E+00 0.  1.
</event>
<event>
 4    1  0.6769686E+001  0.2966936E+02  0.7546771E-02  0.1422492E+00
          2   -1    0    0  502    0  0.00000000000E+00  0.00000000000E+00  0.38507210321E+02  0.38507210321E+02  0.00000000000E+00 0. -1.
         -2   -1    0    0    0  501 -0.00000000000E+00 -0.00000000000E+00 -0.33991685954E+02  0.33991685954E+02  0.00000000000E+00 0.  1.
          1    1    1    2  502    0  0.28859915143E+02  0.68830599749E+01  0.23001993597E+02  0.37541482737E+02  0.00000000000E+00 0. -1.
         -1    1    1    2    0  501 -0.28859915143E+02 -0.68830599749E+01 -0.18486469230E+02  0.34957413538E+02  0.00000000000E+00 0.  1.
</event>
<event>
 4    1  0.6769686E+001  0.2306502E+02  0.7546771E-02  0.1491683E+00
          2   -1    0    0  502    0  0.00000000000E+00  0.00000000000E+00  0.11278727552E+04  0.11278727552E+04  0.00000000000E+00 0.  1.
         -2   -1    0    0    0  501 -0.00000000000E+00 -0.00000000000E+00 -0.48125269535E+00  0.48125269535E+00  0.00000000000E+00 0. -1.
          1    1    1    2  502    0 -0.22871770324E+02 -0.29795110429E+01  0.64326385724E+03  0.64367723697E+03  0.00000000000E+00 0. -1.
         -1    1    1    2    0  501  0.22871770324E+02  0.29795110429E+01  0.48412764525E+03  0.48467677091E+03  0.00000000000E+00 0.  1.
</event>
<event>
 4    1  0.6769686E+001  0.2682078E+02  0.7546771E-02  0.1449417E+00
          2   -1    0    0  502    0  0.00000000000E+00  0.00000000000E+00  0.67481674291E+03  0.67481674291E+03  0.00000000000E+00 0. -1.
         -2   -1    0    0    0  501 -0.00000000000E+00 -0.00000000000E+00 -0.23857195004E+01  0.23857195004E+01  0.00000000000E+00 0.  1.
          1    1    1    2  502    0 -0.10912791998E+02 -0.24500310551E+02  0.58805263953E+03  0.58866396281E+03  0.00000000000E+00 0. -1.
         -1    1    1    2    0  501  0.10912791998E+02  0.24500310551E+02  0.84378383871E+02  0.88538499598E+02  0.00000000000E+00 0.  1.
</event>
<event>
 4    1  0.6769686E+001  0.2017840E+02  0.7546771E-02  0.1531326E+00
          2   -1    0    0  502    0  0.00000000000E+00  0.00000000000E+00  0.12720759377E+04  0.12720759377E+04  0.00000000000E+00 0.  1.
         -2   -1    0    0    0  501 -0.00000000000E+00 -0.00000000000E+00 -0.33158941388E+00  0.33158941388E+00  0.00000000000E+00 0. -1.
          1    1    1    2  502    0 -0.19536334828E+02 -0.50496802068E+01  0.51735015662E+03  0.51774351971E+03  0.00000000000E+00 0. -1.
         -1    1    1    2    0  501  0.19536334828E+02  0.50496802068E+01  0.75439419162E+03  0.75466400736E+03  0.00000000000E+00 0.  1.
</event>
<event>
 4    1  0.6769686E+001  0.2024054E+02  0.7546771E-02  0.1530390E+00
          2   -1    0    0  502    0  0.00000000000E+00  0.00000000000E+00  0.10382073679E+02  0.10382073679E+02  0.00000000000E+00 0.  1.
         -2   -1    0    0    0  501 -0.00000000000E+00 -0.00000000000E+00 -0.39640712359E+02  0.39640712359E+02  0.00000000000E+00 0. -1.
          1    1    1    2  502    0 -0.15451589031E+02 -0.13073935271E+02 -0.16316810245E+02  0.25998416944E+02  0.00000000000E+00 0. -1.
         -1    1    1    2    0  501  0.15451589031E+02  0.13073935271E+02 -0.12941828435E+02  0.24024369093E+02  0.00000000000E+00 0.  1.
</event>
<event>
 4    1  0.6769686E+001  0.3742457E+02  0.7546771E-02  0.1364277E+00
          2   -1    0    0  502    0  0.00000000000E+00  0.00000000000E+00  0.40823069034E+02  0.40823069034E+02  0.00000000000E+00 0. -1.
         -2   -1    0    0    0  501 -0.00000000000E+00 -0.00000000000E+00 -0.36257104827E+02  0.36257104827E+02  0.00000000000E+00 0.  1.
          1    1    1    2  502    0 -0.33098708054E+02  0.17466364034E+02  0.11216513864E+02  0.39069278604E+02  0.00000000000E+00 0. -1.
         -1    1    1    2    0  501  0.33098708054E+02 -0.17466364034E+02 -0.66505496578E+01  0.38010895256E+02  0.00000000000E+00 0.  1.
</event>
<event>
 4    1  0.6769686E+001  0.2529171E+02  0.7546771E-02  0.1465566E+00
          2   -1    0    0  502    0  0.00000000000E+00  0.00000000000E+00  0.22168677759E+03  0.22168677759E+03  0.00000000000E+00 0. -1.
         -2   -1    0    0    0  501 -0.00000000000E+00 -0.00000000000E+00 -0.28854856761E+01  0.28854856761E+01  0.00000000000E+00 0.  1.
          1    1    1    2  502    0 -0.23813234112E+02  0.85205804128E+01  0.10913382932E+03  0.11202617155E+03  0.00000000000E+00 0. -1.
         -1    1    1    2    0  501  0.23813234112E+02 -0.85205804128E+01  0.10966746260E+03  0.11254609172E+03  0.00000000000E+00 0.  1.
</event>
<event>
 4    1  0.6769686E+001  0.2284647E+02  0.7546771E-02  0.1494435E+00
          2   -1    0    0  502    0  0.00000000000E+00  0.00000000000E+00  0.50150531161E+01  0.50150531161E+01  0.00000000000E+00 0. -1.
         -2   -1    0    0    0  501 -0.00000000000E+00 -0.00000000000E+00 -0.11900032316E+03  0.11900032316E+03  0.00000000000E+00 0.  1.
          1    1    1    2  502    0 -0.11233969355E+02  0.19893699396E+02 -0.35035472751E+02  0.41826375578E+02  0.00000000000E+00 0.  1.
         -1    1    1    2    0  501  0.11233969355E+02 -0.19893699396E+02 -0.78949797291E+02  0.82189000696E+02  0.00000000000E+00 0. -1.
</event>
<event>
 4    1  0.6769686E+001  0.2098109E+02  0.7546771E-02  0.1519535E+00
          2   -1    0    0  502    0  0.00000000000E+00  0.00000000000E+00  0.39278720627E+03  0.39278720627E+03  0.00000000000E+00 0.  1.
         -2   -1    0    0    0  501 -0.00000000000E+00 -0.00000000000E+00 -0.11396563644E+01  0.11396563644E+01  0.00000000000E+00 0. -1.
          1    1    1    2  502    0  0.17652324005E+02  0.11340265878E+02  0.17043758952E+03  0.17172413370E+03  0.00000000000E+00 0.  1.
         -1    1    1    2    0  501 -0.17652324005E+02 -0.11340265878E+02  0.22120996039E+03  0.22220272894E+03  0.00000000000E+00 0. -1.
</event>
<event>
 4    1  0.6769686E+001  0.3715783E+02  0.7546771E-02  0.1365997E+00
          2   -1    0    0  502    0  0.00000000000E+00  0.00000000000E+00  0.19399871611E+03  0.19399871611E+03  0.00000000000E+00 0. -1.
         -2   -1    0    0    0  501 -0.00000000000E+00 -0.00000000000E+00 -0.96568072348E+01  0.96568072348E+01  0.00000000000E+00 0.  1.
          1    1    1    2  502    0  0.28868705072E+02 -0.23394492397E+02  0.39950223844E+02  0.54559369426E+02  0.00000000000E+00 0.  1.
         -1    1    1    2    0  501 -0.28868705072E+02  0.23394492397E+02  0.14439168503E+03  0.14909615391E+03  0.00000000000E+00 0. -1.
</event>
<event>
 4    1  0.6769686E+001  0.2403742E+02  0.7546771E-02  0.1479866E+00
          2   -1    0    0  502    0  0.00000000000E+00  0.00000000000E+00  0.24644130785E+02  0.24644130785E+02  0.00000000000E+00 0.  1.
         -2   -1    0    0    0  501 -0.00000000000E+00 -0.00000000000E+00 -0.31116066354E+02  0.31116066354E+02  0.00000000000E+00 0. -1.
          1    1    1    2  502    0 -0.18521976686E+01 -0.23965958114E+02  0.10606428945E+02  0.26273448945E+02  0.00000000000E+00 0.  1.
         -1    1    1    2    0  501  0.18521976686E+01  0.23965958114E+02 -0.17078364515E+02  0.29486748194E+02  0.00000000000E+00 0. -1.
</event>
<event>
 4    1  0.6769686E+001  0.2447159E+02  0.7546771E-02  0.1474802E+00
          2   -1    0    0  502    0  0.00000000000E+00  0.00000000000E+00  0.46403309581E+03  0.46403309581E+03  0.00000000000E+00 0. -1.
         -2   -1    0    0    0  501 -0.00000000000E+00 -0.00000000000E+00 -0.17168431101E+01  0.17168431101E+01  0.00000000000E+00 0.  1.
          1    1    1    2  502    0  0.59954503838E+01 -0.23725791804E+02  0.34719897147E+03  0.34806031721E+03  0.00000000000E+00 0. -1.
         -1    1    1    2    0  501 -0.59954503838E+01  0.23725791804E+02  0.11511728123E+03  0.11768962172E+03  0.00000000000E+00 0.  1.
</event>
<event>
 4    1  0.6769686E+001  0.2041426E+02  0.7546771E-02  0.1527794E+00
          2   -1    0    0  502    0  0.00000000000E+00  0.00000000000E+00  0.12558386793E+01  0.12558386793E+01  0.00000000000E+00 0.  1.
         -2   -1    0    0    0  501 -0.00000000000E+00 -0.00000000000E+00 -0.33274654850E+03  0.33274654850E+03  0.00000000000E+00 0. -1.
          1    1    1    2  502    0  0.18831344017E+02 -0.78817760363E+01 -0.17444530493E+03  0.17563572052E+03  0.00000000000E+00 0.  1.
         -1    1    1    2    0  501 -0.18831344017E+02  0.78817760363E+01 -0.15704540489E+03  0.15836666666E+03  0.00000000000E+00 0. -1.
</event>
<event>
 4    1  0.6769686E+001  0.2105568E+02  0.7546771E-02  0.1518471E+00
          2   -1    0    0  502    0  0.00000000000E+00  0.00000000000E+00  0.45848752877E+03  0.45848752877E+03  0.00000000000E+00 0.  1.
         -2   -1    0    0    0  501 -0.00000000000E+00 -0.00000000000E+00 -0.19036489270E+01  0.19036489270E+01  0.00000000000E+00 0. -1.
          1    1    1    2  502    0 -0.14203517173E+02  0.15543541523E+02  0.38976497407E+03  0.39033328912E+03  0.00000000000E+00 0. -1.
         -1    1    1    2    0  501  0.14203517173E+02 -0.15543541523E+02  0.66818905768E+02  0.70057888572E+02  0.00000000000E+00 0.  1.
</event>
<event>
 4    1  0.6769686E+001  0.2277923E+02  0.7546771E-02  0.1495289E+00
          2   -1    0    0  502    0  0.00000000000E+00  0.00000000000E+00  0.14496878332E+04  0.14496878332E+04  0.00000000000E+00 0.  1.
         -2   -1    0    0    0  501 -0.00000000000E+00 -0.00000000000E+00 -0.62678560783E+00  0.62678560783E+00  0.00000000000E+00 0. -1.
          1    1    1    2  502    0 -0.10648896860E+02 -0.20136892390E+02  0.11994593747E+04  0.11996756582E+04  0.00000000000E+00 0.  1.
         -1    1    1    2    0  501  0.10648896860E+02  0.20136892390E+02  0.24960167290E+03  0.25063896057E+03  0.00000000000E+00 0. -1.
</event>
<event>
 4    1  0.6769686E+001  0.3067249E+02  0.7546771E-02  0.1413841E+00
          2   -1    0    0  502    0  0.00000000000E+00  0.00000000000E+00  0.30999489716E+04  0.30999489716E+04  0.00000000000E+00 0.  1.
         -2   -1    0    0    0  501 -0.00000000000E+00 -0.00000000000E+00 -0.36528309183E+00  0.36528309183E+00  0.00000000000E+00 0. -1.
          1    1    1    2  502    0  0.29634963401E+02 -0.79101704749E+01  0.91221463882E+03  0.91273016228E+03  0.00000000000E+00 0.  1.
         -1    1    1    2    0  501 -0.29634963401E+02  0.79101704749E+01  0.21873690497E+04  0.21875840924E+04  0.00000000000E+00 0. -1.
</event>
<event>
 4    1  0.6769686E+001  0.1314852E+03  0.7546771E-02  0.1118266E+00
          2   -1    0    0  502    0  0.00000000000E+00  0.00000000000E+00  0.35127895426E+04  0.35127895426E+04  0.00000000000E+00 0.  1.
         -2   -1    0    0    0  501 -0.00000000000E+00 -0.00000000000E+00 -0.56618765802E+01  0.56618765802E+01  0.00000000000E+00 0. -1.
          1    1    1    2  502    0  0.12272518855E+03  0.47189762718E+02  0.11174204422E+04  0.11251296771E+04  0.00000000000E+00 0. -1.
         -1    1    1    2    0  501 -0.12272518855E+03 -0.47189762718E+02  0.23897072238E+04  0.23933217420E+04  0.00000000000E+00 0.  1.
</event>
<event>
 4    1  0.6769686E+001  0.2648536E+02  0.7546771E-02  0.1452847E+00
          2   -1    0    0  502    0  0.00000000000E+00  0.00000000000E+00  0.21653973192E+04  0.21653973192E+04  0.00000000000E+00 0. -1.
         -2   -1    0    0    0  501 -0.00000000000E+00 -0.00000000000E+00 -0.34785628342E+00  0.34785628342E+00  0.00000000000E+00 0.  1.
          1    1    1    2  502    0  0.76302104380E+00  0.26474365560E+02  0.13664209393E+04  0.13666775983E+04  0.00000000000E+00 0.  1.
         -1    1    1    2    0  501 -0.76302104380E+00 -0.26474365560E+02  0.79862852361E+03  0.79906757722E+03  0.00000000000E+00 0. -1.
</event>
<event>
 4    1  0.6769686E+001  0.4767376E+02  0.7546771E-02  0.1308586E+00
          2   -1    0    0  502    0  0.00000000000E+00  0.00000000000E+00  0.15835783546E+04  0.15835783546E+04  0.00000000000E+00 0. -1.
         -2   -1    0    0    0  501 -0.00000000000E+00 -0.00000000000E+00 -0.23619642740E+01  0.23619642740E+01  0.00000000000E+00 0.  1.
          1    1    1    2  502    0 -0.47118917159E+02 -0.72522601909E+01  0.12873143036E+04  0.12881967644E+04  0.00000000000E+00 0. -1.
         -1    1    1    2    0  501  0.47118917159E+02  0.72522601909E+01  0.29390208678E+03  0.29774355450E+03  0.00000000000E+00 0.  1.
</event>
<event>
 4    1  0.6769686E+001  0.2526434E+02  0.7546771E-02  0.1465868E+00
          2   -1    0    0  502    0  0.00000000000E+00  0.00000000000E+00  0.34205490915E+02  0.34205490915E+02  0.00000000000E+00 0. -1.
         -2   -1    0    0    0  501 -0.00000000000E+00 -0.00000000000E+00 -0.20902545459E+02  0.20902545459E+02  0.00000000000E+00 0.  1.
          1    1    1    2  502    0 -0.21011504954E+02 -0.14028665617E+02  0.15675929055E+02  0.29732499914E+02  0.00000000000E+00 0. -1.
         -1    1    1    2    0  501  0.21011504954E+02  0.14028665617E+02 -0.23729835991E+01  0.25375536459E+02  0.00000000000E+00 0.  1.
</event>
<event>
 4    1  0.6769686E+001  0.3807446E+02  0.7546771E-02  0.1360154E+00
          2   -1    0    0  502    0  0.00000000000E+00  0.00000000000E+00  0.30619316562E+04  0.30619316562E+04  0.00000000000E+00 0. -1.
         -2   -1    0    0    0  501 -0.00000000000E+00 -0.00000000000E+00 -0.49153072749E+00  0.49153072749E+00  0.00000000000E+00 0.  1.
          1    1    1    2  502    0  0.90705145902E+01 -0.36978245092E+02  0.12370267275E+04  0.12376125361E+04  0.00000000000E+00 0. -1.
         -1    1    1    2    0  501 -0.90705145902E+01  0.36978245092E+02  0.18244133979E+04  0.18248106508E+04  0.00000000000E+00 0.  1.
</event>
<event>
 4    1  0.6769686E+001  0.7648261E+02  0.7546771E-02  0.1212257E+00
          2   -1    0    0  502    0  0.00000000000E+00  0.00000000000E+00  0.26359436339E+04  0.26359436339E+04  0.00000000000E+00 0.  1.
         -2   -1    0    0    0  501 -0.00000000000E+00 -0.00000000000E+00 -0.52954604683E+01  0.52954604683E+01  0.00000000000E+00 0. -1.
          1    1    1    2  502    0 -0.19783401937E+02  0.73879672283E+02  0.23218848791E+04  0.23231442015E+04  0.00000000000E+00 0.  1.
         -1    1    1    2    0  501  0.19783401937E+02 -0.73879672283E+02  0.30876329427E+03  0.31809489285E+03  0.00000000000E+00 0. -1.
</event>
<event>
 4    1  0.6769686E+001  0.2053967E+02  0.7546771E-02  0.1525940E+00
          2   -1    0    0  502    0  0.00000000000E+00  0.00000000000E+00  0.15645584540E+01  0.15645584540E+01  0.00000000000E+00 0. -1.
         -2   -1    0    0    0  501 -0.00000000000E+00 -0.00000000000E+00 -0.35769205823E+03  0.35769205823E+03  0.00000000000E+00 0.  1.
          1    1    1    2  502    0  0.13082454192E+02 -0.15834378774E+02 -0.26718333397E+03  0.26797166289E+03  0.00000000000E+00 0.  1.
         -1    1    1    2    0  501 -0.13082454192E+02  0.15834378774E+02 -0.88944165804E+02  0.91284953796E+02  0.00000000000E+00 0. -1.
</event>
<event>
 4    1  0.6769686E+001  0.2540910E+02  0.7546771E-02  0.1464278E+00
          2   -1    0    0  502    0  0.00000000000E+00  0.00000000000E+00  0.43437031425E+00  0.43437031425E+00  0.00000000000E+00 0.  1.
         -2   -1    0    0    0  501 -0.00000000000E+00 -0.00000000000E+00 -0.15384659317E+04  0.15384659317E+04  0.00000000000E+00 0. -1.
          1    1    1    2  502    0 -0.19183087425E+02  0.16662275853E+02 -0.62738406384E+03  0.62789838815E+03  0.00000000000E+00 0.  1.
         -1    1    1    2    0  501  0.19183087425E+02 -0.16662275853E+02 -0.91064749759E+03  0.91100191391E+03  0.00000000000E+00 0. -1.
</event>
<event>
 4    1  0.6769686E+001  0.6885324E+02  0.7546771E-02  0.1232396E+00
          2   -1    0    0  502    0  0.00000000000E+00  0.00000000000E+00  0.21101901647E+02  0.21101901647E+02  0.00000000000E+00 0. -1.
         -2   -1    0    0    0  501 -0.00000000000E+00 -0.00000000000E+00 -0.30276144953E+03  0.30276144953E+03  0.00000000000E+00 0.  1.
          1    1    1    2  502    0 -0.68759760264E+02  0.35867378817E+01 -0.22307466851E+03  0.23345894083E+03  0.00000000000E+00 0.  1.
         -1    1    1    2    0  501  0.68759760264E+02 -0.35867378817E+01 -0.58584879373E+02  0.90404410353E+02  0.00000000000E+00 0. -1.
</event>
<event>
 4    1  0.6769686E+001  0.2200245E+02  0.7546771E-02  0.1505419E+00
          2   -1    0    0  502    0  0.00000000000E+00  0.00000000000E+00  0.64215042017E+03  0.64215042017E+03  0.00000000000E+00 0. -1.
         -2   -1    0    0    0  501 -0.00000000000E+00 -0.00000000000E+00 -0.97135897123E+00  0.97135897123E+00  0.00000000000E+00 0.  1.
          1    1    1    2  502    0 -0.17076598012E+02  0.13874351576E+02  0.47274115001E+03  0.47325289512E+03  0.00000000000E+00 0. -1.
         -1    1    1    2    0  501  0.17076598012E+02 -0.13874351576E+02  0.16843791120E+03  0.16986888402E+03  0.00000000000E+00 0.  1.
</event>
<event>
 4    1  0.6769686E+001  0.3811267E+02  0.7546771E-02  0.1359915E+00
          2   -1    0    0  502    0  0.00000000000E+00  0.00000000000E+00  0.13700131093E+01  0.13700131093E+01  0.00000000000E+00 0.  1.
         -2   -1    0    0    0  501 -0.00000000000E+00 -0.00000000000E+00 -0.11304259350E+04  0.11304259350E+04  0.00000000000E+00 0. -1.
          1    1    1    2  502    0  0.34889448353E+02 -0.15339558573E+02 -0.42354466115E+03  0.42525598838E+03  0.00000000000E+00 0. -1.
         -1    1    1    2    0  501 -0.34889448353E+02  0.15339558573E+02 -0.70551126078E+03  0.70653995977E+03  0.00000000000E+00 0.  1.
</event>
<event>
 4    1  0.6769686E+001  0.2417655E+02  0.7546771E-02  0.1478230E+00
          2   -1    0    0  502    0  0.00000000000E+00  0.00000000000E+00  0.14598293477E+03  0.14598293477E+03  0.00000000000E+00 0. -1.
         -2   -1    0    0    0  501 -0.00000000000E+00 -0.00000000000E+00 -0.12618848989E+02  0.12618848989E+02  0.00000000000E+00 0.  1.
          1    1    1    2  502    0  0.95551157522E+00 -0.24157660057E+02  0.11590413747E+01  0.24204316117E+02  0.00000000000E+00 0.  1.
         -1    1    1    2    0  501 -0.95551157522E+00  0.24157660057E+02  0.13220504441E+03  0.13439746764E+03  0.00000000000E+00 0. -1.
</event>
<event>
 4    1  0.6769686E+001  0.2172952E+02  0.7546771E-02  0.1509099E+00
          2   -1    0    0  502    0  0.00000000000E+00  0.00000000000E+00  0.31578378003E+02  0.31578378003E+02  0.00000000000E+00 0.  1.
         -2   -1    0    0    0  501 -0.00000000000E+00 -0.00000000000E+00 -0.15328510821E+02  0.15328510821E+02  0.00000000000E+00 0. -1.
          1    1    1    2  502    0  0.21647594166E+02  0.18850963577E+01  0.44510460359E+01  0.22180706307E+02  0.00000000000E+00 0. -1.
         -1    1    1    2    0  501 -0.21647594166E+02 -0.18850963577E+01  0.11798821146E+02  0.24726182518E+02  0.00000000000E+00 0.  1.
</event>
<event>
 4    1  0.6769686E+001  0.5081267E+02  0.7546771E-02  0.1294687E+00
          2   -1    0    0  502    0  0.00000000000E+00  0.00000000000E+00  0.25957280393E+03  0.25957280393E+03  0.00000000000E+00 0.  1.
         -2   -1    0    0    0  501 -0.00000000000E+00 -0.00000000000E+00 -0.10337088190E+02  0.10337088190E+02  0.00000000000E+00 0. -1.
          1    1    1    2  502    0 -0.49146730225E+02  0.12904500946E+02  0.15083976313E+03  0.15916834288E+03  0.00000000000E+00 0.  1.
         -1    1    1    2    0  501  0.49146730225E+02 -0.12904500946E+02  0.98395952613E+02  0.11074154924E+03  0.00000000000E+00 0. -1.
</event>
<event>
 4    1  0.6769686E+001  0.2296257E+02  0.7546771E-02  0.1492969E+00
          2   -1    0    0  502    0  0.00000000000E+00  0.00000000000E+00  0.18066328443E+03  0.18066328443E+03  0.00000000000E+00 0. -1.
         -2   -1    0    0    0  501 -0.00000000000E+00 -0.00000000000E+00 -0.32277238627E+01  0.32277238627E+01  0.00000000000E+00 0.  1.
          1    1    1    2  502    0  0.40717856599E+01 -0.22598679224E+02  0.60262386516E+02  0.64489029840E+02  0.00000000000E+00 0.  1.
         -1    1    1    2    0  501 -0.40717856599E+01  0.22598679224E+02  0.11717317405E+03  0.11940197845E+03  0.00000000000E+00 0. -1.
</event>
<event>
 4    1  0.6769686E+001  0.2737831E+02  0.7546771E-02  0.1443845E+00
          2   -1    0    0  502    0  0.00000000000E+00  0.00000000000E+00  0.79692588303E+02  0.79692588303E+02  0.00000000000E+00 0.  1.
         -2   -1    0    0    0  501 -0.00000000000E+00 -0.00000000000E+00 -0.16697387232E+02  0.16697387232E+02  0.00000000000E+00 0. -1.
          1    1    1    2  502    0 -0.57922829398E+01  0.26758573160E+02 -0.35089630422E+00  0.27380557106E+02  0.00000000000E+00 0. -1.
         -1    1    1    2    0  501  0.57922829398E+01 -0.26758573160E+02  0.63346097376E+02  0.69009418429E+02  0.00000000000E+00 0.  1.
</event>
<event>
 4    1  0.6769686E+001  0.2946820E+02  0.7546771E-02  0.1424275E+00
          2   -1    0    0  502    0  0.00000000000E+00  0.00000000000E+00  0.57473535651E+01  0.57473535651E+01  0.00000000000E+00 0. -1.
         -2   -1    0    0    0  501 -0.00000000000E+00 -0.00000000000E+00 -0.15343735478E+03  0.15343735478E+03  0.00000000000E+00 0.  1.
          1    1    1    2  502    0  0.16100477181E+02  0.24680952348E+02 -0.83686935079E+02  0.88723603833E+02  0.00000000000E+00 0.  1.
         -1    1    1    2    0  501 -0.16100477181E+02 -0.24680952348E+02 -0.64003066141E+02  0.70461104516E+02  0.00000000000E+00 0. -1.
</event>
<event>
 4    1  0.6769686E+001  0.2112837E+02  0.7546771E-02  0.1517440E+00
          2   -1    0    0  502    0  0.00000000000E+00  0.00000000000E+00  0.12218086860E+03  0.12218086860E+03  0.00000000000E+00 0.  1.
         -2   -1    0    0    0  501 -0.00000000000E+00 -0.00000000000E+00 -0.47384902479E+01  0.47384902479E+01  0.00000000000E+00 0. -1.
          1    1    1    2  502    0 -0.13719676146E+02  0.16067929208E+02  0.89085115949E+02  0.91556352845E+02  0.00000000000E+00 0.  1.
         -1    1    1    2    0  501  0.13719676146E+02 -0.16067929208E+02  0.28357262403E+02  0.35363006003E+02  0.00000000000E+00 0. -1.
</event>
<event>
 4    1  0.6769686E+001  0.4583014E+02  0.7546771E-02  0.1317340E+00
          2   -1    0    0  502    0  0.00000000000E+00  0.00000000000E+00  0.86700680173E+03  0.86700680173E+03  0.00000000000E+00 0.  1.
         -2   -1    0    0    0  501 -0.00000000000E+00 -0.00000000000E+00 -0.24937671197E+01  0.24937671197E+01  0.00000000000E+00 0. -1.
          1    1    1    2  502    0  0.38030331336E+02  0.25575288504E+02  0.50570519423E+03  0.50777765307E+03  0.00000000000E+00 0.  1.
         -1    1    1    2    0  501 -0.38030331336E+02 -0.25575288504E+02  0.35880784038E+03  0.36172291578E+03  0.00000000000E+00 0. -1.
</event>
<event>
 4    1  0.6769686E+001  0.2271501E+02  0.7546771E-02  0.1496108E+00
          2   -1    0    0  502    0  0.00000000000E+00  0.00000000000E+00  0.20580740847E+04  0.20580740847E+04  0.00000000000E+00 0. -1.
         -2   -1    0    0    0  501 -0.00000000000E+00 -0.00000000000E+00 -0.33121065341E+00  0.33121065341E+00  0.00000000000E+00 0.  1.
          1    1    1    2  502    0 -0.22216525408E+02 -0.47326237921E+01  0.15362813718E+04  0.15364492914E+04  0.00000000000E+00 0. -1.
         -1    1    1    2    0  501  0.22216525408E+02  0.47326237921E+01  0.52146150222E+03  0.52195600392E+03  0.00000000000E+00 0.  1.
</event>
<event>
 4    1  0.6769686E+001  0.2601668E+02  0.7546771E-02  0.1457744E+00
          2   -1    0    0  502    0  0.00000000000E+00  0.00000000000E+00  0.88799872747E+02  0.88799872747E+02  0.00000000000E+00 0.  1.
         -2   -1    0    0    0  501 -0.00000000000E+00 -0.00000000000E+00 -0.17648441150E+02  0.17648441150E+02  0.00000000000E+00 0. -1.
          1    1    1    2  502    0  0.18567987369E+02 -0.18223538812E+02  0.75691982522E+02  0.80038389163E+02  0.00000000000E+00 0.  1.
         -1    1    1    2    0  501 -0.18567987369E+02  0.18223538812E+02 -0.45405509244E+01  0.26409924734E+02  0.00000000000E+00 0. -1.
</event>
<event>
 4    1  0.6769686E+001  0.2295242E+02  0.7546771E-02  0.1493097E+00
          2   -1    0    0  502    0  0.00000000000E+00  0.00000000000E+00  0.32951932075E+02  0.32951932075E+02  0.00000000000E+00 0.  1.
         -2   -1    0    0    0  501 -0.00000000000E+00 -0.00000000000E+00 -0.16643209025E+02  0.16643209025E+02  0.00000000000E+00 0. -1.
          1    1    1    2  502    0 -0.19907158081E+02 -0.11424468699E+02  0.32316734892E+01  0.23178808025E+02  0.00000000000E+00 0. -1.
         -1    1    1    2    0  501  0.19907158081E+02  0.11424468699E+02  0.13077049561E+02  0.26416333075E+02  0.00000000000E+00 0.  1.
</event>
<event>
 4    1  0.6769686E+001  0.2123605E+02  0.7546771E-02  0.1515921E+00
          2   -1    0    0  502    0  0.00000000000E+00  0.00000000000E+00  0.13230096609E+04  0.13230096609E+04  0.00000000000E+00 0. -1.
         -2   -1    0    0    0  501 -0.00000000000E+00 -0.00000000000E+00 -0.35740674575E+00  0.35740674575E+00  0.00000000000E+00 0.  1.
          1    1    1    2  502    0 -0.21127279600E+02 -0.21466206765E+01  0.80366956228E+03  0.80395008257E+03  0.00000000000E+00 0. -1.
         -1    1    1    2    0  501  0.21127279600E+02  0.21466206765E+01  0.51898269185E+03  0.51941698506E+03  0.00000000000E+00 0.  1.
</event>
<event>
 4    1  0.6769686E+001  0.2062387E+02  0.7546771E-02  0.1524703E+00
          2   -1    0    0  502    0  0.00000000000E+00  0.00000000000E+00  0.10787304165E+04  0.10787304165E+04  0.00000000000E+00 0. -1.
         -2   -1    0    0    0  501 -0.00000000000E+00 -0.00000000000E+00 -0.47604795760E+00  0.47604795760E+00  0.00000000000E+00 0.  1.
          1    1    1    2  502    0  0.20318965314E+02 -0.35332506267E+01  0.31552005055E+03  0.31619336886E+03  0.00000000000E+00 0.  1.
         -1    1    1    2    0  501 -0.20318965314E+02  0.35332506267E+01  0.76273431797E+03  0.76301309558E+03  0.00000000000E+00 0. -1.
</event>
<event>
 4    1  0.6769686E+001  0.4800703E+02  0.7546771E-02  0.1307052E+00
          2   -1    0    0  502    0  0.00000000000E+00  0.00000000000E+00  0.50587972706E+03  0.50587972706E+03  0.00000000000E+00 0.  1.
         -2   -1    0    0    0  501 -0.00000000000E+00 -0.00000000000E+00 -0.46238544682E+01  0.46238544682E+01  0.00000000000E+00 0. -1.
          1    1    1    2  502    0  0.38452428501E+02 -0.28741711991E+02  0.28159985868E+03  0.28566266063E+03  0.00000000000E+00 0.  1.
         -1    1    1    2    0  501 -0.38452428501E+02  0.28741711991E+02  0.21965601391E+03  0.22484092090E+03  0.00000000000E+00 0. -1.
</event>
<event>
 4    1  0.6769686E+001  0.3383935E+02  0.7546771E-02  0.1388912E+00
          2   -1    0    0  502    0  0.00000000000E+00  0.00000000000E+00  0.31952725394E+03  0.31952725394E+03  0.00000000000E+00 0.  1.
         -2   -1    0    0    0  501 -0.00000000000E+00 -0.00000000000E+00 -0.14326812386E+02  0.14326812386E+02  0.00000000000E+00 0. -1.
          1    1    1    2  502    0 -0.28694074639E+02 -0.17937431967E+02  0.80508466188E+01  0.34783868620E+02  0.00000000000E+00 0. -1.
         -1    1    1    2    0  501  0.28694074639E+02  0.17937431967E+02  0.29714959493E+03  0.29907019770E+03  0.00000000000E+00 0.  1.
</event>
<event>
 4    1  0.6769686E+001  0.2778674E+02  0.7546771E-02  0.1439861E+00
          2   -1    0    0  502    0  0.00000000000E+00  0.00000000000E+00  0.38245185929E+03  0.38245185929E+03  0.00000000000E+00 0. -1.
         -2   -1    0    0    0  501 -0.00000000000E+00 -0.00000000000E+00 -0.37563861387E+01  0.37563861387E+01  0.00000000000E+00 0.  1.
          1    1    1    2  502    0 -0.14776152175E+02 -0.23532281207E+02  0.58013902360E+02  0.64325079082E+02  0.00000000000E+00 0.  1.
         -1    1    1    2    0  501  0.14776152175E+02  0.23532281207E+02  0.32068157080E+03  0.32188316635E+03  0.00000000000E+00 0. -1.
</event>
<event>
 4    1  0.6769686E+001  0.3906992E+02  0.7546771E-02  0.1354024E+00
          2   -1    0    0  502    0  0.00000000000E+00  0.00000000000E+00  0.12159129232E+04  0.12159129232E+04  0.00000000000E+00 0.  1.
         -2   -1    0    0    0  501 -0.00000000000E+00 -0.00000000000E+00 -0.12567118099E+01  0.12567118099E+01  0.00000000000E+00 0. -1.
          1    1    1    2  502    0  0.26102694830E+02 -0.29070738142E+02  0.62698191428E+03  0.62819804149E+03  0.00000000000E+00 0. -1.
         -1    1    1    2    0  501 -0.26102694830E+02  0.29070738142E+02  0.58767429715E+03  0.58897159356E+03  0.00000000000E+00 0.  1.
</event>
<event>
 4    1  0.6769686E+001  0.2139663E+02  0.7546771E-02  0.1513677E+00
          2   -1    0    0  502    0  0.00000000000E+00  0.00000000000E+00  0.57666731275E+01  0.57666731275E+01  0.00000000000E+00 0.  1.
         -2   -1    0    0    0  501 -0.00000000000E+00 -0.00000000000E+00 -0.80583843095E+02  0.80583843095E+02  0.00000000000E+00 0. -1.
          1    1    1    2  502    0 -0.21249788211E+02  0.25024259679E+01 -0.32153233526E+02  0.38621833992E+02  0.00000000000E+00 0.  1.
         -1    1    1    2    0  501  0.21249788211E+02 -0.25024259679E+01 -0.42663936442E+02  0.47728682231E+02  0.00000000000E+00 0. -1.
</event>
<event>
 4    1  0.6769686E+001  0.2219986E+02  0.7546771E-02  0.1502798E+00
          2   -1    0    0  502    0  0.00000000000E+00  0.00000000000E+00  0.42073632650E+03  0.42073632650E+03  0.00000000000E+00 0.  1.
         -2   -1    0    0    0  501 -0.00000000000E+00 -0.00000000000E+00 -0.11717124951E+01  0.11717124951E+01  0.00000000000E+00 0. -1.
          1    1    1    2  502    0 -0.18973513254E+02 -0.11525601525E+02  0.20612328446E+03  0.20731532044E+03  0.00000000000E+00 0. -1.
         -1    1    1    2    0  501  0.18973513254E+02  0.11525601525E+02  0.21344132955E+03  0.21459271855E+03  0.00000000000E+00 0.  1.
</event>
<event>
 4    1  0.6769686E+001  0.5786820E+02  0.7546771E-02  0.1267253E+00
          2   -1    0    0  502    0  0.00000000000E+00  0.00000000000E+00  0.22344271657E+03  0.22344271657E+03  0.00000000000E+00 0. -1.
         -2   -1    0    0    0  501 -0.00000000000E+00 -0.00000000000E+00 -0.22724586848E+02  0.22724586848E+02  0.00000000000E+00 0.  1.
          1    1    1    2  502    0 -0.56306488551E+02 -0.13353195441E+02  0.28537297747E+02  0.64522134528E+02  0.00000000000E+00 0.  1.
         -1    1    1    2    0  501  0.56306488551E+02  0.13353195441E+02  0.17218083197E+03  0.18164516889E+03  0.00000000000E+00 0. -1.
</event>
<event>
 4    1  0.6769686E+001  0.3557624E+02  0.7546771E-02  0.1376557E+00
          2   -1    0    0  502    0  0.00000000000E+00  0.00000000000E+00  0.12027507444E+04  0.12027507444E+04  0.00000000000E+00 0. -1.
         -2   -1    0    0    0  501 -0.00000000000E+00 -0.00000000000E+00 -0.12013386719E+01  0.12013386719E+01  0.00000000000E+00 0.  1.
          1    1    1    2  502    0  0.99564992600E+01 -0.34154599845E+02  0.38875361782E+03  0.39037807819E+03  0.00000000000E+00 0.  1.
         -1    1    1    2    0  501 -0.99564992600E+01  0.34154599845E+02  0.81279578786E+03  0.81357400483E+03  0.00000000000E+00 0. -1.
</event>
<event>
 4    1  0.6769686E+001  0.2049067E+02  0.7546771E-02  0.1526663E+00
          2   -1    0    0  502    0  0.00000000000E+00  0.00000000000E+00  0.12516151572E+03  0.12516151572E+03  0.00000000000E+00 0.  1.
         -2   -1    0    0    0  501 -0.00000000000E+00 -0.00000000000E+00 -0.50819348646E+01  0.50819348646E+01  0.00000000000E+00 0. -1.
          1    1    1    2  502    0  0.20107237531E+02 -0.39454390562E+01  0.22073431653E+02  0.30118165207E+02  0.00000000000E+00 0. -1.
         -1    1    1    2    0  501 -0.20107237531E+02  0.39454390562E+01  0.98006149201E+02  0.10012528538E+03  0.00000000000E+00 0.  1.
</event>
<event>
 4    1  0.6769686E+001  0.3212755E+02  0.7546771E-02  0.1401966E+00
          2   -1    0    0  502    0  0.00000000000E+00  0.00000000000E+00  0.44550562998E+02  0.44550562998E+02  0.00000000000E+00 0.  1.
         -2   -1    0    0    0  501 -0.00000000000E+00 -0.00000000000E+00 -0.47359156931E+02  0.47359156931E+02  0.00000000000E+00 0. -1.
          1    1    1    2  502    0 -0.73102489876E+01 -0.31284818678E+02 -0.34247938385E+02  0.46958501931E+02  0.00000000000E+00 0. -1.
         -1    1    1    2    0  501  0.73102489876E+01  0.31284818678E+02  0.31439344452E+02  0.44951217998E+02  0.00000000000E+00 0.  1.
</event>
<event>
 4    1  0.6769686E+001  0.2001464E+02  0.7546771E-02  0.1533812E+00
          2   -1    0    0  502    0  0.00000000000E+00  0.00000000000E+00  0.10213076814E+04  0.10213076814E+04  0.00000000000E+00 0.  1.
         -2   -1    0    0    0  501 -0.00000000000E+00 -0.00000000000E+00 -0.44343113436E+00  0.44343113436E+00  0.00000000000E+00 0. -1.
          1    1    1    2  502    0  0.15907344256E+02  0.12146699430E+02  0.68403163015E+03  0.68432437992E+03  0.00000000000E+00 0.  1.
         -1    1    1    2    0  501 -0.15907344256E+02 -0.12146699430E+02  0.33683262016E+03  0.33742673265E+03  0.00000000000E+00 0. -1.
</event>
<event>
 4    1  0.6769686E+001  0.1314779E+03  0.7546771E-02  0.1118275E+00
          2   -1    0    0  502    0  0.00000000000E+00  0.00000000000E+00  0.62832644547E+03  0.62832644547E+03  0.00000000000E+00 0.  1.
         -2   -1    0    0    0  501 -0.00000000000E+00 -0.00000000000E+00 -0.41617560218E+02  0.41617560218E+02  0.00000000000E+00 0. -1.
          1    1    1    2  502    0 -0.10921241593E+03  0.73205715826E+02  0.48836922861E+03  0.50575778004E+03  0.00000000000E+00 0. -1.
         -1    1    1    2    0  501  0.10921241593E+03 -0.73205715826E+02  0.98339656648E+02  0.16418622565E+03  0.00000000000E+00 0.  1.
</event>
<event>
 4    1  0.6769686E+001  0.2163900E+02  0.7546771E-02  0.1510334E+00
          2   -1    0    0  502    0  0.00000000000E+00  0.00000000000E+00  0.53171868532E+00  0.53171868532E+00  0.00000000000E+00 0.  1.
         -2   -1    0    0    0  501 -0.00000000000E+00 -0.00000000000E+00 -0.88063575391E+03  0.88063575391E+03  0.00000000000E+00 0. -1.
          1    1    1    2  502    0 -0.16025347464E+02 -0.14540791308E+02 -0.44135765504E+03  0.44188779802E+03  0.00000000000E+00 0. -1.
         -1    1    1    2    0  501  0.16025347464E+02  0.14540791308E+02 -0.43874638018E+03  0.43927967457E+03  0.00000000000E+00 0.  1.
</event>
<event>
 4    1  0.6769686E+001  0.3622144E+02  0.7546771E-02  0.1372174E+00
          2   -1    0    0  502    0  0.00000000000E+00  0.00000000000E+00  0.78193139066E+02  0.78193139066E+02  0.00000000000E+00 0. -1.
         -2   -1    0    0    0  501 -0.00000000000E+00 -0.00000000000E+00 -0.17548443494E+02  0.17548443494E+02  0.00000000000E+00 0.  1.
          1    1    1    2  502    0  0.36218239170E+02  0.48139725546E+00  0.40347156151E+02  0.54220711922E+02  0.00000000000E+00 0. -1.
         -1    1    1    2    0  501 -0.36218239170E+02 -0.48139725546E+00  0.20297539421E+02  0.41520870637E+02  0.00000000000E+00 0.  1.
</event>
<event>
 4    1  0.6769686E+001  0.3514017E+02  0.7546771E-02  0.1379580E+00
          2   -1    0    0  502    0  0.00000000000E+00  0.00000000000E+00  0.56685043463E+03  0.56685043463E+03  0.00000000000E+00 0.  1.
         -2   -1    0    0    0  501 -0.00000000000E+00 -0.00000000000E+00 -0.23010826509E+01  0.23010826509E+01  0.00000000000E+00 0. -1.
          1    1    1    2  502    0 -0.82009807603E+01 -0.34169805158E+02  0.21656811378E+03  0.21940050040E+03  0.00000000000E+00 0. -1.
         -1    1    1    2    0  501  0.82009807603E+01  0.34169805158E+02  0.34798123820E+03  0.34975101688E+03  0.00000000000E+00 0.  1.
</event>
<event>
 4    1  0.6769686E+001  0.2043898E+02  0.7546771E-02  0.1527427E+00
          2   -1    0    0  502    0  0.00000000000E+00  0.00000000000E+00  0.10749688503E+03  0.10749688503E+03  0.00000000000E+00 0. -1.
         -2   -1    0    0    0  501 -0.00000000000E+00 -0.00000000000E+00 -0.55525673776E+01  0.55525673776E+01  0.00000000000E+00 0.  1.
          1    1    1    2  502    0  0.11430579478E+02 -0.16943846228E+02  0.81937776088E+02  0.84448512257E+02  0.00000000000E+00 0.  1.
         -1    1    1    2    0  501 -0.11430579478E+02  0.16943846228E+02  0.20006541569E+02  0.28600940155E+02  0.00000000000E+00 0. -1.
</event>
<event>
 4    1  0.6769686E+001  0.2247591E+02  0.7546771E-02  0.1499186E+00
          2   -1    0    0  502    0  0.00000000000E+00  0.00000000000E+00  0.87837513603E+03  0.87837513603E+03  0.00000000000E+00 0.  1.
         -2   -1    0    0    0  501 -0.00000000000E+00 -0.00000000000E+00 -0.57576116084E+00  0.57576116084E+00  0.00000000000E+00 0. -1.
          1    1    1    2  502    0  0.20914608200E+02 -0.82307721733E+01  0.45362575802E+03  0.45418222641E+03  0.00000000000E+00 0.  1.
         -1    1    1    2    0  501 -0.20914608200E+02  0.82307721733E+01  0.42417361685E+03  0.42476867078E+03  0.00000000000E+00 0. -1.
</event>
<event>
 4    1  0.6769686E+001  0.2218629E+02  0.7546771E-02  0.1502977E+00
          2   -1    0    0  502    0  0.00000000000E+00  0.00000000000E+00  0.21433794399E+04  0.21433794399E+04  0.00000000000E+00 0.  1.
         -2   -1    0    0    0  501 -0.00000000000E+00 -0.00000000000E+00 -0.22967373517E+00  0.22967373517E+00  0.00000000000E+00 0. -1.
          1    1    1    2  502    0  0.10849269385E+02 -0.19352640597E+02  0.10611448606E+04  0.10613767694E+04  0.00000000000E+00 0.  1.
         -1    1    1    2    0  501 -0.10849269385E+02  0.19352640597E+02  0.10820049055E+04  0.10822323443E+04  0.00000000000E+00 0. -1.
</event>
<event>
 4    1  0.6769686E+001  0.3130656E+02  0.7546771E-02  0.1408572E+00
          2   -1    0    0  502    0  0.00000000000E+00  0.00000000000E+00  0.22068340766E+01  0.22068340766E+01  0.00000000000E+00 0.  1.
         -2   -1    0    0    0  501 -0.00000000000E+00 -0.00000000000E+00 -0.71168525822E+03  0.71168525822E+03  0.00000000000E+00 0. -1.
          1    1    1    2  502    0 -0.29375906199E+02  0.10823914900E+02 -0.13587599839E+03  0.13943596357E+03  0.00000000000E+00 0.  1.
         -1    1    1    2    0  501  0.29375906199E+02 -0.10823914900E+02 -0.57360242576E+03  0.57445612873E+03  0.00000000000E+00 0. -1.
</event>
<event>
 4    1  0.6769686E+001  0.2395048E+02  0.7546771E-02  0.1480896E+00
          2   -1    0    0  502    0  0.00000000000E+00  0.00000000000E+00  0.11512650735E+04  0.11512650735E+04  0.00000000000E+00 0. -1.
         -2   -1    0    0    0  501 -0.00000000000E+00 -0.00000000000E+00 -0.51450652517E+00  0.51450652517E+00  0.00000000000E+00 0.  1.
          1    1    1    2  502    0 -0.23560979271E+02 -0.43018053697E+01  0.67772139125E+03  0.67814446059E+03  0.00000000000E+00 0. -1.
         -1    1    1    2    0  501  0.23560979271E+02  0.43018053697E+01  0.47302917574E+03  0.47363511945E+03  0.00000000000E+00 0.  1.
</event>
<event>
 4    1  0.6769686E+001  0.3592404E+02  0.7546771E-02  0.1374181E+00
          2   -1    0    0  502    0  0.00000000000E+00  0.00000000000E+00  0.16051252727E+04  0.16051252727E+04  0.00000000000E+00 0. -1.
         -2   -1    0    0    0  501 -0.00000000000E+00 -0.00000000000E+00 -0.36873765379E+01  0.36873765379E+01  0.00000000000E+00 0.  1.
          1    1    1    2  502    0  0.60252181331E+01  0.35415160199E+02  0.15120416296E+04  0.15124683224E+04  0.00000000000E+00 0. -1.
         -1    1    1    2    0  501 -0.60252181331E+01 -0.35415160199E+02  0.89396266558E+02  0.96344326766E+02  0.00000000000E+00 0.  1.
</event>
<event>
 4    1  0.6769686E+001  0.3526835E+02  0.7546771E-02  0.1378686E+00
          2   -1    0    0  502    0  0.00000000000E+00  0.00000000000E+00  0.27331647945E+01  0.27331647945E+01  0.00000000000E+00 0.  1.
         -2   -1    0    0    0  501 -0.00000000000E+00 -0.00000000000E+00 -0.86280350110E+03  0.86280350110E+03  0.00000000000E+00 0. -1.
          1    1    1    2  502    0  0.74224008792E+01  0.34478463642E+02 -0.72752564808E+03  0.72838000049E+03  0.00000000000E+00 0. -1.
         -1    1    1    2    0  501 -0.74224008792E+01 -0.34478463642E+02 -0.13254468823E+03  0.13715666541E+03  0.00000000000E+00 0.  1.
</event>
<event>
 4    1  0.6769686E+001  0.4337686E+02  0.7546771E-02  0.1329758E+00
          2   -1    0    0  502    0  0.00000000000E+00  0.00000000000E+00  0.17307867755E+04  0.17307867755E+04  0.00000000000E+00 0. -1.
         -2   -1    0    0    0  501 -0.00000000000E+00 -0.00000000000E+00 -0.10959881629E+01  0.10959881629E+01  0.00000000000E+00 0.  1.
          1    1    1    2  502    0  0.39594638588E+02  0.17714876987E+02  0.78689930821E+03  0.78809394968E+03  0.00000000000E+00 0.  1.
         -1    1    1    2    0  501 -0.39594638588E+02 -0.17714876987E+02  0.94279147918E+03  0.94378881403E+03  0.00000000000E+00 0. -1.
</event>
<event>
 4    1  0.6769686E+001  0.2697779E+02  0.7546771E-02  0.1447831E+00
          2   -1    0    0  502    0  0.00000000000E+00  0.00000000000E+00  0.14627787759E+03  0.14627787759E+03  0.00000000000E+00 0. -1.
         -2   -1    0    0    0  501 -0.00000000000E+00 -0.00000000000E+00 -0.49868963017E+01  0.49868963017E+01  0.00000000000E+00 0.  1.
          1    1    1    2  502    0  0.21637877833E+02 -0.16112204923E+02  0.74266109157E+02  0.79014276393E+02  0.00000000000E+00 0.  1.
         -1    1    1    2    0  501 -0.21637877833E+02  0.16112204923E+02  0.67024872135E+02  0.72250497502E+02  0.00000000000E+00 0. -1.
</event>
<event>
 4    1  0.6769686E+001  0.2999647E+02  0.7546771E-02  0.1419627E+00
          2   -1    0    0  502    0  0.00000000000E+00  0.00000000000E+00  0.69200904403E+01  0.69200904403E+01  0.00000000000E+00 0. -1.
         -2   -1    0    0    0  501 -0.00000000000E+00 -0.00000000000E+00 -0.13786536605E+03  0.13786536605E+03  0.00000000000E+00 0.  1.
          1    1    1    2  502    0  0.57473471792E+01  0.29440724425E+02 -0.48209428453E+02  0.56779725660E+02  0.00000000000E+00 0. -1.
         -1    1    1    2    0  501 -0.57473471792E+01 -0.29440724425E+02 -0.82735847156E+02  0.88005730829E+02  0.00000000000E+00 0.  1.
</event>
<event>
 4    1  0.6769686E+001  0.2154181E+02  0.7546771E-02  0.1511668E+00
          2   -1    0    0  502    0  0.00000000000E+00  0.00000000000E+00  0.10004225667E+03  0.10004225667E+03  0.00000000000E+00 0. -1.
         -2   -1    0    0    0  501 -0.00000000000E+00 -0.00000000000E+00 -0.50848536776E+01  0.50848536776E+01  0.00000000000E+00 0.  1.
          1    1    1    2  502    0  0.98808088458E+01  0.19142074239E+02  0.63051569878E+02  0.66629947124E+02  0.00000000000E+00 0. -1.
         -1    1    1    2    0  501 -0.98808088458E+01 -0.19142074239E+02  0.31905833118E+02  0.38497163227E+02  0.00000000000E+00 0.  1.
</event>
<event>
 4    1  0.6769686E+001  0.2076190E+02  0.7546771E-02  0.1522692E+00
          2   -1    0    0  502    0  0.00000000000E+00  0.00000000000E+00  0.46324807708E+03  0.46324807708E+03  0.00000000000E+00 0. -1.
         -2   -1    0    0    0  501 -0.00000000000E+00 -0.00000000000E+00 -0.93051193187E+00  0.93051193187E+00  0.00000000000E+00 0.  1.
          1    1    1    2  502    0 -0.20363713864E+02 -0.40466739404E+01  0.23158457289E+03  0.23251337771E+03  0.00000000000E+00 0.  1.
         -1    1    1    2    0  501  0.20363713864E+02  0.40466739404E+01  0.23073299225E+03  0.23166521130E+03  0.00000000000E+00 0. -1.
</event>
<event>
 4    1  0.6769686E+001  0.2135723E+02  0.7546771E-02  0.1514225E+00
          2   -1    0    0  502    0  0.00000000000E+00  0.00000000000E+00  0.56922753740E+00  0.56922753740E+00  0.00000000000E+00 0. -1.
         -2   -1    0    0    0  501 -0.00000000000E+00 -0.00000000000E+00 -0.89652253632E+03  0.89652253632E+03  0.00000000000E+00 0.  1.
          1    1    1    2  502    0 -0.86883039158E+01  0.19510114637E+02 -0.59414703967E+03  0.59453076956E+03  0.00000000000E+00 0.  1.
         -1    1    1    2    0  501  0.86883039158E+01 -0.19510114637E+02 -0.30180626911E+03  0.30256099430E+03  0.00000000000E+00 0. -1.
</event>
<event>
 4    1  0.6769686E+001  0.2960904E+02  0.7546771E-02  0.1423025E+00
          2   -1    0    0  502    0  0.00000000000E+00  0.00000000000E+00  0.52301059700E+03  0.52301059700E+03  0.00000000000E+00 0. -1.
         -2   -1    0    0    0  501 -0.00000000000E+00 -0.00000000000E+00 -0.17535706744E+01  0.17535706744E+01  0.00000000000E+00 0.  1.
          1    1    1    2  502    0  0.16168218034E+02  0.24804922863E+02  0.31572525837E+03  0.31711060254E+03  0.00000000000E+00 0. -1.
         -1    1    1    2    0  501 -0.16168218034E+02 -0.24804922863E+02  0.20553176796E+03  0.20765356513E+03  0.00000000000E+00 0.  1.
</event>
<event>
 4    1  0.6769686E+001  0.2232898E+02  0.7546771E-02  0.1501101E+00
          2   -1    0    0  502    0  0.00000000000E+00  0.00000000000E+00  0.10946574241E+01  0.10946574241E+01  0.00000000000E+00 0. -1.
         -2   -1    0    0    0  501 -0.00000000000E+00 -0.00000000000E+00 -0.47987383542E+03  0.47987383542E+03  0.00000000000E+00 0.  1.
          1    1    1    2  502    0 -0.33693787942E+01  0.22073297798E+02 -0.29362158856E+03  0.29446938798E+03  0.00000000000E+00 0.  1.
         -1    1    1    2    0  501  0.33693787942E+01 -0.22073297798E+02 -0.18515758943E+03  0.18649910485E+03  0.00000000000E+00 0. -1.
</event>
<event>
 4    1  0.6769686E+001  0.2002210E+02  0.7546771E-02  0.1533698E+00
          2   -1    0    0  502    0  0.00000000000E+00  0.00000000000E+00  0.35782229782E+03  0.35782229782E+03  0.00000000000E+00 0.  1.
         -2   -1    0    0    0  501 -0.00000000000E+00 -0.00000000000E+00 -0.12975590441E+01  0.12975590441E+01  0.00000000000E+00 0. -1.
          1    1    1    2  502    0  0.92558642708E+01  0.17754251688E+02  0.11190414727E+03  0.11368123263E+03  0.00000000000E+00 0. -1.
         -1    1    1    2    0  501 -0.92558642708E+01 -0.17754251688E+02  0.24462059151E+03  0.24543862424E+03  0.00000000000E+00 0.  1.
</event>
<event>
 4    1  0.6769686E+001  0.4508662E+02  0.7546771E-02  0.1321007E+00
          2   -1    0    0  502    0  0.00000000000E+00  0.00000000000E+00  0.67939789964E+01  0.67939789964E+01  0.00000000000E+00 0.  1.
         -2   -1    0    0    0  501 -0.00000000000E+00 -0.00000000000E+00 -0.30605911223E+03  0.30605911223E+03  0.00000000000E+00 0. -1.
          1    1    1    2  502    0 -0.20142658935E+02 -0.40337038016E+02 -0.12622626705E+03  0.13403683762E+03  0.00000000000E+00 0.  1.
         -1    1    1    2    0  501  0.20142658935E+02  0.40337038016E+02 -0.17303886618E+03  0.17881625361E+03  0.00000000000E+00 0. -1.
</event>
<event>
 4    1  0.6769686E+001  0.2835327E+02  0.7546771E-02  0.1434468E+00
          2   -1    0    0  502    0  0.00000000000E+00  0.00000000000E+00  0.24977685174E+04  0.24977685174E+04  0.00000000000E+00 0. -1.
         -2   -1    0    0    0  501 -0.00000000000E+00 -0.00000000000E+00 -0.43312551070E+00  0.43312551070E+00  0.00000000000E+00 0.  1.
          1    1    1    2  502    0 -0.21973197639E+02 -0.17918885799E+02  0.61554255118E+03  0.61619521274E+03  0.00000000000E+00 0.  1.
         -1    1    1    2    0  501  0.21973197639E+02  0.17918885799E+02  0.18817928407E+04  0.18820064301E+04  0.00000000000E+00 0. -1.
</event>
<event>
 4    1  0.6769686E+001  0.3612697E+02  0.7546771E-02  0.1372809E+00
          2   -1    0    0  502    0  0.00000000000E+00  0.00000000000E+00  0.26331381280E+03  0.26331381280E+03  0.00000000000E+00 0. -1.
         -2   -1    0    0    0  501 -0.00000000000E+00 -0.00000000000E+00 -0.77145068174E+01  0.77145068174E+01  0.00000000000E+00 0.  1.
          1    1    1    2  502    0  0.27121282046E+01 -0.36025023912E+02  0.46775335596E+02  0.59102368881E+02  0.00000000000E+00 0.  1.
         -1    1    1    2    0  501 -0.27121282046E+01  0.36025023912E+02  0.20882397039E+03  0.21192595074E+03  0.00000000000E+00 0. -1.
</event>
<event>
 4    1  0.6769686E+001  0.3487544E+02  0.7546771E-02  0.1381441E+00
          2   -1    0    0  502    0  0.00000000000E+00  0.00000000000E+00  0.11687739405E+04  0.11687739405E+04  0.00000000000E+00 0. -1.
         -2   -1    0    0    0  501 -0.00000000000E+00 -0.00000000000E+00 -0.11304816781E+01  0.11304816781E+01  0.00000000000E+00 0.  1.
          1    1    1    2  502    0  0.31954607359E+02  0.13971380683E+02  0.74870589669E+03  0.74951772237E+03  0.00000000000E+00 0. -1.
         -1    1    1    2    0  501 -0.31954607359E+02 -0.13971380683E+02  0.41893756211E+03  0.42038669978E+03  0.00000000000E+00 0.  1.
</event>
<event>
 4    1  0.6769686E+001  0.4028968E+02  0.7546771E-02  0.1346797E+00
          2   -1    0    0  502    0  0.00000000000E+00  0.00000000000E+00  0.93752052449E+03  0.93752052449E+03  0.00000000000E+00 0.  1.
         -2   -1    0    0    0  501 -0.00000000000E+00 -0.00000000000E+00 -0.20993474725E+01  0.20993474725E+01  0.00000000000E+00 0. -1.
          1    1    1    2  502    0  0.37025179327E+02 -0.15886935255E+02  0.27103495949E+03  0.27401315275E+03  0.00000000000E+00 0. -1.
         -1    1    1    2    0  501 -0.37025179327E+02  0.15886935255E+02  0.66438621753E+03  0.66560671921E+03  0.00000000000E+00 0.  1.
</event>
<event>
 4    1  0.6769686E+001  0.4545026E+02  0.7546771E-02  0.1319203E+00
          2   -1    0    0  502    0  0.00000000000E+00  0.00000000000E+00  0.34924595155E+01  0.34924595155E+01  0.00000000000E+00 0.  1.
         -2   -1    0    0    0  501 -0.00000000000E+00 -0.00000000000E+00 -0.11873012294E+04  0.11873012294E+04  0.00000000000E+00 0. -1.
          1    1    1    2  502    0  0.16151737395E+02  0.42483495223E+02 -0.17012686685E+03  0.17609337527E+03  0.00000000000E+00 0.  1.
         -1    1    1    2    0  501 -0.16151737395E+02 -0.42483495223E+02 -0.10136819030E+04  0.10147003136E+04  0.00000000000E+00 0. -1.
</event>
<event>
 4    1  0.6769686E+001  0.6225496E+02  0.7546771E-02  0.1252358E+00
          2   -1    0    0  502    0  0.00000000000E+00  0.00000000000E+00  0.75837012815E+02  0.75837012815E+02  0.00000000000E+00 0.  1.
         -2   -1    0    0    0  501 -0.00000000000E+00 -0.00000000000E+00 -0.60162634538E+02  0.60162634538E+02  0.00000000000E+00 0. -1.
          1    1    1    2  502    0 -0.58423841304E+02 -0.21501962745E+02 -0.18546927770E+02  0.64958972932E+02  0.00000000000E+00 0. -1.
         -1    1    1    2    0  501  0.58423841304E+02  0.21501962745E+02  0.34221306047E+02  0.71040674421E+02  0.00000000000E+00 0.  1.
</event>
<event>
 4    1  0.6769686E+001  0.2376072E+02  0.7546771E-02  0.1483160E+00
          2   -1    0    0  502    0  0.00000000000E+00  0.00000000000E+00  0.12226433216E+04  0.12226433216E+04  0.00000000000E+00 0. -1.
         -2   -1    0    0    0  501 -0.00000000000E+00 -0.00000000000E+00 -0.62712190918E+00  0.62712190918E+00  0.00000000000E+00 0.  1.
          1    1    1    2  502    0 -0.62061930398E+01 -0.22935888048E+02  0.92508061279E+03  0.92538570982E+03  0.00000000000E+00 0.  1.
         -1    1    1    2    0  501  0.62061930398E+01  0.22935888048E+02  0.29693558688E+03  0.29788473366E+03  0.00000000000E+00 0. -1.
</event>
<event>
 4    1  0.6769686E+001  0.3032207E+02  0.7546771E-02  0.1416818E+00
          2   -1    0    0  502    0  0.00000000000E+00  0.00000000000E+00  0.42762065422E+02  0.42762065422E+02  0.00000000000E+00 0.  1.
         -2   -1    0    0    0  501 -0.00000000000E+00 -0.00000000000E+00 -0.31768704191E+02  0.31768704191E+02  0.00000000000E+00 0. -1.
          1    1    1    2  502    0  0.22181020317E+02 -0.20674379536E+02  0.26682355582E+02  0.40390292533E+02  0.00000000000E+00 0. -1.
         -1    1    1    2    0  501 -0.22181020317E+02  0.20674379536E+02 -0.15688994351E+02  0.34140477080E+02  0.00000000000E+00 0.  1.
</event>
<event>
 4    1  0.6769686E+001  0.2664270E+02  0.7546771E-02  0.1451231E+00
          2   -1    0    0  502    0  0.00000000000E+00  0.00000000000E+00  0.24254589838E+02  0.24254589838E+02  0.00000000000E+00 0.  1.
         -2   -1    0    0    0  501 -0.00000000000E+00 -0.00000000000E+00 -0.42430811560E+02  0.42430811560E+02  0.00000000000E+00 0. -1.
          1    1    1    2  502    0  0.24792791319E+01 -0.26527090031E+02 -0.27660528683E+02  0.38404923872E+02  0.00000000000E+00 0. -1.
         -1    1    1    2    0  501 -0.24792791319E+01  0.26527090031E+02  0.94843069620E+01  0.28280477526E+02  0.00000000000E+00 0.  1.
</event>
<event>
 4    1  0.6769686E+001  0.3679454E+02  0.7546771E-02  0.1368368E+00
          2   -1    0    0  502    0  0.00000000000E+00  0.00000000000E+00  0.32510822494E+02  0.32510822494E+02  0.00000000000E+00 0. -1.
         -2   -1    0    0    0  501 -0.00000000000E+00 -0.00000000000E+00 -0.44665298691E+02  0.44665298691E+02  0.00000000000E+00 0.  1.
          1    1    1    2  502    0 -0.34068960390E+02 -0.13897636079E+02 -0.16115493615E+02  0.40168986608E+02  0.00000000000E+00 0.  1.
         -1    1    1    2    0  501  0.34068960390E+02  0.13897636079E+02  0.39610174177E+01  0.37007134577E+02  0.00000000000E+00 0. -1.
</event>
<event>
 4    1  0.6769686E+001  0.3048851E+02  0.7546771E-02  0.1415398E+00
          2   -1    0    0  502    0  0.00000000000E+00  0.00000000000E+00  0.24657728813E+03  0.24657728813E+03  0.00000000000E+00 0. -1.
         -2   -1    0    0    0  501 -0.00000000000E+00 -0.00000000000E+00 -0.54668414729E+01  0.54668414729E+01  0.00000000000E+00 0.  1.
          1    1    1    2  502    0  0.42874195366E+01  0.30185549851E+02  0.19076916789E+03  0.19319012605E+03  0.00000000000E+00 0. -1.
         -1    1    1    2    0  501 -0.42874195366E+01 -0.30185549851E+02  0.50341278760E+02  0.58854003545E+02  0.00000000000E+00 0.  1.
</event>
<event>
 4    1  0.6769686E+001  0.5451809E+02  0.7546771E-02  0.1279688E+00
          2   -1    0    0  502    0  0.00000000000E+00  0.00000000000E+00  0.14454757537E+02  0.14454757537E+02  0.00000000000E+00 0.  1.
         -2   -1    0    0    0  501 -0.00000000000E+00 -0.00000000000E+00 -0.34907702498E+03  0.34907702498E+03  0.00000000000E+00 0. -1.
          1    1    1    2  502    0 -0.52595986845E+02 -0.14348670953E+02 -0.50788844603E+02  0.74509925019E+02  0.00000000000E+00 0. -1.
         -1    1    1    2    0  501  0.52595986845E+02  0.14348670953E+02 -0.28383342284E+03  0.28902185750E+03  0.00000000000E+00 0.  1.
</event>
<event>
 4    1  0.6769686E+001  0.3749159E+02  0.7546771E-02  0.1363847E+00
          2   -1    0    0  502    0  0.00000000000E+00  0.00000000000E+00  0.13053051506E+03  0.13053051506E+03  0.00000000000E+00 0. -1.
         -2   -1    0    0    0  501 -0.00000000000E+00 -0.00000000000E+00 -0.11554856449E+02  0.11554856449E+02  0.00000000000E+00 0.  1.
          1    1    1    2  502    0 -0.19245809632E+02 -0.32174810850E+02  0.40954944195E+02  0.55524112740E+02  0.00000000000E+00 0. -1.
         -1    1    1    2    0  501  0.19245809632E+02  0.32174810850E+02  0.78020714421E+02  0.86561258773E+02  0.00000000000E+00 0.  1.
</event>
<event>
 4    1  0.6769686E+001  0.2654726E+02  0.7546771E-02  0.1452210E+00
          2   -1    0    0  502    0  0.00000000000E+00  0.00000000000E+00  0.72898075235E+03  0.72898075235E+03  0.00000000000E+00 0.  1.
         -2   -1    0    0    0  501 -0.00000000000E+00 -0.00000000000E+00 -0.11734321575E+01  0.11734321575E+01  0.00000000000E+00 0. -1.
          1    1    1    2  502    0 -0.15861855112E+02  0.21287526547E+02  0.21069428850E+03  0.21236016679E+03  0.00000000000E+00 0. -1.
         -1    1    1    2    0  501  0.15861855112E+02 -0.21287526547E+02  0.51711303170E+03  0.51779401772E+03  0.00000000000E+00 0.  1.
</event>
<event>
 4    1  0.6769686E+001  0.2016560E+02  0.7546771E-02  0.1531519E+00
          2   -1    0    0  502    0  0.00000000000E+00  0.00000000000E+00  0.21019051164E+04  0.21019051164E+04  0.00000000000E+00 0.  1.
         -2   -1    0    0    0  501 -0.00000000000E+00 -0.00000000000E+00 -0.19900550994E+00  0.19900550994E+00  0.00000000000E+00 0. -1.
          1    1    1    2  502    0  0.45468891539E+01  0.19646299616E+02  0.87552532705E+03  0.87575752899E+03  0.00000000000E+00 0. -1.
         -1    1    1    2    0  501 -0.45468891539E+01 -0.19646299616E+02  0.12261807838E+04  0.12263465929E+04  0.00000000000E+00 0.  1.
</event>
<event>
 4    1  0.6769686E+001  0.2979540E+02  0.7546771E-02  0.1421383E+00
          2   -1    0    0  502    0  0.00000000000E+00  0.00000000000E+00  0.13216877891E+04  0.13216877891E+04  0.00000000000E+00 0. -1.
         -2   -1    0    0    0  501 -0.00000000000E+00 -0.00000000000E+00 -0.70849784708E+00  0.70849784708E+00  0.00000000000E+00 0.  1.
          1    1    1    2  502    0  0.56830784995E+01 -0.29248394676E+02  0.81119402219E+03  0.81174103482E+03  0.00000000000E+00 0.  1.
         -1    1    1    2    0  501 -0.56830784995E+01  0.29248394676E+02  0.50978526908E+03  0.51065525214E+03  0.00000000000E+00 0. -1.
</event>
<event>
 4    1  0.6769686E+001  0.2348390E+02  0.7546771E-02  0.1486510E+00
          2   -1    0    0  502    0  0.00000000000E+00  0.00000000000E+00  0.20110072793E+03  0.20110072793E+03  0.00000000000E+00 0.  1.
         -2   -1    0    0    0  501 -0.00000000000E+00 -0.00000000000E+00 -0.35187029401E+01  0.35187029401E+01  0.00000000000E+00 0. -1.
          1    1    1    2  502    0 -0.23469675955E+02  0.81725056869E+00  0.14684707813E+03  0.14871300530E+03  0.00000000000E+00 0.  1.
         -1    1    1    2    0  501  0.23469675955E+02 -0.81725056869E+00  0.50734946857E+02  0.55906425574E+02  0.00000000000E+00 0. -1.
</event>
<event>
 4    1  0.6769686E+001  0.5512311E+02  0.7546771E-02  0.1277368E+00
          2   -1    0    0  502    0  0.00000000000E+00  0.00000000000E+00  0.81325720817E+03  0.81325720817E+03  0.00000000000E+00 0.  1.
         -2   -1    0    0    0  501 -0.00000000000E+00 -0.00000000000E+00 -0.37755062597E+01  0.37755062597E+01  0.00000000000E+00 0. -1.
          1    1    1    2  502    0  0.54175442602E+02  0.10177356729E+02  0.44638046536E+03  0.44977113850E+03  0.00000000000E+00 0.  1.
         -1    1    1    2    0  501 -0.54175442602E+02 -0.10177356729E+02  0.36310123655E+03  0.36726157593E+03  0.00000000000E+00 0. -1.
</event>
<event>
 4    1  0.6769686E+001  0.2017841E+02  0.7546771E-02  0.1531326E+00
          2   -1    0    0  502    0  0.00000000000E+00  0.00000000000E+00  0.19243459422E+04  0.19243459422E+04  0.00000000000E+00 0.  1.
         -2   -1    0    0    0  501 -0.00000000000E+00 -0.00000000000E+00 -0.25952555421E+00  0.25952555421E+00  0.00000000000E+00 0. -1.
          1    1    1    2  502    0  0.19549327798E+02 -0.49992203182E+01  0.13756234660E+04  0.13757714522E+04  0.00000000000E+00 0.  1.
         -1    1    1    2    0  501 -0.19549327798E+02  0.49992203182E+01  0.54846295057E+03  0.54883401550E+03  0.00000000000E+00 0. -1.
</event>
<event>
 4    1  0.6769686E+001  0.2846604E+02  0.7546771E-02  0.1433412E+00
          2   -1    0    0  502    0  0.00000000000E+00  0.00000000000E+00  0.21247844197E+03  0.21247844197E+03  0.00000000000E+00 0.  1.
         -2   -1    0    0    0  501 -0.00000000000E+00 -0.00000000000E+00 -0.58810239296E+01  0.58810239296E+01  0.00000000000E+00 0. -1.
          1    1    1    2  502    0 -0.20934399129E+02  0.19289021550E+02  0.16803183067E+03  0.17042597084E+03  0.00000000000E+00 0.  1.
         -1    1    1    2    0  501  0.20934399129E+02 -0.19289021550E+02  0.38565587373E+02  0.47933495060E+02  0.00000000000E+00 0. -1.
</event>
<event>
 4    1  0.6769686E+001  0.3312652E+02  0.7546771E-02  0.1394235E+00
          2   -1    0    0  502    0  0.00000000000E+00  0.00000000000E+00  0.40049126857E+02  0.40049126857E+02  0.00000000000E+00 0. -1.
         -2   -1    0    0    0  501 -0.00000000000E+00 -0.00000000000E+00 -0.27916932226E+02  0.27916932226E+02  0.00000000000E+00 0.  1.
          1    1    1    2  502    0  0.16075814044E+02 -0.28964366510E+02  0.10688125208E+02  0.34808078731E+02  0.00000000000E+00 0.  1.
         -1    1    1    2    0  501 -0.16075814044E+02  0.28964366510E+02  0.14440694229E+01  0.33157980352E+02  0.00000000000E+00 0. -1.
</event>
<event>
 4    1  0.6769686E+001  0.2175964E+02  0.7546771E-02  0.1508690E+00
          2   -1    0    0  502    0  0.00000000000E+00  0.00000000000E+00  0.35148395850E+01  0.35148395850E+01  0.00000000000E+00 0.  1.
         -2   -1    0    0    0  501 -0.00000000000E+00 -0.00000000000E+00 -0.13473074146E+03  0.13473074146E+03  0.00000000000E+00 0. -1.
          1    1    1    2  502    0  0.76269949280E+01 -0.20379173891E+02 -0.66478790263E+02  0.69949348353E+02  0.00000000000E+00 0. -1.
         -1    1    1    2    0  501 -0.76269949280E+01  0.20379173891E+02 -0.64737111614E+02  0.68296232694E+02  0.00000000000E+00 0.  1.
</event>
<event>
 4    1  0.6769686E+001  0.2415519E+02  0.7546771E-02  0.1478480E+00
          2   -1    0    0  502    0  0.00000000000E+00  0.00000000000E+00  0.81772221847E+03  0.81772221847E+03  0.00000000000E+00 0. -1.
         -2   -1    0    0    0  501 -0.00000000000E+00 -0.00000000000E+00 -0.23339043353E+01  0.23339043353E+01  0.00000000000E+00 0.  1.
          1    1    1    2  502    0  0.23215864723E+02 -0.66705786325E+01  0.74934235374E+03  0.74973157603E+03  0.00000000000E+00 0. -1.
         -1    1    1    2    0  501 -0.23215864723E+02  0.66705786325E+01  0.66045960396E+02  0.70324546772E+02  0.00000000000E+00 0.  1.
</event>
<event>
 4    1  0.6769686E+001  0.2424523E+02  0.7546771E-02  0.1477427E+00
          2   -1    0    0  502    0  0.00000000000E+00  0.00000000000E+00  0.74235747533E+03  0.74235747533E+03  0.00000000000E+00 0. -1.
         -2   -1    0    0    0  501 -0.00000000000E+00 -0.00000000000E+00 -0.11331339867E+01  0.11331339867E+01  0.00000000000E+00 0.  1.
          1    1    1    2  502    0 -0.89842112117E+01 -0.22519211903E+02  0.57462944357E+03  0.57514070311E+03  0.00000000000E+00 0. -1.
         -1    1    1    2    0  501  0.89842112117E+01  0.22519211903E+02  0.16659489777E+03  0.16834990620E+03  0.00000000000E+00 0.  1.
</event>
<event>
 4    1  0.6769686E+001  0.4249487E+02  0.7546771E-02  0.1334455E+00
          2   -1    0    0  502    0  0.00000000000E+00  0.00000000000E+00  0.18267364328E+04  0.18267364328E+04  0.00000000000E+00 0. -1.
         -2   -1    0    0    0  501 -0.00000000000E+00 -0.00000000000E+00 -0.10027434640E+01  0.10027434640E+01  0.00000000000E+00 0.  1.
          1    1    1    2  502    0  0.38760642936E+02 -0.17419132429E+02  0.10216068846E+04  0.10224903131E+04  0.00000000000E+00 0. -1.
         -1    1    1    2    0  501 -0.38760642936E+02  0.17419132429E+02  0.80412680475E+03  0.80524886323E+03  0.00000000000E+00 0.  1.
</event>
<event>
 4    1  0.6769686E+001  0.2073672E+02  0.7546771E-02  0.1523057E+00
          2   -1    0    0  502    0  0.00000000000E+00  0.00000000000E+00  0.62110498787E+00  0.62110498787E+00  0.00000000000E+00 0. -1.
         -2   -1    0    0    0  501 -0.00000000000E+00 -0.00000000000E+00 -0.12027069520E+04  0.12027069520E+04  0.00000000000E+00 0.  1.
          1    1    1    2  502    0 -0.16924000388E+02 -0.11982895904E+02 -0.20910407167E+03  0.21012977983E+03  0.00000000000E+00 0. -1.
         -1    1    1    2    0  501  0.16924000388E+02  0.11982895904E+02 -0.99298177529E+03  0.99319827711E+03  0.00000000000E+00 0.  1.
</event>
<event>
 4    1  0.6769686E+001  0.3612024E+02  0.7546771E-02  0.1372854E+00
          2   -1    0    0  502    0  0.00000000000E+00  0.00000000000E+00  0.18987032293E+04  0.18987032293E+04  0.00000000000E+00 0.  1.
         -2   -1    0    0    0  501 -0.00000000000E+00 -0.00000000000E+00 -0.14484614279E+01  0.14484614279E+01  0.00000000000E+00 0. -1.
          1    1    1    2  502    0  0.25851996453E+02  0.25225900122E+02  0.25983344979E+03  0.26233202891E+03  0.00000000000E+00 0. -1.
         -1    1    1    2    0  501 -0.25851996453E+02 -0.25225900122E+02  0.16374213181E+04  0.16378196618E+04  0.00000000000E+00 0.  1.
</event>
<event>
 4    1  0.6769686E+001  0.3684387E+02  0.7546771E-02  0.1368044E+00
          2   -1    0    0  502    0  0.00000000000E+00  0.00000000000E+00  0.27233078744E+03  0.27233078744E+03  0.00000000000E+00 0. -1.
         -2   -1    0    0    0  501 -0.00000000000E+00 -0.00000000000E+00 -0.65978645721E+01  0.65978645721E+01  0.00000000000E+00 0.  1.
          1    1    1    2  502    0  0.36422433477E+02  0.55566872725E+01  0.63904580807E+02  0.73764936670E+02  0.00000000000E+00 0.  1.
         -1    1    1    2    0  501 -0.36422433477E+02 -0.55566872725E+01  0.20182834206E+03  0.20516371534E+03  0.00000000000E+00 0. -1.
</event>
<event>
 4    1  0.6769686E+001  0.3559091E+02  0.7546771E-02  0.1376456E+00
          2   -1    0    0  502    0  0.00000000000E+00  0.00000000000E+00  0.31187432869E+01  0.31187432869E+01  0.00000000000E+00 0. -1.
         -2   -1    0    0    0  501 -0.00000000000E+00 -0.00000000000E+00 -0.43974977794E+03  0.43974977794E+03  0.00000000000E+00 0.  1.
          1    1    1    2  502    0  0.32926596124E+02 -0.13511196999E+02 -0.27951340622E+03  0.28177022099E+03  0.00000000000E+00 0.  1.
         -1    1    1    2    0  501 -0.32926596124E+02  0.13511196999E+02 -0.15711762843E+03  0.16109830024E+03  0.00000000000E+00 0. -1.
</event>
<event>
 4    1  0.6769686E+001  0.2262834E+02  0.7546771E-02  0.1497219E+00
          2   -1    0    0  502    0  0.00000000000E+00  0.00000000000E+00  0.11907901652E+03  0.11907901652E+03  0.00000000000E+00 0. -1.
         -2   -1    0    0    0  501 -0.00000000000E+00 -0.00000000000E+00 -0.48271868777E+01  0.48271868777E+01  0.00000000000E+00 0.  1.
          1    1    1    2  502    0 -0.10067366984E+02  0.20265486057E+02  0.77599375788E+02  0.80831336286E+02  0.00000000000E+00 0. -1.
         -1    1    1    2    0  501  0.10067366984E+02 -0.20265486057E+02  0.36652453852E+02  0.43074867109E+02  0.00000000000E+00 0.  1.
</event>
<event>
 4    1  0.6769686E+001  0.2428084E+02  0.7546771E-02  0.1477012E+00
          2   -1    0    0  502    0  0.00000000000E+00  0.00000000000E+00  0.65173553680E+02  0.65173553680E+02  0.00000000000E+00 0.  1.
         -2   -1    0    0    0  501 -0.00000000000E+00 -0.00000000000E+00 -0.15656129798E+02  0.15656129798E+02  0.00000000000E+00 0. -1.
          1    1    1    2  502    0 -0.21613409856E+02  0.11064348793E+02  0.51019273309E+02  0.56502438433E+02  0.00000000000E+00 0.  1.
         -1    1    1    2    0  501  0.21613409856E+02 -0.11064348793E+02 -0.15018494274E+01  0.24327245045E+02  0.00000000000E+00 0. -1.
</event>
<event>
 4    1  0.6769686E+001  0.2320690E+02  0.7546771E-02  0.1489916E+00
          2   -1    0    0  502    0  0.00000000000E+00  0.00000000000E+00  0.85091690434E+01  0.85091690434E+01  0.00000000000E+00 0.  1.
         -2   -1    0    0    0  501 -0.00000000000E+00 -0.00000000000E+00 -0.64370876628E+02  0.64370876628E+02  0.00000000000E+00 0. -1.
          1    1    1    2  502    0 -0.17750735446E+02 -0.14948968125E+02 -0.23212735953E+02  0.32823640372E+02  0.00000000000E+00 0.  1.
         -1    1    1    2    0  501  0.17750735446E+02  0.14948968125E+02 -0.32648971632E+02  0.40056405299E+02  0.00000000000E+00 0. -1.
</event>
<event>
 4    1  0.6769686E+001  0.2188737E+02  0.7546771E-02  0.1506963E+00
          2   -1    0    0  502    0  0.00000000000E+00  0.00000000000E+00  0.15116792685E+04  0.15116792685E+04  0.00000000000E+00 0. -1.
         -2   -1    0    0    0  501 -0.00000000000E+00 -0.00000000000E+00 -0.32217087707E+00  0.32217087707E+00  0.00000000000E+00 0.  1.
          1    1    1    2  502    0  0.21074832207E+02  0.59083187329E+01  0.85234309745E+03  0.85262407458E+03  0.00000000000E+00 0.  1.
         -1    1    1    2    0  501 -0.21074832207E+02 -0.59083187329E+01  0.65901400018E+03  0.65937736481E+03  0.00000000000E+00 0. -1.
</event>
<event>
 4    1  0.6769686E+001  0.2469185E+02  0.7546771E-02  0.1472280E+00
          2   -1    0    0  502    0  0.00000000000E+00  0.00000000000E+00  0.17531365668E+04  0.17531365668E+04  0.00000000000E+00 0. -1.
         -2   -1    0    0    0  501 -0.00000000000E+00 -0.00000000000E+00 -0.37681834831E+00  0.37681834831E+00  0.00000000000E+00 0.  1.
          1    1    1    2  502    0 -0.15414424730E+01  0.24643687680E+02  0.11198118917E+04  0.11200840862E+04  0.00000000000E+00 0. -1.
         -1    1    1    2    0  501  0.15414424730E+01 -0.24643687680E+02  0.63294785672E+03  0.63342929891E+03  0.00000000000E+00 0.  1.
</event>
<event>
 4    1  0.6769686E+001  0.2785921E+02  0.7546771E-02  0.1439163E+00
          2   -1    0    0  502    0  0.00000000000E+00  0.00000000000E+00  0.37514232291E+03  0.37514232291E+03  0.00000000000E+00 0. -1.
         -2   -1    0    0    0  501 -0.00000000000E+00 -0.00000000000E+00 -0.20689109393E+01  0.20689109393E+01  0.00000000000E+00 0.  1.
          1    1    1    2  502    0 -0.11899184957E+02 -0.25190172609E+02  0.18671022314E+03  0.18877723069E+03  0.00000000000E+00 0. -1.
         -1    1    1    2    0  501  0.11899184957E+02  0.25190172609E+02  0.18636318882E+03  0.18843400316E+03  0.00000000000E+00 0.  1.
</event>
<event>
 4    1  0.6769686E+001  0.2746563E+02  0.7546771E-02  0.1442986E+00
          2   -1    0    0  502    0  0.00000000000E+00  0.00000000000E+00  0.15899897833E+04  0.15899897833E+04  0.00000000000E+00 0.  1.
         -2   -1    0    0    0  501 -0.00000000000E+00 -0.00000000000E+00 -0.51671020654E+00  0.51671020654E+00  0.00000000000E+00 0. -1.
          1    1    1    2  502    0  0.27063435937E+02 -0.46830702452E+01  0.10221833530E+04  0.10225522812E+04  0.00000000000E+00 0.  1.
         -1    1    1    2    0  501 -0.27063435937E+02  0.46830702452E+01  0.56728972013E+03  0.56795421231E+03  0.00000000000E+00 0. -1.
</event>
<event>
 4    1  0.6769686E+001  0.3021789E+02  0.7546771E-02  0.1417712E+00
          2   -1    0    0  502    0  0.00000000000E+00  0.00000000000E+00  0.30781200518E+04  0.30781200518E+04  0.00000000000E+00 0. -1.
         -2   -1    0    0    0  501 -0.00000000000E+00 -0.00000000000E+00 -0.32821379898E+00  0.32821379898E+00  0.00000000000E+00 0.  1.
          1    1    1    2  502    0  0.25065190482E+02  0.16877711830E+02  0.10615583238E+04  0.10619883219E+04  0.00000000000E+00 0.  1.
         -1    1    1    2    0  501 -0.25065190482E+02 -0.16877711830E+02  0.20162335142E+04  0.20164599437E+04  0.00000000000E+00 0. -1.
</event>
<event>
 4    1  0.6769686E+001  0.3617849E+02  0.7546771E-02  0.1372462E+00
          2   -1    0    0  502    0  0.00000000000E+00  0.00000000000E+00  0.49857666635E+03  0.49857666635E+03  0.00000000000E+00 0. -1.
         -2   -1    0    0    0  501 -0.00000000000E+00 -0.00000000000E+00 -0.34232838286E+01  0.34232838286E+01  0.00000000000E+00 0.  1.
          1    1    1    2  502    0  0.36154179350E+02 -0.13260167140E+01  0.36876642063E+03  0.37053684836E+03  0.00000000000E+00 0. -1.
         -1    1    1    2    0  501 -0.36154179350E+02  0.13260167140E+01  0.12638696189E+03  0.13146310182E+03  0.00000000000E+00 0.  1.
</event>
<event>
 4    1  0.6769686E+001  0.2422492E+02  0.7546771E-02  0.1477664E+00
          2   -1    0    0  502    0  0.00000000000E+00  0.00000000000E+00  0.20361580102E+04  0.20361580102E+04  0.00000000000E+00 0. -1.
         -2   -1    0    0    0  501 -0.00000000000E+00 -0.00000000000E+00 -0.31661912569E+00  0.31661912569E+00  0.00000000000E+00 0.  1.
          1    1    1    2  502    0  0.99483228436E+01  0.22087956374E+02  0.71292941006E+03  0.71334086569E+03  0.00000000000E+00 0.  1.
         -1    1    1    2    0  501 -0.99483228436E+01 -0.22087956374E+02  0.13229119810E+04  0.13231337636E+04  0.00000000000E+00 0. -1.
</event>
<event>
 4    1  0.6769686E+001  0.2712210E+02  0.7546771E-02  0.1446385E+00
          2   -1    0    0  502    0  0.00000000000E+00  0.00000000000E+00  0.63486687913E+02  0.63486687913E+02  0.00000000000E+00 0.  1.
         -2   -1    0    0    0  501 -0.00000000000E+00 -0.00000000000E+00 -0.14631286381E+02  0.14631286381E+02  0.00000000000E+00 0. -1.
          1    1    1    2  502    0  0.16005216873E+02  0.21896147903E+02  0.42244756888E+02  0.50201869932E+02  0.00000000000E+00 0.  1.
         -1    1    1    2    0  501 -0.16005216873E+02 -0.21896147903E+02  0.66106446445E+01  0.27916104362E+02  0.00000000000E+00 0. -1.
</event>
<event>
 4    1  0.6769686E+001  0.2584352E+02  0.7546771E-02  0.1459584E+00
          2   -1    0    0  502    0  0.00000000000E+00  0.00000000000E+00  0.66354576969E+03  0.66354576969E+03  0.00000000000E+00 0.  1.
         -2   -1    0    0    0  501 -0.00000000000E+00 -0.00000000000E+00 -0.12992882286E+01  0.12992882286E+01  0.00000000000E+00 0. -1.
          1    1    1    2  502    0  0.24644646923E+02  0.77800432980E+01  0.17333224270E+03  0.17524826406E+03  0.00000000000E+00 0.  1.
         -1    1    1    2    0  501 -0.24644646923E+02 -0.77800432980E+01  0.48891423876E+03  0.48959679386E+03  0.00000000000E+00 0. -1.
</event>
<event>
 4    1  0.6769686E+001  0.3613911E+02  0.7546771E-02  0.1372727E+00
          2   -1    0    0  502    0  0.00000000000E+00  0.00000000000E+00  0.23646801750E+02  0.23646801750E+02  0.00000000000E+00 0.  1.
         -2   -1    0    0    0  501 -0.00000000000E+00 -0.00000000000E+00 -0.69817657805E+02  0.69817657805E+02  0.00000000000E+00 0. -1.
          1    1    1    2  502    0 -0.29199020471E+02  0.21294420686E+02 -0.44445987253E+02  0.57284211888E+02  0.00000000000E+00 0. -1.
         -1    1    1    2    0  501  0.29199020471E+02 -0.21294420686E+02 -0.17248688021E+01  0.36180247666E+02  0.00000000000E+00 0.  1.
</event>
<event>
 4    1  0.6769686E+001  0.8856088E+02  0.7546771E-02  0.1185257E+00
          2   -1    0    0  502    0  0.00000000000E+00  0.00000000000E+00  0.22628407051E+04  0.22628407051E+04  0.00000000000E+00 0.  1.
         -2   -1    0    0    0  501 -0.00000000000E+00 -0.00000000000E+00 -0.37967466996E+01  0.37967466996E+01  0.00000000000E+00 0. -1.
          1    1    1    2  502    0  0.87836079163E+02 -0.11307201054E+02  0.14640150546E+04  0.14666912115E+04  0.00000000000E+00 0.  1.
         -1    1    1    2    0  501 -0.87836079163E+02  0.11307201054E+02  0.79502890372E+03  0.79994624028E+03  0.00000000000E+00 0. -1.
</event>
<event>
 4    1  0.6769686E+001  0.2072127E+02  0.7546771E-02  0.1523282E+00
          2   -1    0    0  502    0  0.00000000000E+00  0.00000000000E+00  0.10042535329E+01  0.10042535329E+01  0.00000000000E+00 0. -1.
         -2   -1    0    0    0  501 -0.00000000000E+00 -0.00000000000E+00 -0.42873849532E+03  0.42873849532E+03  0.00000000000E+00 0.  1.
          1    1    1    2  502    0 -0.20635022296E+02  0.18886546980E+01 -0.22516804939E+03  0.22611948529E+03  0.00000000000E+00 0.  1.
         -1    1    1    2    0  501  0.20635022296E+02 -0.18886546980E+01 -0.20256619240E+03  0.20362326356E+03  0.00000000000E+00 0. -1.
</event>
<event>
 4    1  0.6769686E+001  0.2502574E+02  0.7546771E-02  0.1468516E+00
          2   -1    0    0  502    0  0.00000000000E+00  0.00000000000E+00  0.21816896033E+04  0.21816896033E+04  0.00000000000E+00 0. -1.
         -2   -1    0    0    0  501 -0.00000000000E+00 -0.00000000000E+00 -0.29166223288E+00  0.29166223288E+00  0.00000000000E+00 0.  1.
          1    1    1    2  502    0 -0.16803264626E+02  0.18545568854E+02  0.12276626310E+04  0.12279176778E+04  0.00000000000E+00 0. -1.
         -1    1    1    2    0  501  0.16803264626E+02 -0.18545568854E+02  0.95373531007E+03  0.95406358776E+03  0.00000000000E+00 0.  1.
</event>
<event>
 4    1  0.6769686E+001  0.2556753E+02  0.7546771E-02  0.1462553E+00
          2   -1    0    0  502    0  0.00000000000E+00  0.00000000000E+00  0.12739277355E+04  0.12739277355E+04  0.00000000000E+00 0. -1.
         -2   -1    0    0    0  501 -0.00000000000E+00 -0.00000000000E+00 -0.65826837563E+00  0.65826837563E+00  0.00000000000E+00 0.  1.
          1    1    1    2  502    0  0.19164393329E+02  0.16924088343E+02  0.93587439420E+03  0.93622357397E+03  0.00000000000E+00 0. -1.
         -1    1    1    2    0  501 -0.19164393329E+02 -0.16924088343E+02  0.33739507289E+03  0.33836242987E+03  0.00000000000E+00 0.  1.
</event>
<event>
 4    1  0.6769686E+001  0.2173030E+02  0.7546771E-02  0.1509088E+00
          2   -1    0    0  502    0  0.00000000000E+00  0.00000000000E+00  0.27843962339E+04  0.27843962339E+04  0.00000000000E+00 0.  1.
         -2   -1    0    0    0  501 -0.00000000000E+00 -0.00000000000E+00 -0.17086555743E+00  0.17086555743E+00  0.00000000000E+00 0. -1.
          1    1    1    2  502    0 -0.37399325243E+01 -0.21406049450E+02  0.15124035478E+04  0.15125596509E+04  0.00000000000E+00 0. -1.
         -1    1    1    2    0  501  0.37399325243E+01  0.21406049450E+02  0.12718218205E+04  0.12720074486E+04  0.00000000000E+00 0.  1.
</event>
<event>
 4    1  0.6769686E+001  0.3350708E+02  0.7546771E-02  0.1391374E+00
          2   -1    0    0  502    0  0.00000000000E+00  0.00000000000E+00  0.26645858232E+02  0.26645858232E+02  0.00000000000E+00 0.  1.
         -2   -1    0    0    0  501 -0.00000000000E+00 -0.00000000000E+00 -0.70979757559E+02  0.70979757559E+02  0.00000000000E+00 0. -1.
          1    1    1    2  502    0  0.32147107389E+02 -0.94492351574E+01 -0.53284084938E+02  0.62943770670E+02  0.00000000000E+00 0. -1.
         -1    1    1    2    0  501 -0.32147107389E+02  0.94492351574E+01  0.89501856110E+01  0.34681845121E+02  0.00000000000E+00 0.  1.
</event>
<event>
 4    1  0.6769686E+001  0.2415842E+02  0.7546771E-02  0.1478443E+00
          2   -1    0    0  502    0  0.00000000000E+00  0.00000000000E+00  0.54878431953E+03  0.54878431953E+03  0.00000000000E+00 0. -1.
         -2   -1    0    0    0  501 -0.00000000000E+00 -0.00000000000E+00 -0.12798626195E+01  0.12798626195E+01  0.00000000000E+00 0.  1.
          1    1    1    2  502    0 -0.76864238914E+00 -0.24146186083E+02  0.38683548689E+03  0.38758911625E+03  0.00000000000E+00 0. -1.
         -1    1    1    2    0  501  0.76864238914E+00  0.24146186083E+02  0.16066897002E+03  0.16247506590E+03  0.00000000000E+00 0.  1.
</event>
<event>
 4    1  0.6769686E+001  0.3068496E+02  0.7546771E-02  0.1413736E+00
          2   -1    0    0  502    0  0.00000000000E+00  0.00000000000E+00  0.14456935549E+04  0.14456935549E+04  0.00000000000E+00 0. -1.
         -2   -1    0    0    0  501 -0.00000000000E+00 -0.00000000000E+00 -0.67360311116E+00  0.67360311116E+00  0.00000000000E+00 0.  1.
          1    1    1    2  502    0  0.29408761554E+02  0.87573579051E+01  0.85412972854E+03  0.85468073557E+03  0.00000000000E+00 0. -1.
         -1    1    1    2    0  501 -0.29408761554E+02 -0.87573579051E+01  0.59089022321E+03  0.59168642240E+03  0.00000000000E+00 0.  1.
</event>
<event>
 4    1  0.6769686E+001  0.6559655E+02  0.7546771E-02  0.1241918E+00
          2   -1    0    0  502    0  0.00000000000E+00  0.00000000000E+00  0.27001140393E+04  0.27001140393E+04  0.00000000000E+00 0. -1.
         -2   -1    0    0    0  501 -0.00000000000E+00 -0.00000000000E+00 -0.20925037663E+01  0.20925037663E+01  0.00000000000E+00 0.  1.
          1    1    1    2  502    0 -0.59243462905E+02  0.28162374639E+02  0.20087357416E+04  0.20098065048E+04  0.00000000000E+00 0. -1.
         -1    1    1    2    0  501  0.59243462905E+02 -0.28162374639E+02  0.68928579393E+03  0.69240003824E+03  0.00000000000E+00 0.  1.
</event>
<event>
 4    1  0.6769686E+001  0.2209433E+02  0.7546771E-02  0.1504195E+00
          2   -1    0    0  502    0  0.00000000000E+00  0.00000000000E+00  0.86186651922E+03  0.86186651922E+03  0.00000000000E+00 0.  1.
         -2   -1    0    0    0  501 -0.00000000000E+00 -0.00000000000E+00 -0.58099417757E+00  0.58099417757E+00  0.00000000000E+00 0. -1.
          1    1    1    2  502    0 -0.19710437784E+02  0.99828797717E+01  0.36229248711E+03  0.36296557063E+03  0.00000000000E+00 0.  1.
         -1    1    1    2    0  501  0.19710437784E+02 -0.99828797717E+01  0.49899303793E+03  0.49948194277E+03  0.00000000000E+00 0. -1.
</event>
<event>
 4    1  0.6769686E+001  0.2207499E+02  0.7546771E-02  0.1504452E+00
          2   -1    0    0  502    0  0.00000000000E+00  0.00000000000E+00  0.29510783819E+02  0.29510783819E+02  0.00000000000E+00 0.  1.
         -2   -1    0    0    0  501 -0.00000000000E+00 -0.00000000000E+00 -0.16551402601E+02  0.16551402601E+02  0.00000000000E+00 0. -1.
          1    1    1    2  502    0 -0.19824646521E+02 -0.97102264429E+01  0.75922235360E+01  0.23344099158E+02  0.00000000000E+00 0. -1.
         -1    1    1    2    0  501  0.19824646521E+02  0.97102264429E+01  0.53671576829E+01  0.22718087262E+02  0.00000000000E+00 0.  1.
</event>
<event>
 4    1  0.6769686E+001  0.2134303E+02  0.7546771E-02  0.1514423E+00
          2   -1    0    0  502    0  0.00000000000E+00  0.00000000000E+00  0.44125326080E+01  0.44125326080E+01  0.00000000000E+00 0. -1.
         -2   -1    0    0    0  501 -0.00000000000E+00 -0.00000000000E+00 -0.10326841193E+03  0.10326841193E+03  0.00000000000E+00 0.  1.
          1    1    1    2  502    0 -0.20389545402E+02 -0.63080394759E+01 -0.48450079107E+02  0.52942752943E+02  0.00000000000E+00 0.  1.
         -1    1    1    2    0  501  0.20389545402E+02  0.63080394759E+01 -0.50405800212E+02  0.54738191591E+02  0.00000000000E+00 0. -1.
</event>
<event>
 4    1  0.6769686E+001  0.3576221E+02  0.7546771E-02  0.1375282E+00
          2   -1    0    0  502    0  0.00000000000E+00  0.00000000000E+00  0.23856505880E+01  0.23856505880E+01  0.00000000000E+00 0. -1.
         -2   -1    0    0    0  501 -0.00000000000E+00 -0.00000000000E+00 -0.54743064717E+03  0.54743064717E+03  0.00000000000E+00 0.  1.
          1    1    1    2  502    0  0.33649200772E+02  0.12110611837E+02 -0.31208137709E+03  0.31412373606E+03  0.00000000000E+00 0.  1.
         -1    1    1    2    0  501 -0.33649200772E+02 -0.12110611837E+02 -0.23296361949E+03  0.23569256169E+03  0.00000000000E+00 0. -1.
</event>
<event>
 4    1  0.6769686E+001  0.2443432E+02  0.7546771E-02  0.1475232E+00
          2   -1    0    0  502    0  0.00000000000E+00  0.00000000000E+00  0.32193537044E+03  0.32193537044E+03  0.00000000000E+00 0. -1.
         -2   -1    0    0    0  501 -0.00000000000E+00 -0.00000000000E+00 -0.62699446218E+01  0.62699446218E+01  0.00000000000E+00 0.  1.
          1    1    1    2  502    0  0.11420675872E+01  0.24407613230E+02  0.29554413102E+03  0.29655247307E+03  0.00000000000E+00 0. -1.
         -1    1    1    2    0  501 -0.11420675872E+01 -0.24407613230E+02  0.20121294797E+02  0.31652841993E+02  0.00000000000E+00 0.  1.
</event>
<event>
 4    1  0.6769686E+001  0.2119518E+02  0.7546771E-02  0.1516496E+00
          2   -1    0    0  502    0  0.00000000000E+00  0.00000000000E+00  0.32985696965E+02  0.32985696965E+02  0.00000000000E+00 0. -1.
         -2   -1    0    0    0  501 -0.00000000000E+00 -0.00000000000E+00 -0.17686872862E+02  0.17686872862E+02  0.00000000000E+00 0.  1.
          1    1    1    2  502    0  0.11517496141E+02 -0.17792771932E+02  0.19799959444E+02  0.29004721071E+02  0.00000000000E+00 0.  1.
         -1    1    1    2    0  501 -0.11517496141E+02  0.17792771932E+02 -0.45011353409E+01  0.21667848757E+02  0.00000000000E+00 0. -1.
</event>
<event>
 4    1  0.6769686E+001  0.2759592E+02  0.7546771E-02  0.1441712E+00
          2   -1    0    0  502    0  0.00000000000E+00  0.00000000000E+00  0.23720007455E+03  0.23720007455E+03  0.00000000000E+00 0. -1.
         -2   -1    0    0    0  501 -0.00000000000E+00 -0.00000000000E+00 -0.33098888322E+01  0.33098888322E+01  0.00000000000E+00 0.  1.
          1    1    1    2  502    0  0.26574904347E+02  0.74370214406E+01  0.13778176773E+03  0.14051814953E+03  0.00000000000E+00 0. -1.
         -1    1    1    2    0  501 -0.26574904347E+02 -0.74370214406E+01  0.96108417981E+02  0.99991813844E+02  0.00000000000E+00 0.  1.
</event>
<event>
 4    1  0.6769686E+001  0.2195456E+02  0.7546771E-02  0.1506060E+00
          2   -1    0    0  502    0  0.00000000000E+00  0.00000000000E+00  0.61982230222E+03  0.61982230222E+03  0.00000000000E+00 0. -1.
         -2   -1    0    0    0  501 -0.00000000000E+00 -0.00000000000E+00 -0.19243622984E+01  0.19243622984E+01  0.00000000000E+00 0.  1.
          1    1    1    2  502    0 -0.21954119336E+02  0.13869957143E+00  0.54892505386E+03  0.54936392069E+03  0.00000000000E+00 0. -1.
         -1    1    1    2    0  501  0.21954119336E+02 -0.13869957143E+00  0.68972886058E+02  0.72382743832E+02  0.00000000000E+00 0.  1.
</event>
<event>
 4    1  0.6769686E+001  0.5290845E+02  0.7546771E-02  0.1286032E+00
          2   -1    0    0  502    0  0.00000000000E+00  0.00000000000E+00  0.85620918484E+02  0.85620918484E+02  0.00000000000E+00 0. -1.
         -2   -1    0    0    0  501 -0.00000000000E+00 -0.00000000000E+00 -0.45273013559E+02  0.45273013559E+02  0.00000000000E+00 0.  1.
          1    1    1    2  502    0  0.12899093471E+02 -0.51311967377E+02  0.54671659205E+02  0.76080844690E+02  0.00000000000E+00 0. -1.
         -1    1    1    2    0  501 -0.12899093471E+02  0.51311967377E+02 -0.14323754280E+02  0.54813087353E+02  0.00000000000E+00 0.  1.
</event>
<event>
 4    1  0.6769686E+001  0.4303892E+02  0.7546771E-02  0.1331542E+00
          2   -1    0    0  502    0  0.00000000000E+00  0.00000000000E+00  0.37038022697E+01  0.37038022697E+01  0.00000000000E+00 0. -1.
         -2   -1    0    0    0  501 -0.00000000000E+00 -0.00000000000E+00 -0.51180387961E+03  0.51180387961E+03  0.00000000000E+00 0.  1.
          1    1    1    2  502    0 -0.35769680874E+02  0.23934879325E+02 -0.21510678734E+03  0.21937018593E+03  0.00000000000E+00 0. -1.
         -1    1    1    2    0  501  0.35769680874E+02 -0.23934879325E+02 -0.29299329000E+03  0.29613749594E+03  0.00000000000E+00 0.  1.
</event>
<event>
 4    1  0.6769686E+001  0.2256902E+02  0.7546771E-02  0.1497982E+00
          2   -1    0    0  502    0  0.00000000000E+00  0.00000000000E+00  0.13010669057E+01  0.13010669057E+01  0.00000000000E+00 0. -1.
         -2   -1    0    0    0  501 -0.00000000000E+00 -0.00000000000E+00 -0.45261020334E+03  0.45261020334E+03  0.00000000000E+00 0.  1.
          1    1    1    2  502    0  0.14245085394E+02 -0.17505382887E+02 -0.30905230231E+03  0.30987527564E+03  0.00000000000E+00 0. -1.
         -1    1    1    2    0  501 -0.14245085394E+02  0.17505382887E+02 -0.14225683412E+03  0.14403599460E+03  0.00000000000E+00 0.  1.
</event>
<event>
 4    1  0.6769686E+001  0.2457766E+02  0.7546771E-02  0.1473584E+00
          2   -1    0    0  502    0  0.00000000000E+00  0.00000000000E+00  0.11258439298E+04  0.11258439298E+04  0.00000000000E+00 0.  1.
         -2   -1    0    0    0  501 -0.00000000000E+00 -0.00000000000E+00 -0.53654155827E+00  0.53654155827E+00  0.00000000000E+00 0. -1.
          1    1    1    2  502    0 -0.13219074291E+01  0.24542084185E+02  0.56203838564E+03  0.56257551340E+03  0.00000000000E+00 0.  1.
         -1    1    1    2    0  501  0.13219074291E+01 -0.24542084185E+02  0.56326900255E+03  0.56380495791E+03  0.00000000000E+00 0. -1.
</event>
<event>
 4    1  0.6769686E+001  0.3282725E+02  0.7546771E-02  0.1396517E+00
          2   -1    0    0  502    0  0.00000000000E+00  0.00000000000E+00  0.39437484069E+02  0.39437484069E+02  0.00000000000E+00 0.  1.
         -2   -1    0    0    0  501 -0.00000000000E+00 -0.00000000000E+00 -0.29570120889E+02  0.29570120889E+02  0.00000000000E+00 0. -1.
          1    1    1    2  502    0 -0.18880426199E+02  0.26854376634E+02  0.14441114126E+02  0.35863265538E+02  0.00000000000E+00 0. -1.
         -1    1    1    2    0  501  0.18880426199E+02 -0.26854376634E+02 -0.45737509457E+01  0.33144339420E+02  0.00000000000E+00 0.  1.
</event>
<event>
 4    1  0.6769686E+001  0.2501194E+02  0.7546771E-02  0.1468670E+00
          2   -1    0    0  502    0  0.00000000000E+00  0.00000000000E+00  0.63319064646E+02  0.63319064646E+02  0.00000000000E+00 0. -1.
         -2   -1    0    0    0  501 -0.00000000000E+00 -0.00000000000E+00 -0.99925762895E+01  0.99925762895E+01  0.00000000000E+00 0.  1.
          1    1    1    2  502    0  0.82566160726E+01  0.23609859284E+02  0.30552631807E+02  0.39484939847E+02  0.00000000000E+00 0.  1.
         -1    1    1    2    0  501 -0.82566160726E+01 -0.23609859284E+02  0.22773856549E+02  0.33826701088E+02  0.00000000000E+00 0. -1.
</event>
<event>
 4    1  0.6769686E+001  0.2823225E+02  0.7546771E-02  0.1435608E+00
          2   -1    0    0  502    0  0.00000000000E+00  0.00000000000E+00  0.76269418430E+03  0.76269418430E+03  0.00000000000E+00 0. -1.
         -2   -1    0    0    0  501 -0.00000000000E+00 -0.00000000000E+00 -0.11669894895E+01  0.11669894895E+01  0.00000000000E+00 0.  1.
          1    1    1    2  502    0  0.20342423218E+02  0.19576668682E+02  0.25730885258E+03  0.25885305823E+03  0.00000000000E+00 0.  1.
         -1    1    1    2    0  501 -0.20342423218E+02 -0.19576668682E+02  0.50421834223E+03  0.50500811556E+03  0.00000000000E+00 0. -1.
</event>
<event>
 4    1  0.6769686E+001  0.3847274E+02  0.7546771E-02  0.1357676E+00
          2   -1    0    0  502    0  0.00000000000E+00  0.00000000000E+00  0.10395303529E+03  0.10395303529E+03  0.00000000000E+00 0. -1.
         -2   -1    0    0    0  501 -0.00000000000E+00 -0.00000000000E+00 -0.35539205948E+02  0.35539205948E+02  0.00000000000E+00 0.  1.
          1    1    1    2  502    0  0.22114892669E+02 -0.31481478009E+02 -0.19789082126E+02  0.43263838328E+02  0.00000000000E+00 0.  1.
         -1    1    1    2    0  501 -0.22114892669E+02  0.31481478009E+02  0.88202911472E+02  0.96228402915E+02  0.00000000000E+00 0. -1.
</event>
<event>
 4    1  0.6769686E+001  0.2938812E+02  0.7546771E-02  0.1424989E+00
          2   -1    0    0  502    0  0.00000000000E+00  0.00000000000E+00  0.92567709954E+03  0.92567709954E+03  0.00000000000E+00 0.  1.
         -2   -1    0    0    0  501 -0.00000000000E+00 -0.00000000000E+00 -0.29251880631E+01  0.29251880631E+01  0.00000000000E+00 0. -1.
          1    1    1    2  502    0 -0.22440108837E+02 -0.18976381477E+02  0.84454239073E+03  0.84505355527E+03  0.00000000000E+00 0.  1.
         -1    1    1    2    0  501  0.22440108837E+02  0.18976381477E+02  0.78209520741E+02  0.83548732325E+02  0.00000000000E+00 0. -1.
</event>
<event>
 4    1  0.6769686E+001  0.2020607E+02  0.7546771E-02  0.1530909E+00
          2   -1    0    0  502    0  0.00000000000E+00  0.00000000000E+00  0.59994332363E+03  0.59994332363E+03  0.00000000000E+00 0.  1.
         -2   -1    0    0    0  501 -0.00000000000E+00 -0.00000000000E+00 -0.12182093645E+01  0.12182093645E+01  0.00000000000E+00 0. -1.
          1    1    1    2  502    0  0.36567706848E+01 -0.19872421623E+02  0.49905336763E+03  0.49946225970E+03  0.00000000000E+00 0.  1.
         -1    1    1    2    0  501 -0.36567706848E+01  0.19872421623E+02  0.99671746632E+02  0.10169927330E+03  0.00000000000E+00 0. -1.
</event>
<event>
 4    1  0.6769686E+001  0.2671941E+02  0.7546771E-02  0.1450447E+00
          2   -1    0    0  502    0  0.00000000000E+00  0.00000000000E+00  0.32254960929E+03  0.32254960929E+03  0.00000000000E+00 0. -1.
         -2   -1    0    0    0  501 -0.00000000000E+00 -0.00000000000E+00 -0.52526461613E+01  0.52526461613E+01  0.00000000000E+00 0.  1.
          1    1    1    2  502    0  0.30922873701E+01  0.26539865133E+02  0.28332275075E+03  0.28457987942E+03  0.00000000000E+00 0. -1.
         -1    1    1    2    0  501 -0.30922873701E+01 -0.26539865133E+02  0.33974212381E+02  0.43222376026E+02  0.00000000000E+00 0.  1.
</event>
<event>
 4    1  0.6769686E+001  0.3608261E+02  0.7546771E-02  0.1373108E+00
          2   -1    0    0  502    0  0.00000000000E+00  0.00000000000E+00  0.39792973577E+02  0.39792973577E+02  0.00000000000E+00 0. -1.
         -2   -1    0    0    0  501 -0.00000000000E+00 -0.00000000000E+00 -0.32999685145E+02  0.32999685145E+02  0.00000000000E+00 0.  1.
          1    1    1    2  502    0  0.36074527856E+02 -0.76370717750E+00  0.67580723145E+01  0.36710030646E+02  0.00000000000E+00 0. -1.
         -1    1    1    2    0  501 -0.36074527856E+02  0.76370717750E+00  0.35216117235E-01  0.36082628075E+02  0.00000000000E+00 0.  1.
</event>
<event>
 4    1  0.6769686E+001  0.3648857E+02  0.7546771E-02  0.1370390E+00
          2   -1    0    0  502    0  0.00000000000E+00  0.00000000000E+00  0.42308460999E+02  0.42308460999E+02  0.00000000000E+00 0. -1.
         -2   -1    0    0    0  501 -0.00000000000E+00 -0.00000000000E+00 -0.79836484775E+02  0.79836484775E+02  0.00000000000E+00 0.  1.
          1    1    1    2  502    0  0.19546516047E+02 -0.30811511311E+02 -0.66299770967E+02  0.75677441481E+02  0.00000000000E+00 0.  1.
         -1    1    1    2    0  501 -0.19546516047E+02  0.30811511311E+02  0.28771747192E+02  0.46467504294E+02  0.00000000000E+00 0. -1.
</event>
<event>
 4    1  0.6769686E+001  0.2404454E+02  0.7546771E-02  0.1479782E+00
          2   -1    0    0  502    0  0.00000000000E+00  0.00000000000E+00  0.26530868992E+03  0.26530868992E+03  0.00000000000E+00 0. -1.
         -2   -1    0    0    0  501 -0.00000000000E+00 -0.00000000000E+00 -0.22034696870E+01  0.22034696870E+01  0.00000000000E+00 0.  1.
          1    1    1    2  502    0  0.12459788194E+02  0.20564373099E+02  0.11749223458E+03  0.11992733195E+03  0.00000000000E+00 0.  1.
         -1    1    1    2    0  501 -0.12459788194E+02 -0.20564373099E+02  0.14561298565E+03  0.14758482765E+03  0.00000000000E+00 0. -1.
</event>
<event>
 4    1  0.6769686E+001  0.2325116E+02  0.7546771E-02  0.1489368E+00
          2   -1    0    0  502    0  0.00000000000E+00  0.00000000000E+00  0.14994756947E+03  0.14994756947E+03  0.00000000000E+00 0. -1.
         -2   -1    0    0    0  501 -0.00000000000E+00 -0.00000000000E+00 -0.60728080179E+01  0.60728080179E+01  0.00000000000E+00 0.  1.
          1    1    1    2  502    0 -0.51274909995E+01  0.22678739487E+02  0.12166294564E+03  0.12386480021E+03  0.00000000000E+00 0. -1.
         -1    1    1    2    0  501  0.51274909995E+01 -0.22678739487E+02  0.22211815817E+02  0.32155577285E+02  0.00000000000E+00 0.  1.
</event>
<event>
 4    1  0.6769686E+001  0.2606475E+02  0.7546771E-02  0.1457236E+00
          2   -1    0    0  502    0  0.00000000000E+00  0.00000000000E+00  0.31731645766E+03  0.31731645766E+03  0.00000000000E+00 0.  1.
         -2   -1    0    0    0  501 -0.00000000000E+00 -0.00000000000E+00 -0.92071093969E+01  0.92071093969E+01  0.00000000000E+00 0. -1.
          1    1    1    2  502    0  0.76707434755E+01 -0.24910458203E+02  0.29708014398E+03  0.29822136607E+03  0.00000000000E+00 0.  1.
         -1    1    1    2    0  501 -0.76707434755E+01  0.24910458203E+02  0.11029204276E+02  0.28302200980E+02  0.00000000000E+00 0. -1.
</event>
<event>
 4    1  0.6769686E+001  0.2473700E+02  0.7546771E-02  0.1471767E+00
          2   -1    0    0  502    0  0.00000000000E+00  0.00000000000E+00  0.33970256898E+03  0.33970256898E+03  0.00000000000E+00 0.  1.
         -2   -1    0    0    0  501 -0.00000000000E+00 -0.00000000000E+00 -0.18409009636E+01  0.18409009636E+01  0.00000000000E+00 0. -1.
          1    1    1    2  502    0  0.19412848455E+01 -0.24660710109E+02  0.19396563575E+03  0.19553666424E+03  0.00000000000E+00 0.  1.
         -1    1    1    2    0  501 -0.19412848455E+01  0.24660710109E+02  0.14389603226E+03  0.14600680570E+03  0.00000000000E+00 0. -1.
</event>
<event>
 4    1  0.6769686E+001  0.2746640E+02  0.7546771E-02  0.1442979E+00
          2   -1    0    0  502    0  0.00000000000E+00  0.00000000000E+00  0.12856137398E+04  0.12856137398E+04  0.00000000000E+00 0. -1.
         -2   -1    0    0    0  501 -0.00000000000E+00 -0.00000000000E+00 -0.66577727878E+00  0.66577727878E+00  0.00000000000E+00 0.  1.
          1    1    1    2  502    0 -0.40229934495E+01 -0.27170174437E+02  0.86397813624E+03  0.86441461277E+03  0.00000000000E+00 0. -1.
         -1    1    1    2    0  501  0.40229934495E+01  0.27170174437E+02  0.42096982628E+03  0.42186490431E+03  0.00000000000E+00 0.  1.
</event>
<event>
 4    1  0.6769686E+001  0.3010014E+02  0.7546771E-02  0.1418728E+00
          2   -1    0    0  502    0  0.00000000000E+00  0.00000000000E+00  0.50384836998E+03  0.50384836998E+03  0.00000000000E+00 0.  1.
         -2   -1    0    0    0  501 -0.00000000000E+00 -0.00000000000E+00 -0.18500605802E+01  0.18500605802E+01  0.00000000000E+00 0. -1.
          1    1    1    2  502    0  0.28909398228E+02 -0.83824264586E+01  0.20866392271E+03  0.21082374396E+03  0.00000000000E+00 0. -1.
         -1    1    1    2    0  501 -0.28909398228E+02  0.83824264586E+01  0.29333438669E+03  0.29487468660E+03  0.00000000000E+00 0.  1.
</event>
<event>
 4    1  0.6769686E+001  0.2329103E+02  0.7546771E-02  0.1488876E+00
          2   -1    0    0  502    0  0.00000000000E+00  0.00000000000E+00  0.42478912203E+02  0.42478912203E+02  0.00000000000E+00 0.  1.
         -2   -1    0    0    0  501 -0.00000000000E+00 -0.00000000000E+00 -0.39094715986E+02  0.39094715986E+02  0.00000000000E+00 0. -1.
          1    1    1    2  502    0 -0.23286931487E+02  0.43692883502E+00 -0.31776646252E+02  0.39398316358E+02  0.00000000000E+00 0. -1.
         -1    1    1    2    0  501  0.23286931487E+02 -0.43692883502E+00  0.35160842468E+02  0.42175311830E+02  0.00000000000E+00 0.  1.
</event>
<event>
 4    1  0.6769686E+001  0.2059279E+02  0.7546771E-02  0.1525159E+00
          2   -1    0    0  502    0  0.00000000000E+00  0.00000000000E+00  0.69195481025E+03  0.69195481025E+03  0.00000000000E+00 0.  1.
         -2   -1    0    0    0  501 -0.00000000000E+00 -0.00000000000E+00 -0.64583531729E+00  0.64583531729E+00  0.00000000000E+00 0. -1.
          1    1    1    2  502    0  0.13605723198E+02 -0.15457916900E+02  0.26738948184E+03  0.26818127806E+03  0.00000000000E+00 0.  1.
         -1    1    1    2    0  501 -0.13605723198E+02  0.15457916900E+02  0.42391949309E+03  0.42441936751E+03  0.00000000000E+00 0. -1.
</event>
<event>
 4    1  0.6769686E+001  0.2762857E+02  0.7546771E-02  0.1441394E+00
          2   -1    0    0  502    0  0.00000000000E+00  0.00000000000E+00  0.23030409128E+04  0.23030409128E+04  0.00000000000E+00 0. -1.
         -2   -1    0    0    0  501 -0.00000000000E+00 -0.00000000000E+00 -0.47420303200E+00  0.47420303200E+00  0.00000000000E+00 0.  1.
          1    1    1    2  502    0  0.17087561907E+02 -0.21710669633E+02  0.51934479524E+03  0.52007918079E+03  0.00000000000E+00 0.  1.
         -1    1    1    2    0  501 -0.17087561907E+02  0.21710669633E+02  0.17832219145E+04  0.17834359351E+04  0.00000000000E+00 0. -1.
</event>
<event>
 4    1  0.6769686E+001  0.3394866E+02  0.7546771E-02  0.1388109E+00
          2   -1    0    0  502    0  0.00000000000E+00  0.00000000000E+00  0.20262103177E+02  0.20262103177E+02  0.00000000000E+00 0.  1.
         -2   -1    0    0    0  501 -0.00000000000E+00 -0.00000000000E+00 -0.57101878824E+02  0.57101878824E+02  0.00000000000E+00 0. -1.
          1    1    1    2  502    0 -0.15084175216E+02 -0.30413473592E+02 -0.20830251760E+02  0.39829776628E+02  0.00000000000E+00 0.  1.
         -1    1    1    2    0  501  0.15084175216E+02  0.30413473592E+02 -0.16009523887E+02  0.37534205373E+02  0.00000000000E+00 0. -1.
</event>
<event>
 4    1  0.6769686E+001  0.2343590E+02  0.7546771E-02  0.1487096E+00
          2   -1    0    0  502    0  0.00000000000E+00  0.00000000000E+00  0.48587902594E+00  0.48587902594E+00  0.00000000000E+00 0. -1.
         -2   -1    0    0    0  501 -0.00000000000E+00 -0.00000000000E+00 -0.11771134717E+04  0.11771134717E+04  0.00000000000E+00 0.  1.
          1    1    1    2  502    0 -0.22134030828E+02  0.77023325366E+01 -0.70559949515E+03  0.70598858971E+03  0.00000000000E+00 0.  1.
         -1    1    1    2    0  501  0.22134030828E+02 -0.77023325366E+01 -0.47102809749E+03  0.47161076098E+03  0.00000000000E+00 0. -1.
</event>
<event>
 4    1  0.6769686E+001  0.2197136E+02  0.7546771E-02  0.1505835E+00
          2   -1    0    0  502    0  0.00000000000E+00  0.00000000000E+00  0.25318137387E+03  0.25318137387E+03  0.00000000000E+00 0. -1.
         -2   -1    0    0    0  501 -0.00000000000E+00 -0.00000000000E+00 -0.24285728554E+01  0.24285728554E+01  0.00000000000E+00 0.  1.
          1    1    1    2  502    0  0.12226603382E+02  0.18255158603E+02  0.66130950903E+02  0.69685316339E+02  0.00000000000E+00 0.  1.
         -1    1    1    2    0  501 -0.12226603382E+02 -0.18255158603E+02  0.18462185011E+03  0.18592463039E+03  0.00000000000E+00 0. -1.
</event>
<event>
 4    1  0.6769686E+001  0.6933892E+02  0.7546771E-02  0.1231027E+00
          2   -1    0    0  502    0  0.00000000000E+00  0.00000000000E+00  0.87331673160E+02  0.87331673160E+02  0.00000000000E+00 0. -1.
         -2   -1    0    0    0  501 -0.00000000000E+00 -0.00000000000E+00 -0.75638902018E+02  0.75638902018E+02  0.00000000000E+00 0.  1.
          1    1    1    2  502    0 -0.19608914512E+01 -0.69311186370E+02 -0.36663479617E+02  0.78435300655E+02  0.00000000000E+00 0.  1.
         -1    1    1    2    0  501  0.19608914512E+01  0.69311186370E+02  0.48356250759E+02  0.84535274523E+02  0.00000000000E+00 0. -1.
</event>
<event>
 4    1  0.6769686E+001  0.2157498E+02  0.7546771E-02  0.1511212E+00
          2   -1    0    0  502    0  0.00000000000E+00  0.00000000000E+00  0.38177310431E+01  0.38177310431E+01  0.00000000000E+00 0.  1.
         -2   -1    0    0    0  501 -0.00000000000E+00 -0.00000000000E+00 -0.17602159584E+03  0.17602159584E+03  0.00000000000E+00 0. -1.
          1    1    1    2  502    0 -0.58604891392E+01  0.20763776184E+02 -0.36253255081E+02  0.42187418010E+02  0.00000000000E+00 0.  1.
         -1    1    1    2    0  501  0.58604891392E+01 -0.20763776184E+02 -0.13595060972E+03  0.13765190887E+03  0.00000000000E+00 0. -1.
</event>
<event>
 4    1  0.6769686E+001  0.2337147E+02  0.7546771E-02  0.1487886E+00
          2   -1    0    0  502    0  0.00000000000E+00  0.00000000000E+00  0.29454741834E+03  0.29454741834E+03  0.00000000000E+00 0.  1.
         -2   -1    0    0    0  501 -0.00000000000E+00 -0.00000000000E+00 -0.18917204305E+01  0.18917204305E+01  0.00000000000E+00 0. -1.
          1    1    1    2  502    0 -0.23262310585E+01 -0.23255413403E+02  0.12552528477E+03  0.12768250749E+03  0.00000000000E+00 0. -1.
         -1    1    1    2    0  501  0.23262310585E+01  0.23255413403E+02  0.16713041315E+03  0.16875663128E+03  0.00000000000E+00 0.  1.
</event>
<event>
 4    1  0.6769686E+001  0.6896253E+02  0.7546771E-02  0.1232087E+00
          2   -1    0    0  502    0  0.00000000000E+00  0.00000000000E+00  0.72607988012E+02  0.72607988012E+02  0.00000000000E+00 0.  1.
         -2   -1    0    0    0  501 -0.00000000000E+00 -0.00000000000E+00 -0.80549747260E+02  0.80549747260E+02  0.00000000000E+00 0. -1.
          1    1    1    2  502    0 -0.66052582115E+02  0.19821390623E+02  0.29130026265E+02  0.74862470975E+02  0.00000000000E+00 0.  1.
         -1    1    1    2    0  501  0.66052582115E+02 -0.19821390623E+02 -0.37071785513E+02  0.78295264297E+02  0.00000000000E+00 0. -1.
</event>
<event>
 4    1  0.6769686E+001  0.2179539E+02  0.7546771E-02  0.1508205E+00
          2   -1    0    0  502    0  0.00000000000E+00  0.00000000000E+00  0.68171820847E+03  0.68171820847E+03  0.00000000000E+00 0.  1.
         -2   -1    0    0    0  501 -0.00000000000E+00 -0.00000000000E+00 -0.77891904527E+00  0.77891904527E+00  0.00000000000E+00 0. -1.
          1    1    1    2  502    0  0.13351427219E+02 -0.17227260320E+02  0.22968557078E+03  0.23071736071E+03  0.00000000000E+00 0. -1.
         -1    1    1    2    0  501 -0.13351427219E+02  0.17227260320E+02  0.45125371864E+03  0.45177976681E+03  0.00000000000E+00 0.  1.
</event>
<event>
 4    1  0.6769686E+001  0.2820271E+02  0.7546771E-02  0.1435887E+00
          2   -1    0    0  502    0  0.00000000000E+00  0.00000000000E+00  0.14483502681E+03  0.14483502681E+03  0.00000000000E+00 0. -1.
         -2   -1    0    0    0  501 -0.00000000000E+00 -0.00000000000E+00 -0.68633309680E+01  0.68633309680E+01  0.00000000000E+00 0.  1.
          1    1    1    2  502    0  0.31911177655E+01  0.28021593705E+02  0.10289363112E+03  0.10668876357E+03  0.00000000000E+00 0.  1.
         -1    1    1    2    0  501 -0.31911177655E+01 -0.28021593705E+02  0.35078064719E+02  0.45009594208E+02  0.00000000000E+00 0. -1.
</event>
<event>
 4    1  0.6769686E+001  0.2022369E+02  0.7546771E-02  0.1530643E+00
          2   -1    0    0  502    0  0.00000000000E+00  0.00000000000E+00  0.36910673885E+03  0.36910673885E+03  0.00000000000E+00 0. -1.
         -2   -1    0    0    0  501 -0.00000000000E+00 -0.00000000000E+00 -0.14247756104E+01  0.14247756104E+01  0.00000000000E+00 0.  1.
          1    1    1    2  502    0  0.21418429620E+00 -0.20222557819E+02  0.27118774104E+03  0.27194078144E+03  0.00000000000E+00 0.  1.
         -1    1    1    2    0  501 -0.21418429620E+00  0.20222557819E+02  0.96494222195E+02  0.98590733016E+02  0.00000000000E+00 0. -1.
</event>
<event>
 4    1  0.6769686E+001  0.4251436E+02  0.7546771E-02  0.1334350E+00
          2   -1    0    0  502    0  0.00000000000E+00  0.00000000000E+00  0.13133084472E+04  0.13133084472E+04  0.00000000000E+00 0. -1.
         -2   -1    0    0    0  501 -0.00000000000E+00 -0.00000000000E+00 -0.16026323970E+01  0.16026323970E+01  0.00000000000E+00 0.  1.
          1    1    1    2  502    0  0.11488647795E+02  0.40932651087E+02  0.40876658982E+03  0.41097152688E+03  0.00000000000E+00 0. -1.
         -1    1    1    2    0  501 -0.11488647795E+02 -0.40932651087E+02  0.90293922503E+03  0.90393955277E+03  0.00000000000E+00 0.  1.
</event>
<event>
 4    1  0.6769686E+001  0.2725393E+02  0.7546771E-02  0.1445074E+00
          2   -1    0    0  502    0  0.00000000000E+00  0.00000000000E+00  0.17553576939E+02  0.17553576939E+02  0.00000000000E+00 0. -1.
         -2   -1    0    0    0  501 -0.00000000000E+00 -0.00000000000E+00 -0.44318971608E+02  0.44318971608E+02  0.00000000000E+00 0.  1.
          1    1    1    2  502    0 -0.23278454267E+02  0.14173568833E+02 -0.19961369177E+02  0.33782136492E+02  0.00000000000E+00 0.  1.
         -1    1    1    2    0  501  0.23278454267E+02 -0.14173568833E+02 -0.68040254921E+01  0.28090412055E+02  0.00000000000E+00 0. -1.
</event>
<event>
 4    1  0.6769686E+001  0.3837550E+02  0.7546771E-02  0.1358278E+00
          2   -1    0    0  502    0  0.00000000000E+00  0.00000000000E+00  0.12861529636E+04  0.12861529636E+04  0.00000000000E+00 0. -1.
         -2   -1    0    0    0  501 -0.00000000000E+00 -0.00000000000E+00 -0.21272749751E+01  0.21272749751E+01  0.00000000000E+00 0.  1.
          1    1    1    2  502    0 -0.33642916511E+02  0.18461663440E+02  0.20431008907E+03  0.20788287891E+03  0.00000000000E+00 0.  1.
         -1    1    1    2    0  501  0.33642916511E+02 -0.18461663440E+02  0.10797155996E+04  0.10803973597E+04  0.00000000000E+00 0. -1.
</event>
<event>
 4    1  0.6769686E+001  0.2395319E+02  0.7546771E-02  0.1480864E+00
          2   -1    0    0  502    0  0.00000000000E+00  0.00000000000E+00  0.77186160339E+02  0.77186160339E+02  0.00000000000E+00 0. -1.
         -2   -1    0    0    0  501 -0.00000000000E+00 -0.00000000000E+00 -0.11141572229E+02  0.11141572229E+02  0.00000000000E+00 0.  1.
          1    1    1    2  502    0  0.51320141400E+01 -0.23396961210E+02  0.58500801196E+02  0.63214706386E+02  0.00000000000E+00 0.  1.
         -1    1    1    2    0  501 -0.51320141400E+01  0.23396961210E+02  0.75437869149E+01  0.25113026182E+02  0.00000000000E+00 0. -1.
</event>
<event>
 4    1  0.6769686E+001  0.2510829E+02  0.7546771E-02  0.1467596E+00
          2   -1    0    0  502    0  0.00000000000E+00  0.00000000000E+00  0.74786894908E+02  0.74786894908E+02  0.00000000000E+00 0.  1.
         -2   -1    0    0    0  501 -0.00000000000E+00 -0.00000000000E+00 -0.84459107623E+01  0.84459107623E+01  0.00000000000E+00 0. -1.
          1    1    1    2  502    0  0.66815620936E+01  0.24202951808E+02  0.31343544887E+02  0.40160228514E+02  0.00000000000E+00 0. -1.
         -1    1    1    2    0  501 -0.66815620936E+01 -0.24202951808E+02  0.34997439258E+02  0.43072577156E+02  0.00000000000E+00 0.  1.
</event>
<event>
 4    1  0.6769686E+001  0.2302604E+02  0.7546771E-02  0.1492171E+00
          2   -1    0    0  502    0  0.00000000000E+00  0.00000000000E+00  0.63668539693E+01  0.63668539693E+01  0.00000000000E+00 0.  1.
         -2   -1    0    0    0  501 -0.00000000000E+00 -0.00000000000E+00 -0.87476903453E+02  0.87476903453E+02  0.00000000000E+00 0. -1.
          1    1    1    2  502    0  0.99510684073E+01  0.20764743491E+02 -0.50839054629E+02  0.55810463269E+02  0.00000000000E+00 0. -1.
         -1    1    1    2    0  501 -0.99510684073E+01 -0.20764743491E+02 -0.30270994855E+02  0.38033294154E+02  0.00000000000E+00 0.  1.
</event>
<event>
 4    1  0.6769686E+001  0.2776410E+02  0.7546771E-02  0.1440080E+00
          2   -1    0    0  502    0  0.00000000000E+00  0.00000000000E+00  0.82401046335E+03  0.82401046335E+03  0.00000000000E+00 0. -1.
         -2   -1    0    0    0  501 -0.00000000000E+00 -0.00000000000E+00 -0.96857294917E+00  0.96857294917E+00  0.00000000000E+00 0.  1.
          1    1    1    2  502    0  0.69554750851E+01 -0.26878736291E+02  0.33527510449E+03  0.33642271146E+03  0.00000000000E+00 0. -1.
         -1    1    1    2    0  501 -0.69554750851E+01  0.26878736291E+02  0.48776678591E+03  0.48855632484E+03  0.00000000000E+00 0.  1.
</event>
<event>
 4    1  0.6769686E+001  0.2308621E+02  0.7546771E-02  0.1491418E+00
          2   -1    0    0  502    0  0.00000000000E+00  0.00000000000E+00  0.27710233131E+03  0.27710233131E+03  0.00000000000E+00 0.  1.
         -2   -1    0    0    0  501 -0.00000000000E+00 -0.00000000000E+00 -0.19614607533E+01  0.19614607533E+01  0.00000000000E+00 0. -1.
          1    1    1    2  502    0  0.21307828040E+02 -0.88853669673E+01  0.11812882042E+03  0.12036358044E+03  0.00000000000E+00 0.  1.
         -1    1    1    2    0  501 -0.21307828040E+02  0.88853669673E+01  0.15701205014E+03  0.15870021162E+03  0.00000000000E+00 0. -1.
</event>
<event>
 4    1  0.6769686E+001  0.2938067E+02  0.7546771E-02  0.1425056E+00
          2   -1    0    0  502    0  0.00000000000E+00  0.00000000000E+00  0.18191983998E+02  0.18191983998E+02  0.00000000000E+00 0. -1.
         -2   -1    0    0    0  501 -0.00000000000E+00 -0.00000000000E+00 -0.66189712853E+02  0.66189712853E+02  0.00000000000E+00 0.  1.
          1    1    1    2  502    0  0.26578559646E+02  0.12522135730E+02 -0.46447787443E+02  0.54960173530E+02  0.00000000000E+00 0.  1.
         -1    1    1    2    0  501 -0.26578559646E+02 -0.12522135730E+02 -0.15499414123E+01  0.29421523320E+02  0.00000000000E+00 0. -1.
</event>
<event>
 4    1  0.6769686E+001  0.2828031E+02  0.7546771E-02  0.1435154E+00
          2   -1    0    0  502    0  0.00000000000E+00  0.00000000000E+00  0.13068346574E+02  0.13068346574E+02  0.00000000000E+00 0. -1.
         -2   -1    0    0    0  501 -0.00000000000E+00 -0.00000000000E+00 -0.31096186842E+03  0.31096186842E+03  0.00000000000E+00 0.  1.
          1    1    1    2  502    0  0.25912552877E+02 -0.11327648059E+02 -0.29414637586E+03  0.29550273508E+03  0.00000000000E+00 0.  1.
         -1    1    1    2    0  501 -0.25912552877E+02  0.11327648059E+02 -0.37471459831E+01  0.28527479913E+02  0.00000000000E+00 0. -1.
</event>
<event>
 4    1  0.6769686E+001  0.2994635E+02  0.7546771E-02  0.1420063E+00
          2   -1    0    0  502    0  0.00000000000E+00  0.00000000000E+00  0.22628899790E+03  0.22628899790E+03  0.00000000000E+00 0. -1.
         -2   -1    0    0    0  501 -0.00000000000E+00 -0.00000000000E+00 -0.39719103302E+01  0.39719103302E+01  0.00000000000E+00 0.  1.
          1    1    1    2  502    0 -0.20707926218E+02  0.21632517456E+02  0.10570649507E+03  0.10986649680E+03  0.00000000000E+00 0. -1.
         -1    1    1    2    0  501  0.20707926218E+02 -0.21632517456E+02  0.11661059250E+03  0.12039441142E+03  0.00000000000E+00 0.  1.
</event>
<event>
 4    1  0.6769686E+001  0.2755905E+02  0.7546771E-02  0.1442072E+00
          2   -1    0    0  502    0  0.00000000000E+00  0.00000000000E+00  0.16787034355E+03  0.16787034355E+03  0.00000000000E+00 0.  1.
         -2   -1    0    0    0  501 -0.00000000000E+00 -0.00000000000E+00 -0.46774113797E+01  0.46774113797E+01  0.00000000000E+00 0. -1.
          1    1    1    2  502    0 -0.11020351923E+02  0.25259716103E+02  0.97203946298E+02  0.10103518491E+03  0.00000000000E+00 0. -1.
         -1    1    1    2    0  501  0.11020351923E+02 -0.25259716103E+02  0.65988985867E+02  0.71512570013E+02  0.00000000000E+00 0.  1.
</event>
<event>
 4    1  0.6769686E+001  0.4801120E+02  0.7546771E-02  0.1307033E+00
          2   -1    0    0  502    0  0.00000000000E+00  0.00000000000E+00  0.12427137237E+03  0.12427137237E+03  0.00000000000E+00 0.  1.
         -2   -1    0    0    0  501 -0.00000000000E+00 -0.00000000000E+00 -0.23638739403E+02  0.23638739403E+02  0.00000000000E+00 0. -1.
          1    1    1    2  502    0 -0.15540925903E+02  0.45426373559E+02  0.15998857584E+02  0.50606711379E+02  0.00000000000E+00 0. -1.
         -1    1    1    2    0  501  0.15540925903E+02 -0.45426373559E+02  0.84633775384E+02  0.97303400394E+02  0.00000000000E+00 0.  1.
</event>
<event>
 4    1  0.6769686E+001  0.2469925E+02  0.7546771E-02  0.1472196E+00
          2   -1    0    0  502    0  0.00000000000E+00  0.00000000000E+00  0.60462932516E+01  0.60462932516E+01  0.00000000000E+00 0. -1.
         -2   -1    0    0    0  501 -0.00000000000E+00 -0.00000000000E+00 -0.17186150199E+03  0.17186150199E+03  0.00000000000E+00 0.  1.
          1    1    1    2  502    0  0.19653758083E+02 -0.14959372314E+02 -0.14006812434E+03  0.14222915482E+03  0.00000000000E+00 0.  1.
         -1    1    1    2    0  501 -0.19653758083E+02  0.14959372314E+02 -0.25747084400E+02  0.35678640415E+02  0.00000000000E+00 0. -1.
</event>
<event>
 4    1  0.6769686E+001  0.3430251E+02  0.7546771E-02  0.1385534E+00
          2   -1    0    0  502    0  0.00000000000E+00  0.00000000000E+00  0.10090549909E+02  0.10090549909E+02  0.00000000000E+00 0. -1.
         -2   -1    0    0    0  501 -0.00000000000E+00 -0.00000000000E+00 -0.13228017746E+03  0.13228017746E+03  0.00000000000E+00 0.  1.
          1    1    1    2  502    0 -0.61626791134E+01 -0.33744386104E+02 -0.36594259447E+02  0.50157771401E+02  0.00000000000E+00 0. -1.
         -1    1    1    2    0  501  0.61626791134E+01  0.33744386104E+02 -0.85595368101E+02  0.92212955965E+02  0.00000000000E+00 0.  1.
</event>
<event>
 4    1  0.6769686E+001  0.1045855E+03  0.7546771E-02  0.1156091E+00
          2   -1    0    0  502    0  0.00000000000E+00  0.00000000000E+00  0.51545722611E+03  0.51545722611E+03  0.00000000000E+00 0. -1.
         -2   -1    0    0    0  501 -0.00000000000E+00 -0.00000000000E+00 -0.33699952493E+02  0.33699952493E+02  0.00000000000E+00 0.  1.
          1    1    1    2  502    0 -0.10230044322E+03  0.21742907051E+02  0.73787265405E+02  0.12799490312E+03  0.00000000000E+00 0.  1.
         -1    1    1    2    0  501  0.10230044322E+03 -0.21742907051E+02  0.40797000821E+03  0.42116227548E+03  0.00000000000E+00 0. -1.
</event>
<event>
 4    1  0.6769686E+001  0.3090663E+02  0.7546771E-02  0.1411878E+00
          2   -1    0    0  502    0  0.00000000000E+00  0.00000000000E+00  0.27480123578E+04  0.27480123578E+04  0.00000000000E+00 0. -1.
         -2   -1    0    0    0  501 -0.00000000000E+00 -0.00000000000E+00 -0.38836657896E+00  0.38836657896E+00  0.00000000000E+00 0.  1.
          1    1    1    2  502    0  0.28602781156E+02 -0.11709008236E+02  0.92860682393E+03  0.92912101118E+03  0.00000000000E+00 0.  1.
         -1    1    1    2    0  501 -0.28602781156E+02  0.11709008236E+02  0.18190171673E+04  0.18192797132E+04  0.00000000000E+00 0. -1.
</event>
<event>
 4    1  0.6769686E+001  0.3154219E+02  0.7546771E-02  0.1406652E+00
          2   -1    0    0  502    0  0.00000000000E+00  0.00000000000E+00  0.49718406851E+01  0.49718406851E+01  0.00000000000E+00 0.  1.
         -2   -1    0    0    0  501 -0.00000000000E+00 -0.00000000000E+00 -0.20887079886E+03  0.20887079886E+03  0.00000000000E+00 0. -1.
          1    1    1    2  502    0 -0.19473193403E+02  0.24813390969E+02 -0.12384847763E+03  0.12780201503E+03  0.00000000000E+00 0.  1.
         -1    1    1    2    0  501  0.19473193403E+02 -0.24813390969E+02 -0.80050480544E+02  0.86040624521E+02  0.00000000000E+00 0. -1.
</event>
<event>
 4    1  0.6769686E+001  0.3854459E+02  0.7546771E-02  0.1357232E+00
          2   -1    0    0  502    0  0.00000000000E+00  0.00000000000E+00  0.17015390754E+04  0.17015390754E+04  0.00000000000E+00 0. -1.
         -2   -1    0    0    0  501 -0.00000000000E+00 -0.00000000000E+00 -0.10564325258E+01  0.10564325258E+01  0.00000000000E+00 0.  1.
          1    1    1    2  502    0  0.20045838265E+02 -0.32921869791E+02  0.49564789838E+03  0.49714436968E+03  0.00000000000E+00 0.  1.
         -1    1    1    2    0  501 -0.20045838265E+02  0.32921869791E+02  0.12048347445E+04  0.12054511383E+04  0.00000000000E+00 0. -1.
</event>
<event>
 4    1  0.6769686E+001  0.2217990E+02  0.7546771E-02  0.1503061E+00
          2   -1    0    0  502    0  0.00000000000E+00  0.00000000000E+00  0.66576918133E+03  0.66576918133E+03  0.00000000000E+00 0.  1.
         -2   -1    0    0    0  501 -0.00000000000E+00 -0.00000000000E+00 -0.80255706569E+00  0.80255706569E+00  0.00000000000E+00 0. -1.
          1    1    1    2  502    0 -0.18213660717E+02  0.12657432684E+02  0.23863101616E+03  0.23965957088E+03  0.00000000000E+00 0. -1.
         -1    1    1    2    0  501  0.18213660717E+02 -0.12657432684E+02  0.42633560811E+03  0.42691216752E+03  0.00000000000E+00 0.  1.
</event>
<event>
 4    1  0.6769686E+001  0.2038189E+02  0.7546771E-02  0.1528276E+00
          2   -1    0    0  502    0  0.00000000000E+00  0.00000000000E+00  0.17619206503E+01  0.17619206503E+01  0.00000000000E+00 0. -1.
         -2   -1    0    0    0  501 -0.00000000000E+00 -0.00000000000E+00 -0.39565234090E+03  0.39565234090E+03  0.00000000000E+00 0.  1.
          1    1    1    2  502    0 -0.20189693068E+02  0.27924319599E+01 -0.70632649242E+02  0.73514573530E+02  0.00000000000E+00 0.  1.
         -1    1    1    2    0  501  0.20189693068E+02 -0.27924319599E+01 -0.32325777101E+03  0.32389968802E+03  0.00000000000E+00 0. -1.
</event>
<event>
 4    1  0.6769686E+001  0.2366689E+02  0.7546771E-02  0.1484290E+00
          2   -1    0    0  502    0  0.00000000000E+00  0.00000000000E+00  0.30928463667E+02  0.30928463667E+02  0.00000000000E+00 0.  1.
         -2   -1    0    0    0  501 -0.00000000000E+00 -0.00000000000E+00 -0.40501626677E+02  0.40501626677E+02  0.00000000000E+00 0. -1.
          1    1    1    2  502    0  0.71058010108E+01 -0.22574965816E+02 -0.31342149454E+02  0.39274060421E+02  0.00000000000E+00 0. -1.
         -1    1    1    2    0  501 -0.71058010108E+01  0.22574965816E+02  0.21768986444E+02  0.32156029922E+02  0.00000000000E+00 0.  1.
</event>
<event>
 4    1  0.6769686E+001  0.2756135E+02  0.7546771E-02  0.1442049E+00
          2   -1    0    0  502    0  0.00000000000E+00  0.00000000000E+00  0.12997166780E+03  0.12997166780E+03  0.00000000000E+00 0.  1.
         -2   -1    0    0    0  501 -0.00000000000E+00 -0.00000000000E+00 -0.79582379422E+01  0.79582379422E+01  0.00000000000E+00 0. -1.
          1    1    1    2  502    0  0.26930124389E+02 -0.58648580396E+01  0.96548451325E+02  0.10040533657E+03  0.00000000000E+00 0.  1.
         -1    1    1    2    0  501 -0.26930124389E+02  0.58648580396E+01  0.25464978530E+02  0.37524569165E+02  0.00000000000E+00 0. -1.
</event>
<event>
 4    1  0.6769686E+001  0.2438453E+02  0.7546771E-02  0.1475808E+00
          2   -1    0    0  502    0  0.00000000000E+00  0.00000000000E+00  0.97556097906E+03  0.97556097906E+03  0.00000000000E+00 0. -1.
         -2   -1    0    0    0  501 -0.00000000000E+00 -0.00000000000E+00 -0.62069600983E+00  0.62069600983E+00  0.00000000000E+00 0.  1.
          1    1    1    2  502    0 -0.21323810201E+02 -0.11827956540E+02  0.42192016785E+03  0.42262422253E+03  0.00000000000E+00 0. -1.
         -1    1    1    2    0  501  0.21323810201E+02  0.11827956540E+02  0.55302011521E+03  0.55355745254E+03  0.00000000000E+00 0.  1.
</event>
<event>
 4    1  0.6769686E+001  0.2223983E+02  0.7546771E-02  0.1502271E+00
          2   -1    0    0  502    0  0.00000000000E+00  0.00000000000E+00  0.40469804711E+03  0.40469804711E+03  0.00000000000E+00 0. -1.
         -2   -1    0    0    0  501 -0.00000000000E+00 -0.00000000000E+00 -0.12537639826E+01  0.12537639826E+01  0.00000000000E+00 0.  1.
          1    1    1    2  502    0  0.20126844094E+02  0.94615148017E+01  0.16950154112E+03  0.17095432886E+03  0.00000000000E+00 0.  1.
         -1    1    1    2    0  501 -0.20126844094E+02 -0.94615148017E+01  0.23394274201E+03  0.23499748223E+03  0.00000000000E+00 0. -1.
</event>
<event>
 4    1  0.6769686E+001  0.2433749E+02  0.7546771E-02  0.1476353E+00
          2   -1    0    0  502    0  0.00000000000E+00  0.00000000000E+00  0.15256330689E+02  0.15256330689E+02  0.00000000000E+00 0.  1.
         -2   -1    0    0    0  501 -0.00000000000E+00 -0.00000000000E+00 -0.49115592278E+02  0.49115592278E+02  0.00000000000E+00 0. -1.
          1    1    1    2  502    0 -0.36201223041E+01 -0.24066742113E+02 -0.21964710665E+01  0.24436404125E+02  0.00000000000E+00 0.  1.
         -1    1    1    2    0  501  0.36201223041E+01  0.24066742113E+02 -0.31662790523E+02  0.39935518842E+02  0.00000000000E+00 0. -1.
</event>
<event>
 4    1  0.6769686E+001  0.2544309E+02  0.7546771E-02  0.1463907E+00
          2   -1    0    0  502    0  0.00000000000E+00  0.00000000000E+00  0.18696312295E+03  0.18696312295E+03  0.00000000000E+00 0.  1.
         -2   -1    0    0    0  501 -0.00000000000E+00 -0.00000000000E+00 -0.35754865224E+01  0.35754865224E+01  0.00000000000E+00 0. -1.
          1    1    1    2  502    0  0.82640084999E+01 -0.24063602091E+02  0.74754670323E+02  0.78965888314E+02  0.00000000000E+00 0. -1.
         -1    1    1    2    0  501 -0.82640084999E+01  0.24063602091E+02  0.10863296610E+03  0.11157272116E+03  0.00000000000E+00 0.  1.
</event>
<event>
 4    1  0.6769686E+001  0.2472158E+02  0.7546771E-02  0.1471942E+00
          2   -1    0    0  502    0  0.00000000000E+00  0.00000000000E+00  0.26607396418E+02  0.26607396418E+02  0.00000000000E+00 0. -1.
         -2   -1    0    0    0  501 -0.00000000000E+00 -0.00000000000E+00 -0.25761283163E+02  0.25761283163E+02  0.00000000000E+00 0.  1.
          1    1    1    2  502    0 -0.16074067637E+02 -0.18782458446E+02 -0.81969012741E+01  0.26045068365E+02  0.00000000000E+00 0.  1.
         -1    1    1    2    0  501  0.16074067637E+02  0.18782458446E+02  0.90430145284E+01  0.26323611216E+02  0.00000000000E+00 0. -1.
</event>
<event>
 4    1  0.6769686E+001  0.2099126E+02  0.7546771E-02  0.1519390E+00
          2   -1    0    0  502    0  0.00000000000E+00  0.00000000000E+00  0.83828690495E+01  0.83828690495E+01  0.00000000000E+00 0.  1.
         -2   -1    0    0    0  501 -0.00000000000E+00 -0.00000000000E+00 -0.98133840580E+02  0.98133840580E+02  0.00000000000E+00 0. -1.
          1    1    1    2  502    0  0.90206007104E+01  0.18954202936E+02 -0.85827736216E+01  0.22678118289E+02  0.00000000000E+00 0.  1.
         -1    1    1    2    0  501 -0.90206007104E+01 -0.18954202936E+02 -0.81168197908E+02  0.83838591340E+02  0.00000000000E+00 0. -1.
</event>
<event>
 4    1  0.6769686E+001  0.2028671E+02  0.7546771E-02  0.1529697E+00
          2   -1    0    0  502    0  0.00000000000E+00  0.00000000000E+00  0.16186994894E+03  0.16186994894E+03  0.00000000000E+00 0.  1.
         -2   -1    0    0    0  501 -0.00000000000E+00 -0.00000000000E+00 -0.25718680875E+01  0.25718680875E+01  0.00000000000E+00 0. -1.
          1    1    1    2  502    0  0.68127479035E+01  0.19108557133E+02  0.70859385993E+02  0.73706194264E+02  0.00000000000E+00 0.  1.
         -1    1    1    2    0  501 -0.68127479035E+01 -0.19108557133E+02  0.88438694862E+02  0.90735622765E+02  0.00000000000E+00 0. -1.
</event>
<event>
 4    1  0.6769686E+001  0.2872680E+02  0.7546771E-02  0.1430993E+00
          2   -1    0    0  502    0  0.00000000000E+00  0.00000000000E+00  0.11120249231E+03  0.11120249231E+03  0.00000000000E+00 0. -1.
         -2   -1    0    0    0  501 -0.00000000000E+00 -0.00000000000E+00 -0.74226747961E+01  0.74226747961E+01  0.00000000000E+00 0.  1.
          1    1    1    2  502    0  0.28567362504E+02 -0.30223950601E+01  0.50987980324E+02  0.58523526978E+02  0.00000000000E+00 0. -1.
         -1    1    1    2    0  501 -0.28567362504E+02  0.30223950601E+01  0.52791837194E+02  0.60101640133E+02  0.00000000000E+00 0.  1.
</event>
<event>
 4    1  0.6769686E+001  0.3166355E+02  0.7546771E-02  0.1405671E+00
          2   -1    0    0  502    0  0.00000000000E+00  0.00000000000E+00  0.17535970441E+04  0.17535970441E+04  0.00000000000E+00 0. -1.
         -2   -1    0    0    0  501 -0.00000000000E+00 -0.00000000000E+00 -0.81904650329E+00  0.81904650329E+00  0.00000000000E+00 0.  1.
          1    1    1    2  502    0 -0.27837954640E+02  0.15087378189E+02  0.39435624818E+03  0.39562536721E+03  0.00000000000E+00 0.  1.
         -1    1    1    2    0  501  0.27837954640E+02 -0.15087378189E+02  0.13584217494E+04  0.13587907234E+04  0.00000000000E+00 0. -1.
</event>
<event>
 4    1  0.6769686E+001  0.2035954E+02  0.7546771E-02  0.1528609E+00
          2   -1    0    0  502    0  0.00000000000E+00  0.00000000000E+00  0.16099462031E+04  0.16099462031E+04  0.00000000000E+00 0.  1.
         -2   -1    0    0    0  501 -0.00000000000E+00 -0.00000000000E+00 -0.35252685560E+00  0.35252685560E+00  0.00000000000E+00 0. -1.
          1    1    1    2  502    0  0.11631136359E+02 -0.16710103405E+02  0.38670195316E+03  0.38723753881E+03  0.00000000000E+00 0.  1.
         -1    1    1    2    0  501 -0.11631136359E+02  0.16710103405E+02  0.12228917230E+04  0.12230611911E+04  0.00000000000E+00 0. -1.
</event>
<event>
 4    1  0.6769686E+001  0.2012127E+02  0.7546771E-02  0.1532190E+00
          2   -1    0    0  502    0  0.00000000000E+00  0.00000000000E+00  0.24978236864E+01  0.24978236864E+01  0.00000000000E+00 0.  1.
         -2   -1    0    0    0  501 -0.00000000000E+00 -0.00000000000E+00 -0.16453047901E+03  0.16453047901E+03  0.00000000000E+00 0. -1.
          1    1    1    2  502    0  0.90760658339E+01  0.17958019083E+02 -0.70839386409E+02  0.73641592101E+02  0.00000000000E+00 0.  1.
         -1    1    1    2    0  501 -0.90760658339E+01 -0.17958019083E+02 -0.91193268910E+02  0.93386710591E+02  0.00000000000E+00 0. -1.
</event>
<event>
 4    1  0.6769686E+001  0.2263322E+02  0.7546771E-02  0.1497156E+00
          2   -1    0    0  502    0  0.00000000000E+00  0.00000000000E+00  0.56962404988E+03  0.56962404988E+03  0.00000000000E+00 0.  1.
         -2   -1    0    0    0  501 -0.00000000000E+00 -0.00000000000E+00 -0.11614671243E+01  0.11614671243E+01  0.00000000000E+00 0. -1.
          1    1    1    2  502    0  0.22633219350E+02  0.10026283856E-01  0.14864091102E+03  0.15035419232E+03  0.00000000000E+00 0.  1.
         -1    1    1    2    0  501 -0.22633219350E+02 -0.10026283856E-01  0.41982167173E+03  0.42043132468E+03  0.00000000000E+00 0. -1.
</event>
<event>
 4    1  0.6769686E+001  0.2199946E+02  0.7546771E-02  0.1505459E+00
          2   -1    0    0  502    0  0.00000000000E+00  0.00000000000E+00  0.11081269467E+03  0.11081269467E+03  0.00000000000E+00 0. -1.
         -2   -1    0    0    0  501 -0.00000000000E+00 -0.00000000000E+00 -0.48514510483E+01  0.48514510483E+01  0.00000000000E+00 0.  1.
          1    1    1    2  502    0  0.68338869776E+01 -0.20911106422E+02  0.71245879255E+02  0.74565083611E+02  0.00000000000E+00 0. -1.
         -1    1    1    2    0  501 -0.68338869776E+01  0.20911106422E+02  0.34715364367E+02  0.41099062108E+02  0.00000000000E+00 0.  1.
</event>
<event>
 4    1  0.6769686E+001  0.2434322E+02  0.7546771E-02  0.1476287E+00
          2   -1    0    0  502    0  0.00000000000E+00  0.00000000000E+00  0.32651197961E+01  0.32651197961E+01  0.00000000000E+00 0. -1.
         -2   -1    0    0    0  501 -0.00000000000E+00 -0.00000000000E+00 -0.19304470820E+03  0.19304470820E+03  0.00000000000E+00 0.  1.
          1    1    1    2  502    0  0.15163728652E+02 -0.19043472350E+02 -0.11890180588E+03  0.12136816694E+03  0.00000000000E+00 0.  1.
         -1    1    1    2    0  501 -0.15163728652E+02  0.19043472350E+02 -0.70877782526E+02  0.74941661054E+02  0.00000000000E+00 0. -1.
</event>
<event>
 4    1  0.6769686E+001  0.2181275E+02  0.7546771E-02  0.1507970E+00
          2   -1    0    0  502    0  0.00000000000E+00  0.00000000000E+00  0.81534813321E+02  0.81534813321E+02  0.00000000000E+00 0. -1.
         -2   -1    0    0    0  501 -0.00000000000E+00 -0.00000000000E+00 -0.65024147619E+01  0.65024147619E+01  0.00000000000E+00 0.  1.
          1    1    1    2  502    0  0.17797295749E+02  0.12611587510E+02  0.23418887568E+02  0.32003752442E+02  0.00000000000E+00 0.  1.
         -1    1    1    2    0  501 -0.17797295749E+02 -0.12611587510E+02  0.51613510991E+02  0.56033475640E+02  0.00000000000E+00 0. -1.
</event>
<event>
 4    1  0.6769686E+001  0.3492657E+02  0.7546771E-02  0.1381080E+00
          2   -1    0    0  502    0  0.00000000000E+00  0.00000000000E+00  0.37200766675E+02  0.37200766675E+02  0.00000000000E+00 0.  1.
         -2   -1    0    0    0  501 -0.00000000000E+00 -0.00000000000E+00 -0.33647682904E+02  0.33647682904E+02  0.00000000000E+00 0. -1.
          1    1    1    2  502    0  0.33241314674E+02  0.10718223046E+02 -0.38745298866E+01  0.35140820826E+02  0.00000000000E+00 0. -1.
         -1    1    1    2    0  501 -0.33241314674E+02 -0.10718223046E+02  0.74276136571E+01  0.35707628753E+02  0.00000000000E+00 0.  1.
</event>
<event>
 4    1  0.6769686E+001  0.3417627E+02  0.7546771E-02  0.1386449E+00
          2   -1    0    0  502    0  0.00000000000E+00  0.00000000000E+00  0.35015444639E+02  0.35015444639E+02  0.00000000000E+00 0. -1.
         -2   -1    0    0    0  501 -0.00000000000E+00 -0.00000000000E+00 -0.37577341649E+02  0.37577341649E+02  0.00000000000E+00 0.  1.
          1    1    1    2  502    0  0.30832400574E+02 -0.14743817872E+02  0.10882706777E+02  0.35867121398E+02  0.00000000000E+00 0. -1.
         -1    1    1    2    0  501 -0.30832400574E+02  0.14743817872E+02 -0.13444603787E+02  0.36725664890E+02  0.00000000000E+00 0.  1.
</event>
<event>
 4    1  0.6769686E+001  0.2023437E+02  0.7546771E-02  0.1530483E+00
          2   -1    0    0  502    0  0.00000000000E+00  0.00000000000E+00  0.69327939113E+03  0.69327939113E+03  0.00000000000E+00 0. -1.
         -2   -1    0    0    0  501 -0.00000000000E+00 -0.00000000000E+00 -0.77932293216E+00  0.77932293216E+00  0.00000000000E+00 0.  1.
          1    1    1    2  502    0 -0.17204964205E+02  0.10649839686E+02  0.17546313272E+03  0.17662599136E+03  0.00000000000E+00 0. -1.
         -1    1    1    2    0  501  0.17204964205E+02 -0.10649839686E+02  0.51703693548E+03  0.51743272271E+03  0.00000000000E+00 0.  1.
</event>
<event>
 4    1  0.6769686E+001  0.2659034E+02  0.7546771E-02  0.1451767E+00
          2   -1    0    0  502    0  0.00000000000E+00  0.00000000000E+00  0.16101885342E+04  0.16101885342E+04  0.00000000000E+00 0.  1.
         -2   -1    0    0    0  501 -0.00000000000E+00 -0.00000000000E+00 -0.45395129228E+00  0.45395129228E+00  0.00000000000E+00 0. -1.
          1    1    1    2  502    0  0.26589981907E+02 -0.13879560614E+00  0.65924359446E+03  0.65977963233E+03  0.00000000000E+00 0.  1.
         -1    1    1    2    0  501 -0.26589981907E+02  0.13879560614E+00  0.95049098846E+03  0.95086285318E+03  0.00000000000E+00 0. -1.
</event>
<event>
 4    1  0.6769686E+001  0.2698775E+02  0.7546771E-02  0.1447731E+00
          2   -1    0    0  502    0  0.00000000000E+00  0.00000000000E+00  0.11147708722E+04  0.11147708722E+04  0.00000000000E+00 0. -1.
         -2   -1    0    0    0  501 -0.00000000000E+00 -0.00000000000E+00 -0.13042015263E+01  0.13042015263E+01  0.00000000000E+00 0.  1.
          1    1    1    2  502    0 -0.11935491492E+02 -0.24205011830E+02  0.16252016886E+03  0.16474569445E+03  0.00000000000E+00 0.  1.
         -1    1    1    2    0  501  0.11935491492E+02  0.24205011830E+02  0.95094650179E+03  0.95132937925E+03  0.00000000000E+00 0. -1.
</event>
<event>
 4    1  0.6769686E+001  0.2535626E+02  0.7546771E-02  0.1464857E+00
          2   -1    0    0  502    0  0.00000000000E+00  0.00000000000E+00  0.66909626922E+03  0.66909626922E+03  0.00000000000E+00 0.  1.
         -2   -1    0    0    0  501 -0.00000000000E+00 -0.00000000000E+00 -0.96128928344E+00  0.96128928344E+00  0.00000000000E+00 0. -1.
          1    1    1    2  502    0  0.14263897323E+02  0.20963804999E+02  0.32739420851E+03  0.32837464527E+03  0.00000000000E+00 0. -1.
         -1    1    1    2    0  501 -0.14263897323E+02 -0.20963804999E+02  0.34074077142E+03  0.34168291323E+03  0.00000000000E+00 0.  1.
</event>
<event>
 4    1  0.6769686E+001  0.2067923E+02  0.7546771E-02  0.1523894E+00
          2   -1    0    0  502    0  0.00000000000E+00  0.00000000000E+00  0.98969380351E+02  0.98969380351E+02  0.00000000000E+00 0.  1.
         -2   -1    0    0    0  501 -0.00000000000E+00 -0.00000000000E+00 -0.67431953781E+01  0.67431953781E+01  0.00000000000E+00 0. -1.
          1    1    1    2  502    0  0.18374195403E+02  0.94878661432E+01  0.77792926291E+02  0.80494534234E+02  0.00000000000E+00 0.  1.
         -1    1    1    2    0  501 -0.18374195403E+02 -0.94878661432E+01  0.14433258682E+02  0.25218041495E+02  0.00000000000E+00 0. -1.
</event>
<event>
 4    1  0.6769686E+001  0.2872907E+02  0.7546771E-02  0.1430972E+00
          2   -1    0    0  502    0  0.00000000000E+00  0.00000000000E+00  0.90592829835E+03  0.90592829835E+03  0.00000000000E+00 0. -1.
         -2   -1    0    0    0  501 -0.00000000000E+00 -0.00000000000E+00 -0.98035329865E+00  0.98035329865E+00  0.00000000000E+00 0.  1.
          1    1    1    2  502    0 -0.19876989543E+02 -0.20742823867E+02  0.33192248577E+03  0.33316346740E+03  0.00000000000E+00 0.  1.
         -1    1    1    2    0  501  0.19876989543E+02  0.20742823867E+02  0.57302545928E+03  0.57374518424E+03  0.00000000000E+00 0. -1.
</event>
<event>
 4    1  0.6769686E+001  0.3350936E+02  0.7546771E-02  0.1391357E+00
          2   -1    0    0  502    0  0.00000000000E+00  0.00000000000E+00  0.29145107547E+04  0.29145107547E+04  0.00000000000E+00 0.  1.
         -2   -1    0    0    0  501 -0.00000000000E+00 -0.00000000000E+00 -0.52470826704E+00  0.52470826704E+00  0.00000000000E+00 0. -1.
          1    1    1    2  502    0  0.21854330667E+02 -0.25402069304E+02  0.70563989369E+03  0.70643509006E+03  0.00000000000E+00 0. -1.
         -1    1    1    2    0  501 -0.21854330667E+02  0.25402069304E+02  0.22083461528E+04  0.22086003729E+04  0.00000000000E+00 0.  1.
</event>
<event>
 4    1  0.6769686E+001  0.2137847E+02  0.7546771E-02  0.1513929E+00
          2   -1    0    0  502    0  0.00000000000E+00  0.00000000000E+00  0.71318622968E+03  0.71318622968E+03  0.00000000000E+00 0.  1.
         -2   -1    0    0    0  501 -0.00000000000E+00 -0.00000000000E+00 -0.12136794794E+01  0.12136794794E+01  0.00000000000E+00 0. -1.
          1    1    1    2  502    0 -0.16241029532E+02 -0.13902079146E+02  0.11058571359E+03  0.11263320512E+03  0.00000000000E+00 0. -1.
         -1    1    1    2    0  501  0.16241029532E+02  0.13902079146E+02  0.60138683660E+03  0.60176670404E+03  0.00000000000E+00 0.  1.
</event>
<event>
 4    1  0.6769686E+001  0.4025204E+02  0.7546771E-02  0.1347015E+00
          2   -1    0    0  502    0  0.00000000000E+00  0.00000000000E+00  0.58077701456E+03  0.58077701456E+03  0.00000000000E+00 0. -1.
         -2   -1    0    0    0  501 -0.00000000000E+00 -0.00000000000E+00 -0.30127787759E+01  0.30127787759E+01  0.00000000000E+00 0.  1.
          1    1    1    2  502    0 -0.34381012898E+02 -0.20932566291E+02  0.20946445128E+03  0.21329693558E+03  0.00000000000E+00 0.  1.
         -1    1    1    2    0  501  0.34381012898E+02  0.20932566291E+02  0.36829978451E+03  0.37049285775E+03  0.00000000000E+00 0. -1.
</event>
<event>
 4    1  0.6769686E+001  0.2348844E+02  0.7546771E-02  0.1486454E+00
          2   -1    0    0  502    0  0.00000000000E+00  0.00000000000E+00  0.12267009448E+01  0.12267009448E+01  0.00000000000E+00 0.  1.
         -2   -1    0    0    0  501 -0.00000000000E+00 -0.00000000000E+00 -0.49944498767E+03  0.49944498767E+03  0.00000000000E+00 0. -1.
          1    1    1    2  502    0 -0.15116771020E+01  0.23439740751E+02 -0.17014260320E+03  0.17175625764E+03  0.00000000000E+00 0.  1.
         -1    1    1    2    0  501  0.15116771020E+01 -0.23439740751E+02 -0.32807568353E+03  0.32891543098E+03  0.00000000000E+00 0. -1.
</event>
<event>
 4    1  0.6769686E+001  0.2194955E+02  0.7546771E-02  0.1506127E+00
          2   -1    0    0  502    0  0.00000000000E+00  0.00000000000E+00  0.34866369116E+02  0.34866369116E+02  0.00000000000E+00 0.  1.
         -2   -1    0    0    0  501 -0.00000000000E+00 -0.00000000000E+00 -0.18443329706E+02  0.18443329706E+02  0.00000000000E+00 0. -1.
          1    1    1    2  502    0  0.15292732351E+02  0.15745324076E+02  0.21559904509E+02  0.30767066410E+02  0.00000000000E+00 0.  1.
         -1    1    1    2    0  501 -0.15292732351E+02 -0.15745324076E+02 -0.51368650981E+01  0.22542632412E+02  0.00000000000E+00 0. -1.
</event>
<event>
 4    1  0.6769686E+001  0.2047631E+02  0.7546771E-02  0.1526875E+00
          2   -1    0    0  502    0  0.00000000000E+00  0.00000000000E+00  0.15741150888E+03  0.15741150888E+03  0.00000000000E+00 0.  1.
         -2   -1    0    0    0  501 -0.00000000000E+00 -0.00000000000E+00 -0.41149606902E+01  0.41149606902E+01  0.00000000000E+00 0. -1.
          1    1    1    2  502    0  0.13223791400E+02  0.15633634683E+02  0.12461284201E+03  0.12628396409E+03  0.00000000000E+00 0.  1.
         -1    1    1    2    0  501 -0.13223791400E+02 -0.15633634683E+02  0.28683706184E+02  0.35242505485E+02  0.00000000000E+00 0. -1.
</event>
<event>
 4    1  0.6769686E+001  0.2790370E+02  0.7546771E-02  0.1438736E+00
          2   -1    0    0  502    0  0.00000000000E+00  0.00000000000E+00  0.50529869708E+03  0.50529869708E+03  0.00000000000E+00 0.  1.
         -2   -1    0    0    0  501 -0.00000000000E+00 -0.00000000000E+00 -0.15651808143E+01  0.15651808143E+01  0.00000000000E+00 0. -1.
          1    1    1    2  502    0 -0.92238460567E+01  0.26335090016E+02  0.22030338158E+03  0.22206349596E+03  0.00000000000E+00 0.  1.
         -1    1    1    2    0  501  0.92238460567E+01 -0.26335090016E+02  0.28343013469E+03  0.28480038194E+03  0.00000000000E+00 0. -1.
</event>
<event>
 4    1  0.6769686E+001  0.2027719E+02  0.7546771E-02  0.1529840E+00
          2   -1    0    0  502    0  0.00000000000E+00  0.00000000000E+00  0.22082081704E+03  0.22082081704E+03  0.00000000000E+00 0. -1.
         -2   -1    0    0    0  501 -0.00000000000E+00 -0.00000000000E+00 -0.18824368372E+01  0.18824368372E+01  0.00000000000E+00 0.  1.
          1    1    1    2  502    0 -0.14078430407E+02 -0.14593230161E+02  0.12107633988E+03  0.12276255393E+03  0.00000000000E+00 0.  1.
         -1    1    1    2    0  501  0.14078430407E+02  0.14593230161E+02  0.97862040316E+02  0.99940699938E+02  0.00000000000E+00 0. -1.
</event>
<event>
 4    1  0.6769686E+001  0.2248800E+02  0.7546771E-02  0.1499029E+00
          2   -1    0    0  502    0  0.00000000000E+00  0.00000000000E+00  0.20352118722E+03  0.20352118722E+03  0.00000000000E+00 0. -1.
         -2   -1    0    0    0  501 -0.00000000000E+00 -0.00000000000E+00 -0.36350456925E+01  0.36350456925E+01  0.00000000000E+00 0.  1.
          1    1    1    2  502    0 -0.17790085783E+02 -0.13755840902E+02  0.15820804750E+03  0.15979829975E+03  0.00000000000E+00 0. -1.
         -1    1    1    2    0  501  0.17790085783E+02  0.13755840902E+02  0.41678094029E+02  0.47357933158E+02  0.00000000000E+00 0.  1.
</event>
<event>
 4    1  0.6769686E+001  0.2012739E+02  0.7546771E-02  0.1532097E+00
          2   -1    0    0  502    0  0.00000000000E+00  0.00000000000E+00  0.77802844604E+03  0.77802844604E+03  0.00000000000E+00 0.  1.
         -2   -1    0    0    0  501 -0.00000000000E+00 -0.00000000000E+00 -0.62753447731E+00  0.62753447731E+00  0.00000000000E+00 0. -1.
          1    1    1    2  502    0 -0.17310343926E+01  0.20052817363E+02  0.54934722748E+03  0.54971582504E+03  0.00000000000E+00 0.  1.
         -1    1    1    2    0  501  0.17310343926E+01 -0.20052817363E+02  0.22805368409E+03  0.22894015548E+03  0.00000000000E+00 0. -1.
</event>
<event>
 4    1  0.6769686E+001  0.2215043E+02  0.7546771E-02  0.1503451E+00
          2   -1    0    0  502    0  0.00000000000E+00  0.00000000000E+00  0.10143069671E+04  0.10143069671E+04  0.00000000000E+00 0.  1.
         -2   -1    0    0    0  501 -0.00000000000E+00 -0.00000000000E+00 -0.48898850895E+00  0.48898850895E+00  0.00000000000E+00 0. -1.
          1    1    1    2  502    0  0.16589601868E+02  0.14677425490E+02  0.55957092454E+03  0.56000916180E+03  0.00000000000E+00 0.  1.
         -1    1    1    2    0  501 -0.16589601868E+02 -0.14677425490E+02  0.45424705406E+03  0.45478679381E+03  0.00000000000E+00 0. -1.
</event>
<event>
 4    1  0.6769686E+001  0.2138710E+02  0.7546771E-02  0.1513809E+00
          2   -1    0    0  502    0  0.00000000000E+00  0.00000000000E+00  0.10407702135E+04  0.10407702135E+04  0.00000000000E+00 0. -1.
         -2   -1    0    0    0  501 -0.00000000000E+00 -0.00000000000E+00 -0.14781834623E+01  0.14781834623E+01  0.00000000000E+00 0.  1.
          1    1    1    2  502    0 -0.19952349529E+02 -0.77014239589E+01  0.82807669836E+02  0.85524957564E+02  0.00000000000E+00 0.  1.
         -1    1    1    2    0  501  0.19952349529E+02  0.77014239589E+01  0.95648436023E+03  0.95672343942E+03  0.00000000000E+00 0. -1.
</event>
<event>
 4    1  0.6769686E+001  0.2097261E+02  0.7546771E-02  0.1519656E+00
          2   -1    0    0  502    0  0.00000000000E+00  0.00000000000E+00  0.12306535385E+04  0.12306535385E+04  0.00000000000E+00 0.  1.
         -2   -1    0    0    0  501 -0.00000000000E+00 -0.00000000000E+00 -0.35780390964E+00  0.35780390964E+00  0.00000000000E+00 0. -1.
          1    1    1    2  502    0 -0.20822704977E+02  0.25031004900E+01  0.63551392433E+03  0.63585988911E+03  0.00000000000E+00 0.  1.
         -1    1    1    2    0  501  0.20822704977E+02 -0.25031004900E+01  0.59478181023E+03  0.59515145327E+03  0.00000000000E+00 0. -1.
</event>
<event>
 4    1  0.6769686E+001  0.4243292E+02  0.7546771E-02  0.1334790E+00
          2   -1    0    0  502    0  0.00000000000E+00  0.00000000000E+00  0.47636630151E+02  0.47636630151E+02  0.00000000000E+00 0.  1.
         -2   -1    0    0    0  501 -0.00000000000E+00 -0.00000000000E+00 -0.10931628246E+03  0.10931628246E+03  0.00000000000E+00 0. -1.
          1    1    1    2  502    0  0.24710415977E+02  0.34495628990E+02 -0.94315384792E+02  0.10342120133E+03  0.00000000000E+00 0. -1.
         -1    1    1    2    0  501 -0.24710415977E+02 -0.34495628990E+02  0.32635732484E+02  0.53531711275E+02  0.00000000000E+00 0.  1.
</event>
<event>
 4    1  0.6769686E+001  0.2576667E+02  0.7546771E-02  0.1460407E+00
          2   -1    0    0  502    0  0.00000000000E+00  0.00000000000E+00  0.50148534996E+01  0.50148534996E+01  0.00000000000E+00 0.  1.
         -2   -1    0    0    0  501 -0.00000000000E+00 -0.00000000000E+00 -0.13356779119E+03  0.13356779119E+03  0.00000000000E+00 0. -1.
          1    1    1    2  502    0  0.22812894241E+02 -0.11978857592E+02 -0.70780589724E+02  0.75324717421E+02  0.00000000000E+00 0.  1.
         -1    1    1    2    0  501 -0.22812894241E+02  0.11978857592E+02 -0.57772347970E+02  0.63257927273E+02  0.00000000000E+00 0. -1.
</event>
<event>
 4    1  0.6769686E+001  0.4108695E+02  0.7546771E-02  0.1342231E+00
          2   -1    0    0  502    0  0.00000000000E+00  0.00000000000E+00  0.40328966084E+02  0.40328966084E+02  0.00000000000E+00 0.  1.
         -2   -1    0    0    0  501 -0.00000000000E+00 -0.00000000000E+00 -0.91263080402E+02  0.91263080402E+02  0.00000000000E+00 0. -1.
          1    1    1    2  502    0 -0.40482178118E+02  0.70235812103E+01  0.22942677669E+02  0.47058515667E+02  0.00000000000E+00 0.  1.
         -1    1    1    2    0  501  0.40482178118E+02 -0.70235812103E+01 -0.73876791988E+02  0.84533530818E+02  0.00000000000E+00 0. -1.
</event>
<event>
 4    1  0.6769686E+001  0.2666834E+02  0.7546771E-02  0.1450968E+00
          2   -1    0    0  502    0  0.00000000000E+00  0.00000000000E+00  0.24452310094E+02  0.24452310094E+02  0.00000000000E+00 0.  1.
         -2   -1    0    0    0  501 -0.00000000000E+00 -0.00000000000E+00 -0.29696019025E+02  0.29696019025E+02  0.00000000000E+00 0. -1.
          1    1    1    2  502    0 -0.24810341602E+02 -0.97799416010E+01 -0.65048110730E+01  0.27450188983E+02  0.00000000000E+00 0. -1.
         -1    1    1    2    0  501  0.24810341602E+02  0.97799416010E+01  0.12611021411E+01  0.26698140136E+02  0.00000000000E+00 0.  1.
</event>
<event>
 4    1  0.6769686E+001  0.2556114E+02  0.7546771E-02  0.1462623E+00
          2   -1    0    0  502    0  0.00000000000E+00  0.00000000000E+00  0.19918330149E+02  0.19918330149E+02  0.00000000000E+00 0. -1.
         -2   -1    0    0    0  501 -0.00000000000E+00 -0.00000000000E+00 -0.65104072177E+02  0.65104072177E+02  0.00000000000E+00 0.  1.
          1    1    1    2  502    0  0.11394104073E+02 -0.22881132646E+02 -0.52536942771E+02  0.58425184592E+02  0.00000000000E+00 0.  1.
         -1    1    1    2    0  501 -0.11394104073E+02  0.22881132646E+02  0.73512007432E+01  0.26597217734E+02  0.00000000000E+00 0. -1.
</event>
<event>
 4    1  0.6769686E+001  0.2117219E+02  0.7546771E-02  0.1516821E+00
          2   -1    0    0  502    0  0.00000000000E+00  0.00000000000E+00  0.34089954708E+02  0.34089954708E+02  0.00000000000E+00 0.  1.
         -2   -1    0    0    0  501 -0.00000000000E+00 -0.00000000000E+00 -0.59168109568E+02  0.59168109568E+02  0.00000000000E+00 0. -1.
          1    1    1    2  502    0  0.16140103681E+02  0.13702501461E+02 -0.53661614885E+02  0.57687350478E+02  0.00000000000E+00 0. -1.
         -1    1    1    2    0  501 -0.16140103681E+02 -0.13702501461E+02  0.28583460026E+02  0.35570713798E+02  0.00000000000E+00 0.  1.
</event>
<event>
 4    1  0.6769686E+001  0.2227868E+02  0.7546771E-02  0.1501760E+00
          2   -1    0    0  502    0  0.00000000000E+00  0.00000000000E+00  0.49229441795E+03  0.49229441795E+03  0.00000000000E+00 0.  1.
         -2   -1    0    0    0  501 -0.00000000000E+00 -0.00000000000E+00 -0.18835189462E+01  0.18835189462E+01  0.00000000000E+00 0. -1.
          1    1    1    2  502    0  0.14017531826E+01 -0.22234537292E+02  0.41364626186E+03  0.41424578393E+03  0.00000000000E+00 0.  1.
         -1    1    1    2    0  501 -0.14017531826E+01  0.22234537292E+02  0.76764637148E+02  0.79932152961E+02  0.00000000000E+00 0. -1.
</event>
<event>
 4    1  0.6769686E+001  0.2451951E+02  0.7546771E-02  0.1474251E+00
          2   -1    0    0  502    0  0.00000000000E+00  0.00000000000E+00  0.11246447027E+02  0.11246447027E+02  0.00000000000E+00 0.  1.
         -2   -1    0    0    0  501 -0.00000000000E+00 -0.00000000000E+00 -0.83120583483E+02  0.83120583483E+02  0.00000000000E+00 0. -1.
          1    1    1    2  502    0 -0.20782570853E+02 -0.13011186021E+02 -0.77503428987E+01  0.25715248938E+02  0.00000000000E+00 0.  1.
         -1    1    1    2    0  501  0.20782570853E+02  0.13011186021E+02 -0.64123793557E+02  0.68651781572E+02  0.00000000000E+00 0. -1.
</event>
<event>
 4    1  0.6769686E+001  0.2970512E+02  0.7546771E-02  0.1422177E+00
          2   -1    0    0  502    0  0.00000000000E+00  0.00000000000E+00  0.50105764171E+02  0.50105764171E+02  0.00000000000E+00 0. -1.
         -2   -1    0    0    0  501 -0.00000000000E+00 -0.00000000000E+00 -0.26077638448E+02  0.26077638448E+02  0.00000000000E+00 0.  1.
          1    1    1    2  502    0 -0.29681806780E+02 -0.11765531871E+01  0.33719138811E+02  0.44937448228E+02  0.00000000000E+00 0. -1.
         -1    1    1    2    0  501  0.29681806780E+02  0.11765531871E+01 -0.96910130889E+01  0.31245954391E+02  0.00000000000E+00 0.  1.
</event>
<event>
 4    1  0.6769686E+001  0.2068449E+02  0.7546771E-02  0.1523817E+00
          2   -1    0    0  502    0  0.00000000000E+00  0.00000000000E+00  0.24173746441E+01  0.24173746441E+01  0.00000000000E+00 0. -1.
         -2   -1    0    0    0  501 -0.00000000000E+00 -0.00000000000E+00 -0.18781189544E+03  0.18781189544E+03  0.00000000000E+00 0.  1.
          1    1    1    2  502    0 -0.12305301729E+02 -0.16626118430E+02 -0.69864347720E+02  0.72862029529E+02  0.00000000000E+00 0. -1.
         -1    1    1    2    0  501  0.12305301729E+02  0.16626118430E+02 -0.11553017308E+03  0.11736724056E+03  0.00000000000E+00 0.  1.
</event>
<event>
 4    1  0.6769686E+001  0.2772022E+02  0.7546771E-02  0.1440504E+00
          2   -1    0    0  502    0  0.00000000000E+00  0.00000000000E+00  0.41162254384E+02  0.41162254384E+02  0.00000000000E+00 0.  1.
         -2   -1    0    0    0  501 -0.00000000000E+00 -0.00000000000E+00 -0.19467460796E+02  0.19467460796E+02  0.00000000000E+00 0. -1.
          1    1    1    2  502    0  0.82945619129E+01  0.26450158810E+02  0.16991253446E+02  0.32513279626E+02  0.00000000000E+00 0.  1.
         -1    1    1    2    0  501 -0.82945619129E+01 -0.26450158810E+02  0.47035401423E+01  0.28116435554E+02  0.00000000000E+00 0. -1.
</event>
<event>
 4    1  0.6769686E+001  0.2468854E+02  0.7546771E-02  0.1472318E+00
          2   -1    0    0  502    0  0.00000000000E+00  0.00000000000E+00  0.19054444891E+04  0.19054444891E+04  0.00000000000E+00 0. -1.
         -2   -1    0    0    0  501 -0.00000000000E+00 -0.00000000000E+00 -0.33551139644E+00  0.33551139644E+00  0.00000000000E+00 0.  1.
          1    1    1    2  502    0  0.24582617578E+02 -0.22845339484E+01  0.74691300348E+03  0.74732092099E+03  0.00000000000E+00 0.  1.
         -1    1    1    2    0  501 -0.24582617578E+02  0.22845339484E+01  0.11581959742E+04  0.11584590795E+04  0.00000000000E+00 0. -1.
</event>
<event>
 4    1  0.6769686E+001  0.2296348E+02  0.7546771E-02  0.1492957E+00
          2   -1    0    0  502    0  0.00000000000E+00  0.00000000000E+00  0.51749611572E+03  0.51749611572E+03  0.00000000000E+00 0.  1.
         -2   -1    0    0    0  501 -0.00000000000E+00 -0.00000000000E+00 -0.10517341795E+01  0.10517341795E+01  0.00000000000E+00 0. -1.
          1    1    1    2  502    0  0.21647308788E+02 -0.76626040219E+01  0.30397282381E+03  0.30483897240E+03  0.00000000000E+00 0. -1.
         -1    1    1    2    0  501 -0.21647308788E+02  0.76626040219E+01  0.21247155774E+03  0.21370887751E+03  0.00000000000E+00 0.  1.
</event>
<event>
 4    1  0.6769686E+001  0.2343915E+02  0.7546771E-02  0.1487056E+00
          2   -1    0    0  502    0  0.00000000000E+00  0.00000000000E+00  0.96983087803E+00  0.96983087803E+00  0.00000000000E+00 0. -1.
         -2   -1    0    0    0  501 -0.00000000000E+00 -0.00000000000E+00 -0.83495002087E+03  0.83495002087E+03  0.00000000000E+00 0.  1.
          1    1    1    2  502    0 -0.22315349562E+02 -0.71707145038E+01 -0.65399035277E+03  0.65441025014E+03  0.00000000000E+00 0.  1.
         -1    1    1    2    0  501  0.22315349562E+02  0.71707145038E+01 -0.17998983723E+03  0.18150960161E+03  0.00000000000E+00 0. -1.
</event>
<event>
 4    1  0.6769686E+001  0.2784926E+02  0.7546771E-02  0.1439259E+00
          2   -1    0    0  502    0  0.00000000000E+00  0.00000000000E+00  0.25431072535E+01  0.25431072535E+01  0.00000000000E+00 0.  1.
         -2   -1    0    0    0  501 -0.00000000000E+00 -0.00000000000E+00 -0.33402116669E+03  0.33402116669E+03  0.00000000000E+00 0. -1.
          1    1    1    2  502    0  0.27784101976E+02 -0.19038921060E+01 -0.11611360053E+03  0.11940665541E+03  0.00000000000E+00 0.  1.
         -1    1    1    2    0  501 -0.27784101976E+02  0.19038921060E+01 -0.21536445891E+03  0.21715761853E+03  0.00000000000E+00 0. -1.
</event>
<event>
 4    1  0.6769686E+001  0.3322541E+02  0.7546771E-02  0.1393487E+00
          2   -1    0    0  502    0  0.00000000000E+00  0.00000000000E+00  0.19354500317E+03  0.19354500317E+03  0.00000000000E+00 0.  1.
         -2   -1    0    0    0  501 -0.00000000000E+00 -0.00000000000E+00 -0.34131083112E+02  0.34131083112E+02  0.00000000000E+00 0. -1.
          1    1    1    2  502    0 -0.14096912430E+02  0.30086627659E+02  0.18359860240E+03  0.18658074635E+03  0.00000000000E+00 0.  1.
         -1    1    1    2    0  501  0.14096912430E+02 -0.30086627659E+02 -0.24184682345E+02  0.41095339932E+02  0.00000000000E+00 0. -1.
</event>
<event>
 4    1  0.6769686E+001  0.2039070E+02  0.7546771E-02  0.1528145E+00
          2   -1    0    0  502    0  0.00000000000E+00  0.00000000000E+00  0.24778984557E+02  0.24778984557E+02  0.00000000000E+00 0. -1.
         -2   -1    0    0    0  501 -0.00000000000E+00 -0.00000000000E+00 -0.16822502459E+02  0.16822502459E+02  0.00000000000E+00 0.  1.
          1    1    1    2  502    0 -0.56660868325E+01  0.19587651289E+02  0.29273846820E+01  0.20599762233E+02  0.00000000000E+00 0.  1.
         -1    1    1    2    0  501  0.56660868325E+01 -0.19587651289E+02  0.50290974162E+01  0.21001724782E+02  0.00000000000E+00 0. -1.
</event>
<event>
 4    1  0.6769686E+001  0.2590277E+02  0.7546771E-02  0.1458953E+00
          2   -1    0    0  502    0  0.00000000000E+00  0.00000000000E+00  0.37791637563E+02  0.37791637563E+02  0.00000000000E+00 0.  1.
         -2   -1    0    0    0  501 -0.00000000000E+00 -0.00000000000E+00 -0.19701675389E+02  0.19701675389E+02  0.00000000000E+00 0. -1.
          1    1    1    2  502    0  0.79442236004E+01 -0.24654465427E+02  0.65673729929E-02  0.25902768139E+02  0.00000000000E+00 0. -1.
         -1    1    1    2    0  501 -0.79442236004E+01  0.24654465427E+02  0.18083394801E+02  0.31590544814E+02  0.00000000000E+00 0.  1.
</event>
<event>
 4    1  0.6769686E+001  0.2388781E+02  0.7546771E-02  0.1481641E+00
          2   -1    0    0  502    0  0.00000000000E+00  0.00000000000E+00  0.43533887867E+01  0.43533887867E+01  0.00000000000E+00 0.  1.
         -2   -1    0    0    0  501 -0.00000000000E+00 -0.00000000000E+00 -0.13169025634E+03  0.13169025634E+03  0.00000000000E+00 0. -1.
          1    1    1    2  502    0 -0.19015883650E+02 -0.14457648561E+02 -0.59025083657E+02  0.63675646315E+02  0.00000000000E+00 0.  1.
         -1    1    1    2    0  501  0.19015883650E+02  0.14457648561E+02 -0.68311783892E+02  0.72367998807E+02  0.00000000000E+00 0. -1.
</event>
<event>
 4    1  0.6769686E+001  0.2198330E+02  0.7546771E-02  0.1505675E+00
          2   -1    0    0  502    0  0.00000000000E+00  0.00000000000E+00  0.20871198435E+04  0.20871198435E+04  0.00000000000E+00 0. -1.
         -2   -1    0    0    0  501 -0.00000000000E+00 -0.00000000000E+00 -0.26218511629E+00  0.26218511629E+00  0.00000000000E+00 0.  1.
          1    1    1    2  502    0 -0.93785148017E+01  0.19882377136E+02  0.14002100102E+04  0.14003825685E+04  0.00000000000E+00 0. -1.
         -1    1    1    2    0  501  0.93785148017E+01 -0.19882377136E+02  0.68664764818E+03  0.68699946012E+03  0.00000000000E+00 0.  1.
</event>
<event>
 4    1  0.6769686E+001  0.9006848E+02  0.7546771E-02  0.1182228E+00
          2   -1    0    0  502    0  0.00000000000E+00  0.00000000000E+00  0.90702033394E+02  0.90702033394E+02  0.00000000000E+00 0.  1.
         -2   -1    0    0    0  501 -0.00000000000E+00 -0.00000000000E+00 -0.94234887046E+02  0.94234887046E+02  0.00000000000E+00 0. -1.
          1    1    1    2  502    0 -0.90057820407E+02  0.13855503947E+01  0.19093196687E+02  0.92069978419E+02  0.00000000000E+00 0.  1.
         -1    1    1    2    0  501  0.90057820407E+02 -0.13855503947E+01 -0.22626050338E+02  0.92866942021E+02  0.00000000000E+00 0. -1.
</event>
<event>
 4    1  0.6769686E+001  0.3816436E+02  0.7546771E-02  0.1359592E+00
          2   -1    0    0  502    0  0.00000000000E+00  0.00000000000E+00  0.30423906861E+03  0.30423906861E+03  0.00000000000E+00 0. -1.
         -2   -1    0    0    0  501 -0.00000000000E+00 -0.00000000000E+00 -0.66454856860E+01  0.66454856860E+01  0.00000000000E+00 0.  1.
          1    1    1    2  502    0  0.16383352878E+02 -0.34468886471E+02  0.23099020463E+03  0.23412174829E+03  0.00000000000E+00 0. -1.
         -1    1    1    2    0  501 -0.16383352878E+02  0.34468886471E+02  0.66603378291E+02  0.76762806006E+02  0.00000000000E+00 0.  1.
</event>
<event>
 4    1  0.6769686E+001  0.2117789E+02  0.7546771E-02  0.1516740E+00
          2   -1    0    0  502    0  0.00000000000E+00  0.00000000000E+00  0.29638852169E+03  0.29638852169E+03  0.00000000000E+00 0.  1.
         -2   -1    0    0    0  501 -0.00000000000E+00 -0.00000000000E+00 -0.22179326955E+01  0.22179326955E+01  0.00000000000E+00 0. -1.
          1    1    1    2  502    0  0.20940291944E+02  0.31634389623E+01  0.23124396048E+03  0.23221169744E+03  0.00000000000E+00 0. -1.
         -1    1    1    2    0  501 -0.20940291944E+02 -0.31634389623E+01  0.62926628521E+02  0.66394756945E+02  0.00000000000E+00 0.  1.
</event>
<event>
 4    1  0.6769686E+001  0.5656659E+02  0.7546771E-02  0.1271966E+00
          2   -1    0    0  502    0  0.00000000000E+00  0.00000000000E+00  0.12685375290E+04  0.12685375290E+04  0.00000000000E+00 0.  1.
         -2   -1    0    0    0  501 -0.00000000000E+00 -0.00000000000E+00 -0.47526260122E+01  0.47526260122E+01  0.00000000000E+00 0. -1.
          1    1    1    2  502    0 -0.47524215002E+02  0.30679435680E+02  0.19577497562E+03  0.20378326689E+03  0.00000000000E+00 0. -1.
         -1    1    1    2    0  501  0.47524215002E+02 -0.30679435680E+02  0.10680099274E+04  0.10695068881E+04  0.00000000000E+00 0.  1.
</event>
<event>
 4    1  0.6769686E+001  0.4171758E+02  0.7546771E-02  0.1338704E+00
          2   -1    0    0  502    0  0.00000000000E+00  0.00000000000E+00  0.16478118633E+02  0.16478118633E+02  0.00000000000E+00 0. -1.
         -2   -1    0    0    0  501 -0.00000000000E+00 -0.00000000000E+00 -0.10844129646E+03  0.10844129646E+03  0.00000000000E+00 0.  1.
          1    1    1    2  502    0 -0.16227439246E+02 -0.38432106401E+02 -0.56062917559E+02  0.69881380296E+02  0.00000000000E+00 0. -1.
         -1    1    1    2    0  501  0.16227439246E+02  0.38432106401E+02 -0.35900260265E+02  0.55038034794E+02  0.00000000000E+00 0.  1.
</event>
<event>
 4    1  0.6769686E+001  0.3002501E+02  0.7546771E-02  0.1419379E+00
          2   -1    0    0  502    0  0.00000000000E+00  0.00000000000E+00  0.13268168473E+03  0.13268168473E+03  0.00000000000E+00 0. -1.
         -2   -1    0    0    0  501 -0.00000000000E+00 -0.00000000000E+00 -0.72915961818E+01  0.72915961818E+01  0.00000000000E+00 0.  1.
          1    1    1    2  502    0 -0.29939559048E+02  0.22635724614E+01  0.44420788640E+02  0.53616298079E+02  0.00000000000E+00 0.  1.
         -1    1    1    2    0  501  0.29939559048E+02 -0.22635724614E+01  0.80969299905E+02  0.86356982829E+02  0.00000000000E+00 0. -1.
</event>
<event>
 4    1  0.6769686E+001  0.2156914E+02  0.7546771E-02  0.1511292E+00
          2   -1    0    0  502    0  0.00000000000E+00  0.00000000000E+00  0.85706290656E+03  0.85706290656E+03  0.00000000000E+00 0.  1.
         -2   -1    0    0    0  501 -0.00000000000E+00 -0.00000000000E+00 -0.86329459747E+00  0.86329459747E+00  0.00000000000E+00 0. -1.
          1    1    1    2  502    0  0.13647553371E+02 -0.16702460216E+02  0.16673951880E+03  0.16812880485E+03  0.00000000000E+00 0. -1.
         -1    1    1    2    0  501 -0.13647553371E+02  0.16702460216E+02  0.68946009317E+03  0.68979739631E+03  0.00000000000E+00 0.  1.
</event>
<event>
 4    1  0.6769686E+001  0.2699247E+02  0.7546771E-02  0.1447684E+00
          2   -1    0    0  502    0  0.00000000000E+00  0.00000000000E+00  0.73143946594E+03  0.73143946594E+03  0.00000000000E+00 0.  1.
         -2   -1    0    0    0  501 -0.00000000000E+00 -0.00000000000E+00 -0.10207735851E+01  0.10207735851E+01  0.00000000000E+00 0. -1.
          1    1    1    2  502    0  0.13891065121E+02  0.23143724459E+02  0.30828167714E+03  0.30946112217E+03  0.00000000000E+00 0. -1.
         -1    1    1    2    0  501 -0.13891065121E+02 -0.23143724459E+02  0.42213701522E+03  0.42299911736E+03  0.00000000000E+00 0.  1.
</event>
<event>
 4    1  0.6769686E+001  0.2602683E+02  0.7546771E-02  0.1457637E+00
          2   -1    0    0  502    0  0.00000000000E+00  0.00000000000E+00  0.40244699404E+03  0.40244699404E+03  0.00000000000E+00 0. -1.
         -2   -1    0    0    0  501 -0.00000000000E+00 -0.00000000000E+00 -0.23012157663E+01  0.23012157663E+01  0.00000000000E+00 0.  1.
          1    1    1    2  502    0  0.17351102359E+02 -0.19399355728E+02  0.95196267651E+02  0.98690045751E+02  0.00000000000E+00 0. -1.
         -1    1    1    2    0  501 -0.17351102359E+02  0.19399355728E+02  0.30494951063E+03  0.30605816406E+03  0.00000000000E+00 0.  1.
</event>
<event>
 4    1  0.6769686E+001  0.2277101E+02  0.7546771E-02  0.1495394E+00
          2   -1    0    0  502    0  0.00000000000E+00  0.00000000000E+00  0.12944942541E+01  0.12944942541E+01  0.00000000000E+00 0.  1.
         -2   -1    0    0    0  501 -0.00000000000E+00 -0.00000000000E+00 -0.45938661585E+03  0.45938661585E+03  0.00000000000E+00 0. -1.
          1    1    1    2  502    0  0.13388901299E+02 -0.18418909016E+02 -0.14661729225E+03  0.14837502914E+03  0.00000000000E+00 0.  1.
         -1    1    1    2    0  501 -0.13388901299E+02  0.18418909016E+02 -0.31147482935E+03  0.31230608096E+03  0.00000000000E+00 0. -1.
</event>
<event>
 4    1  0.6769686E+001  0.3329230E+02  0.7546771E-02  0.1392983E+00
          2   -1    0    0  502    0  0.00000000000E+00  0.00000000000E+00  0.65649404745E+03  0.65649404745E+03  0.00000000000E+00 0.  1.
         -2   -1    0    0    0  501 -0.00000000000E+00 -0.00000000000E+00 -0.22819037259E+01  0.22819037259E+01  0.00000000000E+00 0. -1.
          1    1    1    2  502    0  0.19621503329E+02  0.26895612405E+02  0.49510136169E+03  0.49621944310E+03  0.00000000000E+00 0.  1.
         -1    1    1    2    0  501 -0.19621503329E+02 -0.26895612405E+02  0.15911078203E+03  0.16255650808E+03  0.00000000000E+00 0. -1.
</event>
<event>
 4    1  0.6769686E+001  0.3987967E+02  0.7546771E-02  0.1349192E+00
          2   -1    0    0  502    0  0.00000000000E+00  0.00000000000E+00  0.13590326781E+04  0.13590326781E+04  0.00000000000E+00 0. -1.
         -2   -1    0    0    0  501 -0.00000000000E+00 -0.00000000000E+00 -0.15740727977E+01  0.15740727977E+01  0.00000000000E+00 0.  1.
          1    1    1    2  502    0  0.33936069201E+02  0.20945918181E+02  0.10233119745E+04  0.10240887586E+04  0.00000000000E+00 0. -1.
         -1    1    1    2    0  501 -0.33936069201E+02 -0.20945918181E+02  0.33414663075E+03  0.33651799227E+03  0.00000000000E+00 0.  1.
</event>
<event>
 4    1  0.6769686E+001  0.3212346E+02  0.7546771E-02  0.1401999E+00
          2   -1    0    0  502    0  0.00000000000E+00  0.00000000000E+00  0.18510513431E+03  0.18510513431E+03  0.00000000000E+00 0.  1.
         -2   -1    0    0    0  501 -0.00000000000E+00 -0.00000000000E+00 -0.77111107141E+01  0.77111107141E+01  0.00000000000E+00 0. -1.
          1    1    1    2  502    0  0.15601757146E+02 -0.28080280686E+02  0.13944177980E+03  0.14309411918E+03  0.00000000000E+00 0. -1.
         -1    1    1    2    0  501 -0.15601757146E+02  0.28080280686E+02  0.37952243793E+02  0.49722125843E+02  0.00000000000E+00 0.  1.
</event>
<event>
 4    1  0.6769686E+001  0.3776416E+02  0.7546771E-02  0.1362110E+00
          2   -1    0    0  502    0  0.00000000000E+00  0.00000000000E+00  0.15254745958E+02  0.15254745958E+02  0.00000000000E+00 0. -1.
         -2   -1    0    0    0  501 -0.00000000000E+00 -0.00000000000E+00 -0.16639369587E+03  0.16639369587E+03  0.00000000000E+00 0.  1.
          1    1    1    2  502    0 -0.37186205217E+02  0.65816274036E+01 -0.13568889193E+03  0.14084604031E+03  0.00000000000E+00 0.  1.
         -1    1    1    2    0  501  0.37186205217E+02 -0.65816274036E+01 -0.15450057977E+02  0.40802401513E+02  0.00000000000E+00 0. -1.
</event>
<event>
 4    1  0.6769686E+001  0.2344314E+02  0.7546771E-02  0.1487007E+00
          2   -1    0    0  502    0  0.00000000000E+00  0.00000000000E+00  0.54871701077E+03  0.54871701077E+03  0.00000000000E+00 0. -1.
         -2   -1    0    0    0  501 -0.00000000000E+00 -0.00000000000E+00 -0.13497802369E+01  0.13497802369E+01  0.00000000000E+00 0.  1.
          1    1    1    2  502    0 -0.16196313191E+02  0.16948753495E+02  0.41337577779E+03  0.41403999139E+03  0.00000000000E+00 0. -1.
         -1    1    1    2    0  501  0.16196313191E+02 -0.16948753495E+02  0.13399145274E+03  0.13602679961E+03  0.00000000000E+00 0.  1.
</event>
<event>
 4    1  0.6769686E+001  0.3281716E+02  0.7546771E-02  0.1396595E+00
          2   -1    0    0  502    0  0.00000000000E+00  0.00000000000E+00  0.40309011718E+03  0.40309011718E+03  0.00000000000E+00 0. -1.
         -2   -1    0    0    0  501 -0.00000000000E+00 -0.00000000000E+00 -0.27331578014E+01  0.27331578014E+01  0.00000000000E+00 0.  1.
          1    1    1    2  502    0  0.28914826057E+02 -0.15520919694E+02  0.16976978262E+03  0.17291253629E+03  0.00000000000E+00 0.  1.
         -1    1    1    2    0  501 -0.28914826057E+02  0.15520919694E+02  0.23058717676E+03  0.23291073870E+03  0.00000000000E+00 0. -1.
</event>
<event>
 4    1  0.6769686E+001  0.2516171E+02  0.7546771E-02  0.1467002E+00
          2   -1    0    0  502    0  0.00000000000E+00  0.00000000000E+00  0.12801060421E+04  0.12801060421E+04  0.00000000000E+00 0. -1.
         -2   -1    0    0    0  501 -0.00000000000E+00 -0.00000000000E+00 -0.50413694293E+00  0.50413694293E+00  0.00000000000E+00 0.  1.
          1    1    1    2  502    0  0.21669479964E+02 -0.12788473757E+02  0.55162849547E+03  0.55220205399E+03  0.00000000000E+00 0.  1.
         -1    1    1    2    0  501 -0.21669479964E+02  0.12788473757E+02  0.72797340971E+03  0.72840812507E+03  0.00000000000E+00 0. -1.
</event>
<event>
 4    1  0.6769686E+001  0.3287380E+02  0.7546771E-02  0.1396160E+00
          2   -1    0    0  502    0  0.00000000000E+00  0.00000000000E+00  0.27392769015E+03  0.27392769015E+03  0.00000000000E+00 0. -1.
         -2   -1    0    0    0  501 -0.00000000000E+00 -0.00000000000E+00 -0.60273675137E+01  0.60273675137E+01  0.00000000000E+00 0.  1.
          1    1    1    2  502    0  0.20008141825E+02 -0.26083729278E+02  0.51677184504E+02  0.61247188267E+02  0.00000000000E+00 0.  1.
         -1    1    1    2    0  501 -0.20008141825E+02  0.26083729278E+02  0.21622313813E+03  0.21870786939E+03  0.00000000000E+00 0. -1.
</event>
<event>
 4    1  0.6769686E+001  0.3147274E+02  0.7546771E-02  0.1407216E+00
          2   -1    0    0  502    0  0.00000000000E+00  0.00000000000E+00  0.39434613538E+03  0.39434613538E+03  0.00000000000E+00 0. -1.
         -2   -1    0    0    0  501 -0.00000000000E+00 -0.00000000000E+00 -0.69353791996E+01  0.69353791996E+01  0.00000000000E+00 0.  1.
          1    1    1    2  502    0 -0.91972002222E+01  0.30098913202E+02  0.35394472198E+03  0.35534124343E+03  0.00000000000E+00 0. -1.
         -1    1    1    2    0  501  0.91972002222E+01 -0.30098913202E+02  0.33466034203E+02  0.45940271148E+02  0.00000000000E+00 0.  1.
</event>
<event>
 4    1  0.6769686E+001  0.3189879E+02  0.7546771E-02  0.1403783E+00
          2   -1    0    0  502    0  0.00000000000E+00  0.00000000000E+00  0.23124379132E+03  0.23124379132E+03  0.00000000000E+00 0.  1.
         -2   -1    0    0    0  501 -0.00000000000E+00 -0.00000000000E+00 -0.51749432504E+01  0.51749432504E+01  0.00000000000E+00 0. -1.
          1    1    1    2  502    0 -0.24526193117E+02  0.20396043359E+02  0.15877074921E+03  0.16194345784E+03  0.00000000000E+00 0.  1.
         -1    1    1    2    0  501  0.24526193117E+02 -0.20396043359E+02  0.67298098865E+02  0.74475276732E+02  0.00000000000E+00 0. -1.
</event>
<event>
 4    1  0.6769686E+001  0.2373366E+02  0.7546771E-02  0.1483485E+00
          2   -1    0    0  502    0  0.00000000000E+00  0.00000000000E+00  0.25984431858E+03  0.25984431858E+03  0.00000000000E+00 0. -1.
         -2   -1    0    0    0  501 -0.00000000000E+00 -0.00000000000E+00 -0.21985013330E+01  0.21985013330E+01  0.00000000000E+00 0.  1.
          1    1    1    2  502    0  0.13367207851E+02  0.19611330447E+02  0.14430986212E+03  0.14624849685E+03  0.00000000000E+00 0.  1.
         -1    1    1    2    0  501 -0.13367207851E+02 -0.19611330447E+02  0.11333595513E+03  0.11579432306E+03  0.00000000000E+00 0. -1.
</event>
<event>
 4    1  0.6769686E+001  0.2729398E+02  0.7546771E-02  0.1444677E+00
          2   -1    0    0  502    0  0.00000000000E+00  0.00000000000E+00  0.47439484783E+03  0.47439484783E+03  0.00000000000E+00 0.  1.
         -2   -1    0    0    0  501 -0.00000000000E+00 -0.00000000000E+00 -0.15703700065E+01  0.15703700065E+01  0.00000000000E+00 0. -1.
          1    1    1    2  502    0 -0.26385943728E+02  0.69816285229E+01  0.23537041915E+03  0.23694766379E+03  0.00000000000E+00 0.  1.
         -1    1    1    2    0  501  0.26385943728E+02 -0.69816285229E+01  0.23745405867E+03  0.23901755405E+03  0.00000000000E+00 0. -1.
</event>
<event>
 4    1  0.6769686E+001  0.3601897E+02  0.7546771E-02  0.1373538E+00
          2   -1    0    0  502    0  0.00000000000E+00  0.00000000000E+00  0.24667894061E+01  0.24667894061E+01  0.00000000000E+00 0. -1.
         -2   -1    0    0    0  501 -0.00000000000E+00 -0.00000000000E+00 -0.14008817589E+04  0.14008817589E+04  0.00000000000E+00 0.  1.
          1    1    1    2  502    0 -0.33243394224E+02  0.13865169380E+02 -0.14467613866E+03  0.14909242529E+03  0.00000000000E+00 0. -1.
         -1    1    1    2    0  501  0.33243394224E+02 -0.13865169380E+02 -0.12537388309E+04  0.12542561230E+04  0.00000000000E+00 0.  1.
</event>
<event>
 4    1  0.6769686E+001  0.2354633E+02  0.7546771E-02  0.1485749E+00
          2   -1    0    0  502    0  0.00000000000E+00  0.00000000000E+00  0.11099723061E+03  0.11099723061E+03  0.00000000000E+00 0. -1.
         -2   -1    0    0    0  501 -0.00000000000E+00 -0.00000000000E+00 -0.51287114869E+01  0.51287114869E+01  0.00000000000E+00 0.  1.
          1    1    1    2  502    0 -0.15694887595E+02  0.17552786050E+02  0.62309870016E+02  0.66610432337E+02  0.00000000000E+00 0. -1.
         -1    1    1    2    0  501  0.15694887595E+02 -0.17552786050E+02  0.43558649111E+02  0.49515509763E+02  0.00000000000E+00 0.  1.
</event>
<event>
 4    1  0.6769686E+001  0.2072696E+02  0.7546771E-02  0.1523199E+00
          2   -1    0    0  502    0  0.00000000000E+00  0.00000000000E+00  0.18580439311E+04  0.18580439311E+04  0.00000000000E+00 0. -1.
         -2   -1    0    0    0  501 -0.00000000000E+00 -0.00000000000E+00 -0.39413696166E+00  0.39413696166E+00  0.00000000000E+00 0.  1.
          1    1    1    2  502    0 -0.18920506550E+02  0.84629435802E+01  0.15262518244E+04  0.15263925571E+04  0.00000000000E+00 0. -1.
         -1    1    1    2    0  501  0.18920506550E+02 -0.84629435802E+01  0.33139796972E+03  0.33204551091E+03  0.00000000000E+00 0.  1.
</event>
<event>
 4    1  0.6769686E+001  0.3158195E+02  0.7546771E-02  0.1406330E+00
          2   -1    0    0  502    0  0.00000000000E+00  0.00000000000E+00  0.13652674539E+04  0.13652674539E+04  0.00000000000E+00 0.  1.
         -2   -1    0    0    0  501 -0.00000000000E+00 -0.00000000000E+00 -0.10436733794E+01  0.10436733794E+01  0.00000000000E+00 0. -1.
          1    1    1    2  502    0 -0.11129617746E+02  0.29555896002E+02  0.10562941975E+04  0.10567662235E+04  0.00000000000E+00 0.  1.
         -1    1    1    2    0  501  0.11129617746E+02 -0.29555896002E+02  0.30792958303E+03  0.30954490382E+03  0.00000000000E+00 0. -1.
</event>
<event>
 4    1  0.6769686E+001  0.2004127E+02  0.7546771E-02  0.1533406E+00
          2   -1    0    0  502    0  0.00000000000E+00  0.00000000000E+00  0.81999803152E+02  0.81999803152E+02  0.00000000000E+00 0. -1.
         -2   -1    0    0    0  501 -0.00000000000E+00 -0.00000000000E+00 -0.49923226862E+01  0.49923226862E+01  0.00000000000E+00 0.  1.
          1    1    1    2  502    0  0.13932899663E+02 -0.14405792672E+02  0.44475664261E+02  0.48782550845E+02  0.00000000000E+00 0.  1.
         -1    1    1    2    0  501 -0.13932899663E+02  0.14405792672E+02  0.32531816205E+02  0.38209574993E+02  0.00000000000E+00 0. -1.
</event>
<event>
 4    1  0.6769686E+001  0.3405579E+02  0.7546771E-02  0.1387326E+00
          2   -1    0    0  502    0  0.00000000000E+00  0.00000000000E+00  0.62864264946E+02  0.62864264946E+02  0.00000000000E+00 0. -1.
         -2   -1    0    0    0  501 -0.00000000000E+00 -0.00000000000E+00 -0.19875933729E+02  0.19875933729E+02  0.00000000000E+00 0.  1.
          1    1    1    2  502    0 -0.11297467115E+02 -0.32127309651E+02  0.10410309266E+02  0.35611393228E+02  0.00000000000E+00 0. -1.
         -1    1    1    2    0  501  0.11297467115E+02  0.32127309651E+02  0.32578021951E+02  0.47128805447E+02  0.00000000000E+00 0.  1.
</event>
<event>
 4    1  0.6769686E+001  0.3155865E+02  0.7546771E-02  0.1406519E+00
          2   -1    0    0  502    0  0.00000000000E+00  0.00000000000E+00  0.12482132125E+02  0.12482132125E+02  0.00000000000E+00 0.  1.
         -2   -1    0    0    0  501 -0.00000000000E+00 -0.00000000000E+00 -0.33343347564E+03  0.33343347564E+03  0.00000000000E+00 0. -1.
          1    1    1    2  502    0 -0.10333256942E+02  0.29818992121E+02 -0.31132641956E+03  0.31292185607E+03  0.00000000000E+00 0. -1.
         -1    1    1    2    0  501  0.10333256942E+02 -0.29818992121E+02 -0.96249239629E+01  0.32993751703E+02  0.00000000000E+00 0.  1.
</event>
<event>
 4    1  0.6769686E+001  0.2964279E+02  0.7546771E-02  0.1422726E+00
          2   -1    0    0  502    0  0.00000000000E+00  0.00000000000E+00  0.12833290746E+04  0.12833290746E+04  0.00000000000E+00 0.  1.
         -2   -1    0    0    0  501 -0.00000000000E+00 -0.00000000000E+00 -0.70447802798E+00  0.70447802798E+00  0.00000000000E+00 0. -1.
          1    1    1    2  502    0  0.22750241589E+02 -0.19003194013E+02  0.53373793524E+03  0.53456045345E+03  0.00000000000E+00 0. -1.
         -1    1    1    2    0  501 -0.22750241589E+02  0.19003194013E+02  0.74888666128E+03  0.74947309913E+03  0.00000000000E+00 0.  1.
</event>
<event>
 4    1  0.6769686E+001  0.2398160E+02  0.7546771E-02  0.1480527E+00
          2   -1    0    0  502    0  0.00000000000E+00  0.00000000000E+00  0.12698664636E+01  0.12698664636E+01  0.00000000000E+00 0. -1.
         -2   -1    0    0    0  501 -0.00000000000E+00 -0.00000000000E+00 -0.64805805886E+03  0.64805805886E+03  0.00000000000E+00 0.  1.
          1    1    1    2  502    0  0.51582188796E+01 -0.23420283791E+02 -0.14522790962E+03  0.14719464205E+03  0.00000000000E+00 0.  1.
         -1    1    1    2    0  501 -0.51582188796E+01  0.23420283791E+02 -0.50156028278E+03  0.50213328328E+03  0.00000000000E+00 0. -1.
</event>
<event>
 4    1  0.6769686E+001  0.2712749E+02  0.7546771E-02  0.1446332E+00
          2   -1    0    0  502    0  0.00000000000E+00  0.00000000000E+00  0.14232600302E+04  0.14232600302E+04  0.00000000000E+00 0.  1.
         -2   -1    0    0    0  501 -0.00000000000E+00 -0.00000000000E+00 -0.52879307293E+00  0.52879307293E+00  0.00000000000E+00 0. -1.
          1    1    1    2  502    0 -0.15515156358E+02  0.22252657478E+02  0.81743949732E+03  0.81788949902E+03  0.00000000000E+00 0.  1.
         -1    1    1    2    0  501  0.15515156358E+02 -0.22252657478E+02  0.60529173980E+03  0.60589932424E+03  0.00000000000E+00 0. -1.
</event>
<event>
 4    1  0.6769686E+001  0.3116444E+02  0.7546771E-02  0.1409740E+00
          2   -1    0    0  502    0  0.00000000000E+00  0.00000000000E+00  0.17105587614E+03  0.17105587614E+03  0.00000000000E+00 0.  1.
         -2   -1    0    0    0  501 -0.00000000000E+00 -0.00000000000E+00 -0.15494846689E+02  0.15494846689E+02  0.00000000000E+00 0. -1.
          1    1    1    2  502    0 -0.31090172665E+02 -0.21501973747E+01  0.35361354570E+01  0.31364413577E+02  0.00000000000E+00 0. -1.
         -1    1    1    2    0  501  0.31090172665E+02  0.21501973747E+01  0.15202489399E+03  0.15518630925E+03  0.00000000000E+00 0.  1.
</event>
<event>
 4    1  0.6769686E+001  0.5086234E+02  0.7546771E-02  0.1294476E+00
          2   -1    0    0  502    0  0.00000000000E+00  0.00000000000E+00  0.17876533754E+03  0.17876533754E+03  0.00000000000E+00 0. -1.
         -2   -1    0    0    0  501 -0.00000000000E+00 -0.00000000000E+00 -0.24111155307E+02  0.24111155307E+02  0.00000000000E+00 0.  1.
          1    1    1    2  502    0  0.24722682885E+02 -0.44449594598E+02  0.14146674833E+03  0.15033235976E+03  0.00000000000E+00 0. -1.
         -1    1    1    2    0  501 -0.24722682885E+02  0.44449594598E+02  0.13187433907E+02  0.52544133088E+02  0.00000000000E+00 0.  1.
</event>
<event>
 4    1  0.6769686E+001  0.2885928E+02  0.7546771E-02  0.1429775E+00
          2   -1    0    0  502    0  0.00000000000E+00  0.00000000000E+00  0.69179867216E+03  0.69179867216E+03  0.00000000000E+00 0. -1.
         -2   -1    0    0    0  501 -0.00000000000E+00 -0.00000000000E+00 -0.12241198300E+01  0.12241198300E+01  0.00000000000E+00 0.  1.
          1    1    1    2  502    0 -0.80497781302E+00 -0.28848050349E+02  0.38981903272E+03  0.39088583534E+03  0.00000000000E+00 0.  1.
         -1    1    1    2    0  501  0.80497781302E+00  0.28848050349E+02  0.30075551962E+03  0.30213695666E+03  0.00000000000E+00 0. -1.
</event>
<event>
 4    1  0.6769686E+001  0.2967035E+02  0.7546771E-02  0.1422483E+00
          2   -1    0    0  502    0  0.00000000000E+00  0.00000000000E+00  0.65592039980E+03  0.65592039980E+03  0.00000000000E+00 0.  1.
         -2   -1    0    0    0  501 -0.00000000000E+00 -0.00000000000E+00 -0.17431289467E+01  0.17431289467E+01  0.00000000000E+00 0. -1.
          1    1    1    2  502    0  0.29631964242E+02  0.15087518731E+01  0.16937062526E+03  0.17194981343E+03  0.00000000000E+00 0. -1.
         -1    1    1    2    0  501 -0.29631964242E+02 -0.15087518731E+01  0.48480664559E+03  0.48571371531E+03  0.00000000000E+00 0.  1.
</event>
<event>
 4    1  0.6769686E+001  0.2154828E+02  0.7546771E-02  0.1511579E+00
          2   -1    0    0  502    0  0.00000000000E+00  0.00000000000E+00  0.73708418031E+03  0.73708418031E+03  0.00000000000E+00 0.  1.
         -2   -1    0    0    0  501 -0.00000000000E+00 -0.00000000000E+00 -0.64552779286E+00  0.64552779286E+00  0.00000000000E+00 0. -1.
          1    1    1    2  502    0  0.65456971605E+01  0.20530036406E+02  0.31092415755E+03  0.31166995410E+03  0.00000000000E+00 0. -1.
         -1    1    1    2    0  501 -0.65456971605E+01 -0.20530036406E+02  0.42551449497E+03  0.42605975400E+03  0.00000000000E+00 0.  1.
</event>
<event>
 4    1  0.6769686E+001  0.3569984E+02  0.7546771E-02  0.1375709E+00
          2   -1    0    0  502    0  0.00000000000E+00  0.00000000000E+00  0.89183554594E+03  0.89183554594E+03  0.00000000000E+00 0. -1.
         -2   -1    0    0    0  501 -0.00000000000E+00 -0.00000000000E+00 -0.17323021530E+01  0.17323021530E+01  0.00000000000E+00 0.  1.
          1    1    1    2  502    0  0.13592004660E+02 -0.33011152367E+02  0.63198493837E+03  0.63299244948E+03  0.00000000000E+00 0. -1.
         -1    1    1    2    0  501 -0.13592004660E+02  0.33011152367E+02  0.25811830541E+03  0.26057539861E+03  0.00000000000E+00 0.  1.
</event>
<event>
 4    1  0.6769686E+001  0.1679146E+03  0.7546771E-02  0.1080551E+00
          2   -1    0    0  502    0  0.00000000000E+00  0.00000000000E+00  0.23297084709E+03  0.23297084709E+03  0.00000000000E+00 0.  1.
         -2   -1    0    0    0  501 -0.00000000000E+00 -0.00000000000E+00 -0.58266225061E+03  0.58266225061E+03  0.00000000000E+00 0. -1.
          1    1    1    2  502    0  0.49875644041E+02  0.16033632113E+03  0.18815443503E+03  0.25218526357E+03  0.00000000000E+00 0.  1.
         -1    1    1    2    0  501 -0.49875644041E+02 -0.16033632113E+03 -0.53784583855E+03  0.56344783413E+03  0.00000000000E+00 0. -1.
</event>
<event>
 4    1  0.6769686E+001  0.3010137E+02  0.7546771E-02  0.1418718E+00
          2   -1    0    0  502    0  0.00000000000E+00  0.00000000000E+00  0.85629184391E+02  0.85629184391E+02  0.00000000000E+00 0. -1.
         -2   -1    0    0    0  501 -0.00000000000E+00 -0.00000000000E+00 -0.16665637906E+02  0.16665637906E+02  0.00000000000E+00 0.  1.
          1    1    1    2  502    0 -0.21471415207E+02  0.21096701026E+02  0.65385381387E+02  0.71981529328E+02  0.00000000000E+00 0. -1.
         -1    1    1    2    0  501  0.21471415207E+02 -0.21096701026E+02  0.35781650976E+01  0.30313292969E+02  0.00000000000E+00 0.  1.
</event>
<event>
 4    1  0.6769686E+001  0.2931123E+02  0.7546771E-02  0.1425678E+00
          2   -1    0    0  502    0  0.00000000000E+00  0.00000000000E+00  0.11645441500E+04  0.11645441500E+04  0.00000000000E+00 0.  1.
         -2   -1    0    0    0  501 -0.00000000000E+00 -0.00000000000E+00 -0.84297006217E+00  0.84297006217E+00  0.00000000000E+00 0. -1.
          1    1    1    2  502    0 -0.28948403115E+02  0.45976027185E+01  0.78771135840E+03  0.78825651418E+03  0.00000000000E+00 0.  1.
         -1    1    1    2    0  501  0.28948403115E+02 -0.45976027185E+01  0.37598982157E+03  0.37713060592E+03  0.00000000000E+00 0. -1.
</event>
<event>
 4    1  0.6769686E+001  0.2545732E+02  0.7546771E-02  0.1463752E+00
          2   -1    0    0  502    0  0.00000000000E+00  0.00000000000E+00  0.97594313973E+03  0.97594313973E+03  0.00000000000E+00 0. -1.
         -2   -1    0    0    0  501 -0.00000000000E+00 -0.00000000000E+00 -0.68690993902E+00  0.68690993902E+00  0.00000000000E+00 0.  1.
          1    1    1    2  502    0 -0.24958894453E+02  0.50128689186E+01  0.39854702356E+03  0.39935924336E+03  0.00000000000E+00 0.  1.
         -1    1    1    2    0  501  0.24958894453E+02 -0.50128689186E+01  0.57670920624E+03  0.57727080632E+03  0.00000000000E+00 0. -1.
</event>
<event>
 4    1  0.6769686E+001  0.3680520E+02  0.7546771E-02  0.1368298E+00
          2   -1    0    0  502    0  0.00000000000E+00  0.00000000000E+00  0.89270746177E+03  0.89270746177E+03  0.00000000000E+00 0.  1.
         -2   -1    0    0    0  501 -0.00000000000E+00 -0.00000000000E+00 -0.17707689803E+01  0.17707689803E+01  0.00000000000E+00 0. -1.
          1    1    1    2  502    0  0.26310567145E+02 -0.25736686310E+02  0.61463237882E+03  0.61573337092E+03  0.00000000000E+00 0.  1.
         -1    1    1    2    0  501 -0.26310567145E+02  0.25736686310E+02  0.27630431397E+03  0.27874485983E+03  0.00000000000E+00 0. -1.
</event>
<event>
 4    1  0.6769686E+001  0.2256006E+02  0.7546771E-02  0.1498098E+00
          2   -1    0    0  502    0  0.00000000000E+00  0.00000000000E+00  0.19611933708E+03  0.19611933708E+03  0.00000000000E+00 0.  1.
         -2   -1    0    0    0  501 -0.00000000000E+00 -0.00000000000E+00 -0.31215420865E+01  0.31215420865E+01  0.00000000000E+00 0. -1.
          1    1    1    2  502    0 -0.22422020876E+02 -0.24918159178E+01  0.55589347998E+02  0.59992764377E+02  0.00000000000E+00 0. -1.
         -1    1    1    2    0  501  0.22422020876E+02  0.24918159178E+01  0.13740844699E+03  0.13924811479E+03  0.00000000000E+00 0.  1.
</event>
<event>
 4    1  0.6769686E+001  0.3308107E+02  0.7546771E-02  0.1394580E+00
          2   -1    0    0  502    0  0.00000000000E+00  0.00000000000E+00  0.24972937989E+03  0.24972937989E+03  0.00000000000E+00 0.  1.
         -2   -1    0    0    0  501 -0.00000000000E+00 -0.00000000000E+00 -0.13807686777E+02  0.13807686777E+02  0.00000000000E+00 0. -1.
          1    1    1    2  502    0  0.31728197384E+02  0.93636995823E+01  0.22682972826E+03  0.22922932404E+03  0.00000000000E+00 0.  1.
         -1    1    1    2    0  501 -0.31728197384E+02 -0.93636995823E+01  0.90919648540E+01  0.34307742625E+02  0.00000000000E+00 0. -1.
</event>
<event>
 4    1  0.6769686E+001  0.2605221E+02  0.7546771E-02  0.1457368E+00
          2   -1    0    0  502    0  0.00000000000E+00  0.00000000000E+00  0.16942365024E+04  0.16942365024E+04  0.00000000000E+00 0.  1.
         -2   -1    0    0    0  501 -0.00000000000E+00 -0.00000000000E+00 -0.45058761201E+00  0.45058761201E+00  0.00000000000E+00 0. -1.
          1    1    1    2  502    0 -0.22820219446E+02  0.12568025036E+02  0.11291107323E+04  0.11294112464E+04  0.00000000000E+00 0.  1.
         -1    1    1    2    0  501  0.22820219446E+02 -0.12568025036E+02  0.56467518245E+03  0.56527584359E+03  0.00000000000E+00 0. -1.
</event>
<event>
 4    1  0.6769686E+001  0.2271865E+02  0.7546771E-02  0.1496062E+00
          2   -1    0    0  502    0  0.00000000000E+00  0.00000000000E+00  0.73613154446E+02  0.73613154446E+02  0.00000000000E+00 0. -1.
         -2   -1    0    0    0  501 -0.00000000000E+00 -0.00000000000E+00 -0.74399072113E+01  0.74399072113E+01  0.00000000000E+00 0.  1.
          1    1    1    2  502    0  0.22422938675E+02  0.36536386160E+01  0.42811711768E+02  0.48466276094E+02  0.00000000000E+00 0. -1.
         -1    1    1    2    0  501 -0.22422938675E+02 -0.36536386160E+01  0.23361535467E+02  0.32586785563E+02  0.00000000000E+00 0.  1.
</event>
<event>
 4    1  0.6769686E+001  0.3668015E+02  0.7546771E-02  0.1369121E+00
          2   -1    0    0  502    0  0.00000000000E+00  0.00000000000E+00  0.27035695526E+03  0.27035695526E+03  0.00000000000E+00 0.  1.
         -2   -1    0    0    0  501 -0.00000000000E+00 -0.00000000000E+00 -0.58183872328E+01  0.58183872328E+01  0.00000000000E+00 0. -1.
          1    1    1    2  502    0 -0.34610831238E+02  0.12145926248E+02  0.18479583230E+03  0.18840098937E+03  0.00000000000E+00 0.  1.
         -1    1    1    2    0  501  0.34610831238E+02 -0.12145926248E+02  0.79742735730E+02  0.87774353117E+02  0.00000000000E+00 0. -1.
</event>
<event>
 4    1  0.6769686E+001  0.2347176E+02  0.7546771E-02  0.1486658E+00
          2   -1    0    0  502    0  0.00000000000E+00  0.00000000000E+00  0.13153327509E+02  0.13153327509E+02  0.00000000000E+00 0. -1.
         -2   -1    0    0    0  501 -0.00000000000E+00 -0.00000000000E+00 -0.41949100285E+02  0.41949100285E+02  0.00000000000E+00 0.  1.
          1    1    1    2  502    0  0.29420484249E+01  0.23286648232E+02 -0.15477096077E+02  0.28115194074E+02  0.00000000000E+00 0.  1.
         -1    1    1    2    0  501 -0.29420484249E+01 -0.23286648232E+02 -0.13318676699E+02  0.26987233720E+02  0.00000000000E+00 0. -1.
</event>
<event>
 4    1  0.6769686E+001  0.3393054E+02  0.7546771E-02  0.1388242E+00
          2   -1    0    0  502    0  0.00000000000E+00  0.00000000000E+00  0.11726065720E+02  0.11726065720E+02  0.00000000000E+00 0. -1.
         -2   -1    0    0    0  501 -0.00000000000E+00 -0.00000000000E+00 -0.14196754898E+03  0.14196754898E+03  0.00000000000E+00 0.  1.
          1    1    1    2  502    0 -0.26673503205E+02  0.20971548777E+02 -0.22443177142E+02  0.40681418750E+02  0.00000000000E+00 0. -1.
         -1    1    1    2    0  501  0.26673503205E+02 -0.20971548777E+02 -0.10779830612E+03  0.11301219595E+03  0.00000000000E+00 0.  1.
</event>
<event>
 4    1  0.6769686E+001  0.2297957E+02  0.7546771E-02  0.1492755E+00
          2   -1    0    0  502    0  0.00000000000E+00  0.00000000000E+00  0.17799477223E+04  0.17799477223E+04  0.00000000000E+00 0.  1.
         -2   -1    0    0    0  501 -0.00000000000E+00 -0.00000000000E+00 -0.36980455894E+00  0.36980455894E+00  0.00000000000E+00 0. -1.
          1    1    1    2  502    0  0.14571030057E+02  0.17769229825E+02  0.12856448099E+04  0.12858501614E+04  0.00000000000E+00 0.  1.
         -1    1    1    2    0  501 -0.14571030057E+02 -0.17769229825E+02  0.49393310786E+03  0.49446736544E+03  0.00000000000E+00 0. -1.
</event>
<event>
 4    1  0.6769686E+001  0.2033025E+02  0.7546771E-02  0.1529046E+00
          2   -1    0    0  502    0  0.00000000000E+00  0.00000000000E+00  0.76043527051E+02  0.76043527051E+02  0.00000000000E+00 0.  1.
         -2   -1    0    0    0  501 -0.00000000000E+00 -0.00000000000E+00 -0.77394298088E+01  0.77394298088E+01  0.00000000000E+00 0. -1.
          1    1    1    2  502    0 -0.20306431494E+02  0.98374035990E+00  0.11294730760E+02  0.23257038678E+02  0.00000000000E+00 0. -1.
         -1    1    1    2    0  501  0.20306431494E+02 -0.98374035990E+00  0.57009366482E+02  0.60525918182E+02  0.00000000000E+00 0.  1.
</event>
<event>
 4    1  0.6769686E+001  0.4981520E+02  0.7546771E-02  0.1298976E+00
          2   -1    0    0  502    0  0.00000000000E+00  0.00000000000E+00  0.46525687973E+01  0.46525687973E+01  0.00000000000E+00 0. -1.
         -2   -1    0    0    0  501 -0.00000000000E+00 -0.00000000000E+00 -0.77310982271E+03  0.77310982271E+03  0.00000000000E+00 0.  1.
          1    1    1    2  502    0  0.11239823561E+01 -0.49802522222E+02 -0.60078138762E+03  0.60284312243E+03  0.00000000000E+00 0.  1.
         -1    1    1    2    0  501 -0.11239823561E+01  0.49802522222E+02 -0.16767586630E+03  0.17491926908E+03  0.00000000000E+00 0. -1.
</event>
<event>
 4    1  0.6769686E+001  0.3180855E+02  0.7546771E-02  0.1404505E+00
          2   -1    0    0  502    0  0.00000000000E+00  0.00000000000E+00  0.13077452727E+04  0.13077452727E+04  0.00000000000E+00 0. -1.
         -2   -1    0    0    0  501 -0.00000000000E+00 -0.00000000000E+00 -0.88217716075E+00  0.88217716075E+00  0.00000000000E+00 0.  1.
          1    1    1    2  502    0 -0.31422614109E+02 -0.49399844015E+01  0.42397236930E+03  0.42516391434E+03  0.00000000000E+00 0.  1.
         -1    1    1    2    0  501  0.31422614109E+02  0.49399844015E+01  0.88289072622E+03  0.88346353551E+03  0.00000000000E+00 0. -1.
</event>
<event>
 4    1  0.6769686E+001  0.3156957E+02  0.7546771E-02  0.1406430E+00
          2   -1    0    0  502    0  0.00000000000E+00  0.00000000000E+00  0.10295706728E+04  0.10295706728E+04  0.00000000000E+00 0.  1.
         -2   -1    0    0    0  501 -0.00000000000E+00 -0.00000000000E+00 -0.11768084359E+01  0.11768084359E+01  0.00000000000E+00 0. -1.
          1    1    1    2  502    0 -0.30340993321E+02  0.87213530490E+01  0.29711192972E+03  0.29878443175E+03  0.00000000000E+00 0.  1.
         -1    1    1    2    0  501  0.30340993321E+02 -0.87213530490E+01  0.73128193469E+03  0.73196304953E+03  0.00000000000E+00 0. -1.
</event>
<event>
 4    1  0.6769686E+001  0.2492230E+02  0.7546771E-02  0.1469675E+00
          2   -1    0    0  502    0  0.00000000000E+00  0.00000000000E+00  0.25730787677E+03  0.25730787677E+03  0.00000000000E+00 0.  1.
         -2   -1    0    0    0  501 -0.00000000000E+00 -0.00000000000E+00 -0.31575069186E+01  0.31575069186E+01  0.00000000000E+00 0. -1.
          1    1    1    2  502    0  0.23997847949E+02 -0.67249030403E+01  0.63875737431E+02  0.68565522381E+02  0.00000000000E+00 0. -1.
         -1    1    1    2    0  501 -0.23997847949E+02  0.67249030403E+01  0.19027463242E+03  0.19189986131E+03  0.00000000000E+00 0.  1.
</event>
<event>
 4    1  0.6769686E+001  0.2299478E+02  0.7546771E-02  0.1492564E+00
          2   -1    0    0  502    0  0.00000000000E+00  0.00000000000E+00  0.26698180490E+01  0.26698180490E+01  0.00000000000E+00 0.  1.
         -2   -1    0    0    0  501 -0.00000000000E+00 -0.00000000000E+00 -0.23627027864E+03  0.23627027864E+03  0.00000000000E+00 0. -1.
          1    1    1    2  502    0  0.20032094416E+02 -0.11290480185E+02 -0.16485058022E+03  0.16644660870E+03  0.00000000000E+00 0. -1.
         -1    1    1    2    0  501 -0.20032094416E+02  0.11290480185E+02 -0.68749880368E+02  0.72493487985E+02  0.00000000000E+00 0.  1.
</event>
<event>
 4    1  0.6769686E+001  0.2150576E+02  0.7546771E-02  0.1512165E+00
          2   -1    0    0  502    0  0.00000000000E+00  0.00000000000E+00  0.25650913753E+00  0.25650913753E+00  0.00000000000E+00 0.  1.
         -2   -1    0    0    0  501 -0.00000000000E+00 -0.00000000000E+00 -0.18030646172E+04  0.18030646172E+04  0.00000000000E+00 0. -1.
          1    1    1    2  502    0 -0.74501655227E+01 -0.20174056088E+02 -0.89842625799E+03  0.89868361426E+03  0.00000000000E+00 0.  1.
         -1    1    1    2    0  501  0.74501655227E+01  0.20174056088E+02 -0.90438185003E+03  0.90463751203E+03  0.00000000000E+00 0. -1.
</event>
<event>
 4    1  0.6769686E+001  0.3966403E+02  0.7546771E-02  0.1350466E+00
          2   -1    0    0  502    0  0.00000000000E+00  0.00000000000E+00  0.23126896669E+01  0.23126896669E+01  0.00000000000E+00 0.  1.
         -2   -1    0    0    0  501 -0.00000000000E+00 -0.00000000000E+00 -0.68956402202E+03  0.68956402202E+03  0.00000000000E+00 0. -1.
          1    1    1    2  502    0 -0.17104172978E+02 -0.35786624963E+02 -0.38380441926E+03  0.38584850331E+03  0.00000000000E+00 0.  1.
         -1    1    1    2    0  501  0.17104172978E+02  0.35786624963E+02 -0.30344691309E+03  0.30602820838E+03  0.00000000000E+00 0. -1.
</event>
<event>
 4    1  0.6769686E+001  0.2218807E+02  0.7546771E-02  0.1502953E+00
          2   -1    0    0  502    0  0.00000000000E+00  0.00000000000E+00  0.39546114185E+01  0.39546114185E+01  0.00000000000E+00 0.  1.
         -2   -1    0    0    0  501 -0.00000000000E+00 -0.00000000000E+00 -0.13313347762E+03  0.13313347762E+03  0.00000000000E+00 0. -1.
          1    1    1    2  502    0 -0.17869111042E+02  0.13153155918E+02 -0.47124634509E+02  0.52086867996E+02  0.00000000000E+00 0.  1.
         -1    1    1    2    0  501  0.17869111042E+02 -0.13153155918E+02 -0.82054231689E+02  0.85001221039E+02  0.00000000000E+00 0. -1.
</event>
<event>
 4    1  0.6769686E+001  0.3039363E+02  0.7546771E-02  0.1416206E+00
          2   -1    0    0  502    0  0.00000000000E+00  0.00000000000E+00  0.14151308061E+04  0.14151308061E+04  0.00000000000E+00 0.  1.
         -2   -1    0    0    0  501 -0.00000000000E+00 -0.00000000000E+00 -0.99769662121E+00  0.99769662121E+00  0.00000000000E+00 0. -1.
          1    1    1    2  502    0 -0.21105032922E+02 -0.21871227404E+02  0.11233879567E+04  0.11237990364E+04  0.00000000000E+00 0.  1.
         -1    1    1    2    0  501  0.21105032922E+02  0.21871227404E+02  0.29074515276E+03  0.29232946628E+03  0.00000000000E+00 0. -1.
</event>
<event>
 4    1  0.6769686E+001  0.2956530E+02  0.7546771E-02  0.1423412E+00
          2   -1    0    0  502    0  0.00000000000E+00  0.00000000000E+00  0.45789392732E+02  0.45789392732E+02  0.00000000000E+00 0. -1.
         -2   -1    0    0    0  501 -0.00000000000E+00 -0.00000000000E+00 -0.24530772672E+02  0.24530772672E+02  0.00000000000E+00 0.  1.
          1    1    1    2  502    0  0.29114710339E+02  0.51420344922E+01  0.27188365956E+02  0.40166081714E+02  0.00000000000E+00 0. -1.
         -1    1    1    2    0  501 -0.29114710339E+02 -0.51420344922E+01 -0.59297458968E+01  0.30154083691E+02  0.00000000000E+00 0.  1.
</event>
<event>
 4    1  0.6769686E+001  0.2407672E+02  0.7546771E-02  0.1479403E+00
          2   -1    0    0  502    0  0.00000000000E+00  0.00000000000E+00  0.86134365783E+02  0.86134365783E+02  0.00000000000E+00 0.  1.
         -2   -1    0    0    0  501 -0.00000000000E+00 -0.00000000000E+00 -0.79672708638E+01  0.79672708638E+01  0.00000000000E+00 0. -1.
          1    1    1    2  502    0 -0.12477341456E+02 -0.20591366102E+02  0.57624685012E+02  0.62452323660E+02  0.00000000000E+00 0.  1.
         -1    1    1    2    0  501  0.12477341456E+02  0.20591366102E+02  0.20542409907E+02  0.31649312987E+02  0.00000000000E+00 0. -1.
</event>
<event>
 4    1  0.6769686E+001  0.2121987E+02  0.7546771E-02  0.1516149E+00
          2   -1    0    0  502    0  0.00000000000E+00  0.00000000000E+00  0.14443064744E+02  0.14443064744E+02  0.00000000000E+00 0. -1.
         -2   -1    0    0    0  501 -0.00000000000E+00 -0.00000000000E+00 -0.35682448658E+02  0.35682448658E+02  0.00000000000E+00 0.  1.
          1    1    1    2  502    0 -0.11399543521E+02 -0.17897859338E+02 -0.19526022156E+02  0.28836582713E+02  0.00000000000E+00 0. -1.
         -1    1    1    2    0  501  0.11399543521E+02  0.17897859338E+02 -0.17133617579E+01  0.21288930689E+02  0.00000000000E+00 0.  1.
</event>
<event>
 4    1  0.6769686E+001  0.2082237E+02  0.7546771E-02  0.1521816E+00
          2   -1    0    0  502    0  0.00000000000E+00  0.00000000000E+00  0.61455985696E+01  0.61455985696E+01  0.00000000000E+00 0.  1.
         -2   -1    0    0    0  501 -0.00000000000E+00 -0.00000000000E+00 -0.16694357143E+03  0.16694357143E+03  0.00000000000E+00 0. -1.
          1    1    1    2  502    0  0.83465080866E+01 -0.19076341875E+02 -0.14616165653E+03  0.14763739654E+03  0.00000000000E+00 0. -1.
         -1    1    1    2    0  501 -0.83465080866E+01  0.19076341875E+02 -0.14636316325E+02  0.25451773458E+02  0.00000000000E+00 0.  1.
</event>
<event>
 4    1  0.6769686E+001  0.4000312E+02  0.7546771E-02  0.1348468E+00
          2   -1    0    0  502    0  0.00000000000E+00  0.00000000000E+00  0.21462426840E+03  0.21462426840E+03  0.00000000000E+00 0. -1.
         -2   -1    0    0    0  501 -0.00000000000E+00 -0.00000000000E+00 -0.78262268380E+01  0.78262268380E+01  0.00000000000E+00 0.  1.
          1    1    1    2  502    0 -0.37225883472E+02  0.14645235411E+02  0.79209254871E+02  0.88737564637E+02  0.00000000000E+00 0.  1.
         -1    1    1    2    0  501  0.37225883472E+02 -0.14645235411E+02  0.12758878669E+03  0.13371293060E+03  0.00000000000E+00 0. -1.
</event>
<event>
 4    1  0.6769686E+001  0.2717486E+02  0.7546771E-02  0.1445859E+00
          2   -1    0    0  502    0  0.00000000000E+00  0.00000000000E+00  0.57094565641E+02  0.57094565641E+02  0.00000000000E+00 0.  1.
         -2   -1    0    0    0  501 -0.00000000000E+00 -0.00000000000E+00 -0.13008648776E+02  0.13008648776E+02  0.00000000000E+00 0. -1.
          1    1    1    2  502    0 -0.26959000980E+02 -0.34183744268E+01  0.24694483649E+02  0.36719075972E+02  0.00000000000E+00 0.  1.
         -1    1    1    2    0  501  0.26959000980E+02  0.34183744268E+01  0.19391433216E+02  0.33384138445E+02  0.00000000000E+00 0. -1.
</event>
<event>
 4    1  0.6769686E+001  0.2136127E+02  0.7546771E-02  0.1514169E+00
          2   -1    0    0  502    0  0.00000000000E+00  0.00000000000E+00  0.12128153772E+04  0.12128153772E+04  0.00000000000E+00 0. -1.
         -2   -1    0    0    0  501 -0.00000000000E+00 -0.00000000000E+00 -0.55196464724E+00  0.55196464724E+00  0.00000000000E+00 0.  1.
          1    1    1    2  502    0 -0.41881216043E+00 -0.21357168660E+02  0.94844890632E+03  0.94868942861E+03  0.00000000000E+00 0. -1.
         -1    1    1    2    0  501  0.41881216043E+00  0.21357168660E+02  0.26381450623E+03  0.26467791324E+03  0.00000000000E+00 0.  1.
</event>
<event>
 4    1  0.6769686E+001  0.2084386E+02  0.7546771E-02  0.1521506E+00
          2   -1    0    0  502    0  0.00000000000E+00  0.00000000000E+00  0.18460181774E+03  0.18460181774E+03  0.00000000000E+00 0. -1.
         -2   -1    0    0    0  501 -0.00000000000E+00 -0.00000000000E+00 -0.31218129282E+01  0.31218129282E+01  0.00000000000E+00 0.  1.
          1    1    1    2  502    0  0.19218666629E+02  0.80690238586E+01  0.44176512131E+02  0.48847011342E+02  0.00000000000E+00 0.  1.
         -1    1    1    2    0  501 -0.19218666629E+02 -0.80690238586E+01  0.13730349268E+03  0.13887661933E+03  0.00000000000E+00 0. -1.
</event>
<event>
 4    1  0.6769686E+001  0.2565079E+02  0.7546771E-02  0.1461653E+00
          2   -1    0    0  502    0  0.00000000000E+00  0.00000000000E+00  0.62367317965E+01  0.62367317965E+01  0.00000000000E+00 0. -1.
         -2   -1    0    0    0  501 -0.00000000000E+00 -0.00000000000E+00 -0.13671115945E+03  0.13671115945E+03  0.00000000000E+00 0.  1.
          1    1    1    2  502    0 -0.33801502762E-01 -0.25650762804E+02 -0.99389091841E+02  0.10264577123E+03  0.00000000000E+00 0.  1.
         -1    1    1    2    0  501  0.33801502762E-01  0.25650762804E+02 -0.31085335809E+02  0.40302120010E+02  0.00000000000E+00 0. -1.
</event>
<event>
 4    1  0.6769686E+001  0.2241292E+02  0.7546771E-02  0.1500005E+00
          2   -1    0    0  502    0  0.00000000000E+00  0.00000000000E+00  0.10000187529E+02  0.10000187529E+02  0.00000000000E+00 0.  1.
         -2   -1    0    0    0  501 -0.00000000000E+00 -0.00000000000E+00 -0.50648455161E+02  0.50648455161E+02  0.00000000000E+00 0. -1.
          1    1    1    2  502    0 -0.45601988203E+01  0.21944099772E+02 -0.17577531493E+02  0.28483478395E+02  0.00000000000E+00 0. -1.
         -1    1    1    2    0  501  0.45601988203E+01 -0.21944099772E+02 -0.23070736139E+02  0.32165164294E+02  0.00000000000E+00 0.  1.
</event>
<event>
 4    1  0.6769686E+001  0.4239530E+02  0.7546771E-02  0.1334994E+00
          2   -1    0    0  502    0  0.00000000000E+00  0.00000000000E+00  0.18272833601E+04  0.18272833601E+04  0.00000000000E+00 0. -1.
         -2   -1    0    0    0  501 -0.00000000000E+00 -0.00000000000E+00 -0.12287844754E+01  0.12287844754E+01  0.00000000000E+00 0.  1.
          1    1    1    2  502    0 -0.17105381439E+02 -0.38791333620E+02  0.50465683057E+03  0.50643447580E+03  0.00000000000E+00 0. -1.
         -1    1    1    2    0  501  0.17105381439E+02  0.38791333620E+02  0.13213977450E+04  0.13220776687E+04  0.00000000000E+00 0.  1.
</event>
<event>
 4    1  0.6769686E+001  0.5016882E+02  0.7546771E-02  0.1297442E+00
          2   -1    0    0  502    0  0.00000000000E+00  0.00000000000E+00  0.24999160510E+04  0.24999160510E+04  0.00000000000E+00 0.  1.
         -2   -1    0    0    0  501 -0.00000000000E+00 -0.00000000000E+00 -0.15509321907E+01  0.15509321907E+01  0.00000000000E+00 0. -1.
          1    1    1    2  502    0 -0.22062070091E+02  0.45057466213E+02  0.19900174488E+04  0.19906497323E+04  0.00000000000E+00 0.  1.
         -1    1    1    2    0  501  0.22062070091E+02 -0.45057466213E+02  0.50834766999E+03  0.51081725087E+03  0.00000000000E+00 0. -1.
</event>
<event>
 4    1  0.6769686E+001  0.2670997E+02  0.7546771E-02  0.1450543E+00
          2   -1    0    0  502    0  0.00000000000E+00  0.00000000000E+00  0.43687063794E+03  0.43687063794E+03  0.00000000000E+00 0.  1.
         -2   -1    0    0    0  501 -0.00000000000E+00 -0.00000000000E+00 -0.57969480728E+01  0.57969480728E+01  0.00000000000E+00 0. -1.
          1    1    1    2  502    0 -0.15613034664E+02  0.21671538190E+02  0.40312230032E+03  0.40400620222E+03  0.00000000000E+00 0.  1.
         -1    1    1    2    0  501  0.15613034664E+02 -0.21671538190E+02  0.27951389545E+02  0.38661383788E+02  0.00000000000E+00 0. -1.
</event>
<event>
 4    1  0.6769686E+001  0.3239773E+02  0.7546771E-02  0.1399843E+00
          2   -1    0    0  502    0  0.00000000000E+00  0.00000000000E+00  0.37212346599E+02  0.37212346599E+02  0.00000000000E+00 0. -1.
         -2   -1    0    0    0  501 -0.00000000000E+00 -0.00000000000E+00 -0.32317439337E+02  0.32317439337E+02  0.00000000000E+00 0.  1.
          1    1    1    2  502    0  0.12921484084E+02 -0.29709393179E+02  0.14847332960E+02  0.35637846315E+02  0.00000000000E+00 0.  1.
         -1    1    1    2    0  501 -0.12921484084E+02  0.29709393179E+02 -0.99524256976E+01  0.33891939620E+02  0.00000000000E+00 0. -1.
</event>
<event>
 4    1  0.6769686E+001  0.2260853E+02  0.7546771E-02  0.1497473E+00
          2   -1    0    0  502    0  0.00000000000E+00  0.00000000000E+00  0.18837998428E+03  0.18837998428E+03  0.00000000000E+00 0.  1.
         -2   -1    0    0    0  501 -0.00000000000E+00 -0.00000000000E+00 -0.38525897693E+01  0.38525897693E+01  0.00000000000E+00 0. -1.
          1    1    1    2  502    0  0.10630437132E+02 -0.19953429144E+02  0.39997197433E+02  0.45944763910E+02  0.00000000000E+00 0. -1.
         -1    1    1    2    0  501 -0.10630437132E+02  0.19953429144E+02  0.14453019708E+03  0.14628781014E+03  0.00000000000E+00 0.  1.
</event>
<event>
 4    1  0.6769686E+001  0.2176561E+02  0.7546771E-02  0.1508609E+00
          2   -1    0    0  502    0  0.00000000000E+00  0.00000000000E+00  0.52326022472E+01  0.52326022472E+01  0.00000000000E+00 0. -1.
         -2   -1    0    0    0  501 -0.00000000000E+00 -0.00000000000E+00 -0.18110765979E+03  0.18110765979E+03  0.00000000000E+00 0.  1.
          1    1    1    2  502    0 -0.10211287926E+02 -0.19221636131E+02 -0.15382504985E+03  0.15535729033E+03  0.00000000000E+00 0. -1.
         -1    1    1    2    0  501  0.10211287926E+02  0.19221636131E+02 -0.22050007691E+02  0.30982971707E+02  0.00000000000E+00 0.  1.
</event>
<event>
 4    1  0.6769686E+001  0.1287469E+03  0.7546771E-02  0.1121637E+00
          2   -1    0    0  502    0  0.00000000000E+00  0.00000000000E+00  0.11069176228E+04  0.11069176228E+04  0.00000000000E+00 0.  1.
         -2   -1    0    0    0  501 -0.00000000000E+00 -0.00000000000E+00 -0.19093641861E+02  0.19093641861E+02  0.00000000000E+00 0. -1.
          1    1    1    2  502    0  0.12865194504E+03 -0.49443784838E+01  0.80540536140E+03  0.81563077799E+03  0.00000000000E+00 0.  1.
         -1    1    1    2    0  501 -0.12865194504E+03  0.49443784838E+01  0.28241861957E+03  0.31038048670E+03  0.00000000000E+00 0. -1.
</event>
<event>
 4    1  0.6769686E+001  0.2143806E+02  0.7546771E-02  0.1513101E+00
          2   -1    0    0  502    0  0.00000000000E+00  0.00000000000E+00  0.14218500819E+04  0.14218500819E+04  0.00000000000E+00 0.  1.
         -2   -1    0    0    0  501 -0.00000000000E+00 -0.00000000000E+00 -0.42515957549E+00  0.42515957549E+00  0.00000000000E+00 0. -1.
          1    1    1    2  502    0 -0.12104549941E+02  0.17693797821E+02  0.36252047066E+03  0.36315379973E+03  0.00000000000E+00 0. -1.
         -1    1    1    2    0  501  0.12104549941E+02 -0.17693797821E+02  0.10589044517E+04  0.10591214417E+04  0.00000000000E+00 0.  1.
</event>
<event>
 4    1  0.6769686E+001  0.4104695E+02  0.7546771E-02  0.1342458E+00
          2   -1    0    0  502    0  0.00000000000E+00  0.00000000000E+00  0.80635770790E+03  0.80635770790E+03  0.00000000000E+00 0. -1.
         -2   -1    0    0    0  501 -0.00000000000E+00 -0.00000000000E+00 -0.22764560239E+01  0.22764560239E+01  0.00000000000E+00 0.  1.
          1    1    1    2  502    0 -0.27560893537E+02  0.30417908172E+02  0.51792073944E+03  0.51954474719E+03  0.00000000000E+00 0. -1.
         -1    1    1    2    0  501  0.27560893537E+02 -0.30417908172E+02  0.28616051244E+03  0.28908941674E+03  0.00000000000E+00 0.  1.
</event>
<event>
 4    1  0.6769686E+001  0.2431283E+02  0.7546771E-02  0.1476640E+00
          2   -1    0    0  502    0  0.00000000000E+00  0.00000000000E+00  0.13833573089E+01  0.13833573089E+01  0.00000000000E+00 0.  1.
         -2   -1    0    0    0  501 -0.00000000000E+00 -0.00000000000E+00 -0.42785396624E+03  0.42785396624E+03  0.00000000000E+00 0. -1.
          1    1    1    2  502    0  0.72764280512E+01  0.23198432513E+02 -0.20553847407E+03  0.20697144247E+03  0.00000000000E+00 0. -1.
         -1    1    1    2    0  501 -0.72764280512E+01 -0.23198432513E+02 -0.22093213486E+03  0.22226588107E+03  0.00000000000E+00 0.  1.
</event>
<event>
 4    1  0.6769686E+001  0.5039667E+02  0.7546771E-02  0.1296462E+00
          2   -1    0    0  502    0  0.00000000000E+00  0.00000000000E+00  0.14547368327E+03  0.14547368327E+03  0.00000000000E+00 0.  1.
         -2   -1    0    0    0  501 -0.00000000000E+00 -0.00000000000E+00 -0.22566897514E+02  0.22566897514E+02  0.00000000000E+00 0. -1.
          1    1    1    2  502    0 -0.21849540904E+02  0.45413894666E+02  0.10142665232E+03  0.11325718550E+03  0.00000000000E+00 0.  1.
         -1    1    1    2    0  501  0.21849540904E+02 -0.45413894666E+02  0.21480133435E+02  0.54783395284E+02  0.00000000000E+00 0. -1.
</event>
<event>
 4    1  0.6769686E+001  0.2477171E+02  0.7546771E-02  0.1471374E+00
          2   -1    0    0  502    0  0.00000000000E+00  0.00000000000E+00  0.44652096863E+03  0.44652096863E+03  0.00000000000E+00 0.  1.
         -2   -1    0    0    0  501 -0.00000000000E+00 -0.00000000000E+00 -0.35643447814E+01  0.35643447814E+01  0.00000000000E+00 0. -1.
          1    1    1    2  502    0  0.16781583688E+02 -0.18221310350E+02  0.45075681163E+02  0.51433984234E+02  0.00000000000E+00 0. -1.
         -1    1    1    2    0  501 -0.16781583688E+02  0.18221310350E+02  0.39788094268E+03  0.39865132918E+03  0.00000000000E+00 0.  1.
</event>
<event>
 4    1  0.6769686E+001  0.3130620E+02  0.7546771E-02  0.1408575E+00
          2   -1    0    0  502    0  0.00000000000E+00  0.00000000000E+00  0.25787508519E+02  0.25787508519E+02  0.00000000000E+00 0.  1.
         -2   -1    0    0    0  501 -0.00000000000E+00 -0.00000000000E+00 -0.66317104820E+02  0.66317104820E+02  0.00000000000E+00 0. -1.
          1    1    1    2  502    0  0.13732485858E+02  0.28133551092E+02 -0.50354484961E+02  0.59292933985E+02  0.00000000000E+00 0.  1.
         -1    1    1    2    0  501 -0.13732485858E+02 -0.28133551092E+02  0.98248886593E+01  0.32811679355E+02  0.00000000000E+00 0. -1.
</event>
<event>
 4    1  0.6769686E+001  0.2764925E+02  0.7546771E-02  0.1441193E+00
          2   -1    0    0  502    0  0.00000000000E+00  0.00000000000E+00  0.94713337305E+01  0.94713337305E+01  0.00000000000E+00 0.  1.
         -2   -1    0    0    0  501 -0.00000000000E+00 -0.00000000000E+00 -0.96216783437E+02  0.96216783437E+02  0.00000000000E+00 0. -1.
          1    1    1    2  502    0 -0.26573971177E+02  0.76357864314E+01 -0.64583567311E+02  0.70253244375E+02  0.00000000000E+00 0. -1.
         -1    1    1    2    0  501  0.26573971177E+02 -0.76357864314E+01 -0.22161882396E+02  0.35434872793E+02  0.00000000000E+00 0.  1.
</event>
<event>
 4    1  0.6769686E+001  0.2533438E+02  0.7546771E-02  0.1465097E+00
          2   -1    0    0  502    0  0.00000000000E+00  0.00000000000E+00  0.17312363280E+04  0.17312363280E+04  0.00000000000E+00 0.  1.
         -2   -1    0    0    0  501 -0.00000000000E+00 -0.00000000000E+00 -0.40820773808E+00  0.40820773808E+00  0.00000000000E+00 0. -1.
          1    1    1    2  502    0  0.53761883440E+01  0.24757375650E+02  0.11277404598E+04  0.11280249889E+04  0.00000000000E+00 0. -1.
         -1    1    1    2    0  501 -0.53761883440E+01 -0.24757375650E+02  0.60308766050E+03  0.60361954682E+03  0.00000000000E+00 0.  1.
</event>
<event>
 4    1  0.6769686E+001  0.2146824E+02  0.7546771E-02  0.1512683E+00
          2   -1    0    0  502    0  0.00000000000E+00  0.00000000000E+00  0.50046469871E+03  0.50046469871E+03  0.00000000000E+00 0. -1.
         -2   -1    0    0    0  501 -0.00000000000E+00 -0.00000000000E+00 -0.10202579306E+01  0.10202579306E+01  0.00000000000E+00 0.  1.
          1    1    1    2  502    0  0.12527047781E+02  0.17434405560E+02  0.32796450373E+03  0.32866639793E+03  0.00000000000E+00 0.  1.
         -1    1    1    2    0  501 -0.12527047781E+02 -0.17434405560E+02  0.17147993705E+03  0.17281855871E+03  0.00000000000E+00 0. -1.
</event>
<event>
 4    1  0.6769686E+001  0.2515783E+02  0.7546771E-02  0.1467045E+00
          2   -1    0    0  502    0  0.00000000000E+00  0.00000000000E+00  0.51907513380E+03  0.51907513380E+03  0.00000000000E+00 0.  1.
         -2   -1    0    0    0  501 -0.00000000000E+00 -0.00000000000E+00 -0.12231902009E+01  0.12231902009E+01  0.00000000000E+00 0. -1.
          1    1    1    2  502    0  0.68089401823E+01 -0.24218892471E+02  0.24428439789E+03  0.24557643102E+03  0.00000000000E+00 0. -1.
         -1    1    1    2    0  501 -0.68089401823E+01  0.24218892471E+02  0.27356754571E+03  0.27472189298E+03  0.00000000000E+00 0.  1.
</event>
<event>
 4    1  0.6769686E+001  0.2864978E+02  0.7546771E-02  0.1431704E+00
          2   -1    0    0  502    0  0.00000000000E+00  0.00000000000E+00  0.68650843570E+01  0.68650843570E+01  0.00000000000E+00 0.  1.
         -2   -1    0    0    0  501 -0.00000000000E+00 -0.00000000000E+00 -0.13366811532E+03  0.13366811532E+03  0.00000000000E+00 0. -1.
          1    1    1    2  502    0  0.18677852201E+02 -0.21724360601E+02 -0.40575846525E+02  0.49671010938E+02  0.00000000000E+00 0.  1.
         -1    1    1    2    0  501 -0.18677852201E+02  0.21724360601E+02 -0.86227184435E+02  0.90862188737E+02  0.00000000000E+00 0. -1.
</event>
<event>
 4    1  0.6769686E+001  0.2162352E+02  0.7546771E-02  0.1510546E+00
          2   -1    0    0  502    0  0.00000000000E+00  0.00000000000E+00  0.13162732681E+01  0.13162732681E+01  0.00000000000E+00 0. -1.
         -2   -1    0    0    0  501 -0.00000000000E+00 -0.00000000000E+00 -0.55172924910E+03  0.55172924910E+03  0.00000000000E+00 0.  1.
          1    1    1    2  502    0  0.62167165786E+01 -0.20710600639E+02 -0.11018100108E+03  0.11228281054E+03  0.00000000000E+00 0. -1.
         -1    1    1    2    0  501 -0.62167165786E+01  0.20710600639E+02 -0.44023197475E+03  0.44076271182E+03  0.00000000000E+00 0.  1.
</event>
<event>
 4    1  0.6769686E+001  0.2503815E+02  0.7546771E-02  0.1468377E+00
          2   -1    0    0  502    0  0.00000000000E+00  0.00000000000E+00  0.42461773127E+01  0.42461773127E+01  0.00000000000E+00 0.  1.
         -2   -1    0    0    0  501 -0.00000000000E+00 -0.00000000000E+00 -0.14874195178E+03  0.14874195178E+03  0.00000000000E+00 0. -1.
          1    1    1    2  502    0  0.21969167649E+02  0.12011029065E+02 -0.78829442137E+02  0.82710278043E+02  0.00000000000E+00 0.  1.
         -1    1    1    2    0  501 -0.21969167649E+02 -0.12011029065E+02 -0.65666332328E+02  0.70277851047E+02  0.00000000000E+00 0. -1.
</event>
<event>
 4    1  0.6769686E+001  0.2043157E+02  0.7546771E-02  0.1527537E+00
          2   -1    0    0  502    0  0.00000000000E+00  0.00000000000E+00  0.23177483050E+02  0.23177483050E+02  0.00000000000E+00 0. -1.
         -2   -1    0    0    0  501 -0.00000000000E+00 -0.00000000000E+00 -0.18018200240E+02  0.18018200240E+02  0.00000000000E+00 0.  1.
          1    1    1    2  502    0  0.10524028760E+02  0.17512680974E+02  0.21673052125E+01  0.20546201306E+02  0.00000000000E+00 0.  1.
         -1    1    1    2    0  501 -0.10524028760E+02 -0.17512680974E+02  0.29919775979E+01  0.20649481983E+02  0.00000000000E+00 0. -1.
</event>
<event>
 4    1  0.6769686E+001  0.4927541E+02  0.7546771E-02  0.1301345E+00
          2   -1    0    0  502    0  0.00000000000E+00  0.00000000000E+00  0.24521806417E+03  0.24521806417E+03  0.00000000000E+00 0. -1.
         -2   -1    0    0    0  501 -0.00000000000E+00 -0.00000000000E+00 -0.11721772701E+02  0.11721772701E+02  0.00000000000E+00 0.  1.
          1    1    1    2  502    0  0.12957762177E+02  0.47541164007E+02  0.66124437885E+02  0.82465187573E+02  0.00000000000E+00 0.  1.
         -1    1    1    2    0  501 -0.12957762177E+02 -0.47541164007E+02  0.16737185359E+03  0.17447464930E+03  0.00000000000E+00 0. -1.
</event>
<event>
 4    1  0.6769686E+001  0.2619945E+02  0.7546771E-02  0.1455820E+00
          2   -1    0    0  502    0  0.00000000000E+00  0.00000000000E+00  0.15989836563E+02  0.15989836563E+02  0.00000000000E+00 0.  1.
         -2   -1    0    0    0  501 -0.00000000000E+00 -0.00000000000E+00 -0.53636694402E+02  0.53636694402E+02  0.00000000000E+00 0. -1.
          1    1    1    2  502    0 -0.19504486635E+02  0.17492455466E+02 -0.34378891075E+02  0.43224057522E+02  0.00000000000E+00 0. -1.
         -1    1    1    2    0  501  0.19504486635E+02 -0.17492455466E+02 -0.32679667637E+01  0.26402473443E+02  0.00000000000E+00 0.  1.
</event>
<event>
 4    1  0.6769686E+001  0.3237322E+02  0.7546771E-02  0.1400035E+00
          2   -1    0    0  502    0  0.00000000000E+00  0.00000000000E+00  0.24982178766E+03  0.24982178766E+03  0.00000000000E+00 0.  1.
         -2   -1    0    0    0  501 -0.00000000000E+00 -0.00000000000E+00 -0.51650651747E+01  0.51650651747E+01  0.00000000000E+00 0. -1.
          1    1    1    2  502    0 -0.22092371454E+01 -0.32297751621E+02  0.67078695210E+02  0.74482057165E+02  0.00000000000E+00 0. -1.
         -1    1    1    2    0  501  0.22092371454E+01  0.32297751621E+02  0.17757802728E+03  0.18050479567E+03  0.00000000000E+00 0.  1.
</event>
<event>
 4    1  0.6769686E+001  0.2263172E+02  0.7546771E-02  0.1497175E+00
          2   -1    0    0  502    0  0.00000000000E+00  0.00000000000E+00  0.99907381455E+03  0.99907381455E+03  0.00000000000E+00 0. -1.
         -2   -1    0    0    0  501 -0.00000000000E+00 -0.00000000000E+00 -0.51311510641E+00  0.51311510641E+00  0.00000000000E+00 0.  1.
          1    1    1    2  502    0 -0.13816359354E+02 -0.17924930895E+02  0.48455614537E+03  0.48508437714E+03  0.00000000000E+00 0.  1.
         -1    1    1    2    0  501  0.13816359354E+02  0.17924930895E+02  0.51400455408E+03  0.51450255252E+03  0.00000000000E+00 0. -1.
</event>
<event>
 4    1  0.6769686E+001  0.2628417E+02  0.7546771E-02  0.1454934E+00
          2   -1    0    0  502    0  0.00000000000E+00  0.00000000000E+00  0.17229465776E+04  0.17229465776E+04  0.00000000000E+00 0.  1.
         -2   -1    0    0    0  501 -0.00000000000E+00 -0.00000000000E+00 -0.40185998081E+00  0.40185998081E+00  0.00000000000E+00 0. -1.
          1    1    1    2  502    0 -0.25967009349E+02  0.40708613086E+01  0.82082245190E+03  0.82124317655E+03  0.00000000000E+00 0. -1.
         -1    1    1    2    0  501  0.25967009349E+02 -0.40708613086E+01  0.90172226573E+03  0.90210526104E+03  0.00000000000E+00 0.  1.
</event>
<event>
 4    1  0.6769686E+001  0.2783250E+02  0.7546771E-02  0.1439420E+00
          2   -1    0    0  502    0  0.00000000000E+00  0.00000000000E+00  0.28647984500E+03  0.28647984500E+03  0.00000000000E+00 0. -1.
         -2   -1    0    0    0  501 -0.00000000000E+00 -0.00000000000E+00 -0.31167060892E+01  0.31167060892E+01  0.00000000000E+00 0.  1.
          1    1    1    2  502    0 -0.18336298223E+02  0.20938672021E+02  0.19437109645E+03  0.19635368842E+03  0.00000000000E+00 0. -1.
         -1    1    1    2    0  501  0.18336298223E+02 -0.20938672021E+02  0.88992042458E+02  0.93242862673E+02  0.00000000000E+00 0.  1.
</event>
<event>
 4    1  0.6769686E+001  0.2121924E+02  0.7546771E-02  0.1516158E+00
          2   -1    0    0  502    0  0.00000000000E+00  0.00000000000E+00  0.55266148074E+03  0.55266148074E+03  0.00000000000E+00 0. -1.
         -2   -1    0    0    0  501 -0.00000000000E+00 -0.00000000000E+00 -0.84343530668E+00  0.84343530668E+00  0.00000000000E+00 0.  1.
          1    1    1    2  502    0 -0.21112646500E+02 -0.21242465848E+01  0.32698692753E+03  0.32767469698E+03  0.00000000000E+00 0. -1.
         -1    1    1    2    0  501  0.21112646500E+02  0.21242465848E+01  0.22483111790E+03  0.22583021906E+03  0.00000000000E+00 0.  1.
</event>
<event>
 4    1  0.6769686E+001  0.2145479E+02  0.7546771E-02  0.1512870E+00
          2   -1    0    0  502    0  0.00000000000E+00  0.00000000000E+00  0.38388883500E+01  0.38388883500E+01  0.00000000000E+00 0. -1.
         -2   -1    0    0    0  501 -0.00000000000E+00 -0.00000000000E+00 -0.15193891024E+03  0.15193891024E+03  0.00000000000E+00 0.  1.
          1    1    1    2  502    0  0.95998647210E+01  0.19187253837E+02 -0.10981310488E+03  0.11188934764E+03  0.00000000000E+00 0.  1.
         -1    1    1    2    0  501 -0.95998647210E+01 -0.19187253837E+02 -0.38286917011E+02  0.43888450948E+02  0.00000000000E+00 0. -1.
</event>
<event>
 4    1  0.6769686E+001  0.2026891E+02  0.7546771E-02  0.1529964E+00
          2   -1    0    0  502    0  0.00000000000E+00  0.00000000000E+00  0.10631322375E+04  0.10631322375E+04  0.00000000000E+00 0. -1.
         -2   -1    0    0    0  501 -0.00000000000E+00 -0.00000000000E+00 -0.56374463152E+00  0.56374463152E+00  0.00000000000E+00 0.  1.
          1    1    1    2  502    0  0.14535779647E+02  0.14125850460E+02  0.82955858593E+03  0.82980616775E+03  0.00000000000E+00 0. -1.
         -1    1    1    2    0  501 -0.14535779647E+02 -0.14125850460E+02  0.23300990690E+03  0.23388981435E+03  0.00000000000E+00 0.  1.
</event>
<event>
 4    1  0.6769686E+001  0.8009378E+02  0.7546771E-02  0.1203630E+00
          2   -1    0    0  502    0  0.00000000000E+00  0.00000000000E+00  0.53176812406E+02  0.53176812406E+02  0.00000000000E+00 0.  1.
         -2   -1    0    0    0  501 -0.00000000000E+00 -0.00000000000E+00 -0.16980166279E+03  0.16980166279E+03  0.00000000000E+00 0. -1.
          1    1    1    2  502    0 -0.52978267753E+01  0.79918376431E+02 -0.11830464412E+03  0.14286708046E+03  0.00000000000E+00 0. -1.
         -1    1    1    2    0  501  0.52978267753E+01 -0.79918376431E+02  0.16797937290E+01  0.80111394738E+02  0.00000000000E+00 0.  1.
</event>
<event>
 4    1  0.6769686E+001  0.3927218E+02  0.7546771E-02  0.1352804E+00
          2   -1    0    0  502    0  0.00000000000E+00  0.00000000000E+00  0.22447257402E+04  0.22447257402E+04  0.00000000000E+00 0. -1.
         -2   -1    0    0    0  501 -0.00000000000E+00 -0.00000000000E+00 -0.77079485286E+00  0.77079485286E+00  0.00000000000E+00 0.  1.
          1    1    1    2  502    0 -0.14761993965E+02 -0.36392136725E+02  0.14919901923E+04  0.14925069641E+04  0.00000000000E+00 0. -1.
         -1    1    1    2    0  501  0.14761993965E+02  0.36392136725E+02  0.75196475307E+03  0.75298957094E+03  0.00000000000E+00 0.  1.
</event>
<event>
 4    1  0.6769686E+001  0.2054153E+02  0.7546771E-02  0.1525912E+00
          2   -1    0    0  502    0  0.00000000000E+00  0.00000000000E+00  0.56512184383E+03  0.56512184383E+03  0.00000000000E+00 0. -1.
         -2   -1    0    0    0  501 -0.00000000000E+00 -0.00000000000E+00 -0.79094672858E+00  0.79094672858E+00  0.00000000000E+00 0.  1.
          1    1    1    2  502    0 -0.14870181954E+02  0.14171524593E+02  0.21521122605E+03  0.21618932961E+03  0.00000000000E+00 0.  1.
         -1    1    1    2    0  501  0.14870181954E+02 -0.14171524593E+02  0.34911967105E+03  0.34972346094E+03  0.00000000000E+00 0. -1.
</event>
<event>
 4    1  0.6769686E+001  0.2541052E+02  0.7546771E-02  0.1464263E+00
          2   -1    0    0  502    0  0.00000000000E+00  0.00000000000E+00  0.15825694730E+04  0.15825694730E+04  0.00000000000E+00 0. -1.
         -2   -1    0    0    0  501 -0.00000000000E+00 -0.00000000000E+00 -0.53236316720E+00  0.53236316720E+00  0.00000000000E+00 0.  1.
          1    1    1    2  502    0 -0.16001331667E+02 -0.19739605977E+02  0.40844603017E+03  0.40923569519E+03  0.00000000000E+00 0. -1.
         -1    1    1    2    0  501  0.16001331667E+02  0.19739605977E+02  0.11735910797E+04  0.11738661410E+04  0.00000000000E+00 0.  1.
</event>
<event>
 4    1  0.6769686E+001  0.2202438E+02  0.7546771E-02  0.1505126E+00
          2   -1    0    0  502    0  0.00000000000E+00  0.00000000000E+00  0.13446906156E+04  0.13446906156E+04  0.00000000000E+00 0. -1.
         -2   -1    0    0    0  501 -0.00000000000E+00 -0.00000000000E+00 -0.45679822598E+00  0.45679822598E+00  0.00000000000E+00 0.  1.
          1    1    1    2  502    0 -0.83970157931E+01  0.20360831778E+02  0.98055098739E+03  0.98079830354E+03  0.00000000000E+00 0. -1.
         -1    1    1    2    0  501  0.83970157931E+01 -0.20360831778E+02  0.36368283000E+03  0.36434911031E+03  0.00000000000E+00 0.  1.
</event>
<event>
 4    1  0.6769686E+001  0.2456985E+02  0.7546771E-02  0.1473673E+00
          2   -1    0    0  502    0  0.00000000000E+00  0.00000000000E+00  0.14639388069E+04  0.14639388069E+04  0.00000000000E+00 0. -1.
         -2   -1    0    0    0  501 -0.00000000000E+00 -0.00000000000E+00 -0.42012020359E+00  0.42012020359E+00  0.00000000000E+00 0.  1.
          1    1    1    2  502    0  0.17073858843E+02 -0.17668068547E+02  0.83123664518E+03  0.83159968591E+03  0.00000000000E+00 0. -1.
         -1    1    1    2    0  501 -0.17073858843E+02  0.17668068547E+02  0.63228204148E+03  0.63275924116E+03  0.00000000000E+00 0.  1.
</event>
<event>
 4    1  0.6769686E+001  0.2847430E+02  0.7546771E-02  0.1433335E+00
          2   -1    0    0  502    0  0.00000000000E+00  0.00000000000E+00  0.95899084568E+01  0.95899084568E+01  0.00000000000E+00 0. -1.
         -2   -1    0    0    0  501 -0.00000000000E+00 -0.00000000000E+00 -0.84548531204E+02  0.84548531204E+02  0.00000000000E+00 0.  1.
          1    1    1    2  502    0  0.21432841736E+02 -0.18746169621E+02 -0.37751402096E+02  0.47285874641E+02  0.00000000000E+00 0.  1.
         -1    1    1    2    0  501 -0.21432841736E+02  0.18746169621E+02 -0.37207220652E+02  0.46852565020E+02  0.00000000000E+00 0. -1.
</event>
<event>
 4    1  0.6769686E+001  0.4297807E+02  0.7546771E-02  0.1331866E+00
          2   -1    0    0  502    0  0.00000000000E+00  0.00000000000E+00  0.19873340900E+01  0.19873340900E+01  0.00000000000E+00 0. -1.
         -2   -1    0    0    0  501 -0.00000000000E+00 -0.00000000000E+00 -0.10798748291E+04  0.10798748291E+04  0.00000000000E+00 0.  1.
          1    1    1    2  502    0  0.40346990874E+02  0.14806580917E+02 -0.74083827578E+03  0.74208386681E+03  0.00000000000E+00 0.  1.
         -1    1    1    2    0  501 -0.40346990874E+02 -0.14806580917E+02 -0.33704921922E+03  0.33977829638E+03  0.00000000000E+00 0. -1.
</event>
<event>
 4    1  0.6769686E+001  0.2075159E+02  0.7546771E-02  0.1522841E+00
          2   -1    0    0  502    0  0.00000000000E+00  0.00000000000E+00  0.50808385572E+03  0.50808385572E+03  0.00000000000E+00 0. -1.
         -2   -1    0    0    0  501 -0.00000000000E+00 -0.00000000000E+00 -0.84791015015E+00  0.84791015015E+00  0.00000000000E+00 0.  1.
          1    1    1    2  502    0  0.13998919974E+02 -0.15318568228E+02  0.25883621890E+03  0.25966674124E+03  0.00000000000E+00 0.  1.
         -1    1    1    2    0  501 -0.13998919974E+02  0.15318568228E+02  0.24839972668E+03  0.24926502464E+03  0.00000000000E+00 0. -1.
</event>
<event>
 4    1  0.6769686E+001  0.3559381E+02  0.7546771E-02  0.1376436E+00
          2   -1    0    0  502    0  0.00000000000E+00  0.00000000000E+00  0.61921206881E+03  0.61921206881E+03  0.00000000000E+00 0. -1.
         -2   -1    0    0    0  501 -0.00000000000E+00 -0.00000000000E+00 -0.20581006965E+01  0.20581006965E+01  0.00000000000E+00 0.  1.
          1    1    1    2  502    0 -0.32194253778E+02 -0.15180549258E+02  0.28477579038E+03  0.28699158496E+03  0.00000000000E+00 0. -1.
         -1    1    1    2    0  501  0.32194253778E+02  0.15180549258E+02  0.33237817773E+03  0.33427858454E+03  0.00000000000E+00 0.  1.
</event>
<event>
 4    1  0.6769686E+001  0.2140837E+02  0.7546771E-02  0.1513514E+00
          2   -1    0    0  502    0  0.00000000000E+00  0.00000000000E+00  0.14086729014E+04  0.14086729014E+04  0.00000000000E+00 0.  1.
         -2   -1    0    0    0  501 -0.00000000000E+00 -0.00000000000E+00 -0.48319282543E+00  0.48319282543E+00  0.00000000000E+00 0. -1.
          1    1    1    2  502    0  0.51243345131E+00 -0.21402237057E+02  0.11067885550E+04  0.11069955844E+04  0.00000000000E+00 0.  1.
         -1    1    1    2    0  501 -0.51243345131E+00  0.21402237057E+02  0.30140115358E+03  0.30216050986E+03  0.00000000000E+00 0. -1.
</event>
<event>
 4    1  0.6769686E+001  0.3154776E+02  0.7546771E-02  0.1406607E+00
          2   -1    0    0  502    0  0.00000000000E+00  0.00000000000E+00  0.50293647911E+03  0.50293647911E+03  0.00000000000E+00 0.  1.
         -2   -1    0    0    0  501 -0.00000000000E+00 -0.00000000000E+00 -0.19984393794E+01  0.19984393794E+01  0.00000000000E+00 0. -1.
          1    1    1    2  502    0  0.13982217192E+01 -0.31516763898E+02  0.27543253599E+03  0.27723337337E+03  0.00000000000E+00 0. -1.
         -1    1    1    2    0  501 -0.13982217192E+01  0.31516763898E+02  0.22550550374E+03  0.22770154511E+03  0.00000000000E+00 0.  1.
</event>
<event>
 4    1  0.6769686E+001  0.8975522E+02  0.7546771E-02  0.1182852E+00
          2   -1    0    0  502    0  0.00000000000E+00  0.00000000000E+00  0.27486339955E+02  0.27486339955E+02  0.00000000000E+00 0. -1.
         -2   -1    0    0    0  501 -0.00000000000E+00 -0.00000000000E+00 -0.35023750294E+03  0.35023750294E+03  0.00000000000E+00 0.  1.
          1    1    1    2  502    0  0.43096541372E+02  0.78731747894E+02 -0.23766384889E+03  0.25404744651E+03  0.00000000000E+00 0.  1.
         -1    1    1    2    0  501 -0.43096541372E+02 -0.78731747894E+02 -0.85087314091E+02  0.12367639639E+03  0.00000000000E+00 0. -1.
</event>
<event>
 4    1  0.6769686E+001  0.3048960E+02  0.7546771E-02  0.1415389E+00
          2   -1    0    0  502    0  0.00000000000E+00  0.00000000000E+00  0.22433737397E+03  0.22433737397E+03  0.00000000000E+00 0.  1.
         -2   -1    0    0    0  501 -0.00000000000E+00 -0.00000000000E+00 -0.53311709136E+01  0.53311709136E+01  0.00000000000E+00 0. -1.
          1    1    1    2  502    0 -0.30487202458E+02 -0.38254725520E+00  0.16369670202E+03  0.16651193984E+03  0.00000000000E+00 0.  1.
         -1    1    1    2    0  501  0.30487202458E+02  0.38254725520E+00  0.55309501037E+02  0.63156605047E+02  0.00000000000E+00 0. -1.
</event>
<event>
 4    1  0.6769686E+001  0.2066231E+02  0.7546771E-02  0.1524141E+00
          2   -1    0    0  502    0  0.00000000000E+00  0.00000000000E+00  0.23741426186E+04  0.23741426186E+04  0.00000000000E+00 0. -1.
         -2   -1    0    0    0  501 -0.00000000000E+00 -0.00000000000E+00 -0.19146050232E+00  0.19146050232E+00  0.00000000000E+00 0.  1.
          1    1    1    2  502    0 -0.30847732633E+01  0.20430739466E+02  0.14796325998E+04  0.14797768620E+04  0.00000000000E+00 0. -1.
         -1    1    1    2    0  501  0.30847732633E+01 -0.20430739466E+02  0.89431855830E+03  0.89455721710E+03  0.00000000000E+00 0.  1.
</event>
<event>
 4    1  0.6769686E+001  0.2493237E+02  0.7546771E-02  0.1469561E+00
          2   -1    0    0  502    0  0.00000000000E+00  0.00000000000E+00  0.34020445411E+01  0.34020445411E+01  0.00000000000E+00 0. -1.
         -2   -1    0    0    0  501 -0.00000000000E+00 -0.00000000000E+00 -0.25361531230E+03  0.25361531230E+03  0.00000000000E+00 0.  1.
          1    1    1    2  502    0 -0.21061242110E+02  0.13343435005E+02 -0.19305077964E+03  0.19465412067E+03  0.00000000000E+00 0.  1.
         -1    1    1    2    0  501  0.21061242110E+02 -0.13343435005E+02 -0.57162488126E+02  0.62363236171E+02  0.00000000000E+00 0. -1.
</event>
<event>
 4    1  0.6769686E+001  0.2939140E+02  0.7546771E-02  0.1424960E+00
          2   -1    0    0  502    0  0.00000000000E+00  0.00000000000E+00  0.10410500855E+03  0.10410500855E+03  0.00000000000E+00 0. -1.
         -2   -1    0    0    0  501 -0.00000000000E+00 -0.00000000000E+00 -0.13121216801E+02  0.13121216801E+02  0.00000000000E+00 0.  1.
          1    1    1    2  502    0  0.50147399863E+01 -0.28960430514E+02  0.99549497630E+01  0.31031519097E+02  0.00000000000E+00 0.  1.
         -1    1    1    2    0  501 -0.50147399863E+01  0.28960430514E+02  0.81028841986E+02  0.86194706255E+02  0.00000000000E+00 0. -1.
</event>
<event>
 4    1  0.6769686E+001  0.2456176E+02  0.7546771E-02  0.1473766E+00
          2   -1    0    0  502    0  0.00000000000E+00  0.00000000000E+00  0.12428538075E+02  0.12428538075E+02  0.00000000000E+00 0. -1.
         -2   -1    0    0    0  501 -0.00000000000E+00 -0.00000000000E+00 -0.76697839999E+02  0.76697839999E+02  0.00000000000E+00 0.  1.
          1    1    1    2  502    0  0.23693517592E+02 -0.64727967527E+01 -0.51333176024E+01  0.25092445543E+02  0.00000000000E+00 0. -1.
         -1    1    1    2    0  501 -0.23693517592E+02  0.64727967527E+01 -0.59135984322E+02  0.64033932532E+02  0.00000000000E+00 0.  1.
</event>
<event>
 4    1  0.6769686E+001  0.2298160E+02  0.7546771E-02  0.1492729E+00
          2   -1    0    0  502    0  0.00000000000E+00  0.00000000000E+00  0.78682384026E+01  0.78682384026E+01  0.00000000000E+00 0.  1.
         -2   -1    0    0    0  501 -0.00000000000E+00 -0.00000000000E+00 -0.72283323256E+02  0.72283323256E+02  0.00000000000E+00 0. -1.
          1    1    1    2  502    0  0.22555424132E+02 -0.44053279331E+01 -0.42913484010E+02  0.48679782065E+02  0.00000000000E+00 0. -1.
         -1    1    1    2    0  501 -0.22555424132E+02  0.44053279331E+01 -0.21501600843E+02  0.31471779593E+02  0.00000000000E+00 0.  1.
</event>
<event>
 4    1  0.6769686E+001  0.2694502E+02  0.7546771E-02  0.1448161E+00
          2   -1    0    0  502    0  0.00000000000E+00  0.00000000000E+00  0.79344385565E+03  0.79344385565E+03  0.00000000000E+00 0. -1.
         -2   -1    0    0    0  501 -0.00000000000E+00 -0.00000000000E+00 -0.18752438407E+01  0.18752438407E+01  0.00000000000E+00 0.  1.
          1    1    1    2  502    0 -0.23077490847E+01 -0.26846017120E+02  0.11123086508E+03  0.11444797809E+03  0.00000000000E+00 0.  1.
         -1    1    1    2    0  501  0.23077490847E+01  0.26846017120E+02  0.68033774673E+03  0.68087112140E+03  0.00000000000E+00 0. -1.
</event>
<event>
 4    1  0.6769686E+001  0.2617490E+02  0.7546771E-02  0.1456077E+00
          2   -1    0    0  502    0  0.00000000000E+00  0.00000000000E+00  0.48995050742E+03  0.48995050742E+03  0.00000000000E+00 0.  1.
         -2   -1    0    0    0  501 -0.00000000000E+00 -0.00000000000E+00 -0.32036398612E+01  0.32036398612E+01  0.00000000000E+00 0. -1.
          1    1    1    2  502    0 -0.12224032573E+02 -0.23145159504E+02  0.42847221663E+03  0.42927097014E+03  0.00000000000E+00 0.  1.
         -1    1    1    2    0  501  0.12224032573E+02  0.23145159504E+02  0.58274650928E+02  0.63883177141E+02  0.00000000000E+00 0. -1.
</event>
<event>
 4    1  0.6769686E+001  0.2654488E+02  0.7546771E-02  0.1452234E+00
          2   -1    0    0  502    0  0.00000000000E+00  0.00000000000E+00  0.86074949836E+03  0.86074949836E+03  0.00000000000E+00 0. -1.
         -2   -1    0    0    0  501 -0.00000000000E+00 -0.00000000000E+00 -0.83245817324E+00  0.83245817324E+00  0.00000000000E+00 0.  1.
          1    1    1    2  502    0 -0.24730323544E+02 -0.96458100263E+01  0.48549207766E+03  0.48621722308E+03  0.00000000000E+00 0.  1.
         -1    1    1    2    0  501  0.24730323544E+02  0.96458100263E+01  0.37442496253E+03  0.37536473345E+03  0.00000000000E+00 0. -1.
</event>
<event>
 4    1  0.6769686E+001  0.2088541E+02  0.7546771E-02  0.1520907E+00
          2   -1    0    0  502    0  0.00000000000E+00  0.00000000000E+00  0.49332687195E+01  0.49332687195E+01  0.00000000000E+00 0. -1.
         -2   -1    0    0    0  501 -0.00000000000E+00 -0.00000000000E+00 -0.93276105831E+02  0.93276105831E+02  0.00000000000E+00 0.  1.
          1    1    1    2  502    0 -0.48666904082E+01  0.20310479066E+02 -0.55375499581E+02  0.59183157987E+02  0.00000000000E+00 0.  1.
         -1    1    1    2    0  501  0.48666904082E+01 -0.20310479066E+02 -0.32967337530E+02  0.39026216564E+02  0.00000000000E+00 0. -1.
</event>
<event>
 4    1  0.6769686E+001  0.2095145E+02  0.7546771E-02  0.1519959E+00
          2   -1    0    0  502    0  0.00000000000E+00  0.00000000000E+00  0.15417687477E+04  0.15417687477E+04  0.00000000000E+00 0. -1.
         -2   -1    0    0    0  501 -0.00000000000E+00 -0.00000000000E+00 -0.28583762527E+00  0.28583762527E+00  0.00000000000E+00 0.  1.
          1    1    1    2  502    0  0.96919310927E+01 -0.18574978418E+02  0.81908018012E+03  0.81934809746E+03  0.00000000000E+00 0. -1.
         -1    1    1    2    0  501 -0.96919310927E+01  0.18574978418E+02  0.72240272992E+03  0.72270648783E+03  0.00000000000E+00 0.  1.
</event>
<event>
 4    1  0.6769686E+001  0.3414136E+02  0.7546771E-02  0.1386702E+00
          2   -1    0    0  502    0  0.00000000000E+00  0.00000000000E+00  0.34987794376E+02  0.34987794376E+02  0.00000000000E+00 0.  1.
         -2   -1    0    0    0  501 -0.00000000000E+00 -0.00000000000E+00 -0.60696207444E+02  0.60696207444E+02  0.00000000000E+00 0. -1.
          1    1    1    2  502    0  0.33688528511E+02  0.55421577447E+01 -0.44987235089E+02  0.56475514930E+02  0.00000000000E+00 0. -1.
         -1    1    1    2    0  501 -0.33688528511E+02 -0.55421577447E+01  0.19278822021E+02  0.39208486890E+02  0.00000000000E+00 0.  1.
</event>
<event>
 4    1  0.6769686E+001  0.2099152E+02  0.7546771E-02  0.1519386E+00
          2   -1    0    0  502    0  0.00000000000E+00  0.00000000000E+00  0.19658042904E+01  0.19658042904E+01  0.00000000000E+00 0.  1.
         -2   -1    0    0    0  501 -0.00000000000E+00 -0.00000000000E+00 -0.24037805866E+03  0.24037805866E+03  0.00000000000E+00 0. -1.
          1    1    1    2  502    0  0.53956463171E+01 -0.20286225487E+02 -0.15068558415E+03  0.15214068888E+03  0.00000000000E+00 0. -1.
         -1    1    1    2    0  501 -0.53956463171E+01  0.20286225487E+02 -0.87726670219E+02  0.90203174065E+02  0.00000000000E+00 0.  1.
</event>
<event>
 4    1  0.6769686E+001  0.2883201E+02  0.7546771E-02  0.1430025E+00
          2   -1    0    0  502    0  0.00000000000E+00  0.00000000000E+00  0.90989900926E+03  0.90989900926E+03  0.00000000000E+00 0. -1.
         -2   -1    0    0    0  501 -0.00000000000E+00 -0.00000000000E+00 -0.11608632407E+01  0.11608632407E+01  0.00000000000E+00 0.  1.
          1    1    1    2  502    0  0.26576426131E+02 -0.11179371460E+02  0.66460414633E+03  0.66522925078E+03  0.00000000000E+00 0. -1.
         -1    1    1    2    0  501 -0.26576426131E+02  0.11179371460E+02  0.24413399969E+03  0.24583062172E+03  0.00000000000E+00 0.  1.
</event>
<event>
 4    1  0.6769686E+001  0.2749368E+02  0.7546771E-02  0.1442711E+00
          2   -1    0    0  502    0  0.00000000000E+00  0.00000000000E+00  0.35659493858E+03  0.35659493858E+03  0.00000000000E+00 0.  1.
         -2   -1    0    0    0  501 -0.00000000000E+00 -0.00000000000E+00 -0.25633491210E+01  0.25633491210E+01  0.00000000000E+00 0. -1.
          1    1    1    2  502    0 -0.27234352764E+02  0.37672780888E+01  0.25171798004E+03  0.25321501502E+03  0.00000000000E+00 0.  1.
         -1    1    1    2    0  501  0.27234352764E+02 -0.37672780888E+01  0.10231360942E+03  0.10594327268E+03  0.00000000000E+00 0. -1.
</event>
<event>
 4    1  0.6769686E+001  0.3405076E+02  0.7546771E-02  0.1387362E+00
          2   -1    0    0  502    0  0.00000000000E+00  0.00000000000E+00  0.84113437959E+02  0.84113437959E+02  0.00000000000E+00 0. -1.
         -2   -1    0    0    0  501 -0.00000000000E+00 -0.00000000000E+00 -0.17289947338E+02  0.17289947338E+02  0.00000000000E+00 0.  1.
          1    1    1    2  502    0  0.21668582099E+02  0.26266452728E+02  0.56241593026E+02  0.65746260542E+02  0.00000000000E+00 0. -1.
         -1    1    1    2    0  501 -0.21668582099E+02 -0.26266452728E+02  0.10581897595E+02  0.35657124755E+02  0.00000000000E+00 0.  1.
</event>
<event>
 4    1  0.6769686E+001  0.2230507E+02  0.7546771E-02  0.1501414E+00
          2   -1    0    0  502    0  0.00000000000E+00  0.00000000000E+00  0.43135726977E+03  0.43135726977E+03  0.00000000000E+00 0. -1.
         -2   -1    0    0    0  501 -0.00000000000E+00 -0.00000000000E+00 -0.11694132161E+01  0.11694132161E+01  0.00000000000E+00 0.  1.
          1    1    1    2  502    0 -0.14425322338E+02  0.17012534758E+02  0.18976654277E+03  0.19107291022E+03  0.00000000000E+00 0.  1.
         -1    1    1    2    0  501  0.14425322338E+02 -0.17012534758E+02  0.24042131378E+03  0.24145377277E+03  0.00000000000E+00 0. -1.
</event>
<event>
 4    1  0.6769686E+001  0.2582479E+02  0.7546771E-02  0.1459784E+00
          2   -1    0    0  502    0  0.00000000000E+00  0.00000000000E+00  0.33967373616E+03  0.33967373616E+03  0.00000000000E+00 0. -1.
         -2   -1    0    0    0  501 -0.00000000000E+00 -0.00000000000E+00 -0.32452873509E+01  0.32452873509E+01  0.00000000000E+00 0.  1.
          1    1    1    2  502    0  0.19657228936E+02 -0.16748523311E+02  0.27597427987E+03  0.27717994667E+03  0.00000000000E+00 0. -1.
         -1    1    1    2    0  501 -0.19657228936E+02  0.16748523311E+02  0.60454168930E+02  0.65739076839E+02  0.00000000000E+00 0.  1.
</event>
<event>
 4    1  0.6769686E+001  0.2373341E+02  0.7546771E-02  0.1483488E+00
          2   -1    0    0  502    0  0.00000000000E+00  0.00000000000E+00  0.14384837757E+03  0.14384837757E+03  0.00000000000E+00 0.  1.
         -2   -1    0    0    0  501 -0.00000000000E+00 -0.00000000000E+00 -0.39307608886E+01  0.39307608886E+01  0.00000000000E+00 0. -1.
          1    1    1    2  502    0 -0.14291238639E+02  0.18948223171E+02  0.74524535314E+02  0.78212409673E+02  0.00000000000E+00 0.  1.
         -1    1    1    2    0  501  0.14291238639E+02 -0.18948223171E+02  0.65393081370E+02  0.69566728788E+02  0.00000000000E+00 0. -1.
</event>
<event>
 4    1  0.6769686E+001  0.2116614E+02  0.7546771E-02  0.1516906E+00
          2   -1    0    0  502    0  0.00000000000E+00  0.00000000000E+00  0.12627536706E+03  0.12627536706E+03  0.00000000000E+00 0.  1.
         -2   -1    0    0    0  501 -0.00000000000E+00 -0.00000000000E+00 -0.38145052163E+01  0.38145052163E+01  0.00000000000E+00 0. -1.
          1    1    1    2  502    0  0.20310206313E+02 -0.59582713595E+01  0.44032619351E+02  0.48855675668E+02  0.00000000000E+00 0. -1.
         -1    1    1    2    0  501 -0.20310206313E+02  0.59582713595E+01  0.78428242487E+02  0.81234196603E+02  0.00000000000E+00 0.  1.
</event>
<event>
 4    1  0.6769686E+001  0.2870763E+02  0.7546771E-02  0.1431170E+00
          2   -1    0    0  502    0  0.00000000000E+00  0.00000000000E+00  0.72876602967E+03  0.72876602967E+03  0.00000000000E+00 0.  1.
         -2   -1    0    0    0  501 -0.00000000000E+00 -0.00000000000E+00 -0.11310692186E+01  0.11310692186E+01  0.00000000000E+00 0. -1.
          1    1    1    2  502    0 -0.17954545539E+02  0.22400045446E+02  0.35877949953E+03  0.35992618275E+03  0.00000000000E+00 0.  1.
         -1    1    1    2    0  501  0.17954545539E+02 -0.22400045446E+02  0.36885546092E+03  0.36997091615E+03  0.00000000000E+00 0. -1.
</event>
<event>
 4    1  0.6769686E+001  0.6601163E+02  0.7546771E-02  0.1240670E+00
          2   -1    0    0  502    0  0.00000000000E+00  0.00000000000E+00  0.40146673116E+03  0.40146673116E+03  0.00000000000E+00 0. -1.
         -2   -1    0    0    0  501 -0.00000000000E+00 -0.00000000000E+00 -0.10868739783E+02  0.10868739783E+02  0.00000000000E+00 0.  1.
          1    1    1    2  502    0 -0.27396076606E+02 -0.60058225092E+02  0.20288139379E+03  0.21335040511E+03  0.00000000000E+00 0.  1.
         -1    1    1    2    0  501  0.27396076606E+02  0.60058225092E+02  0.18771659759E+03  0.19898506583E+03  0.00000000000E+00 0. -1.
</event>
<event>
 4    1  0.6769686E+001  0.4554440E+02  0.7546771E-02  0.1318739E+00
          2   -1    0    0  502    0  0.00000000000E+00  0.00000000000E+00  0.37508725190E+01  0.37508725190E+01  0.00000000000E+00 0.  1.
         -2   -1    0    0    0  501 -0.00000000000E+00 -0.00000000000E+00 -0.58124992021E+03  0.58124992021E+03  0.00000000000E+00 0. -1.
          1    1    1    2  502    0  0.44441013070E+02 -0.99643584024E+01 -0.22428340996E+03  0.22886096230E+03  0.00000000000E+00 0.  1.
         -1    1    1    2    0  501 -0.44441013070E+02  0.99643584024E+01 -0.35321563773E+03  0.35613983043E+03  0.00000000000E+00 0. -1.
</event>
<event>
 4    1  0.6769686E+001  0.2740542E+02  0.7546771E-02  0.1443578E+00
          2   -1    0    0  502    0  0.00000000000E+00  0.00000000000E+00  0.16198293906E+03  0.16198293906E+03  0.00000000000E+00 0.  1.
         -2   -1    0    0    0  501 -0.00000000000E+00 -0.00000000000E+00 -0.47228647724E+01  0.47228647724E+01  0.00000000000E+00 0. -1.
          1    1    1    2  502    0  0.21113980338E+02 -0.17471596688E+02  0.67367671761E+02  0.72728674228E+02  0.00000000000E+00 0. -1.
         -1    1    1    2    0  501 -0.21113980338E+02  0.17471596688E+02  0.89892402529E+02  0.93977129607E+02  0.00000000000E+00 0.  1.
</event>
<event>
 4    1  0.6769686E+001  0.4690151E+02  0.7546771E-02  0.1312196E+00
          2   -1    0    0  502    0  0.00000000000E+00  0.00000000000E+00  0.13546740619E+04  0.13546740619E+04  0.00000000000E+00 0.  1.
         -2   -1    0    0    0  501 -0.00000000000E+00 -0.00000000000E+00 -0.22032704619E+01  0.22032704619E+01  0.00000000000E+00 0. -1.
          1    1    1    2  502    0 -0.45855413212E+02 -0.98505085735E+01  0.10241587394E+04  0.10252321078E+04  0.00000000000E+00 0.  1.
         -1    1    1    2    0  501  0.45855413212E+02  0.98505085735E+01  0.32831205203E+03  0.33164522452E+03  0.00000000000E+00 0. -1.
</event>
<event>
 4    1  0.6769686E+001  0.2686820E+02  0.7546771E-02  0.1448937E+00
          2   -1    0    0  502    0  0.00000000000E+00  0.00000000000E+00  0.11102786785E+02  0.11102786785E+02  0.00000000000E+00 0. -1.
         -2   -1    0    0    0  501 -0.00000000000E+00 -0.00000000000E+00 -0.74551706868E+02  0.74551706868E+02  0.00000000000E+00 0.  1.
          1    1    1    2  502    0 -0.23843031291E+02 -0.12385885616E+02 -0.47038248240E+02  0.54170998708E+02  0.00000000000E+00 0.  1.
         -1    1    1    2    0  501  0.23843031291E+02  0.12385885616E+02 -0.16410671843E+02  0.31483494945E+02  0.00000000000E+00 0. -1.
</event>
<event>
 4    1  0.6769686E+001  0.3576251E+02  0.7546771E-02  0.1375280E+00
          2   -1    0    0  502    0  0.00000000000E+00  0.00000000000E+00  0.50760091868E+02  0.50760091868E+02  0.00000000000E+00 0.  1.
         -2   -1    0    0    0  501 -0.00000000000E+00 -0.00000000000E+00 -0.26538723125E+02  0.26538723125E+02  0.00000000000E+00 0. -1.
          1    1    1    2  502    0  0.35535492704E+02 -0.40231888740E+01  0.34175399227E+01  0.35925434856E+02  0.00000000000E+00 0.  1.
         -1    1    1    2    0  501 -0.35535492704E+02  0.40231888740E+01  0.20803828820E+02  0.41373380138E+02  0.00000000000E+00 0. -1.
</event>
<event>
 4    1  0.6769686E+001  0.2641780E+02  0.7546771E-02  0.1453546E+00
          2   -1    0    0  502    0  0.00000000000E+00  0.00000000000E+00  0.11362057994E+03  0.11362057994E+03  0.00000000000E+00 0.  1.
         -2   -1    0    0    0  501 -0.00000000000E+00 -0.00000000000E+00 -0.84124276750E+01  0.84124276750E+01  0.00000000000E+00 0. -1.
          1    1    1    2  502    0  0.26166659546E+02  0.36339979127E+01  0.20908052577E+02  0.33690453769E+02  0.00000000000E+00 0. -1.
         -1    1    1    2    0  501 -0.26166659546E+02 -0.36339979127E+01  0.84300099688E+02  0.88342553846E+02  0.00000000000E+00 0.  1.
</event>
<event>
 4    1  0.6769686E+001  0.2145653E+02  0.7546771E-02  0.1512846E+00
          2   -1    0    0  502    0  0.00000000000E+00  0.00000000000E+00  0.43182590375E+02  0.43182590375E+02  0.00000000000E+00 0. -1.
         -2   -1    0    0    0  501 -0.00000000000E+00 -0.00000000000E+00 -0.17674548008E+02  0.17674548008E+02  0.00000000000E+00 0.  1.
          1    1    1    2  502    0 -0.20348914930E+02 -0.68047161915E+01 -0.64135465803E+01  0.22394554718E+02  0.00000000000E+00 0.  1.
         -1    1    1    2    0  501  0.20348914930E+02  0.68047161915E+01  0.31921588947E+02  0.38462583665E+02  0.00000000000E+00 0. -1.
</event>
<event>
 4    1  0.6769686E+001  0.4775283E+02  0.7546771E-02  0.1308221E+00
          2   -1    0    0  502    0  0.00000000000E+00  0.00000000000E+00  0.48459013394E+02  0.48459013394E+02  0.00000000000E+00 0. -1.
         -2   -1    0    0    0  501 -0.00000000000E+00 -0.00000000000E+00 -0.47255276946E+02  0.47255276946E+02  0.00000000000E+00 0.  1.
          1    1    1    2  502    0  0.32371961949E+02  0.35105400410E+02  0.37022811687E+01  0.47896137049E+02  0.00000000000E+00 0.  1.
         -1    1    1    2    0  501 -0.32371961949E+02 -0.35105400410E+02 -0.24985447211E+01  0.47818153291E+02  0.00000000000E+00 0. -1.
</event>
<event>
 4    1  0.6769686E+001  0.2527187E+02  0.7546771E-02  0.1465785E+00
          2   -1    0    0  502    0  0.00000000000E+00  0.00000000000E+00  0.25059467019E+03  0.25059467019E+03  0.00000000000E+00 0.  1.
         -2   -1    0    0    0  501 -0.00000000000E+00 -0.00000000000E+00 -0.93202998942E+01  0.93202998942E+01  0.00000000000E+00 0. -1.
          1    1    1    2  502    0  0.20514938567E+02 -0.14758207195E+02  0.98639154273E+01  0.27128660335E+02  0.00000000000E+00 0. -1.
         -1    1    1    2    0  501 -0.20514938567E+02  0.14758207195E+02  0.23141045487E+03  0.23278630975E+03  0.00000000000E+00 0.  1.
</event>
<event>
 4    1  0.6769686E+001  0.2839520E+02  0.7546771E-02  0.1434075E+00
          2   -1    0    0  502    0  0.00000000000E+00  0.00000000000E+00  0.64952355605E+01  0.64952355605E+01  0.00000000000E+00 0. -1.
         -2   -1    0    0    0  501 -0.00000000000E+00 -0.00000000000E+00 -0.12727024025E+03  0.12727024025E+03  0.00000000000E+00 0.  1.
          1    1    1    2  502    0  0.13502157209E+02 -0.24979576554E+02 -0.70884637724E+02  0.76360456778E+02  0.00000000000E+00 0. -1.
         -1    1    1    2    0  501 -0.13502157209E+02  0.24979576554E+02 -0.49890366961E+02  0.57405019028E+02  0.00000000000E+00 0.  1.
</event>
<event>
 4    1  0.6769686E+001  0.3714555E+02  0.7546771E-02  0.1366077E+00
          2   -1    0    0  502    0  0.00000000000E+00  0.00000000000E+00  0.22606912815E+03  0.22606912815E+03  0.00000000000E+00 0.  1.
         -2   -1    0    0    0  501 -0.00000000000E+00 -0.00000000000E+00 -0.12695182584E+03  0.12695182584E+03  0.00000000000E+00 0. -1.
          1    1    1    2  502    0  0.11932145003E+02  0.35176923361E+02 -0.12265655592E+03  0.12815780402E+03  0.00000000000E+00 0. -1.
         -1    1    1    2    0  501 -0.11932145003E+02 -0.35176923361E+02  0.22177385823E+03  0.22486314997E+03  0.00000000000E+00 0.  1.
</event>
<event>
 4    1  0.6769686E+001  0.3726514E+02  0.7546771E-02  0.1365303E+00
          2   -1    0    0  502    0  0.00000000000E+00  0.00000000000E+00  0.25538839061E+04  0.25538839061E+04  0.00000000000E+00 0.  1.
         -2   -1    0    0    0  501 -0.00000000000E+00 -0.00000000000E+00 -0.76537434885E+00  0.76537434885E+00  0.00000000000E+00 0. -1.
          1    1    1    2  502    0 -0.35199583437E+02  0.12234371619E+02  0.58922676674E+03  0.59040399149E+03  0.00000000000E+00 0. -1.
         -1    1    1    2    0  501  0.35199583437E+02 -0.12234371619E+02  0.19638917650E+04  0.19642452890E+04  0.00000000000E+00 0.  1.
</event>
<event>
 4    1  0.6769686E+001  0.2248877E+02  0.7546771E-02  0.1499019E+00
          2   -1    0    0  502    0  0.00000000000E+00  0.00000000000E+00  0.11967910412E+02  0.11967910412E+02  0.00000000000E+00 0.  1.
         -2   -1    0    0    0  501 -0.00000000000E+00 -0.00000000000E+00 -0.43164757374E+02  0.43164757374E+02  0.00000000000E+00 0. -1.
          1    1    1    2  502    0 -0.10766364880E+02 -0.19744119132E+02 -0.19592919017E+02  0.29826621141E+02  0.00000000000E+00 0. -1.
         -1    1    1    2    0  501  0.10766364880E+02  0.19744119132E+02 -0.11603927944E+02  0.25306046645E+02  0.00000000000E+00 0.  1.
</event>
<event>
 4    1  0.6769686E+001  0.2684356E+02  0.7546771E-02  0.1449186E+00
          2   -1    0    0  502    0  0.00000000000E+00  0.00000000000E+00  0.33112253848E+02  0.33112253848E+02  0.00000000000E+00 0. -1.
         -2   -1    0    0    0  501 -0.00000000000E+00 -0.00000000000E+00 -0.21877947586E+02  0.21877947586E+02  0.00000000000E+00 0.  1.
          1    1    1    2  502    0  0.14402176194E+02 -0.22652900385E+02  0.76219809130E+01  0.27904680037E+02  0.00000000000E+00 0.  1.
         -1    1    1    2    0  501 -0.14402176194E+02  0.22652900385E+02  0.36123253488E+01  0.27085521397E+02  0.00000000000E+00 0. -1.
</event>
<event>
 4    1  0.6769686E+001  0.2481177E+02  0.7546771E-02  0.1470920E+00
          2   -1    0    0  502    0  0.00000000000E+00  0.00000000000E+00  0.22730120619E+03  0.22730120619E+03  0.00000000000E+00 0. -1.
         -2   -1    0    0    0  501 -0.00000000000E+00 -0.00000000000E+00 -0.29667948197E+01  0.29667948197E+01  0.00000000000E+00 0.  1.
          1    1    1    2  502    0  0.24267351792E+02  0.51690777744E+01  0.14614518293E+03  0.14823642677E+03  0.00000000000E+00 0. -1.
         -1    1    1    2    0  501 -0.24267351792E+02 -0.51690777744E+01  0.78189228439E+02  0.82031574238E+02  0.00000000000E+00 0.  1.
</event>
<event>
 4    1  0.6769686E+001  0.2030660E+02  0.7546771E-02  0.1529399E+00
          2   -1    0    0  502    0  0.00000000000E+00  0.00000000000E+00  0.26347376154E+01  0.26347376154E+01  0.00000000000E+00 0. -1.
         -2   -1    0    0    0  501 -0.00000000000E+00 -0.00000000000E+00 -0.18611400474E+03  0.18611400474E+03  0.00000000000E+00 0.  1.
          1    1    1    2  502    0 -0.42858684705E+00  0.20302073238E+02 -0.54099299227E+02  0.57784877272E+02  0.00000000000E+00 0. -1.
         -1    1    1    2    0  501  0.42858684705E+00 -0.20302073238E+02 -0.12937996790E+03  0.13096386508E+03  0.00000000000E+00 0.  1.
</event>
<event>
 4    1  0.6769686E+001  0.2048532E+02  0.7546771E-02  0.1526742E+00
          2   -1    0    0  502    0  0.00000000000E+00  0.00000000000E+00  0.19513624576E+02  0.19513624576E+02  0.00000000000E+00 0.  1.
         -2   -1    0    0    0  501 -0.00000000000E+00 -0.00000000000E+00 -0.53974100888E+02  0.53974100888E+02  0.00000000000E+00 0. -1.
          1    1    1    2  502    0 -0.79962780302E+01 -0.18860217233E+02  0.11268430600E+02  0.23380029611E+02  0.00000000000E+00 0.  1.
         -1    1    1    2    0  501  0.79962780302E+01  0.18860217233E+02 -0.45728906911E+02  0.50107695853E+02  0.00000000000E+00 0. -1.
</event>
<event>
 4    1  0.6769686E+001  0.2924742E+02  0.7546771E-02  0.1426251E+00
          2   -1    0    0  502    0  0.00000000000E+00  0.00000000000E+00  0.13260303519E+04  0.13260303519E+04  0.00000000000E+00 0. -1.
         -2   -1    0    0    0  501 -0.00000000000E+00 -0.00000000000E+00 -0.79303009735E+00  0.79303009735E+00  0.00000000000E+00 0.  1.
          1    1    1    2  502    0 -0.57582970592E+01 -0.28674966909E+02  0.37608335328E+03  0.37721890240E+03  0.00000000000E+00 0.  1.
         -1    1    1    2    0  501  0.57582970592E+01  0.28674966909E+02  0.94915396848E+03  0.94960447956E+03  0.00000000000E+00 0. -1.
</event>
<event>
 4    1  0.6769686E+001  0.2486829E+02  0.7546771E-02  0.1470282E+00
          2   -1    0    0  502    0  0.00000000000E+00  0.00000000000E+00  0.33926617403E+03  0.33926617403E+03  0.00000000000E+00 0. -1.
         -2   -1    0    0    0  501 -0.00000000000E+00 -0.00000000000E+00 -0.28841722117E+01  0.28841722117E+01  0.00000000000E+00 0.  1.
          1    1    1    2  502    0 -0.41348672808E+01 -0.24522131119E+02  0.27196763977E+03  0.27310223200E+03  0.00000000000E+00 0. -1.
         -1    1    1    2    0  501  0.41348672808E+01  0.24522131119E+02  0.64414362044E+02  0.69048114236E+02  0.00000000000E+00 0.  1.
</event>
<event>
 4    1  0.6769686E+001  0.4721203E+02  0.7546771E-02  0.1310735E+00
          2   -1    0    0  502    0  0.00000000000E+00  0.00000000000E+00  0.72544864185E+03  0.72544864185E+03  0.00000000000E+00 0.  1.
         -2   -1    0    0    0  501 -0.00000000000E+00 -0.00000000000E+00 -0.95019261142E+01  0.95019261142E+01  0.00000000000E+00 0. -1.
          1    1    1    2  502    0 -0.45722362460E+02 -0.11766098825E+02  0.66025154273E+03  0.66193736501E+03  0.00000000000E+00 0.  1.
         -1    1    1    2    0  501  0.45722362460E+02  0.11766098825E+02  0.55695173007E+02  0.73013202962E+02  0.00000000000E+00 0. -1.
</event>
<event>
 4    1  0.6769686E+001  0.2447350E+02  0.7546771E-02  0.1474780E+00
          2   -1    0    0  502    0  0.00000000000E+00  0.00000000000E+00  0.39164408210E+02  0.39164408210E+02  0.00000000000E+00 0.  1.
         -2   -1    0    0    0  501 -0.00000000000E+00 -0.00000000000E+00 -0.15295210967E+02  0.15295210967E+02  0.00000000000E+00 0. -1.
          1    1    1    2  502    0  0.42380998986E+01  0.24103745101E+02  0.11628156499E+02  0.27095498560E+02  0.00000000000E+00 0.  1.
         -1    1    1    2    0  501 -0.42380998986E+01 -0.24103745101E+02  0.12241040744E+02  0.27364120617E+02  0.00000000000E+00 0. -1.
</event>
<event>
 4    1  0.6769686E+001  0.2300240E+02  0.7546771E-02  0.1492468E+00
          2   -1    0    0  502    0  0.00000000000E+00  0.00000000000E+00  0.40906773358E+03  0.40906773358E+03  0.00000000000E+00 0. -1.
         -2   -1    0    0    0  501 -0.00000000000E+00 -0.00000000000E+00 -0.14441324534E+01  0.14441324534E+01  0.00000000000E+00 0.  1.
          1    1    1    2  502    0  0.22961901928E+02  0.13643809061E+01  0.13751124748E+03  0.13942185503E+03  0.00000000000E+00 0.  1.
         -1    1    1    2    0  501 -0.22961901928E+02 -0.13643809061E+01  0.27011235365E+03  0.27109001101E+03  0.00000000000E+00 0. -1.
</event>
<event>
 4    1  0.6769686E+001  0.3239902E+02  0.7546771E-02  0.1399833E+00
          2   -1    0    0  502    0  0.00000000000E+00  0.00000000000E+00  0.27722064666E+02  0.27722064666E+02  0.00000000000E+00 0.  1.
         -2   -1    0    0    0  501 -0.00000000000E+00 -0.00000000000E+00 -0.37868514009E+02  0.37868514009E+02  0.00000000000E+00 0. -1.
          1    1    1    2  502    0  0.32367983441E+02 -0.14177647624E+01 -0.53884435747E+01  0.32844051716E+02  0.00000000000E+00 0.  1.
         -1    1    1    2    0  501 -0.32367983441E+02  0.14177647624E+01 -0.47580057676E+01  0.32746526959E+02  0.00000000000E+00 0. -1.
</event>
<event>
 4    1  0.6769686E+001  0.2388077E+02  0.7546771E-02  0.1481725E+00
          2   -1    0    0  502    0  0.00000000000E+00  0.00000000000E+00  0.20394526047E+02  0.20394526047E+02  0.00000000000E+00 0. -1.
         -2   -1    0    0    0  501 -0.00000000000E+00 -0.00000000000E+00 -0.12050211056E+03  0.12050211056E+03  0.00000000000E+00 0.  1.
          1    1    1    2  502    0  0.36173291420E+01 -0.23605212270E+02 -0.11178945019E+03  0.11431173295E+03  0.00000000000E+00 0.  1.
         -1    1    1    2    0  501 -0.36173291420E+01  0.23605212270E+02  0.11681865680E+02  0.26584903652E+02  0.00000000000E+00 0. -1.
</event>
<event>
 4    1  0.6769686E+001  0.3665152E+02  0.7546771E-02  0.1369310E+00
          2   -1    0    0  502    0  0.00000000000E+00  0.00000000000E+00  0.18198598853E+03  0.18198598853E+03  0.00000000000E+00 0.  1.
         -2   -1    0    0    0  501 -0.00000000000E+00 -0.00000000000E+00 -0.73868209188E+01  0.73868209188E+01  0.00000000000E+00 0. -1.
          1    1    1    2  502    0  0.34283515095E+02  0.12960506104E+02  0.84764285286E+02  0.92348893798E+02  0.00000000000E+00 0.  1.
         -1    1    1    2    0  501 -0.34283515095E+02 -0.12960506104E+02  0.89834882325E+02  0.97023915650E+02  0.00000000000E+00 0. -1.
</event>
<event>
 4    1  0.6769686E+001  0.3298589E+02  0.7546771E-02  0.1395304E+00
          2   -1    0    0  502    0  0.00000000000E+00  0.00000000000E+00  0.33414568678E+01  0.33414568678E+01  0.00000000000E+00 0. -1.
         -2   -1    0    0    0  501 -0.00000000000E+00 -0.00000000000E+00 -0.35168611289E+03  0.35168611289E+03  0.00000000000E+00 0.  1.
          1    1    1    2  502    0  0.32982480328E+02  0.47406373635E+00 -0.12585155590E+03  0.13010258594E+03  0.00000000000E+00 0. -1.
         -1    1    1    2    0  501 -0.32982480328E+02 -0.47406373635E+00 -0.22249310012E+03  0.22492498382E+03  0.00000000000E+00 0.  1.
</event>
<event>
 4    1  0.6769686E+001  0.2382439E+02  0.7546771E-02  0.1482398E+00
          2   -1    0    0  502    0  0.00000000000E+00  0.00000000000E+00  0.18804608860E+04  0.18804608860E+04  0.00000000000E+00 0.  1.
         -2   -1    0    0    0  501 -0.00000000000E+00 -0.00000000000E+00 -0.39521359230E+00  0.39521359230E+00  0.00000000000E+00 0. -1.
          1    1    1    2  502    0  0.22849916493E+02  0.67440833207E+01  0.48292578073E+03  0.48351309293E+03  0.00000000000E+00 0. -1.
         -1    1    1    2    0  501 -0.22849916493E+02 -0.67440833207E+01  0.13971398916E+04  0.13973430066E+04  0.00000000000E+00 0.  1.
</event>
<event>
 4    1  0.6769686E+001  0.2222482E+02  0.7546771E-02  0.1502469E+00
          2   -1    0    0  502    0  0.00000000000E+00  0.00000000000E+00  0.79221958534E+02  0.79221958534E+02  0.00000000000E+00 0. -1.
         -2   -1    0    0    0  501 -0.00000000000E+00 -0.00000000000E+00 -0.71798181202E+01  0.71798181202E+01  0.00000000000E+00 0.  1.
          1    1    1    2  502    0 -0.84175749423E+01  0.20569075192E+02  0.20348909084E+02  0.30133378886E+02  0.00000000000E+00 0.  1.
         -1    1    1    2    0  501  0.84175749423E+01 -0.20569075192E+02  0.51693231329E+02  0.56268397768E+02  0.00000000000E+00 0. -1.
</event>
<event>
 4    1  0.6769686E+001  0.2346762E+02  0.7546771E-02  0.1486708E+00
          2   -1    0    0  502    0  0.00000000000E+00  0.00000000000E+00  0.47685846169E+01  0.47685846169E+01  0.00000000000E+00 0. -1.
         -2   -1    0    0    0  501 -0.00000000000E+00 -0.00000000000E+00 -0.12448597243E+03  0.12448597243E+03  0.00000000000E+00 0.  1.
          1    1    1    2  502    0  0.18425015758E+02  0.14534367177E+02 -0.42486550463E+02  0.48536955046E+02  0.00000000000E+00 0. -1.
         -1    1    1    2    0  501 -0.18425015758E+02 -0.14534367177E+02 -0.77230837345E+02  0.80717601996E+02  0.00000000000E+00 0.  1.
</event>
<event>
 4    1  0.6769686E+001  0.2262323E+02  0.7546771E-02  0.1497284E+00
          2   -1    0    0  502    0  0.00000000000E+00  0.00000000000E+00  0.12143626760E+04  0.12143626760E+04  0.00000000000E+00 0. -1.
         -2   -1    0    0    0  501 -0.00000000000E+00 -0.00000000000E+00 -0.42328035545E+00  0.42328035545E+00  0.00000000000E+00 0.  1.
          1    1    1    2  502    0 -0.21061535527E+02  0.82596713438E+01  0.64675537300E+03  0.64715092749E+03  0.00000000000E+00 0. -1.
         -1    1    1    2    0  501  0.21061535527E+02 -0.82596713438E+01  0.56718402260E+03  0.56763502882E+03  0.00000000000E+00 0.  1.
</event>
<event>
 4    1  0.6769686E+001  0.5311269E+02  0.7546771E-02  0.1285213E+00
          2   -1    0    0  502    0  0.00000000000E+00  0.00000000000E+00  0.16790156035E+03  0.16790156035E+03  0.00000000000E+00 0.  1.
         -2   -1    0    0    0  501 -0.00000000000E+00 -0.00000000000E+00 -0.35432942536E+02  0.35432942536E+02  0.00000000000E+00 0. -1.
          1    1    1    2  502    0  0.35243673658E+02 -0.39734642533E+02  0.13995738880E+03  0.14969645630E+03  0.00000000000E+00 0.  1.
         -1    1    1    2    0  501 -0.35243673658E+02  0.39734642533E+02 -0.74887709874E+01  0.53638046581E+02  0.00000000000E+00 0. -1.
</event>
<event>
 4    1  0.6769686E+001  0.3605933E+02  0.7546771E-02  0.1373265E+00
          2   -1    0    0  502    0  0.00000000000E+00  0.00000000000E+00  0.19166252214E+03  0.19166252214E+03  0.00000000000E+00 0.  1.
         -2   -1    0    0    0  501 -0.00000000000E+00 -0.00000000000E+00 -0.82878252529E+01  0.82878252529E+01  0.00000000000E+00 0. -1.
          1    1    1    2  502    0  0.16442997420E+02  0.32092101218E+02  0.49103686578E+02  0.60921647715E+02  0.00000000000E+00 0. -1.
         -1    1    1    2    0  501 -0.16442997420E+02 -0.32092101218E+02  0.13427101031E+03  0.13902869968E+03  0.00000000000E+00 0.  1.
</event>
<event>
 4    1  0.6769686E+001  0.3398523E+02  0.7546771E-02  0.1387841E+00
          2   -1    0    0  502    0  0.00000000000E+00  0.00000000000E+00  0.22204072101E+02  0.22204072101E+02  0.00000000000E+00 0. -1.
         -2   -1    0    0    0  501 -0.00000000000E+00 -0.00000000000E+00 -0.25345947060E+03  0.25345947060E+03  0.00000000000E+00 0.  1.
          1    1    1    2  502    0 -0.27791909392E+02  0.19560302349E+02 -0.23850460963E+03  0.24091376979E+03  0.00000000000E+00 0.  1.
         -1    1    1    2    0  501  0.27791909392E+02 -0.19560302349E+02  0.72492111354E+01  0.34749772916E+02  0.00000000000E+00 0. -1.
</event>
<event>
 4    1  0.6769686E+001  0.2776628E+02  0.7546771E-02  0.1440059E+00
          2   -1    0    0  502    0  0.00000000000E+00  0.00000000000E+00  0.85222909490E+01  0.85222909490E+01  0.00000000000E+00 0. -1.
         -2   -1    0    0    0  501 -0.00000000000E+00 -0.00000000000E+00 -0.98095028217E+02  0.98095028217E+02  0.00000000000E+00 0.  1.
          1    1    1    2  502    0  0.11499960393E+01 -0.27742456618E+02 -0.59654151885E+02  0.65799576193E+02  0.00000000000E+00 0.  1.
         -1    1    1    2    0  501 -0.11499960393E+01  0.27742456618E+02 -0.29918585383E+02  0.40817742973E+02  0.00000000000E+00 0. -1.
</event>
<event>
 4    1  0.6769686E+001  0.3062044E+02  0.7546771E-02  0.1414280E+00
          2   -1    0    0  502    0  0.00000000000E+00  0.00000000000E+00  0.16775424551E+01  0.16775424551E+01  0.00000000000E+00 0. -1.
         -2   -1    0    0    0  501 -0.00000000000E+00 -0.00000000000E+00 -0.56321638930E+03  0.56321638930E+03  0.00000000000E+00 0.  1.
          1    1    1    2  502    0 -0.17983686696E+02  0.24783024329E+02 -0.30543967551E+03  0.30697069348E+03  0.00000000000E+00 0.  1.
         -1    1    1    2    0  501  0.17983686696E+02 -0.24783024329E+02 -0.25609917133E+03  0.25792323827E+03  0.00000000000E+00 0. -1.
</event>
<event>
 4    1  0.6769686E+001  0.2144982E+02  0.7546771E-02  0.1512938E+00
          2   -1    0    0  502    0  0.00000000000E+00  0.00000000000E+00  0.69283124886E+03  0.69283124886E+03  0.00000000000E+00 0. -1.
         -2   -1    0    0    0  501 -0.00000000000E+00 -0.00000000000E+00 -0.73091878902E+00  0.73091878902E+00  0.00000000000E+00 0.  1.
          1    1    1    2  502    0  0.20257909565E+02  0.70506776162E+01  0.45091674316E+03  0.45142663215E+03  0.00000000000E+00 0. -1.
         -1    1    1    2    0  501 -0.20257909565E+02 -0.70506776162E+01  0.24118358691E+03  0.24213553550E+03  0.00000000000E+00 0.  1.
</event>
<event>
 4    1  0.6769686E+001  0.2078064E+02  0.7546771E-02  0.1522420E+00
          2   -1    0    0  502    0  0.00000000000E+00  0.00000000000E+00  0.45972292060E+03  0.45972292060E+03  0.00000000000E+00 0. -1.
         -2   -1    0    0    0  501 -0.00000000000E+00 -0.00000000000E+00 -0.12257198616E+01  0.12257198616E+01  0.00000000000E+00 0.  1.
          1    1    1    2  502    0  0.10211386139E+02  0.18098685909E+02  0.34065247493E+03  0.34128572123E+03  0.00000000000E+00 0. -1.
         -1    1    1    2    0  501 -0.10211386139E+02 -0.18098685909E+02  0.11784472581E+03  0.11966291923E+03  0.00000000000E+00 0.  1.
</event>
<event>
 4    1  0.6769686E+001  0.4346482E+02  0.7546771E-02  0.1329297E+00
          2   -1    0    0  502    0  0.00000000000E+00  0.00000000000E+00  0.83509665205E+03  0.83509665205E+03  0.00000000000E+00 0. -1.
         -2   -1    0    0    0  501 -0.00000000000E+00 -0.00000000000E+00 -0.22635562401E+01  0.22635562401E+01  0.00000000000E+00 0.  1.
          1    1    1    2  502    0 -0.40349559316E+02  0.16158702153E+02  0.40632751891E+03  0.40864562058E+03  0.00000000000E+00 0.  1.
         -1    1    1    2    0  501  0.40349559316E+02 -0.16158702153E+02  0.42650557690E+03  0.42871458772E+03  0.00000000000E+00 0. -1.
</event>
<event>
 4    1  0.6769686E+001  0.2093974E+02  0.7546771E-02  0.1520127E+00
          2   -1    0    0  502    0  0.00000000000E+00  0.00000000000E+00  0.10861126371E+03  0.10861126371E+03  0.00000000000E+00 0.  1.
         -2   -1    0    0    0  501 -0.00000000000E+00 -0.00000000000E+00 -0.42596846807E+01  0.42596846807E+01  0.00000000000E+00 0. -1.
          1    1    1    2  502    0  0.20226452316E+02 -0.54188036240E+01  0.65076885223E+02  0.68362810038E+02  0.00000000000E+00 0.  1.
         -1    1    1    2    0  501 -0.20226452316E+02  0.54188036240E+01  0.39274693802E+02  0.44508138349E+02  0.00000000000E+00 0. -1.
</event>
<event>
 4    1  0.6769686E+001  0.2455855E+02  0.7546771E-02  0.1473803E+00
          2   -1    0    0  502    0  0.00000000000E+00  0.00000000000E+00  0.24639154986E+03  0.24639154986E+03  0.00000000000E+00 0.  1.
         -2   -1    0    0    0  501 -0.00000000000E+00 -0.00000000000E+00 -0.33554202479E+01  0.33554202479E+01  0.00000000000E+00 0. -1.
          1    1    1    2  502    0 -0.23564859348E+02 -0.69151796629E+01  0.56573331639E+02  0.61673853119E+02  0.00000000000E+00 0. -1.
         -1    1    1    2    0  501  0.23564859348E+02  0.69151796629E+01  0.18646279797E+03  0.18807311699E+03  0.00000000000E+00 0.  1.
</event>
<event>
 4    1  0.6769686E+001  0.2107629E+02  0.7546771E-02  0.1518178E+00
          2   -1    0    0  502    0  0.00000000000E+00  0.00000000000E+00  0.40065498943E+03  0.40065498943E+03  0.00000000000E+00 0.  1.
         -2   -1    0    0    0  501 -0.00000000000E+00 -0.00000000000E+00 -0.15844210527E+01  0.15844210527E+01  0.00000000000E+00 0. -1.
          1    1    1    2  502    0  0.16835445419E+02  0.12679813150E+02  0.30973774569E+03  0.31045399175E+03  0.00000000000E+00 0.  1.
         -1    1    1    2    0  501 -0.16835445419E+02 -0.12679813150E+02  0.89332822688E+02  0.91785418741E+02  0.00000000000E+00 0. -1.
</event>
<event>
 4    1  0.6769686E+001  0.2482850E+02  0.7546771E-02  0.1470731E+00
          2   -1    0    0  502    0  0.00000000000E+00  0.00000000000E+00  0.33140281460E+03  0.33140281460E+03  0.00000000000E+00 0. -1.
         -2   -1    0    0    0  501 -0.00000000000E+00 -0.00000000000E+00 -0.24280824316E+01  0.24280824316E+01  0.00000000000E+00 0.  1.
          1    1    1    2  502    0 -0.19107457979E+02  0.15854316692E+02  0.24521430884E+03  0.24646807414E+03  0.00000000000E+00 0. -1.
         -1    1    1    2    0  501  0.19107457979E+02 -0.15854316692E+02  0.83760423326E+02  0.87362822894E+02  0.00000000000E+00 0.  1.
</event>
<event>
 4    1  0.6769686E+001  0.2126942E+02  0.7546771E-02  0.1515453E+00
          2   -1    0    0  502    0  0.00000000000E+00  0.00000000000E+00  0.42920017205E+03  0.42920017205E+03  0.00000000000E+00 0. -1.
         -2   -1    0    0    0  501 -0.00000000000E+00 -0.00000000000E+00 -0.11558510517E+01  0.11558510517E+01  0.00000000000E+00 0.  1.
          1    1    1    2  502    0  0.12439599630E+02  0.17252381466E+02  0.27788871026E+03  0.27870149550E+03  0.00000000000E+00 0. -1.
         -1    1    1    2    0  501 -0.12439599630E+02 -0.17252381466E+02  0.15015561074E+03  0.15165452760E+03  0.00000000000E+00 0.  1.
</event>
<event>
 4    1  0.6769686E+001  0.2139173E+02  0.7546771E-02  0.1513745E+00
          2   -1    0    0  502    0  0.00000000000E+00  0.00000000000E+00  0.40252659076E+02  0.40252659076E+02  0.00000000000E+00 0. -1.
         -2   -1    0    0    0  501 -0.00000000000E+00 -0.00000000000E+00 -0.14630377863E+02  0.14630377863E+02  0.00000000000E+00 0.  1.
          1    1    1    2  502    0  0.85047221302E+01  0.19628442177E+02  0.25768743240E+02  0.33490807231E+02  0.00000000000E+00 0.  1.
         -1    1    1    2    0  501 -0.85047221302E+01 -0.19628442177E+02 -0.14646202758E+00  0.21392229709E+02  0.00000000000E+00 0. -1.
</event>
<event>
 4    1  0.6769686E+001  0.4174483E+02  0.7546771E-02  0.1338554E+00
          2   -1    0    0  502    0  0.00000000000E+00  0.00000000000E+00  0.43702729926E+03  0.43702729926E+03  0.00000000000E+00 0. -1.
         -2   -1    0    0    0  501 -0.00000000000E+00 -0.00000000000E+00 -0.39882569747E+01  0.39882569747E+01  0.00000000000E+00 0.  1.
          1    1    1    2  502    0 -0.41654307706E+02 -0.27476472967E+01  0.21962750072E+03  0.22355954462E+03  0.00000000000E+00 0. -1.
         -1    1    1    2    0  501  0.41654307706E+02  0.27476472967E+01  0.21341154156E+03  0.21745601161E+03  0.00000000000E+00 0.  1.
</event>
<event>
 4    1  0.6769686E+001  0.3251487E+02  0.7546771E-02  0.1398930E+00
          2   -1    0    0  502    0  0.00000000000E+00  0.00000000000E+00  0.29997703390E+04  0.29997703390E+04  0.00000000000E+00 0. -1.
         -2   -1    0    0    0  501 -0.00000000000E+00 -0.00000000000E+00 -0.35397134945E+00  0.35397134945E+00  0.00000000000E+00 0.  1.
          1    1    1    2  502    0  0.31435461634E+02  0.83083510028E+01  0.15986102072E+04  0.15989408405E+04  0.00000000000E+00 0. -1.
         -1    1    1    2    0  501 -0.31435461634E+02 -0.83083510028E+01  0.14008061605E+04  0.14011834699E+04  0.00000000000E+00 0.  1.
</event>
<event>
 4    1  0.6769686E+001  0.4478245E+02  0.7546771E-02  0.1322531E+00
          2   -1    0    0  502    0  0.00000000000E+00  0.00000000000E+00  0.28949673501E+03  0.28949673501E+03  0.00000000000E+00 0. -1.
         -2   -1    0    0    0  501 -0.00000000000E+00 -0.00000000000E+00 -0.88813074573E+01  0.88813074573E+01  0.00000000000E+00 0.  1.
          1    1    1    2  502    0 -0.39491405657E+02 -0.21116267039E+02  0.70332010785E+02  0.83379011721E+02  0.00000000000E+00 0.  1.
         -1    1    1    2    0  501  0.39491405657E+02  0.21116267039E+02  0.21028341677E+03  0.21499903075E+03  0.00000000000E+00 0. -1.
</event>
<event>
 4    1  0.6769686E+001  0.2043656E+02  0.7546771E-02  0.1527463E+00
          2   -1    0    0  502    0  0.00000000000E+00  0.00000000000E+00  0.34956686898E+03  0.34956686898E+03  0.00000000000E+00 0.  1.
         -2   -1    0    0    0  501 -0.00000000000E+00 -0.00000000000E+00 -0.24955310244E+01  0.24955310244E+01  0.00000000000E+00 0. -1.
          1    1    1    2  502    0 -0.17505696362E+02 -0.10545304897E+02  0.30062424495E+03  0.30131808693E+03  0.00000000000E+00 0.  1.
         -1    1    1    2    0  501  0.17505696362E+02  0.10545304897E+02  0.46447092999E+02  0.50744313066E+02  0.00000000000E+00 0. -1.
</event>
<event>
 4    1  0.6769686E+001  0.2303842E+02  0.7546771E-02  0.1492016E+00
          2   -1    0    0  502    0  0.00000000000E+00  0.00000000000E+00  0.92596604690E+02  0.92596604690E+02  0.00000000000E+00 0. -1.
         -2   -1    0    0    0  501 -0.00000000000E+00 -0.00000000000E+00 -0.13669530936E+02  0.13669530936E+02  0.00000000000E+00 0.  1.
          1    1    1    2  502    0  0.14979191638E+02 -0.17504072767E+02  0.79951816344E+02  0.83204937848E+02  0.00000000000E+00 0. -1.
         -1    1    1    2    0  501 -0.14979191638E+02  0.17504072767E+02 -0.10247425894E+01  0.23061197778E+02  0.00000000000E+00 0.  1.
</event>
<event>
 4    1  0.6769686E+001  0.2121054E+02  0.7546771E-02  0.1516280E+00
          2   -1    0    0  502    0  0.00000000000E+00  0.00000000000E+00  0.33146525828E+03  0.33146525828E+03  0.00000000000E+00 0.  1.
         -2   -1    0    0    0  501 -0.00000000000E+00 -0.00000000000E+00 -0.34351247793E+01  0.34351247793E+01  0.00000000000E+00 0. -1.
          1    1    1    2  502    0 -0.16957935817E+02 -0.12740304025E+02  0.29424843561E+03  0.29501191297E+03  0.00000000000E+00 0.  1.
         -1    1    1    2    0  501  0.16957935817E+02  0.12740304025E+02  0.33781697887E+02  0.39888470088E+02  0.00000000000E+00 0. -1.
</event>
<event>
 4    1  0.6769686E+001  0.2396592E+02  0.7546771E-02  0.1480713E+00
          2   -1    0    0  502    0  0.00000000000E+00  0.00000000000E+00  0.39204636391E+02  0.39204636391E+02  0.00000000000E+00 0. -1.
         -2   -1    0    0    0  501 -0.00000000000E+00 -0.00000000000E+00 -0.23903211283E+02  0.23903211283E+02  0.00000000000E+00 0.  1.
          1    1    1    2  502    0  0.15923233411E+02  0.17911333924E+02  0.27282557631E+02  0.36313953188E+02  0.00000000000E+00 0. -1.
         -1    1    1    2    0  501 -0.15923233411E+02 -0.17911333924E+02 -0.11981132523E+02  0.26793894487E+02  0.00000000000E+00 0.  1.
</event>
<event>
 4    1  0.6769686E+001  0.2060197E+02  0.7546771E-02  0.1525024E+00
          2   -1    0    0  502    0  0.00000000000E+00  0.00000000000E+00  0.15529017390E+03  0.15529017390E+03  0.00000000000E+00 0.  1.
         -2   -1    0    0    0  501 -0.00000000000E+00 -0.00000000000E+00 -0.41462333170E+01  0.41462333170E+01  0.00000000000E+00 0. -1.
          1    1    1    2  502    0 -0.20113680348E+02 -0.44588039188E+01  0.29034273012E+02  0.35600984240E+02  0.00000000000E+00 0. -1.
         -1    1    1    2    0  501  0.20113680348E+02  0.44588039188E+01  0.12210966757E+03  0.12383542298E+03  0.00000000000E+00 0.  1.
</event>
<event>
 4    1  0.6769686E+001  0.2224284E+02  0.7546771E-02  0.1502231E+00
          2   -1    0    0  502    0  0.00000000000E+00  0.00000000000E+00  0.50429046792E+01  0.50429046792E+01  0.00000000000E+00 0. -1.
         -2   -1    0    0    0  501 -0.00000000000E+00 -0.00000000000E+00 -0.12371645245E+03  0.12371645245E+03  0.00000000000E+00 0.  1.
          1    1    1    2  502    0  0.17827877823E+02 -0.13300777643E+02 -0.88627880932E+02  0.91376392969E+02  0.00000000000E+00 0.  1.
         -1    1    1    2    0  501 -0.17827877823E+02  0.13300777643E+02 -0.30045666837E+02  0.37382964159E+02  0.00000000000E+00 0. -1.
</event>
<event>
 4    1  0.6769686E+001  0.5238934E+02  0.7546771E-02  0.1288133E+00
          2   -1    0    0  502    0  0.00000000000E+00  0.00000000000E+00  0.37740231764E+03  0.37740231764E+03  0.00000000000E+00 0.  1.
         -2   -1    0    0    0  501 -0.00000000000E+00 -0.00000000000E+00 -0.19256591769E+02  0.19256591769E+02  0.00000000000E+00 0. -1.
          1    1    1    2  502    0  0.51517066007E+01  0.52135429789E+02  0.22613772767E+02  0.57061596884E+02  0.00000000000E+00 0. -1.
         -1    1    1    2    0  501 -0.51517066007E+01 -0.52135429789E+02  0.33553195311E+03  0.33959731253E+03  0.00000000000E+00 0.  1.
</event>
<event>
 4    1  0.6769686E+001  0.2838003E+02  0.7546771E-02  0.1434217E+00
          2   -1    0    0  502    0  0.00000000000E+00  0.00000000000E+00  0.23740873573E+03  0.23740873573E+03  0.00000000000E+00 0.  1.
         -2   -1    0    0    0  501 -0.00000000000E+00 -0.00000000000E+00 -0.34579573469E+01  0.34579573469E+01  0.00000000000E+00 0. -1.
          1    1    1    2  502    0 -0.28347653860E+02 -0.13553084931E+01  0.13353597140E+03  0.13651843098E+03  0.00000000000E+00 0.  1.
         -1    1    1    2    0  501  0.28347653860E+02  0.13553084931E+01  0.10041480699E+03  0.10434826210E+03  0.00000000000E+00 0. -1.
</event>
<event>
 4    1  0.6769686E+001  0.2437036E+02  0.7546771E-02  0.1475972E+00
          2   -1    0    0  502    0  0.00000000000E+00  0.00000000000E+00  0.16589283781E+04  0.16589283781E+04  0.00000000000E+00 0. -1.
         -2   -1    0    0    0  501 -0.00000000000E+00 -0.00000000000E+00 -0.56405392052E+00  0.56405392052E+00  0.00000000000E+00 0.  1.
          1    1    1    2  502    0  0.48961260518E+01 -0.23873467970E+02  0.13306740030E+04  0.13308971473E+04  0.00000000000E+00 0. -1.
         -1    1    1    2    0  501 -0.48961260518E+01  0.23873467970E+02  0.32769032124E+03  0.32859528475E+03  0.00000000000E+00 0.  1.
</event>
<event>
 4    1  0.6769686E+001  0.2145692E+02  0.7546771E-02  0.1512840E+00
          2   -1    0    0  502    0  0.00000000000E+00  0.00000000000E+00  0.95764887705E+03  0.95764887705E+03  0.00000000000E+00 0. -1.
         -2   -1    0    0    0  501 -0.00000000000E+00 -0.00000000000E+00 -0.66181913870E+00  0.66181913870E+00  0.00000000000E+00 0.  1.
          1    1    1    2  502    0  0.20434365081E+02 -0.65449245225E+01  0.72911418063E+03  0.72942983741E+03  0.00000000000E+00 0. -1.
         -1    1    1    2    0  501 -0.20434365081E+02  0.65449245225E+01  0.22787287729E+03  0.22888085878E+03  0.00000000000E+00 0.  1.
</event>
<event>
 4    1  0.6769686E+001  0.2764928E+02  0.7546771E-02  0.1441193E+00
          2   -1    0    0  502    0  0.00000000000E+00  0.00000000000E+00  0.54433729859E+01  0.54433729859E+01  0.00000000000E+00 0. -1.
         -2   -1    0    0    0  501 -0.00000000000E+00 -0.00000000000E+00 -0.21848296803E+03  0.21848296803E+03  0.00000000000E+00 0.  1.
          1    1    1    2  502    0 -0.27098482956E+02  0.54913367208E+01 -0.39604488892E+02  0.48301119013E+02  0.00000000000E+00 0. -1.
         -1    1    1    2    0  501  0.27098482956E+02 -0.54913367208E+01 -0.17343510615E+03  0.17562522200E+03  0.00000000000E+00 0.  1.
</event>
<event>
 4    1  0.6769686E+001  0.3853993E+02  0.7546771E-02  0.1357261E+00
          2   -1    0    0  502    0  0.00000000000E+00  0.00000000000E+00  0.19319040014E+04  0.19319040014E+04  0.00000000000E+00 0.  1.
         -2   -1    0    0    0  501 -0.00000000000E+00 -0.00000000000E+00 -0.81569760618E+00  0.81569760618E+00  0.00000000000E+00 0. -1.
          1    1    1    2  502    0 -0.33563415432E+02  0.18942624697E+02  0.11971568583E+04  0.11977770532E+04  0.00000000000E+00 0.  1.
         -1    1    1    2    0  501  0.33563415432E+02 -0.18942624697E+02  0.73393144548E+03  0.73494264576E+03  0.00000000000E+00 0. -1.
</event>
<event>
 4    1  0.6769686E+001  0.2482305E+02  0.7546771E-02  0.1470793E+00
          2   -1    0    0  502    0  0.00000000000E+00  0.00000000000E+00  0.85259091470E+03  0.85259091470E+03  0.00000000000E+00 0. -1.
         -2   -1    0    0    0  501 -0.00000000000E+00 -0.00000000000E+00 -0.85444760900E+00  0.85444760900E+00  0.00000000000E+00 0.  1.
          1    1    1    2  502    0 -0.75918275880E+01 -0.23633617414E+02  0.59341765599E+03  0.59393661123E+03  0.00000000000E+00 0. -1.
         -1    1    1    2    0  501  0.75918275880E+01  0.23633617414E+02  0.25831881110E+03  0.25950875108E+03  0.00000000000E+00 0.  1.
</event>
<event>
 4    1  0.6769686E+001  0.2029225E+02  0.7546771E-02  0.1529614E+00
          2   -1    0    0  502    0  0.00000000000E+00  0.00000000000E+00  0.95535052296E+03  0.95535052296E+03  0.00000000000E+00 0. -1.
         -2   -1    0    0    0  501 -0.00000000000E+00 -0.00000000000E+00 -0.64300728556E+00  0.64300728556E+00  0.00000000000E+00 0.  1.
          1    1    1    2  502    0  0.12624065163E+02  0.15887371349E+02  0.20289854687E+03  0.20391075477E+03  0.00000000000E+00 0.  1.
         -1    1    1    2    0  501 -0.12624065163E+02 -0.15887371349E+02  0.75180896881E+03  0.75208277548E+03  0.00000000000E+00 0. -1.
</event>
<event>
 4    1  0.6769686E+001  0.2333848E+02  0.7546771E-02  0.1488291E+00
          2   -1    0    0  502    0  0.00000000000E+00  0.00000000000E+00  0.36774107669E+02  0.36774107669E+02  0.00000000000E+00 0.  1.
         -2   -1    0    0    0  501 -0.00000000000E+00 -0.00000000000E+00 -0.14826828376E+02  0.14826828376E+02  0.00000000000E+00 0. -1.
          1    1    1    2  502    0  0.96637116883E+01 -0.21243755751E+02  0.11799677313E+02  0.26151804273E+02  0.00000000000E+00 0.  1.
         -1    1    1    2    0  501 -0.96637116883E+01  0.21243755751E+02  0.10147601979E+02  0.25449131772E+02  0.00000000000E+00 0. -1.
</event>
<event>
 4    1  0.6769686E+001  0.3945441E+02  0.7546771E-02  0.1351713E+00
          2   -1    0    0  502    0  0.00000000000E+00  0.00000000000E+00  0.37176997533E+03  0.37176997533E+03  0.00000000000E+00 0.  1.
         -2   -1    0    0    0  501 -0.00000000000E+00 -0.00000000000E+00 -0.10281145631E+02  0.10281145631E+02  0.00000000000E+00 0. -1.
          1    1    1    2  502    0 -0.37629306947E+02  0.11861105919E+02  0.32781383458E+03  0.33017958859E+03  0.00000000000E+00 0.  1.
         -1    1    1    2    0  501  0.37629306947E+02 -0.11861105919E+02  0.33674995117E+02  0.51871532376E+02  0.00000000000E+00 0. -1.
</event>
<event>
 4    1  0.6769686E+001  0.2038726E+02  0.7546771E-02  0.1528196E+00
          2   -1    0    0  502    0  0.00000000000E+00  0.00000000000E+00  0.15030082875E+02  0.15030082875E+02  0.00000000000E+00 0.  1.
         -2   -1    0    0    0  501 -0.00000000000E+00 -0.00000000000E+00 -0.28239543712E+02  0.28239543712E+02  0.00000000000E+00 0. -1.
          1    1    1    2  502    0 -0.18984205264E+02 -0.74323720017E+01 -0.97203622465E+01  0.22585961243E+02  0.00000000000E+00 0. -1.
         -1    1    1    2    0  501  0.18984205264E+02  0.74323720017E+01 -0.34890985911E+01  0.20683665344E+02  0.00000000000E+00 0.  1.
</event>
<event>
 4    1  0.6769686E+001  0.2278332E+02  0.7546771E-02  0.1495237E+00
          2   -1    0    0  502    0  0.00000000000E+00  0.00000000000E+00  0.99974622452E+02  0.99974622452E+02  0.00000000000E+00 0.  1.
         -2   -1    0    0    0  501 -0.00000000000E+00 -0.00000000000E+00 -0.60199128893E+01  0.60199128893E+01  0.00000000000E+00 0. -1.
          1    1    1    2  502    0  0.22770739371E+02 -0.75694185198E+00  0.27324707040E+02  0.35576946852E+02  0.00000000000E+00 0.  1.
         -1    1    1    2    0  501 -0.22770739371E+02  0.75694185198E+00  0.66630002522E+02  0.70417588489E+02  0.00000000000E+00 0. -1.
</event>
<event>
 4    1  0.6769686E+001  0.2175220E+02  0.7546771E-02  0.1508791E+00
          2   -1    0    0  502    0  0.00000000000E+00  0.00000000000E+00  0.37379024716E+03  0.37379024716E+03  0.00000000000E+00 0.  1.
         -2   -1    0    0    0  501 -0.00000000000E+00 -0.00000000000E+00 -0.19907068787E+01  0.19907068787E+01  0.00000000000E+00 0. -1.
          1    1    1    2  502    0  0.11273178687E+02  0.18603053070E+02  0.29927825354E+03  0.30006771100E+03  0.00000000000E+00 0.  1.
         -1    1    1    2    0  501 -0.11273178687E+02 -0.18603053070E+02  0.72521286739E+02  0.75713243039E+02  0.00000000000E+00 0. -1.
</event>
<event>
 4    1  0.6769686E+001  0.2275510E+02  0.7546771E-02  0.1495596E+00
          2   -1    0    0  502    0  0.00000000000E+00  0.00000000000E+00  0.27812724637E+01  0.27812724637E+01  0.00000000000E+00 0. -1.
         -2   -1    0    0    0  501 -0.00000000000E+00 -0.00000000000E+00 -0.19819354775E+03  0.19819354775E+03  0.00000000000E+00 0.  1.
          1    1    1    2  502    0  0.55492305018E+01  0.22068089332E+02 -0.12245473215E+03  0.12455101747E+03  0.00000000000E+00 0.  1.
         -1    1    1    2    0  501 -0.55492305018E+01 -0.22068089332E+02 -0.72957543135E+02  0.76423802747E+02  0.00000000000E+00 0. -1.
</event>
<event>
 4    1  0.6769686E+001  0.3404357E+02  0.7546771E-02  0.1387415E+00
          2   -1    0    0  502    0  0.00000000000E+00  0.00000000000E+00  0.19132429707E+04  0.19132429707E+04  0.00000000000E+00 0. -1.
         -2   -1    0    0    0  501 -0.00000000000E+00 -0.00000000000E+00 -0.11595284030E+01  0.11595284030E+01  0.00000000000E+00 0.  1.
          1    1    1    2  502    0  0.26687067306E+02 -0.21136814325E+02  0.29454610367E+03  0.29650695045E+03  0.00000000000E+00 0.  1.
         -1    1    1    2    0  501 -0.26687067306E+02  0.21136814325E+02  0.16175373386E+04  0.16178955486E+04  0.00000000000E+00 0. -1.
</event>
<event>
 4    1  0.6769686E+001  0.2081369E+02  0.7546771E-02  0.1521942E+00
          2   -1    0    0  502    0  0.00000000000E+00  0.00000000000E+00  0.99068010670E+00  0.99068010670E+00  0.00000000000E+00 0. -1.
         -2   -1    0    0    0  501 -0.00000000000E+00 -0.00000000000E+00 -0.64531564179E+03  0.64531564179E+03  0.00000000000E+00 0.  1.
          1    1    1    2  502    0  0.20813596318E+02 -0.61065945766E-01 -0.50564132604E+03  0.50606952104E+03  0.00000000000E+00 0.  1.
         -1    1    1    2    0  501 -0.20813596318E+02  0.61065945766E-01 -0.13868363564E+03  0.14023680085E+03  0.00000000000E+00 0. -1.
</event>
<event>
 4    1  0.6769686E+001  0.2316143E+02  0.7546771E-02  0.1490481E+00
          2   -1    0    0  502    0  0.00000000000E+00  0.00000000000E+00  0.18855777780E+04  0.18855777780E+04  0.00000000000E+00 0.  1.
         -2   -1    0    0    0  501 -0.00000000000E+00 -0.00000000000E+00 -0.35925114591E+00  0.35925114591E+00  0.00000000000E+00 0. -1.
          1    1    1    2  502    0  0.19955848188E+02 -0.11756523081E+02  0.51247940528E+03  0.51300252684E+03  0.00000000000E+00 0. -1.
         -1    1    1    2    0  501 -0.19955848188E+02  0.11756523081E+02  0.13727391215E+04  0.13729345023E+04  0.00000000000E+00 0.  1.
</event>
<event>
 4    1  0.6769686E+001  0.2164756E+02  0.7546771E-02  0.1510217E+00
          2   -1    0    0  502    0  0.00000000000E+00  0.00000000000E+00  0.94858027872E+03  0.94858027872E+03  0.00000000000E+00 0.  1.
         -2   -1    0    0    0  501 -0.00000000000E+00 -0.00000000000E+00 -0.57612140076E+00  0.57612140076E+00  0.00000000000E+00 0. -1.
          1    1    1    2  502    0 -0.13080411611E+02 -0.17248758834E+02  0.65315679237E+03  0.65351542619E+03  0.00000000000E+00 0.  1.
         -1    1    1    2    0  501  0.13080411611E+02  0.17248758834E+02  0.29484736495E+03  0.29564097393E+03  0.00000000000E+00 0. -1.
</event>
<event>
 4    1  0.6769686E+001  0.2131146E+02  0.7546771E-02  0.1514864E+00
          2   -1    0    0  502    0  0.00000000000E+00  0.00000000000E+00  0.89867557203E+03  0.89867557203E+03  0.00000000000E+00 0. -1.
         -2   -1    0    0    0  501 -0.00000000000E+00 -0.00000000000E+00 -0.75591189975E+00  0.75591189975E+00  0.00000000000E+00 0.  1.
          1    1    1    2  502    0 -0.21308325909E+02  0.36576174692E+00  0.19006203647E+03  0.19125312087E+03  0.00000000000E+00 0.  1.
         -1    1    1    2    0  501  0.21308325909E+02 -0.36576174692E+00  0.70785762366E+03  0.70817836306E+03  0.00000000000E+00 0. -1.
</event>
<event>
 4    1  0.6769686E+001  0.2562671E+02  0.7546771E-02  0.1461913E+00
          2   -1    0    0  502    0  0.00000000000E+00  0.00000000000E+00  0.14369193246E+03  0.14369193246E+03  0.00000000000E+00 0.  1.
         -2   -1    0    0    0  501 -0.00000000000E+00 -0.00000000000E+00 -0.84417752038E+01  0.84417752038E+01  0.00000000000E+00 0. -1.
          1    1    1    2  502    0  0.25533300679E+02 -0.21860755581E+01  0.16112691283E+02  0.30271227103E+02  0.00000000000E+00 0. -1.
         -1    1    1    2    0  501 -0.25533300679E+02  0.21860755581E+01  0.11913746598E+03  0.12186248056E+03  0.00000000000E+00 0.  1.
</event>
<event>
 4    1  0.6769686E+001  0.2327635E+02  0.7546771E-02  0.1489057E+00
          2   -1    0    0  502    0  0.00000000000E+00  0.00000000000E+00  0.29434555149E+02  0.29434555149E+02  0.00000000000E+00 0. -1.
         -2   -1    0    0    0  501 -0.00000000000E+00 -0.00000000000E+00 -0.26789387484E+02  0.26789387484E+02  0.00000000000E+00 0.  1.
          1    1    1    2  502    0 -0.20965422218E+02  0.10111368310E+02  0.17048116170E+02  0.28851810391E+02  0.00000000000E+00 0. -1.
         -1    1    1    2    0  501  0.20965422218E+02 -0.10111368310E+02 -0.14402948505E+02  0.27372132243E+02  0.00000000000E+00 0.  1.
</event>
<event>
 4    1  0.6769686E+001  0.3486626E+02  0.7546771E-02  0.1381506E+00
          2   -1    0    0  502    0  0.00000000000E+00  0.00000000000E+00  0.79548139045E+03  0.79548139045E+03  0.00000000000E+00 0.  1.
         -2   -1    0    0    0  501 -0.00000000000E+00 -0.00000000000E+00 -0.27970455160E+01  0.27970455160E+01  0.00000000000E+00 0. -1.
          1    1    1    2  502    0 -0.32989960161E+02  0.11283544235E+02  0.12751153875E+03  0.13219246709E+03  0.00000000000E+00 0. -1.
         -1    1    1    2    0  501  0.32989960161E+02 -0.11283544235E+02  0.66517280618E+03  0.66608596887E+03  0.00000000000E+00 0.  1.
</event>
<event>
 4    1  0.6769686E+001  0.2136927E+02  0.7546771E-02  0.1514057E+00
          2   -1    0    0  502    0  0.00000000000E+00  0.00000000000E+00  0.20006682686E+04  0.20006682686E+04  0.00000000000E+00 0. -1.
         -2   -1    0    0    0  501 -0.00000000000E+00 -0.00000000000E+00 -0.26710913922E+00  0.26710913922E+00  0.00000000000E+00 0.  1.
          1    1    1    2  502    0  0.18177666874E+02 -0.11234687257E+02  0.13818144631E+04  0.13819796873E+04  0.00000000000E+00 0. -1.
         -1    1    1    2    0  501 -0.18177666874E+02  0.11234687257E+02  0.61858669635E+03  0.61895569039E+03  0.00000000000E+00 0.  1.
</event>
<event>
 4    1  0.6769686E+001  0.2370469E+02  0.7546771E-02  0.1483834E+00
          2   -1    0    0  502    0  0.00000000000E+00  0.00000000000E+00  0.37940641385E+03  0.37940641385E+03  0.00000000000E+00 0.  1.
         -2   -1    0    0    0  501 -0.00000000000E+00 -0.00000000000E+00 -0.23178343219E+01  0.23178343219E+01  0.00000000000E+00 0. -1.
          1    1    1    2  502    0 -0.21161226625E+02  0.10682464302E+02  0.73863591823E+02  0.77574111357E+02  0.00000000000E+00 0. -1.
         -1    1    1    2    0  501  0.21161226625E+02 -0.10682464302E+02  0.30322498770E+03  0.30415013681E+03  0.00000000000E+00 0.  1.
</event>
<event>
 4    1  0.6769686E+001  0.2359946E+02  0.7546771E-02  0.1485105E+00
          2   -1    0    0  502    0  0.00000000000E+00  0.00000000000E+00  0.83114522660E+01  0.83114522660E+01  0.00000000000E+00 0.  1.
         -2   -1    0    0    0  501 -0.00000000000E+00 -0.00000000000E+00 -0.15351847271E+03  0.15351847271E+03  0.00000000000E+00 0. -1.
          1    1    1    2  502    0  0.12084006655E+02  0.20270946470E+02 -0.13334460978E+03  0.13541683590E+03  0.00000000000E+00 0. -1.
         -1    1    1    2    0  501 -0.12084006655E+02 -0.20270946470E+02 -0.11862410656E+02  0.26413089069E+02  0.00000000000E+00 0.  1.
</event>
<event>
 4    1  0.6769686E+001  0.4786846E+02  0.7546771E-02  0.1307688E+00
          2   -1    0    0  502    0  0.00000000000E+00  0.00000000000E+00  0.10231344715E+03  0.10231344715E+03  0.00000000000E+00 0.  1.
         -2   -1    0    0    0  501 -0.00000000000E+00 -0.00000000000E+00 -0.27680303453E+02  0.27680303453E+02  0.00000000000E+00 0. -1.
          1    1    1    2  502    0 -0.39339233037E+02 -0.27272955361E+02  0.65716027221E+02  0.81301817838E+02  0.00000000000E+00 0.  1.
         -1    1    1    2    0  501  0.39339233037E+02  0.27272955361E+02  0.89171164746E+01  0.48691932764E+02  0.00000000000E+00 0. -1.
</event>
<event>
 4    1  0.6769686E+001  0.2336020E+02  0.7546771E-02  0.1488024E+00
          2   -1    0    0  502    0  0.00000000000E+00  0.00000000000E+00  0.16564659845E+01  0.16564659845E+01  0.00000000000E+00 0.  1.
         -2   -1    0    0    0  501 -0.00000000000E+00 -0.00000000000E+00 -0.32972977430E+03  0.32972977430E+03  0.00000000000E+00 0. -1.
          1    1    1    2  502    0  0.11143029729E+02  0.20531243381E+02 -0.16898475158E+03  0.17059175048E+03  0.00000000000E+00 0.  1.
         -1    1    1    2    0  501 -0.11143029729E+02 -0.20531243381E+02 -0.15908855673E+03  0.16079448980E+03  0.00000000000E+00 0. -1.
</event>
<event>
 4    1  0.6769686E+001  0.2740966E+02  0.7546771E-02  0.1443536E+00
          2   -1    0    0  502    0  0.00000000000E+00  0.00000000000E+00  0.86783521033E+03  0.86783521033E+03  0.00000000000E+00 0. -1.
         -2   -1    0    0    0  501 -0.00000000000E+00 -0.00000000000E+00 -0.17202139247E+01  0.17202139247E+01  0.00000000000E+00 0.  1.
          1    1    1    2  502    0 -0.21798764024E+01  0.27322837556E+02  0.73948965323E+03  0.73999745713E+03  0.00000000000E+00 0. -1.
         -1    1    1    2    0  501  0.21798764024E+01 -0.27322837556E+02  0.12662534318E+03  0.12955796713E+03  0.00000000000E+00 0.  1.
</event>
<event>
 4    1  0.6769686E+001  0.2399192E+02  0.7546771E-02  0.1480404E+00
          2   -1    0    0  502    0  0.00000000000E+00  0.00000000000E+00  0.17434816302E+02  0.17434816302E+02  0.00000000000E+00 0.  1.
         -2   -1    0    0    0  501 -0.00000000000E+00 -0.00000000000E+00 -0.33194927796E+02  0.33194927796E+02  0.00000000000E+00 0. -1.
          1    1    1    2  502    0  0.22988583102E+02 -0.68656726048E+01 -0.60168802655E+01  0.24734899666E+02  0.00000000000E+00 0. -1.
         -1    1    1    2    0  501 -0.22988583102E+02  0.68656726048E+01 -0.97432312285E+01  0.25894844431E+02  0.00000000000E+00 0.  1.
</event>
<event>
 4    1  0.6769686E+001  0.4607940E+02  0.7546771E-02  0.1316129E+00
          2   -1    0    0  502    0  0.00000000000E+00  0.00000000000E+00  0.36346886400E+03  0.36346886400E+03  0.00000000000E+00 0.  1.
         -2   -1    0    0    0  501 -0.00000000000E+00 -0.00000000000E+00 -0.61317216350E+01  0.61317216350E+01  0.00000000000E+00 0. -1.
          1    1    1    2  502    0  0.45764731227E+02 -0.53759529864E+01  0.21885261489E+03  0.22365101954E+03  0.00000000000E+00 0.  1.
         -1    1    1    2    0  501 -0.45764731227E+02  0.53759529864E+01  0.13848452747E+03  0.14594956609E+03  0.00000000000E+00 0. -1.
</event>
<event>
 4    1  0.6769686E+001  0.3541268E+02  0.7546771E-02  0.1377685E+00
          2   -1    0    0  502    0  0.00000000000E+00  0.00000000000E+00  0.96126514034E+03  0.96126514034E+03  0.00000000000E+00 0.  1.
         -2   -1    0    0    0  501 -0.00000000000E+00 -0.00000000000E+00 -0.16579392769E+01  0.16579392769E+01  0.00000000000E+00 0. -1.
          1    1    1    2  502    0  0.15894538956E+02  0.31645247141E+02  0.70207248062E+03  0.70296502479E+03  0.00000000000E+00 0.  1.
         -1    1    1    2    0  501 -0.15894538956E+02 -0.31645247141E+02  0.25753472044E+03  0.25995805482E+03  0.00000000000E+00 0. -1.
</event>
<event>
 4    1  0.6769686E+001  0.6636141E+02  0.7546771E-02  0.1239627E+00
          2   -1    0    0  502    0  0.00000000000E+00  0.00000000000E+00  0.17030908258E+03  0.17030908258E+03  0.00000000000E+00 0. -1.
         -2   -1    0    0    0  501 -0.00000000000E+00 -0.00000000000E+00 -0.28271715664E+02  0.28271715664E+02  0.00000000000E+00 0.  1.
          1    1    1    2  502    0  0.38096060485E+02  0.54337160954E+02  0.10003099609E+03  0.12004181381E+03  0.00000000000E+00 0. -1.
         -1    1    1    2    0  501 -0.38096060485E+02 -0.54337160954E+02  0.42006370824E+02  0.78538984427E+02  0.00000000000E+00 0.  1.
</event>
<event>
 4    1  0.6769686E+001  0.2294773E+02  0.7546771E-02  0.1493156E+00
          2   -1    0    0  502    0  0.00000000000E+00  0.00000000000E+00  0.23419150709E+04  0.23419150709E+04  0.00000000000E+00 0.  1.
         -2   -1    0    0    0  501 -0.00000000000E+00 -0.00000000000E+00 -0.22486311354E+00  0.22486311354E+00  0.00000000000E+00 0. -1.
          1    1    1    2  502    0 -0.18564283896E+02  0.13489462539E+02  0.11764535402E+04  0.11766773264E+04  0.00000000000E+00 0.  1.
         -1    1    1    2    0  501  0.18564283896E+02 -0.13489462539E+02  0.11652366676E+04  0.11654626076E+04  0.00000000000E+00 0. -1.
</event>
<event>
 4    1  0.6769686E+001  0.2375142E+02  0.7546771E-02  0.1483272E+00
          2   -1    0    0  502    0  0.00000000000E+00  0.00000000000E+00  0.73418958794E+01  0.73418958794E+01  0.00000000000E+00 0.  1.
         -2   -1    0    0    0  501 -0.00000000000E+00 -0.00000000000E+00 -0.13575059736E+03  0.13575059736E+03  0.00000000000E+00 0. -1.
          1    1    1    2  502    0  0.16400042855E+02 -0.17180466354E+02 -0.11133717483E+03  0.11384241885E+03  0.00000000000E+00 0. -1.
         -1    1    1    2    0  501 -0.16400042855E+02  0.17180466354E+02 -0.17071526651E+02  0.29250074393E+02  0.00000000000E+00 0.  1.
</event>
<event>
 4    1  0.6769686E+001  0.2208384E+02  0.7546771E-02  0.1504334E+00
          2   -1    0    0  502    0  0.00000000000E+00  0.00000000000E+00  0.96788160246E+02  0.96788160246E+02  0.00000000000E+00 0.  1.
         -2   -1    0    0    0  501 -0.00000000000E+00 -0.00000000000E+00 -0.53064831532E+01  0.53064831532E+01  0.00000000000E+00 0. -1.
          1    1    1    2  502    0 -0.95378703534E+01 -0.19917953382E+02  0.34275603326E+02  0.40773923299E+02  0.00000000000E+00 0. -1.
         -1    1    1    2    0  501  0.95378703534E+01  0.19917953382E+02  0.57206073767E+02  0.61320720100E+02  0.00000000000E+00 0.  1.
</event>
<event>
 4    1  0.6769686E+001  0.2101866E+02  0.7546771E-02  0.1518998E+00
          2   -1    0    0  502    0  0.00000000000E+00  0.00000000000E+00  0.77124529373E+03  0.77124529373E+03  0.00000000000E+00 0.  1.
         -2   -1    0    0    0  501 -0.00000000000E+00 -0.00000000000E+00 -0.57323044191E+00  0.57323044191E+00  0.00000000000E+00 0. -1.
          1    1    1    2  502    0 -0.79628738996E+01  0.19451910615E+02  0.37500085728E+03  0.37558943961E+03  0.00000000000E+00 0.  1.
         -1    1    1    2    0  501  0.79628738996E+01 -0.19451910615E+02  0.39567120600E+03  0.39622908456E+03  0.00000000000E+00 0. -1.
</event>
<event>
 4    1  0.6769686E+001  0.3402508E+02  0.7546771E-02  0.1387550E+00
          2   -1    0    0  502    0  0.00000000000E+00  0.00000000000E+00  0.38236399636E+03  0.38236399636E+03  0.00000000000E+00 0. -1.
         -2   -1    0    0    0  501 -0.00000000000E+00 -0.00000000000E+00 -0.34650361233E+01  0.34650361233E+01  0.00000000000E+00 0.  1.
          1    1    1    2  502    0 -0.94244484422E+01  0.32693819328E+02  0.12091811570E+03  0.12561407865E+03  0.00000000000E+00 0.  1.
         -1    1    1    2    0  501  0.94244484422E+01 -0.32693819328E+02  0.25798084454E+03  0.26021495383E+03  0.00000000000E+00 0. -1.
</event>
<event>
 4    1  0.6769686E+001  0.2971587E+02  0.7546771E-02  0.1422082E+00
          2   -1    0    0  502    0  0.00000000000E+00  0.00000000000E+00  0.26143194764E+03  0.26143194764E+03  0.00000000000E+00 0. -1.
         -2   -1    0    0    0  501 -0.00000000000E+00 -0.00000000000E+00 -0.33983667162E+01  0.33983667162E+01  0.00000000000E+00 0.  1.
          1    1    1    2  502    0 -0.10024026885E+01 -0.29698960191E+02  0.13934832789E+03  0.14248154102E+03  0.00000000000E+00 0.  1.
         -1    1    1    2    0  501  0.10024026885E+01  0.29698960191E+02  0.11868525303E+03  0.12234877333E+03  0.00000000000E+00 0. -1.
</event>
<event>
 4    1  0.6769686E+001  0.3566297E+02  0.7546771E-02  0.1375961E+00
          2   -1    0    0  502    0  0.00000000000E+00  0.00000000000E+00  0.34402594247E+04  0.34402594247E+04  0.00000000000E+00 0.  1.
         -2   -1    0    0    0  501 -0.00000000000E+00 -0.00000000000E+00 -0.37075619581E+00  0.37075619581E+00  0.00000000000E+00 0. -1.
          1    1    1    2  502    0  0.27107974234E+02 -0.23173373820E+02  0.18119708918E+04  0.18123218147E+04  0.00000000000E+00 0.  1.
         -1    1    1    2    0  501 -0.27107974234E+02  0.23173373820E+02  0.16279177767E+04  0.16283083662E+04  0.00000000000E+00 0. -1.
</event>
<event>
 4    1  0.6769686E+001  0.3616542E+02  0.7546771E-02  0.1372550E+00
          2   -1    0    0  502    0  0.00000000000E+00  0.00000000000E+00  0.11604430020E+02  0.11604430020E+02  0.00000000000E+00 0. -1.
         -2   -1    0    0    0  501 -0.00000000000E+00 -0.00000000000E+00 -0.11272884406E+03  0.11272884406E+03  0.00000000000E+00 0.  1.
          1    1    1    2  502    0 -0.28045006566E+02 -0.22834523245E+02 -0.51361291041E+02  0.62816558824E+02  0.00000000000E+00 0. -1.
         -1    1    1    2    0  501  0.28045006566E+02  0.22834523245E+02 -0.49763122996E+02  0.61516715252E+02  0.00000000000E+00 0.  1.
</event>
<event>
 4    1  0.6769686E+001  0.2309141E+02  0.7546771E-02  0.1491354E+00
          2   -1    0    0  502    0  0.00000000000E+00  0.00000000000E+00  0.95611750358E+03  0.95611750358E+03  0.00000000000E+00 0.  1.
         -2   -1    0    0    0  501 -0.00000000000E+00 -0.00000000000E+00 -0.11585718634E+01  0.11585718634E+01  0.00000000000E+00 0. -1.
          1    1    1    2  502    0  0.32018162960E+01 -0.22868348413E+02  0.13277901616E+03  0.13477195598E+03  0.00000000000E+00 0. -1.
         -1    1    1    2    0  501 -0.32018162960E+01  0.22868348413E+02  0.82217991556E+03  0.82250411946E+03  0.00000000000E+00 0.  1.
</event>
<event>
 4    1  0.6769686E+001  0.2254630E+02  0.7546771E-02  0.1498275E+00
          2   -1    0    0  502    0  0.00000000000E+00  0.00000000000E+00  0.11038549392E+04  0.11038549392E+04  0.00000000000E+00 0.  1.
         -2   -1    0    0    0  501 -0.00000000000E+00 -0.00000000000E+00 -0.55106678109E+00  0.55106678109E+00  0.00000000000E+00 0. -1.
          1    1    1    2  502    0 -0.22346074016E+02 -0.29981099971E+01  0.77550257217E+03  0.77583024891E+03  0.00000000000E+00 0.  1.
         -1    1    1    2    0  501  0.22346074016E+02  0.29981099971E+01  0.32780130028E+03  0.32857575710E+03  0.00000000000E+00 0. -1.
</event>
<event>
 4    1  0.6769686E+001  0.3402890E+02  0.7546771E-02  0.1387522E+00
          2   -1    0    0  502    0  0.00000000000E+00  0.00000000000E+00  0.59174065237E+03  0.59174065237E+03  0.00000000000E+00 0. -1.
         -2   -1    0    0    0  501 -0.00000000000E+00 -0.00000000000E+00 -0.25633895657E+01  0.25633895657E+01  0.00000000000E+00 0.  1.
          1    1    1    2  502    0 -0.13835855462E+02 -0.31089144117E+02  0.43912928349E+03  0.44044578940E+03  0.00000000000E+00 0. -1.
         -1    1    1    2    0  501  0.13835855462E+02  0.31089144117E+02  0.15004797931E+03  0.15385825254E+03  0.00000000000E+00 0.  1.
</event>
<event>
 4    1  0.6769686E+001  0.2775810E+02  0.7546771E-02  0.1440138E+00
          2   -1    0    0  502    0  0.00000000000E+00  0.00000000000E+00  0.12212140602E+02  0.12212140602E+02  0.00000000000E+00 0. -1.
         -2   -1    0    0    0  501 -0.00000000000E+00 -0.00000000000E+00 -0.74986514987E+02  0.74986514987E+02  0.00000000000E+00 0.  1.
          1    1    1    2  502    0  0.20869948369E+01  0.27679529032E+02 -0.48750254308E+02  0.56099012201E+02  0.00000000000E+00 0. -1.
         -1    1    1    2    0  501 -0.20869948369E+01 -0.27679529032E+02 -0.14024120078E+02  0.31099643388E+02  0.00000000000E+00 0.  1.
</event>
<event>
 4    1  0.6769686E+001  0.2057019E+02  0.7546771E-02  0.1525491E+00
          2   -1    0    0  502    0  0.00000000000E+00  0.00000000000E+00  0.44397382453E+03  0.44397382453E+03  0.00000000000E+00 0. -1.
         -2   -1    0    0    0  501 -0.00000000000E+00 -0.00000000000E+00 -0.47121017426E+01  0.47121017426E+01  0.00000000000E+00 0.  1.
          1    1    1    2  502    0 -0.19820379226E+02 -0.55032232130E+01  0.42000598342E+03  0.42050940418E+03  0.00000000000E+00 0. -1.
         -1    1    1    2    0  501  0.19820379226E+02  0.55032232130E+01  0.19255739364E+02  0.28176522086E+02  0.00000000000E+00 0.  1.
</event>
<event>
 4    1  0.6769686E+001  0.3195443E+02  0.7546771E-02  0.1403340E+00
          2   -1    0    0  502    0  0.00000000000E+00  0.00000000000E+00  0.14475386737E+03  0.14475386737E+03  0.00000000000E+00 0.  1.
         -2   -1    0    0    0  501 -0.00000000000E+00 -0.00000000000E+00 -0.91696973874E+01  0.91696973874E+01  0.00000000000E+00 0. -1.
          1    1    1    2  502    0  0.21758409868E+02  0.23402082905E+02  0.10476042831E+03  0.10952549121E+03  0.00000000000E+00 0. -1.
         -1    1    1    2    0  501 -0.21758409868E+02 -0.23402082905E+02  0.30823741670E+02  0.44398073549E+02  0.00000000000E+00 0.  1.
</event>
<event>
 4    1  0.6769686E+001  0.2797281E+02  0.7546771E-02  0.1438073E+00
          2   -1    0    0  502    0  0.00000000000E+00  0.00000000000E+00  0.34601681734E+03  0.34601681734E+03  0.00000000000E+00 0. -1.
         -2   -1    0    0    0  501 -0.00000000000E+00 -0.00000000000E+00 -0.22979337879E+01  0.22979337879E+01  0.00000000000E+00 0.  1.
          1    1    1    2  502    0 -0.23343382963E+02  0.15413135705E+02  0.19382244615E+03  0.19583058727E+03  0.00000000000E+00 0. -1.
         -1    1    1    2    0  501  0.23343382963E+02 -0.15413135705E+02  0.14989643741E+03  0.15248416386E+03  0.00000000000E+00 0.  1.
</event>
<event>
 4    1  0.6769686E+001  0.2267467E+02  0.7546771E-02  0.1496624E+00
          2   -1    0    0  502    0  0.00000000000E+00  0.00000000000E+00  0.17352392810E+04  0.17352392810E+04  0.00000000000E+00 0. -1.
         -2   -1    0    0    0  501 -0.00000000000E+00 -0.00000000000E+00 -0.40734662557E+00  0.40734662557E+00  0.00000000000E+00 0.  1.
          1    1    1    2  502    0  0.57713914085E+01 -0.21927880054E+02  0.13205365449E+04  0.13207312018E+04  0.00000000000E+00 0. -1.
         -1    1    1    2    0  501 -0.57713914085E+01  0.21927880054E+02  0.41429538940E+03  0.41491542580E+03  0.00000000000E+00 0.  1.
</event>
<event>
 4    1  0.6769686E+001  0.2845844E+02  0.7546771E-02  0.1433483E+00
          2   -1    0    0  502    0  0.00000000000E+00  0.00000000000E+00  0.23361896255E+03  0.23361896255E+03  0.00000000000E+00 0.  1.
         -2   -1    0    0    0  501 -0.00000000000E+00 -0.00000000000E+00 -0.53201234421E+01  0.53201234421E+01  0.00000000000E+00 0. -1.
          1    1    1    2  502    0 -0.24943086175E+02  0.13701281970E+02  0.18466511133E+03  0.18684508562E+03  0.00000000000E+00 0.  1.
         -1    1    1    2    0  501  0.24943086175E+02 -0.13701281970E+02  0.43633727774E+02  0.52094000374E+02  0.00000000000E+00 0. -1.
</event>
<event>
 4    1  0.6769686E+001  0.2041226E+02  0.7546771E-02  0.1527824E+00
          2   -1    0    0  502    0  0.00000000000E+00  0.00000000000E+00  0.15097718167E+03  0.15097718167E+03  0.00000000000E+00 0. -1.
         -2   -1    0    0    0  501 -0.00000000000E+00 -0.00000000000E+00 -0.27699131178E+01  0.27699131178E+01  0.00000000000E+00 0.  1.
          1    1    1    2  502    0  0.31024827740E+01 -0.20175112167E+02  0.69449091024E+02  0.72386716975E+02  0.00000000000E+00 0.  1.
         -1    1    1    2    0  501 -0.31024827740E+01  0.20175112167E+02  0.78758177528E+02  0.81360377813E+02  0.00000000000E+00 0. -1.
</event>
<event>
 4    1  0.6769686E+001  0.2576779E+02  0.7546771E-02  0.1460395E+00
          2   -1    0    0  502    0  0.00000000000E+00  0.00000000000E+00  0.11359178862E+02  0.11359178862E+02  0.00000000000E+00 0.  1.
         -2   -1    0    0    0  501 -0.00000000000E+00 -0.00000000000E+00 -0.61013374849E+02  0.61013374849E+02  0.00000000000E+00 0. -1.
          1    1    1    2  502    0 -0.36038695822E+00 -0.25765268113E+02 -0.17414389878E+02  0.31100480616E+02  0.00000000000E+00 0.  1.
         -1    1    1    2    0  501  0.36038695822E+00  0.25765268113E+02 -0.32239806108E+02  0.41272073096E+02  0.00000000000E+00 0. -1.
</event>
<event>
 4    1  0.6769686E+001  0.2708468E+02  0.7546771E-02  0.1446759E+00
          2   -1    0    0  502    0  0.00000000000E+00  0.00000000000E+00  0.26315708347E+02  0.26315708347E+02  0.00000000000E+00 0. -1.
         -2   -1    0    0    0  501 -0.00000000000E+00 -0.00000000000E+00 -0.30281456332E+02  0.30281456332E+02  0.00000000000E+00 0.  1.
          1    1    1    2  502    0  0.14146341962E+02  0.23096775154E+02 -0.99584787571E+01  0.28857430803E+02  0.00000000000E+00 0.  1.
         -1    1    1    2    0  501 -0.14146341962E+02 -0.23096775154E+02  0.59927307721E+01  0.27739733876E+02  0.00000000000E+00 0. -1.
</event>
<event>
 4    1  0.6769686E+001  0.2978139E+02  0.7546771E-02  0.1421506E+00
          2   -1    0    0  502    0  0.00000000000E+00  0.00000000000E+00  0.10916903982E+02  0.10916903982E+02  0.00000000000E+00 0.  1.
         -2   -1    0    0    0  501 -0.00000000000E+00 -0.00000000000E+00 -0.10437716062E+03  0.10437716062E+03  0.00000000000E+00 0. -1.
          1    1    1    2  502    0 -0.20133734324E+02  0.21944564997E+02 -0.19591167620E+02  0.35647510985E+02  0.00000000000E+00 0.  1.
         -1    1    1    2    0  501  0.20133734324E+02 -0.21944564997E+02 -0.73869089018E+02  0.79646553617E+02  0.00000000000E+00 0. -1.
</event>
<event>
 4    1  0.6769686E+001  0.2501764E+02  0.7546771E-02  0.1468606E+00
          2   -1    0    0  502    0  0.00000000000E+00  0.00000000000E+00  0.16833615422E+01  0.16833615422E+01  0.00000000000E+00 0. -1.
         -2   -1    0    0    0  501 -0.00000000000E+00 -0.00000000000E+00 -0.12809656541E+04  0.12809656541E+04  0.00000000000E+00 0.  1.
          1    1    1    2  502    0  0.20624102286E+02  0.14160816324E+02 -0.99348073619E+02  0.10244960735E+03  0.00000000000E+00 0. -1.
         -1    1    1    2    0  501 -0.20624102286E+02 -0.14160816324E+02 -0.11799342190E+04  0.11801994083E+04  0.00000000000E+00 0.  1.
</event>
<event>
 4    1  0.6769686E+001  0.3088847E+02  0.7546771E-02  0.1412029E+00
          2   -1    0    0  502    0  0.00000000000E+00  0.00000000000E+00  0.51069195432E+03  0.51069195432E+03  0.00000000000E+00 0. -1.
         -2   -1    0    0    0  501 -0.00000000000E+00 -0.00000000000E+00 -0.25672118908E+01  0.25672118908E+01  0.00000000000E+00 0.  1.
          1    1    1    2  502    0 -0.24348120308E+02 -0.19007009015E+02  0.12015503614E+03  0.12406179938E+03  0.00000000000E+00 0.  1.
         -1    1    1    2    0  501  0.24348120308E+02  0.19007009015E+02  0.38796970629E+03  0.38919736684E+03  0.00000000000E+00 0. -1.
</event>
<event>
 4    1  0.6769686E+001  0.2836589E+02  0.7546771E-02  0.1434350E+00
          2   -1    0    0  502    0  0.00000000000E+00  0.00000000000E+00  0.19343073136E+04  0.19343073136E+04  0.00000000000E+00 0. -1.
         -2   -1    0    0    0  501 -0.00000000000E+00 -0.00000000000E+00 -0.41609521831E+00  0.41609521831E+00  0.00000000000E+00 0.  1.
          1    1    1    2  502    0  0.28190078766E+02  0.31532605268E+01  0.95050655111E+03  0.95092971733E+03  0.00000000000E+00 0.  1.
         -1    1    1    2    0  501 -0.28190078766E+02 -0.31532605268E+01  0.98338466728E+03  0.98379369150E+03  0.00000000000E+00 0. -1.
</event>
<event>
 4    1  0.6769686E+001  0.2708937E+02  0.7546771E-02  0.1446712E+00
          2   -1    0    0  502    0  0.00000000000E+00  0.00000000000E+00  0.63965414311E+02  0.63965414311E+02  0.00000000000E+00 0.  1.
         -2   -1    0    0    0  501 -0.00000000000E+00 -0.00000000000E+00 -0.37589470966E+02  0.37589470966E+02  0.00000000000E+00 0. -1.
          1    1    1    2  502    0 -0.19236509486E+02  0.19073296503E+02 -0.29137355777E+02  0.39784663356E+02  0.00000000000E+00 0. -1.
         -1    1    1    2    0  501  0.19236509486E+02 -0.19073296503E+02  0.55513299122E+02  0.61770221921E+02  0.00000000000E+00 0.  1.
</event>
<event>
 4    1  0.6769686E+001  0.3362190E+02  0.7546771E-02  0.1390519E+00
          2   -1    0    0  502    0  0.00000000000E+00  0.00000000000E+00  0.19657870666E+02  0.19657870666E+02  0.00000000000E+00 0. -1.
         -2   -1    0    0    0  501 -0.00000000000E+00 -0.00000000000E+00 -0.75989885250E+02  0.75989885250E+02  0.00000000000E+00 0.  1.
          1    1    1    2  502    0  0.31945890374E+02  0.10482943369E+02 -0.51752946781E+02  0.61715472241E+02  0.00000000000E+00 0.  1.
         -1    1    1    2    0  501 -0.31945890374E+02 -0.10482943369E+02 -0.45790678030E+01  0.33932283675E+02  0.00000000000E+00 0. -1.
</event>
<event>
 4    1  0.6769686E+001  0.2481814E+02  0.7546771E-02  0.1470848E+00
          2   -1    0    0  502    0  0.00000000000E+00  0.00000000000E+00  0.72270728335E+01  0.72270728335E+01  0.00000000000E+00 0. -1.
         -2   -1    0    0    0  501 -0.00000000000E+00 -0.00000000000E+00 -0.18443722165E+03  0.18443722165E+03  0.00000000000E+00 0.  1.
          1    1    1    2  502    0  0.24680568203E+02  0.26095312091E+01 -0.15889055828E+03  0.16081713096E+03  0.00000000000E+00 0.  1.
         -1    1    1    2    0  501 -0.24680568203E+02 -0.26095312091E+01 -0.18319590535E+02  0.30847163522E+02  0.00000000000E+00 0. -1.
</event>
<event>
 4    1  0.6769686E+001  0.3058669E+02  0.7546771E-02  0.1414565E+00
          2   -1    0    0  502    0  0.00000000000E+00  0.00000000000E+00  0.17895033635E+03  0.17895033635E+03  0.00000000000E+00 0.  1.
         -2   -1    0    0    0  501 -0.00000000000E+00 -0.00000000000E+00 -0.12214225960E+02  0.12214225960E+02  0.00000000000E+00 0. -1.
          1    1    1    2  502    0 -0.69666602887E+01  0.29782734394E+02  0.11079940224E+02  0.32531687613E+02  0.00000000000E+00 0. -1.
         -1    1    1    2    0  501  0.69666602887E+01 -0.29782734394E+02  0.15565617017E+03  0.15863287470E+03  0.00000000000E+00 0.  1.
</event>
<event>
 4    1  0.6769686E+001  0.2356804E+02  0.7546771E-02  0.1485486E+00
          2   -1    0    0  502    0  0.00000000000E+00  0.00000000000E+00  0.56583249835E+03  0.56583249835E+03  0.00000000000E+00 0.  1.
         -2   -1    0    0    0  501 -0.00000000000E+00 -0.00000000000E+00 -0.99666088733E+00  0.99666088733E+00  0.00000000000E+00 0. -1.
          1    1    1    2  502    0  0.22142865125E+02 -0.80713224922E+01  0.31719303094E+03  0.31806740103E+03  0.00000000000E+00 0. -1.
         -1    1    1    2    0  501 -0.22142865125E+02  0.80713224922E+01  0.24764280652E+03  0.24876175821E+03  0.00000000000E+00 0.  1.
</event>
<event>
 4    1  0.6769686E+001  0.2254658E+02  0.7546771E-02  0.1498272E+00
          2   -1    0    0  502    0  0.00000000000E+00  0.00000000000E+00  0.36932296020E+02  0.36932296020E+02  0.00000000000E+00 0.  1.
         -2   -1    0    0    0  501 -0.00000000000E+00 -0.00000000000E+00 -0.13938107425E+02  0.13938107425E+02  0.00000000000E+00 0. -1.
          1    1    1    2  502    0  0.20620863452E+02 -0.91174777216E+01  0.14337148295E+02  0.26718948908E+02  0.00000000000E+00 0. -1.
         -1    1    1    2    0  501 -0.20620863452E+02  0.91174777216E+01  0.86570403006E+01  0.24151454538E+02  0.00000000000E+00 0.  1.
</event>
<event>
 4    1  0.6769686E+001  0.2429295E+02  0.7546771E-02  0.1476871E+00
          2   -1    0    0  502    0  0.00000000000E+00  0.00000000000E+00  0.13156932156E+03  0.13156932156E+03  0.00000000000E+00 0.  1.
         -2   -1    0    0    0  501 -0.00000000000E+00 -0.00000000000E+00 -0.45518847110E+01  0.45518847110E+01  0.00000000000E+00 0. -1.
          1    1    1    2  502    0  0.21108643613E+02  0.12023829913E+02  0.55286198088E+02  0.60388003941E+02  0.00000000000E+00 0. -1.
         -1    1    1    2    0  501 -0.21108643613E+02 -0.12023829913E+02  0.71731238761E+02  0.75733202330E+02  0.00000000000E+00 0.  1.
</event>
<event>
 4    1  0.6769686E+001  0.2251459E+02  0.7546771E-02  0.1498685E+00
          2   -1    0    0  502    0  0.00000000000E+00  0.00000000000E+00  0.10329721269E+03  0.10329721269E+03  0.00000000000E+00 0. -1.
         -2   -1    0    0    0  501 -0.00000000000E+00 -0.00000000000E+00 -0.59538503753E+01  0.59538503753E+01  0.00000000000E+00 0.  1.
          1    1    1    2  502    0  0.95471500453E+01 -0.20390161285E+02  0.25769115366E+02  0.34219205981E+02  0.00000000000E+00 0.  1.
         -1    1    1    2    0  501 -0.95471500453E+01  0.20390161285E+02  0.71574246946E+02  0.75031857081E+02  0.00000000000E+00 0. -1.
</event>
<event>
 4    1  0.6769686E+001  0.2568636E+02  0.7546771E-02  0.1461270E+00
          2   -1    0    0  502    0  0.00000000000E+00  0.00000000000E+00  0.10533130749E+04  0.10533130749E+04  0.00000000000E+00 0.  1.
         -2   -1    0    0    0  501 -0.00000000000E+00 -0.00000000000E+00 -0.75640657994E+00  0.75640657994E+00  0.00000000000E+00 0. -1.
          1    1    1    2  502    0  0.10431697648E+01 -0.25665171537E+02  0.74477956997E+03  0.74522238096E+03  0.00000000000E+00 0.  1.
         -1    1    1    2    0  501 -0.10431697648E+01  0.25665171537E+02  0.30777709834E+03  0.30884710051E+03  0.00000000000E+00 0. -1.
</event>
<event>
 4    1  0.6769686E+001  0.2094526E+02  0.7546771E-02  0.1520048E+00
          2   -1    0    0  502    0  0.00000000000E+00  0.00000000000E+00  0.70548180512E+02  0.70548180512E+02  0.00000000000E+00 0.  1.
         -2   -1    0    0    0  501 -0.00000000000E+00 -0.00000000000E+00 -0.71424795462E+01  0.71424795462E+01  0.00000000000E+00 0. -1.
          1    1    1    2  502    0 -0.20613135053E+02 -0.37151938181E+01  0.45674414367E+02  0.50247946521E+02  0.00000000000E+00 0.  1.
         -1    1    1    2    0  501  0.20613135053E+02  0.37151938181E+01  0.17731286599E+02  0.27442713537E+02  0.00000000000E+00 0. -1.
</event>
<event>
 4    1  0.6769686E+001  0.4166344E+02  0.7546771E-02  0.1339004E+00
          2   -1    0    0  502    0  0.00000000000E+00  0.00000000000E+00  0.10930097663E+04  0.10930097663E+04  0.00000000000E+00 0. -1.
         -2   -1    0    0    0  501 -0.00000000000E+00 -0.00000000000E+00 -0.19623465767E+01  0.19623465767E+01  0.00000000000E+00 0.  1.
          1    1    1    2  502    0  0.41362127031E+02 -0.50016817025E+01  0.78460539472E+03  0.78571080418E+03  0.00000000000E+00 0. -1.
         -1    1    1    2    0  501 -0.41362127031E+02  0.50016817025E+01  0.30644202503E+03  0.30926130873E+03  0.00000000000E+00 0.  1.
</event>
<event>
 4    1  0.6769686E+001  0.2468038E+02  0.7546771E-02  0.1472411E+00
          2   -1    0    0  502    0  0.00000000000E+00  0.00000000000E+00  0.23477043821E+02  0.23477043821E+02  0.00000000000E+00 0.  1.
         -2   -1    0    0    0  501 -0.00000000000E+00 -0.00000000000E+00 -0.29437330074E+02  0.29437330074E+02  0.00000000000E+00 0. -1.
          1    1    1    2  502    0  0.49462891720E+01  0.24179646578E+02  0.61321519833E+01  0.25430776102E+02  0.00000000000E+00 0.  1.
         -1    1    1    2    0  501 -0.49462891720E+01 -0.24179646578E+02 -0.12092438236E+02  0.27483597794E+02  0.00000000000E+00 0. -1.
</event>
<event>
 4    1  0.6769686E+001  0.2333796E+02  0.7546771E-02  0.1488297E+00
          2   -1    0    0  502    0  0.00000000000E+00  0.00000000000E+00  0.25648793541E+03  0.25648793541E+03  0.00000000000E+00 0.  1.
         -2   -1    0    0    0  501 -0.00000000000E+00 -0.00000000000E+00 -0.29618196352E+01  0.29618196352E+01  0.00000000000E+00 0. -1.
          1    1    1    2  502    0 -0.20697676089E+02  0.10782696708E+02  0.19577758080E+03  0.19716369212E+03  0.00000000000E+00 0.  1.
         -1    1    1    2    0  501  0.20697676089E+02 -0.10782696708E+02  0.57748534969E+02  0.62286062927E+02  0.00000000000E+00 0. -1.
</event>
<event>
 4    1  0.6769686E+001  0.2931435E+02  0.7546771E-02  0.1425650E+00
          2   -1    0    0  502    0  0.00000000000E+00  0.00000000000E+00  0.18707365602E+04  0.18707365602E+04  0.00000000000E+00 0. -1.
         -2   -1    0    0    0  501 -0.00000000000E+00 -0.00000000000E+00 -0.52027005445E+00  0.52027005445E+00  0.00000000000E+00 0.  1.
          1    1    1    2  502    0  0.29296389206E+02  0.10261322434E+01  0.12552576820E+04  0.12555999282E+04  0.00000000000E+00 0. -1.
         -1    1    1    2    0  501 -0.29296389206E+02 -0.10261322434E+01  0.61495860812E+03  0.61565690207E+03  0.00000000000E+00 0.  1.
</event>
<event>
 4    1  0.6769686E+001  0.2008194E+02  0.7546771E-02  0.1532787E+00
          2   -1    0    0  502    0  0.00000000000E+00  0.00000000000E+00  0.32619916328E+03  0.32619916328E+03  0.00000000000E+00 0. -1.
         -2   -1    0    0    0  501 -0.00000000000E+00 -0.00000000000E+00 -0.13053647429E+01  0.13053647429E+01  0.00000000000E+00 0.  1.
          1    1    1    2  502    0  0.12395355689E+01  0.20043652056E+02  0.12478458028E+03  0.12639017332E+03  0.00000000000E+00 0.  1.
         -1    1    1    2    0  501 -0.12395355689E+01 -0.20043652056E+02  0.20010921826E+03  0.20111435471E+03  0.00000000000E+00 0. -1.
</event>
<event>
 4    1  0.6769686E+001  0.3356870E+02  0.7546771E-02  0.1390915E+00
          2   -1    0    0  502    0  0.00000000000E+00  0.00000000000E+00  0.72093833733E+02  0.72093833733E+02  0.00000000000E+00 0.  1.
         -2   -1    0    0    0  501 -0.00000000000E+00 -0.00000000000E+00 -0.17423962490E+02  0.17423962490E+02  0.00000000000E+00 0. -1.
          1    1    1    2  502    0  0.21502189715E+02 -0.25778163289E+02  0.12974747215E+02  0.35988913993E+02  0.00000000000E+00 0. -1.
         -1    1    1    2    0  501 -0.21502189715E+02  0.25778163289E+02  0.41695124028E+02  0.53528882230E+02  0.00000000000E+00 0.  1.
</event>
<event>
 4    1  0.6769686E+001  0.3227303E+02  0.7546771E-02  0.1400820E+00
          2   -1    0    0  502    0  0.00000000000E+00  0.00000000000E+00  0.15124753387E+01  0.15124753387E+01  0.00000000000E+00 0.  1.
         -2   -1    0    0    0  501 -0.00000000000E+00 -0.00000000000E+00 -0.92445125448E+03  0.92445125448E+03  0.00000000000E+00 0. -1.
          1    1    1    2  502    0 -0.29157853871E+02  0.13833575541E+02 -0.69530245237E+03  0.69605103873E+03  0.00000000000E+00 0. -1.
         -1    1    1    2    0  501  0.29157853871E+02 -0.13833575541E+02 -0.22763632677E+03  0.22991269108E+03  0.00000000000E+00 0.  1.
</event>
<event>
 4    1  0.6769686E+001  0.2266556E+02  0.7546771E-02  0.1496741E+00
          2   -1    0    0  502    0  0.00000000000E+00  0.00000000000E+00  0.26766636556E+04  0.26766636556E+04  0.00000000000E+00 0.  1.
         -2   -1    0    0    0  501 -0.00000000000E+00 -0.00000000000E+00 -0.19218388350E+00  0.19218388350E+00  0.00000000000E+00 0. -1.
          1    1    1    2  502    0  0.22634013498E+02  0.11954509107E+01  0.12894322780E+04  0.12896314696E+04  0.00000000000E+00 0. -1.
         -1    1    1    2    0  501 -0.22634013498E+02 -0.11954509107E+01  0.13870391937E+04  0.13872243700E+04  0.00000000000E+00 0.  1.
</event>
<event>
 4    1  0.6769686E+001  0.2058957E+02  0.7546771E-02  0.1525206E+00
          2   -1    0    0  502    0  0.00000000000E+00  0.00000000000E+00  0.12623677944E+03  0.12623677944E+03  0.00000000000E+00 0. -1.
         -2   -1    0    0    0  501 -0.00000000000E+00 -0.00000000000E+00 -0.67632388633E+01  0.67632388633E+01  0.00000000000E+00 0.  1.
          1    1    1    2  502    0 -0.19251174724E+02  0.73022290252E+01  0.12551721713E+02  0.24113813364E+02  0.00000000000E+00 0.  1.
         -1    1    1    2    0  501  0.19251174724E+02 -0.73022290252E+01  0.10692181886E+03  0.10888620493E+03  0.00000000000E+00 0. -1.
</event>
<event>
 4    1  0.6769686E+001  0.2303791E+02  0.7546771E-02  0.1492023E+00
          2   -1    0    0  502    0  0.00000000000E+00  0.00000000000E+00  0.18507402110E+04  0.18507402110E+04  0.00000000000E+00 0. -1.
         -2   -1    0    0    0  501 -0.00000000000E+00 -0.00000000000E+00 -0.28685236898E+00  0.28685236898E+00  0.00000000000E+00 0.  1.
          1    1    1    2  502    0  0.19312612340E+02  0.12560582091E+02  0.94046917599E+03  0.94075130412E+03  0.00000000000E+00 0. -1.
         -1    1    1    2    0  501 -0.19312612340E+02 -0.12560582091E+02  0.90998418264E+03  0.91027575925E+03  0.00000000000E+00 0.  1.
</event>
<event>
 4    1  0.6769686E+001  0.2053303E+02  0.7546771E-02  0.1526038E+00
          2   -1    0    0  502    0  0.00000000000E+00  0.00000000000E+00  0.13507028275E+02  0.13507028275E+02  0.00000000000E+00 0. -1.
         -2   -1    0    0    0  501 -0.00000000000E+00 -0.00000000000E+00 -0.31631459368E+02  0.31631459368E+02  0.00000000000E+00 0.  1.
          1    1    1    2  502    0  0.20244753296E+02 -0.34286026262E+01 -0.64687463014E+01  0.21527889601E+02  0.00000000000E+00 0.  1.
         -1    1    1    2    0  501 -0.20244753296E+02  0.34286026262E+01 -0.11655684791E+02  0.23610598042E+02  0.00000000000E+00 0. -1.
</event>
<event>
 4    1  0.6769686E+001  0.2014160E+02  0.7546771E-02  0.1531882E+00
          2   -1    0    0  502    0  0.00000000000E+00  0.00000000000E+00  0.13606324131E+03  0.13606324131E+03  0.00000000000E+00 0. -1.
         -2   -1    0    0    0  501 -0.00000000000E+00 -0.00000000000E+00 -0.32608295519E+01  0.32608295519E+01  0.00000000000E+00 0.  1.
          1    1    1    2  502    0  0.48050872737E+01 -0.19560043831E+02  0.86786835419E+02  0.89093428380E+02  0.00000000000E+00 0. -1.
         -1    1    1    2    0  501 -0.48050872737E+01  0.19560043831E+02  0.46015576340E+02  0.50230642483E+02  0.00000000000E+00 0.  1.
</event>
<event>
 4    1  0.6769686E+001  0.2194130E+02  0.7546771E-02  0.1506238E+00
          2   -1    0    0  502    0  0.00000000000E+00  0.00000000000E+00  0.70469336439E+03  0.70469336439E+03  0.00000000000E+00 0.  1.
         -2   -1    0    0    0  501 -0.00000000000E+00 -0.00000000000E+00 -0.11476818784E+01  0.11476818784E+01  0.00000000000E+00 0. -1.
          1    1    1    2  502    0  0.18676826320E+02  0.11515066798E+02  0.57629940127E+03  0.57671693274E+03  0.00000000000E+00 0.  1.
         -1    1    1    2    0  501 -0.18676826320E+02 -0.11515066798E+02  0.12724628125E+03  0.12912411354E+03  0.00000000000E+00 0. -1.
</event>
<event>
 4    1  0.6769686E+001  0.2062172E+02  0.7546771E-02  0.1524735E+00
          2   -1    0    0  502    0  0.00000000000E+00  0.00000000000E+00  0.14109100280E+01  0.14109100280E+01  0.00000000000E+00 0.  1.
         -2   -1    0    0    0  501 -0.00000000000E+00 -0.00000000000E+00 -0.87125909329E+03  0.87125909329E+03  0.00000000000E+00 0. -1.
          1    1    1    2  502    0 -0.20026774869E+02  0.49176761918E+01 -0.82043112490E+02  0.84595079986E+02  0.00000000000E+00 0.  1.
         -1    1    1    2    0  501  0.20026774869E+02 -0.49176761918E+01 -0.78780507077E+03  0.78807492333E+03  0.00000000000E+00 0. -1.
</event>
<event>
 4    1  0.6769686E+001  0.2336686E+02  0.7546771E-02  0.1487942E+00
          2   -1    0    0  502    0  0.00000000000E+00  0.00000000000E+00  0.40533331477E+02  0.40533331477E+02  0.00000000000E+00 0.  1.
         -2   -1    0    0    0  501 -0.00000000000E+00 -0.00000000000E+00 -0.45095415122E+02  0.45095415122E+02  0.00000000000E+00 0. -1.
          1    1    1    2  502    0 -0.21396429461E+02 -0.93916372855E+01  0.33572915573E+02  0.40904164881E+02  0.00000000000E+00 0.  1.
         -1    1    1    2    0  501  0.21396429461E+02  0.93916372855E+01 -0.38134999217E+02  0.44724581718E+02  0.00000000000E+00 0. -1.
</event>
<event>
 4    1  0.6769686E+001  0.8167627E+02  0.7546771E-02  0.1200009E+00
          2   -1    0    0  502    0  0.00000000000E+00  0.00000000000E+00  0.10206574230E+04  0.10206574230E+04  0.00000000000E+00 0. -1.
         -2   -1    0    0    0  501 -0.00000000000E+00 -0.00000000000E+00 -0.72325354450E+01  0.72325354450E+01  0.00000000000E+00 0.  1.
          1    1    1    2  502    0  0.43860413772E+02 -0.68900490975E+02  0.34721857944E+03  0.35669560617E+03  0.00000000000E+00 0.  1.
         -1    1    1    2    0  501 -0.43860413772E+02  0.68900490975E+02  0.66620630807E+03  0.67119435223E+03  0.00000000000E+00 0. -1.
</event>
<event>
 4    1  0.6769686E+001  0.4094064E+02  0.7546771E-02  0.1343060E+00
          2   -1    0    0  502    0  0.00000000000E+00  0.00000000000E+00  0.30090071644E+03  0.30090071644E+03  0.00000000000E+00 0.  1.
         -2   -1    0    0    0  501 -0.00000000000E+00 -0.00000000000E+00 -0.79559465519E+01  0.79559465519E+01  0.00000000000E+00 0. -1.
          1    1    1    2  502    0 -0.39931055190E+02 -0.90358655019E+01  0.61910355539E+02  0.74222827734E+02  0.00000000000E+00 0. -1.
         -1    1    1    2    0  501  0.39931055190E+02  0.90358655019E+01  0.23103441435E+03  0.23463383526E+03  0.00000000000E+00 0.  1.
</event>
<event>
 4    1  0.6769686E+001  0.2562041E+02  0.7546771E-02  0.1461981E+00
          2   -1    0    0  502    0  0.00000000000E+00  0.00000000000E+00  0.27124066340E+03  0.27124066340E+03  0.00000000000E+00 0.  1.
         -2   -1    0    0    0  501 -0.00000000000E+00 -0.00000000000E+00 -0.26033346977E+01  0.26033346977E+01  0.00000000000E+00 0. -1.
          1    1    1    2  502    0  0.17920994716E+02  0.18309655474E+02  0.17065297242E+03  0.17256547317E+03  0.00000000000E+00 0.  1.
         -1    1    1    2    0  501 -0.17920994716E+02 -0.18309655474E+02  0.97984356285E+02  0.10127852493E+03  0.00000000000E+00 0. -1.
</event>
<event>
 4    1  0.6769686E+001  0.3052280E+02  0.7546771E-02  0.1415107E+00
          2   -1    0    0  502    0  0.00000000000E+00  0.00000000000E+00  0.32355728111E+04  0.32355728111E+04  0.00000000000E+00 0. -1.
         -2   -1    0    0    0  501 -0.00000000000E+00 -0.00000000000E+00 -0.28816312041E+00  0.28816312041E+00  0.00000000000E+00 0.  1.
          1    1    1    2  502    0 -0.30126176744E+02 -0.49045847554E+01  0.16629536874E+04  0.16632337803E+04  0.00000000000E+00 0. -1.
         -1    1    1    2    0  501  0.30126176744E+02  0.49045847554E+01  0.15723309606E+04  0.15726271939E+04  0.00000000000E+00 0.  1.
</event>
<event>
 4    1  0.6769686E+001  0.2385964E+02  0.7546771E-02  0.1481977E+00
          2   -1    0    0  502    0  0.00000000000E+00  0.00000000000E+00  0.46055257523E+02  0.46055257523E+02  0.00000000000E+00 0. -1.
         -2   -1    0    0    0  501 -0.00000000000E+00 -0.00000000000E+00 -0.23557122706E+02  0.23557122706E+02  0.00000000000E+00 0.  1.
          1    1    1    2  502    0  0.16798468578E+02  0.16943846204E+02 -0.12746551524E+02  0.27051008235E+02  0.00000000000E+00 0.  1.
         -1    1    1    2    0  501 -0.16798468578E+02 -0.16943846204E+02  0.35244686341E+02  0.42561371994E+02  0.00000000000E+00 0. -1.
</event>
<event>
 4    1  0.6769686E+001  0.3494362E+02  0.7546771E-02  0.1380960E+00
          2   -1    0    0  502    0  0.00000000000E+00  0.00000000000E+00  0.27907592816E+02  0.27907592816E+02  0.00000000000E+00 0. -1.
         -2   -1    0    0    0  501 -0.00000000000E+00 -0.00000000000E+00 -0.77131750951E+02  0.77131750951E+02  0.00000000000E+00 0.  1.
          1    1    1    2  502    0  0.34384771730E+02  0.62244685368E+01 -0.59161184493E+02  0.68710277878E+02  0.00000000000E+00 0.  1.
         -1    1    1    2    0  501 -0.34384771730E+02 -0.62244685368E+01  0.99370263580E+01  0.36329065889E+02  0.00000000000E+00 0. -1.
</event>
<event>
 4    1  0.6769686E+001  0.2013928E+02  0.7546771E-02  0.1531917E+00
          2   -1    0    0  502    0  0.00000000000E+00  0.00000000000E+00  0.54067339371E+01  0.54067339371E+01  0.00000000000E+00 0.  1.
         -2   -1    0    0    0  501 -0.00000000000E+00 -0.00000000000E+00 -0.85370359279E+02  0.85370359279E+02  0.00000000000E+00 0. -1.
          1    1    1    2  502    0  0.17524360032E+02 -0.99240808711E+01 -0.55789128402E+02  0.59312877383E+02  0.00000000000E+00 0. -1.
         -1    1    1    2    0  501 -0.17524360032E+02  0.99240808711E+01 -0.24174496941E+02  0.31464215833E+02  0.00000000000E+00 0.  1.
</event>
<event>
 4    1  0.6769686E+001  0.2697428E+02  0.7546771E-02  0.1447867E+00
          2   -1    0    0  502    0  0.00000000000E+00  0.00000000000E+00  0.55782251039E+03  0.55782251039E+03  0.00000000000E+00 0.  1.
         -2   -1    0    0    0  501 -0.00000000000E+00 -0.00000000000E+00 -0.37306018540E+01  0.37306018540E+01  0.00000000000E+00 0. -1.
          1    1    1    2  502    0  0.23872891244E+02  0.12557747351E+02  0.50347739965E+03  0.50419946838E+03  0.00000000000E+00 0.  1.
         -1    1    1    2    0  501 -0.23872891244E+02 -0.12557747351E+02  0.50614508888E+02  0.57353643867E+02  0.00000000000E+00 0. -1.
</event>
<event>
 4    1  0.6769686E+001  0.4037428E+02  0.7546771E-02  0.1346306E+00
          2   -1    0    0  502    0  0.00000000000E+00  0.00000000000E+00  0.35622281423E+01  0.35622281423E+01  0.00000000000E+00 0. -1.
         -2   -1    0    0    0  501 -0.00000000000E+00 -0.00000000000E+00 -0.55967218235E+03  0.55967218235E+03  0.00000000000E+00 0.  1.
          1    1    1    2  502    0  0.39471427185E+02 -0.84905409737E+01 -0.39832065195E+03  0.40036161732E+03  0.00000000000E+00 0.  1.
         -1    1    1    2    0  501 -0.39471427185E+02  0.84905409737E+01 -0.15778930226E+03  0.16287279317E+03  0.00000000000E+00 0. -1.
</event>
<event>
 4    1  0.6769686E+001  0.2850092E+02  0.7546771E-02  0.1433087E+00
          2   -1    0    0  502    0  0.00000000000E+00  0.00000000000E+00  0.33294899759E+03  0.33294899759E+03  0.00000000000E+00 0. -1.
         -2   -1    0    0    0  501 -0.00000000000E+00 -0.00000000000E+00 -0.28143396988E+01  0.28143396988E+01  0.00000000000E+00 0.  1.
          1    1    1    2  502    0 -0.24244168732E+02  0.14984090092E+02  0.10381681695E+03  0.10765794980E+03  0.00000000000E+00 0.  1.
         -1    1    1    2    0  501  0.24244168732E+02 -0.14984090092E+02  0.22631784094E+03  0.22810538749E+03  0.00000000000E+00 0. -1.
</event>
<event>
 4    1  0.6769686E+001  0.2357422E+02  0.7546771E-02  0.1485411E+00
          2   -1    0    0  502    0  0.00000000000E+00  0.00000000000E+00  0.61688844173E+03  0.61688844173E+03  0.00000000000E+00 0.  1.
         -2   -1    0    0    0  501 -0.00000000000E+00 -0.00000000000E+00 -0.95227635350E+00  0.95227635350E+00  0.00000000000E+00 0. -1.
          1    1    1    2  502    0  0.99478925497E+01  0.21372490040E+02  0.23620165306E+03  0.23737515625E+03  0.00000000000E+00 0. -1.
         -1    1    1    2    0  501 -0.99478925497E+01 -0.21372490040E+02  0.37973451232E+03  0.38046556183E+03  0.00000000000E+00 0.  1.
</event>
<event>
 4    1  0.6769686E+001  0.2367521E+02  0.7546771E-02  0.1484189E+00
          2   -1    0    0  502    0  0.00000000000E+00  0.00000000000E+00  0.29328326469E+03  0.29328326469E+03  0.00000000000E+00 0.  1.
         -2   -1    0    0    0  501 -0.00000000000E+00 -0.00000000000E+00 -0.23757710308E+01  0.23757710308E+01  0.00000000000E+00 0. -1.
          1    1    1    2  502    0  0.47597264638E+01  0.23191819731E+02  0.21082651086E+03  0.21215167494E+03  0.00000000000E+00 0.  1.
         -1    1    1    2    0  501 -0.47597264638E+01 -0.23191819731E+02  0.80080982793E+02  0.83507360774E+02  0.00000000000E+00 0. -1.
</event>
<event>
 4    1  0.6769686E+001  0.2347648E+02  0.7546771E-02  0.1486600E+00
          2   -1    0    0  502    0  0.00000000000E+00  0.00000000000E+00  0.15354517977E+04  0.15354517977E+04  0.00000000000E+00 0. -1.
         -2   -1    0    0    0  501 -0.00000000000E+00 -0.00000000000E+00 -0.56375745900E+00  0.56375745900E+00  0.00000000000E+00 0.  1.
          1    1    1    2  502    0  0.22785804203E+02 -0.56526391130E+01  0.30453466548E+03  0.30543822236E+03  0.00000000000E+00 0.  1.
         -1    1    1    2    0  501 -0.22785804203E+02  0.56526391130E+01  0.12303533748E+04  0.12305773328E+04  0.00000000000E+00 0. -1.
</event>
<event>
 4    1  0.6769686E+001  0.2945273E+02  0.7546771E-02  0.1424413E+00
          2   -1    0    0  502    0  0.00000000000E+00  0.00000000000E+00  0.15254971438E+03  0.15254971438E+03  0.00000000000E+00 0. -1.
         -2   -1    0    0    0  501 -0.00000000000E+00 -0.00000000000E+00 -0.66682454573E+01  0.66682454573E+01  0.00000000000E+00 0.  1.
          1    1    1    2  502    0  0.26623017670E+02 -0.12596757771E+02  0.10348790941E+03  0.10759744778E+03  0.00000000000E+00 0. -1.
         -1    1    1    2    0  501 -0.26623017670E+02  0.12596757771E+02  0.42393559513E+02  0.51620512051E+02  0.00000000000E+00 0.  1.
</event>
<event>
 4    1  0.6769686E+001  0.2107797E+02  0.7546771E-02  0.1518154E+00
          2   -1    0    0  502    0  0.00000000000E+00  0.00000000000E+00  0.12571841311E+01  0.12571841311E+01  0.00000000000E+00 0. -1.
         -2   -1    0    0    0  501 -0.00000000000E+00 -0.00000000000E+00 -0.48653770445E+03  0.48653770445E+03  0.00000000000E+00 0.  1.
          1    1    1    2  502    0 -0.93548141962E+01 -0.18888311440E+02 -0.11505223131E+03  0.11696707566E+03  0.00000000000E+00 0. -1.
         -1    1    1    2    0  501  0.93548141962E+01  0.18888311440E+02 -0.37022828900E+03  0.37082781292E+03  0.00000000000E+00 0.  1.
</event>
<event>
 4    1  0.6769686E+001  0.2270590E+02  0.7546771E-02  0.1496225E+00
          2   -1    0    0  502    0  0.00000000000E+00  0.00000000000E+00  0.72910624837E+00  0.72910624837E+00  0.00000000000E+00 0.  1.
         -2   -1    0    0    0  501 -0.00000000000E+00 -0.00000000000E+00 -0.70896853883E+03  0.70896853883E+03  0.00000000000E+00 0. -1.
          1    1    1    2  502    0  0.21756357424E+02  0.64975886454E+01 -0.33594751803E+03  0.33671396262E+03  0.00000000000E+00 0.  1.
         -1    1    1    2    0  501 -0.21756357424E+02 -0.64975886454E+01 -0.37229191455E+03  0.37298368246E+03  0.00000000000E+00 0. -1.
</event>
<event>
 4    1  0.6769686E+001  0.4236203E+02  0.7546771E-02  0.1335174E+00
          2   -1    0    0  502    0  0.00000000000E+00  0.00000000000E+00  0.15317255354E+03  0.15317255354E+03  0.00000000000E+00 0.  1.
         -2   -1    0    0    0  501 -0.00000000000E+00 -0.00000000000E+00 -0.11753787264E+02  0.11753787264E+02  0.00000000000E+00 0. -1.
          1    1    1    2  502    0 -0.42250076466E+02  0.30778310553E+01  0.75396200568E+02  0.86481958034E+02  0.00000000000E+00 0.  1.
         -1    1    1    2    0  501  0.42250076466E+02 -0.30778310553E+01  0.66022565705E+02  0.78444382766E+02  0.00000000000E+00 0. -1.
</event>
<event>
 4    1  0.6769686E+001  0.2884489E+02  0.7546771E-02  0.1429907E+00
          2   -1    0    0  502    0  0.00000000000E+00  0.00000000000E+00  0.19527168766E+04  0.19527168766E+04  0.00000000000E+00 0. -1.
         -2   -1    0    0    0  501 -0.00000000000E+00 -0.00000000000E+00 -0.49401724092E+00  0.49401724092E+00  0.00000000000E+00 0.  1.
          1    1    1    2  502    0 -0.32114601756E+01  0.28665553055E+02  0.13382538915E+04  0.13385647185E+04  0.00000000000E+00 0. -1.
         -1    1    1    2    0  501  0.32114601756E+01 -0.28665553055E+02  0.61396896779E+03  0.61464617531E+03  0.00000000000E+00 0.  1.
</event>
<event>
 4    1  0.6769686E+001  0.9939711E+02  0.7546771E-02  0.1164857E+00
          2   -1    0    0  502    0  0.00000000000E+00  0.00000000000E+00  0.18544418973E+03  0.18544418973E+03  0.00000000000E+00 0. -1.
         -2   -1    0    0    0  501 -0.00000000000E+00 -0.00000000000E+00 -0.85796809155E+02  0.85796809155E+02  0.00000000000E+00 0.  1.
          1    1    1    2  502    0  0.83053894408E+02 -0.54606197253E+02  0.13332018200E+03  0.16629509038E+03  0.00000000000E+00 0. -1.
         -1    1    1    2    0  501 -0.83053894408E+02  0.54606197253E+02 -0.33672801433E+02  0.10494590850E+03  0.00000000000E+00 0.  1.
</event>
<event>
 4    1  0.6769686E+001  0.2487362E+02  0.7546771E-02  0.1470222E+00
          2   -1    0    0  502    0  0.00000000000E+00  0.00000000000E+00  0.16585340503E+03  0.16585340503E+03  0.00000000000E+00 0.  1.
         -2   -1    0    0    0  501 -0.00000000000E+00 -0.00000000000E+00 -0.44677649530E+01  0.44677649530E+01  0.00000000000E+00 0. -1.
          1    1    1    2  502    0  0.20716672437E+02 -0.13766497795E+02  0.46095753602E+02  0.52378578431E+02  0.00000000000E+00 0. -1.
         -1    1    1    2    0  501 -0.20716672437E+02  0.13766497795E+02  0.11528988648E+03  0.11794259155E+03  0.00000000000E+00 0.  1.
</event>
<event>
 4    1  0.6769686E+001  0.2955077E+02  0.7546771E-02  0.1423541E+00
          2   -1    0    0  502    0  0.00000000000E+00  0.00000000000E+00  0.40410206665E+02  0.40410206665E+02  0.00000000000E+00 0.  1.
         -2   -1    0    0    0  501 -0.00000000000E+00 -0.00000000000E+00 -0.24220893797E+02  0.24220893797E+02  0.00000000000E+00 0. -1.
          1    1    1    2  502    0  0.17657947776E+01  0.29497969502E+02 -0.25160593677E+01  0.29657693617E+02  0.00000000000E+00 0.  1.
         -1    1    1    2    0  501 -0.17657947776E+01 -0.29497969502E+02  0.18705372236E+02  0.34973406846E+02  0.00000000000E+00 0. -1.
</event>
<event>
 4    1  0.6769686E+001  0.5244725E+02  0.7546771E-02  0.1287897E+00
          2   -1    0    0  502    0  0.00000000000E+00  0.00000000000E+00  0.99956141966E+01  0.99956141966E+01  0.00000000000E+00 0. -1.
         -2   -1    0    0    0  501 -0.00000000000E+00 -0.00000000000E+00 -0.30631967545E+03  0.30631967545E+03  0.00000000000E+00 0.  1.
          1    1    1    2  502    0 -0.29073271524E+02  0.43651566973E+02 -0.97745246296E+02  0.11092721753E+03  0.00000000000E+00 0. -1.
         -1    1    1    2    0  501  0.29073271524E+02 -0.43651566973E+02 -0.19857881496E+03  0.20538807211E+03  0.00000000000E+00 0.  1.
</event>
<event>
 4    1  0.6769686E+001  0.2087214E+02  0.7546771E-02  0.1521098E+00
          2   -1    0    0  502    0  0.00000000000E+00  0.00000000000E+00  0.10138724197E+02  0.10138724197E+02  0.00000000000E+00 0.  1.
         -2   -1    0    0    0  501 -0.00000000000E+00 -0.00000000000E+00 -0.43099564194E+02  0.43099564194E+02  0.00000000000E+00 0. -1.
          1    1    1    2  502    0 -0.19564089174E+02 -0.72727418221E+01 -0.17948005945E+02  0.27527754653E+02  0.00000000000E+00 0.  1.
         -1    1    1    2    0  501  0.19564089174E+02  0.72727418221E+01 -0.15012834052E+02  0.25710533738E+02  0.00000000000E+00 0. -1.
</event>
<event>
 4    1  0.6769686E+001  0.2236643E+02  0.7546771E-02  0.1500611E+00
          2   -1    0    0  502    0  0.00000000000E+00  0.00000000000E+00  0.27700288879E+02  0.27700288879E+02  0.00000000000E+00 0. -1.
         -2   -1    0    0    0  501 -0.00000000000E+00 -0.00000000000E+00 -0.31542564910E+02  0.31542564910E+02  0.00000000000E+00 0.  1.
          1    1    1    2  502    0  0.45638422317E+01 -0.21895857912E+02 -0.21287566108E+02  0.30877462985E+02  0.00000000000E+00 0.  1.
         -1    1    1    2    0  501 -0.45638422317E+01  0.21895857912E+02  0.17445290077E+02  0.28365390804E+02  0.00000000000E+00 0. -1.
</event>
<event>
 4    1  0.6769686E+001  0.2477888E+02  0.7546771E-02  0.1471292E+00
          2   -1    0    0  502    0  0.00000000000E+00  0.00000000000E+00  0.74014737749E+03  0.74014737749E+03  0.00000000000E+00 0.  1.
         -2   -1    0    0    0  501 -0.00000000000E+00 -0.00000000000E+00 -0.85116853980E+00  0.85116853980E+00  0.00000000000E+00 0. -1.
          1    1    1    2  502    0  0.12054142060E+02 -0.21649263306E+02  0.42868761326E+03  0.42940314706E+03  0.00000000000E+00 0.  1.
         -1    1    1    2    0  501 -0.12054142060E+02  0.21649263306E+02  0.31060859569E+03  0.31159539896E+03  0.00000000000E+00 0. -1.
</event>
<event>
 4    1  0.6769686E+001  0.2499950E+02  0.7546771E-02  0.1468809E+00
          2   -1    0    0  502    0  0.00000000000E+00  0.00000000000E+00  0.29340460012E+03  0.29340460012E+03  0.00000000000E+00 0.  1.
         -2   -1    0    0    0  501 -0.00000000000E+00 -0.00000000000E+00 -0.65680816374E+01  0.65680816374E+01  0.00000000000E+00 0. -1.
          1    1    1    2  502    0 -0.24539868335E+02 -0.47717600554E+01  0.26670780179E+03  0.26787688658E+03  0.00000000000E+00 0.  1.
         -1    1    1    2    0  501  0.24539868335E+02  0.47717600554E+01  0.20128716692E+02  0.32095795170E+02  0.00000000000E+00 0. -1.
</event>
<event>
 4    1  0.6769686E+001  0.2075523E+02  0.7546771E-02  0.1522788E+00
          2   -1    0    0  502    0  0.00000000000E+00  0.00000000000E+00  0.72717264776E+02  0.72717264776E+02  0.00000000000E+00 0.  1.
         -2   -1    0    0    0  501 -0.00000000000E+00 -0.00000000000E+00 -0.59622790964E+01  0.59622790964E+01  0.00000000000E+00 0. -1.
          1    1    1    2  502    0  0.10947830506E+02  0.17633053697E+02  0.30226760616E+02  0.36666560144E+02  0.00000000000E+00 0. -1.
         -1    1    1    2    0  501 -0.10947830506E+02 -0.17633053697E+02  0.36528225064E+02  0.42012983728E+02  0.00000000000E+00 0.  1.
</event>
<event>
 4    1  0.6769686E+001  0.2630611E+02  0.7546771E-02  0.1454706E+00
          2   -1    0    0  502    0  0.00000000000E+00  0.00000000000E+00  0.14857800648E+04  0.14857800648E+04  0.00000000000E+00 0.  1.
         -2   -1    0    0    0  501 -0.00000000000E+00 -0.00000000000E+00 -0.53056981363E+00  0.53056981363E+00  0.00000000000E+00 0. -1.
          1    1    1    2  502    0 -0.24912452124E+02  0.84487423970E+01  0.10023659778E+04  0.10027111074E+04  0.00000000000E+00 0.  1.
         -1    1    1    2    0  501  0.24912452124E+02 -0.84487423970E+01  0.48288351723E+03  0.48359952722E+03  0.00000000000E+00 0. -1.
</event>
<event>
 4    1  0.6769686E+001  0.3284270E+02  0.7546771E-02  0.1396399E+00
          2   -1    0    0  502    0  0.00000000000E+00  0.00000000000E+00  0.20661942362E+03  0.20661942362E+03  0.00000000000E+00 0.  1.
         -2   -1    0    0    0  501 -0.00000000000E+00 -0.00000000000E+00 -0.87034059114E+01  0.87034059114E+01  0.00000000000E+00 0. -1.
          1    1    1    2  502    0 -0.32076243601E+02 -0.70538828787E+01  0.16706482353E+03  0.17026243839E+03  0.00000000000E+00 0.  1.
         -1    1    1    2    0  501  0.32076243601E+02  0.70538828787E+01  0.30851194183E+02  0.45060391140E+02  0.00000000000E+00 0. -1.
</event>
<event>
 4    1  0.6769686E+001  0.2099647E+02  0.7546771E-02  0.1519315E+00
          2   -1    0    0  502    0  0.00000000000E+00  0.00000000000E+00  0.15873981261E+04  0.15873981261E+04  0.00000000000E+00 0. -1.
         -2   -1    0    0    0  501 -0.00000000000E+00 -0.00000000000E+00 -0.29433503450E+00  0.29433503450E+00  0.00000000000E+00 0.  1.
          1    1    1    2  502    0  0.65408134817E+01  0.19951683588E+02  0.98216349902E+03  0.98238790237E+03  0.00000000000E+00 0. -1.
         -1    1    1    2    0  501 -0.65408134817E+01 -0.19951683588E+02  0.60494029206E+03  0.60530455877E+03  0.00000000000E+00 0.  1.
</event>
<event>
 4    1  0.6769686E+001  0.2042111E+02  0.7546771E-02  0.1527693E+00
          2   -1    0    0  502    0  0.00000000000E+00  0.00000000000E+00  0.41282867435E+03  0.41282867435E+03  0.00000000000E+00 0.  1.
         -2   -1    0    0    0  501 -0.00000000000E+00 -0.00000000000E+00 -0.10127783441E+01  0.10127783441E+01  0.00000000000E+00 0. -1.
          1    1    1    2  502    0  0.10651962042E+02 -0.17422897835E+02  0.21643558864E+03  0.21739683920E+03  0.00000000000E+00 0. -1.
         -1    1    1    2    0  501 -0.10651962042E+02  0.17422897835E+02  0.19538030736E+03  0.19644461349E+03  0.00000000000E+00 0.  1.
</event>
<event>
 4    1  0.6769686E+001  0.4770230E+02  0.7546771E-02  0.1308454E+00
          2   -1    0    0  502    0  0.00000000000E+00  0.00000000000E+00  0.11673529214E+04  0.11673529214E+04  0.00000000000E+00 0. -1.
         -2   -1    0    0    0  501 -0.00000000000E+00 -0.00000000000E+00 -0.33166808616E+01  0.33166808616E+01  0.00000000000E+00 0.  1.
          1    1    1    2  502    0 -0.51075391162E+01 -0.47428078821E+02  0.95785449249E+03  0.95904157282E+03  0.00000000000E+00 0. -1.
         -1    1    1    2    0  501  0.51075391162E+01  0.47428078821E+02  0.20618174805E+03  0.21162802944E+03  0.00000000000E+00 0.  1.
</event>
<event>
 4    1  0.6769686E+001  0.2850053E+02  0.7546771E-02  0.1433091E+00
          2   -1    0    0  502    0  0.00000000000E+00  0.00000000000E+00  0.13437775274E+03  0.13437775274E+03  0.00000000000E+00 0. -1.
         -2   -1    0    0    0  501 -0.00000000000E+00 -0.00000000000E+00 -0.60534669104E+01  0.60534669104E+01  0.00000000000E+00 0.  1.
          1    1    1    2  502    0  0.29821505402E+01 -0.28344078456E+02  0.61497756483E+02  0.67780926947E+02  0.00000000000E+00 0.  1.
         -1    1    1    2    0  501 -0.29821505402E+01  0.28344078456E+02  0.66826529346E+02  0.72650292703E+02  0.00000000000E+00 0. -1.
</event>
<event>
 4    1  0.6769686E+001  0.2347957E+02  0.7546771E-02  0.1486562E+00
          2   -1    0    0  502    0  0.00000000000E+00  0.00000000000E+00  0.14887847336E+04  0.14887847336E+04  0.00000000000E+00 0. -1.
         -2   -1    0    0    0  501 -0.00000000000E+00 -0.00000000000E+00 -0.55579460551E+00  0.55579460551E+00  0.00000000000E+00 0.  1.
          1    1    1    2  502    0 -0.78481384277E+01 -0.22129095372E+02  0.11743218683E+04  0.11745565718E+04  0.00000000000E+00 0. -1.
         -1    1    1    2    0  501  0.78481384277E+01  0.22129095372E+02  0.31390707074E+03  0.31478395638E+03  0.00000000000E+00 0.  1.
</event>
<event>
 4    1  0.6769686E+001  0.2184257E+02  0.7546771E-02  0.1507567E+00
          2   -1    0    0  502    0  0.00000000000E+00  0.00000000000E+00  0.11579239774E+01  0.11579239774E+01  0.00000000000E+00 0. -1.
         -2   -1    0    0    0  501 -0.00000000000E+00 -0.00000000000E+00 -0.48506656504E+03  0.48506656504E+03  0.00000000000E+00 0.  1.
          1    1    1    2  502    0 -0.64521028273E+01 -0.20867875689E+02 -0.33629094054E+03  0.33699954682E+03  0.00000000000E+00 0. -1.
         -1    1    1    2    0  501  0.64521028273E+01  0.20867875689E+02 -0.14761770052E+03  0.14922494220E+03  0.00000000000E+00 0.  1.
</event>
<event>
 4    1  0.6769686E+001  0.3121793E+02  0.7546771E-02  0.1409300E+00
          2   -1    0    0  502    0  0.00000000000E+00  0.00000000000E+00  0.23636359690E+04  0.23636359690E+04  0.00000000000E+00 0. -1.
         -2   -1    0    0    0  501 -0.00000000000E+00 -0.00000000000E+00 -0.77297206545E+00  0.77297206545E+00  0.00000000000E+00 0.  1.
          1    1    1    2  502    0  0.29236123816E+02  0.10945699143E+02  0.19889616750E+04  0.19892066519E+04  0.00000000000E+00 0. -1.
         -1    1    1    2    0  501 -0.29236123816E+02 -0.10945699143E+02  0.37390132196E+03  0.37520228921E+03  0.00000000000E+00 0.  1.
</event>
<event>
 4    1  0.6769686E+001  0.2865107E+02  0.7546771E-02  0.1431692E+00
          2   -1    0    0  502    0  0.00000000000E+00  0.00000000000E+00  0.11310858916E+03  0.11310858916E+03  0.00000000000E+00 0.  1.
         -2   -1    0    0    0  501 -0.00000000000E+00 -0.00000000000E+00 -0.15613473258E+02  0.15613473258E+02  0.00000000000E+00 0. -1.
          1    1    1    2  502    0  0.99360450995E+01 -0.26873010900E+02  0.16636844377E+01  0.28699330183E+02  0.00000000000E+00 0. -1.
         -1    1    1    2    0  501 -0.99360450995E+01  0.26873010900E+02  0.95831431469E+02  0.10002273224E+03  0.00000000000E+00 0.  1.
</event>
<event>
 4    1  0.6769686E+001  0.2984249E+02  0.7546771E-02  0.1420970E+00
          2   -1    0    0  502    0  0.00000000000E+00  0.00000000000E+00  0.71883321559E+03  0.71883321559E+03  0.00000000000E+00 0.  1.
         -2   -1    0    0    0  501 -0.00000000000E+00 -0.00000000000E+00 -0.12594773910E+01  0.12594773910E+01  0.00000000000E+00 0. -1.
          1    1    1    2  502    0 -0.24285709468E+02 -0.17342965510E+02  0.40478996323E+03  0.40588851729E+03  0.00000000000E+00 0.  1.
         -1    1    1    2    0  501  0.24285709468E+02  0.17342965510E+02  0.31278377497E+03  0.31420417569E+03  0.00000000000E+00 0. -1.
</event>
<event>
 4    1  0.6769686E+001  0.3642283E+02  0.7546771E-02  0.1370827E+00
          2   -1    0    0  502    0  0.00000000000E+00  0.00000000000E+00  0.23098621385E+04  0.23098621385E+04  0.00000000000E+00 0. -1.
         -2   -1    0    0    0  501 -0.00000000000E+00 -0.00000000000E+00 -0.57442886179E+00  0.57442886179E+00  0.00000000000E+00 0.  1.
          1    1    1    2  502    0  0.11487861696E+02  0.34563730537E+02  0.11394659290E+04  0.11400479051E+04  0.00000000000E+00 0. -1.
         -1    1    1    2    0  501 -0.11487861696E+02 -0.34563730537E+02  0.11698217806E+04  0.11703886623E+04  0.00000000000E+00 0.  1.
</event>
<event>
 4    1  0.6769686E+001  0.3171671E+02  0.7546771E-02  0.1405242E+00
          2   -1    0    0  502    0  0.00000000000E+00  0.00000000000E+00  0.45447813165E+02  0.45447813165E+02  0.00000000000E+00 0.  1.
         -2   -1    0    0    0  501 -0.00000000000E+00 -0.00000000000E+00 -0.33190496370E+02  0.33190496370E+02  0.00000000000E+00 0. -1.
          1    1    1    2  502    0 -0.31345992024E+02 -0.48351558244E+01  0.28822215995E+02  0.42856389053E+02  0.00000000000E+00 0.  1.
         -1    1    1    2    0  501  0.31345992024E+02  0.48351558244E+01 -0.16564899200E+02  0.35781920482E+02  0.00000000000E+00 0. -1.
</event>
<event>
 4    1  0.6769686E+001  0.2466396E+02  0.7546771E-02  0.1472598E+00
          2   -1    0    0  502    0  0.00000000000E+00  0.00000000000E+00  0.48654230296E+01  0.48654230296E+01  0.00000000000E+00 0. -1.
         -2   -1    0    0    0  501 -0.00000000000E+00 -0.00000000000E+00 -0.13431922054E+03  0.13431922054E+03  0.00000000000E+00 0.  1.
          1    1    1    2  502    0  0.24659659064E+02 -0.46047792768E+00 -0.83030831450E+02  0.86616567678E+02  0.00000000000E+00 0.  1.
         -1    1    1    2    0  501 -0.24659659064E+02  0.46047792768E+00 -0.46422966058E+02  0.52568075889E+02  0.00000000000E+00 0. -1.
</event>
<event>
 4    1  0.6769686E+001  0.2214025E+02  0.7546771E-02  0.1503586E+00
          2   -1    0    0  502    0  0.00000000000E+00  0.00000000000E+00  0.83618246658E+01  0.83618246658E+01  0.00000000000E+00 0. -1.
         -2   -1    0    0    0  501 -0.00000000000E+00 -0.00000000000E+00 -0.63727838505E+02  0.63727838505E+02  0.00000000000E+00 0.  1.
          1    1    1    2  502    0  0.22089746581E+02 -0.14945706542E+01 -0.17480830732E+02  0.28209397167E+02  0.00000000000E+00 0.  1.
         -1    1    1    2    0  501 -0.22089746581E+02  0.14945706542E+01 -0.37885183107E+02  0.43880266003E+02  0.00000000000E+00 0. -1.
</event>
<event>
 4    1  0.6769686E+001  0.2824938E+02  0.7546771E-02  0.1435446E+00
          2   -1    0    0  502    0  0.00000000000E+00  0.00000000000E+00  0.16327847157E+04  0.16327847157E+04  0.00000000000E+00 0. -1.
         -2   -1    0    0    0  501 -0.00000000000E+00 -0.00000000000E+00 -0.49468661863E+00  0.49468661863E+00  0.00000000000E+00 0.  1.
          1    1    1    2  502    0  0.21350302543E+02 -0.18498438861E+02  0.90558721227E+03  0.90602771850E+03  0.00000000000E+00 0. -1.
         -1    1    1    2    0  501 -0.21350302543E+02  0.18498438861E+02  0.72670281681E+03  0.72725168382E+03  0.00000000000E+00 0.  1.
</event>
<event>
 4    1  0.6769686E+001  0.3569308E+02  0.7546771E-02  0.1375755E+00
          2   -1    0    0  502    0  0.00000000000E+00  0.00000000000E+00  0.30864574887E+03  0.30864574887E+03  0.00000000000E+00 0.  1.
         -2   -1    0    0    0  501 -0.00000000000E+00 -0.00000000000E+00 -0.52015104009E+01  0.52015104009E+01  0.00000000000E+00 0. -1.
          1    1    1    2  502    0 -0.31190542170E+02  0.17353566541E+02  0.80422373831E+02  0.87987240013E+02  0.00000000000E+00 0. -1.
         -1    1    1    2    0  501  0.31190542170E+02 -0.17353566541E+02  0.22302186464E+03  0.22586001926E+03  0.00000000000E+00 0.  1.
</event>
<event>
 4    1  0.6769686E+001  0.2175879E+02  0.7546771E-02  0.1508701E+00
          2   -1    0    0  502    0  0.00000000000E+00  0.00000000000E+00  0.26605049675E+02  0.26605049675E+02  0.00000000000E+00 0. -1.
         -2   -1    0    0    0  501 -0.00000000000E+00 -0.00000000000E+00 -0.26690735745E+02  0.26690735745E+02  0.00000000000E+00 0.  1.
          1    1    1    2  502    0  0.21502448363E+02 -0.33301343366E+01  0.15341040799E+02  0.26623159337E+02  0.00000000000E+00 0. -1.
         -1    1    1    2    0  501 -0.21502448363E+02  0.33301343366E+01 -0.15426726868E+02  0.26672626083E+02  0.00000000000E+00 0.  1.
</event>
<event>
 4    1  0.6769686E+001  0.2137483E+02  0.7546771E-02  0.1513980E+00
          2   -1    0    0  502    0  0.00000000000E+00  0.00000000000E+00  0.86133816705E+02  0.86133816705E+02  0.00000000000E+00 0. -1.
         -2   -1    0    0    0  501 -0.00000000000E+00 -0.00000000000E+00 -0.67453768374E+01  0.67453768374E+01  0.00000000000E+00 0.  1.
          1    1    1    2  502    0 -0.30417106419E+01 -0.21157301889E+02  0.61158790918E+02  0.64786427077E+02  0.00000000000E+00 0. -1.
         -1    1    1    2    0  501  0.30417106419E+01  0.21157301889E+02  0.18229648950E+02  0.28092766466E+02  0.00000000000E+00 0.  1.
</event>
<event>
 4    1  0.6769686E+001  0.2686040E+02  0.7546771E-02  0.1449015E+00
          2   -1    0    0  502    0  0.00000000000E+00  0.00000000000E+00  0.11116986705E+03  0.11116986705E+03  0.00000000000E+00 0. -1.
         -2   -1    0    0    0  501 -0.00000000000E+00 -0.00000000000E+00 -0.85113410301E+01  0.85113410301E+01  0.00000000000E+00 0.  1.
          1    1    1    2  502    0  0.10803816569E+02  0.24591842347E+02  0.22166567503E+02  0.34825821991E+02  0.00000000000E+00 0.  1.
         -1    1    1    2    0  501 -0.10803816569E+02 -0.24591842347E+02  0.80491958521E+02  0.84855386093E+02  0.00000000000E+00 0. -1.
</event>
<event>
 4    1  0.6769686E+001  0.2859319E+02  0.7546771E-02  0.1432229E+00
          2   -1    0    0  502    0  0.00000000000E+00  0.00000000000E+00  0.98365564715E+03  0.98365564715E+03  0.00000000000E+00 0. -1.
         -2   -1    0    0    0  501 -0.00000000000E+00 -0.00000000000E+00 -0.83138106403E+00  0.83138106403E+00  0.00000000000E+00 0.  1.
          1    1    1    2  502    0  0.71429294720E+01 -0.27686622065E+02  0.48329829633E+03  0.48414338137E+03  0.00000000000E+00 0.  1.
         -1    1    1    2    0  501 -0.71429294720E+01  0.27686622065E+02  0.49952596975E+03  0.50034364685E+03  0.00000000000E+00 0. -1.
</event>
<event>
 4    1  0.6769686E+001  0.2963960E+02  0.7546771E-02  0.1422755E+00
          2   -1    0    0  502    0  0.00000000000E+00  0.00000000000E+00  0.12126956094E+02  0.12126956094E+02  0.00000000000E+00 0.  1.
         -2   -1    0    0    0  501 -0.00000000000E+00 -0.00000000000E+00 -0.12587155240E+03  0.12587155240E+03  0.00000000000E+00 0. -1.
          1    1    1    2  502    0 -0.11949650923E+02  0.27124002514E+02 -0.11918148192E+02  0.31946015806E+02  0.00000000000E+00 0.  1.
         -1    1    1    2    0  501  0.11949650923E+02 -0.27124002514E+02 -0.10182644811E+03  0.10605249269E+03  0.00000000000E+00 0. -1.
</event>
<event>
 4    1  0.6769686E+001  0.3609258E+02  0.7546771E-02  0.1373041E+00
          2   -1    0    0  502    0  0.00000000000E+00  0.00000000000E+00  0.38580719449E+02  0.38580719449E+02  0.00000000000E+00 0. -1.
         -2   -1    0    0    0  501 -0.00000000000E+00 -0.00000000000E+00 -0.33845024603E+02  0.33845024603E+02  0.00000000000E+00 0.  1.
          1    1    1    2  502    0 -0.33769945724E+02  0.12738333344E+02  0.41297499893E+01  0.36328077372E+02  0.00000000000E+00 0.  1.
         -1    1    1    2    0  501  0.33769945724E+02 -0.12738333344E+02  0.60594485617E+00  0.36097666680E+02  0.00000000000E+00 0. -1.
</event>
<event>
 4    1  0.6769686E+001  0.2162484E+02  0.7546771E-02  0.1510528E+00
          2   -1    0    0  502    0  0.00000000000E+00  0.00000000000E+00  0.96439403865E+03  0.96439403865E+03  0.00000000000E+00 0.  1.
         -2   -1    0    0    0  501 -0.00000000000E+00 -0.00000000000E+00 -0.60187273196E+00  0.60187273196E+00  0.00000000000E+00 0. -1.
          1    1    1    2  502    0 -0.10193317269E+02  0.19071702429E+02  0.69460593912E+03  0.69494247547E+03  0.00000000000E+00 0. -1.
         -1    1    1    2    0  501  0.10193317269E+02 -0.19071702429E+02  0.26918622680E+03  0.27005343591E+03  0.00000000000E+00 0.  1.
</event>
<event>
 4    1  0.6769686E+001  0.4174713E+02  0.7546771E-02  0.1338541E+00
          2   -1    0    0  502    0  0.00000000000E+00  0.00000000000E+00  0.21727494772E+03  0.21727494772E+03  0.00000000000E+00 0.  1.
         -2   -1    0    0    0  501 -0.00000000000E+00 -0.00000000000E+00 -0.89842085023E+01  0.89842085023E+01  0.00000000000E+00 0. -1.
          1    1    1    2  502    0 -0.26837629664E+02  0.31977558237E+02  0.14118220708E+03  0.14722512759E+03  0.00000000000E+00 0.  1.
         -1    1    1    2    0  501  0.26837629664E+02 -0.31977558237E+02  0.67108532138E+02  0.79034028637E+02  0.00000000000E+00 0. -1.
</event>
<event>
 4    1  0.6769686E+001  0.2217228E+02  0.7546771E-02  0.1503162E+00
          2   -1    0    0  502    0  0.00000000000E+00  0.00000000000E+00  0.10837380375E+02  0.10837380375E+02  0.00000000000E+00 0. -1.
         -2   -1    0    0    0  501 -0.00000000000E+00 -0.00000000000E+00 -0.61647646272E+02  0.61647646272E+02  0.00000000000E+00 0.  1.
          1    1    1    2  502    0  0.22021691727E+02  0.25797145073E+01 -0.44032733447E+02  0.49300014688E+02  0.00000000000E+00 0.  1.
         -1    1    1    2    0  501 -0.22021691727E+02 -0.25797145073E+01 -0.67775324498E+01  0.23185011959E+02  0.00000000000E+00 0. -1.
</event>
<event>
 4    1  0.6769686E+001  0.2318569E+02  0.7546771E-02  0.1490180E+00
          2   -1    0    0  502    0  0.00000000000E+00  0.00000000000E+00  0.47823766493E+02  0.47823766493E+02  0.00000000000E+00 0.  1.
         -2   -1    0    0    0  501 -0.00000000000E+00 -0.00000000000E+00 -0.17820190457E+02  0.17820190457E+02  0.00000000000E+00 0. -1.
          1    1    1    2  502    0  0.11320157688E+02  0.20234381537E+02 -0.49417526674E+01  0.23706477716E+02  0.00000000000E+00 0. -1.
         -1    1    1    2    0  501 -0.11320157688E+02 -0.20234381537E+02  0.34945328703E+02  0.41937479234E+02  0.00000000000E+00 0.  1.
</event>
<event>
 4    1  0.6769686E+001  0.2577022E+02  0.7546771E-02  0.1460369E+00
          2   -1    0    0  502    0  0.00000000000E+00  0.00000000000E+00  0.57162668569E+02  0.57162668569E+02  0.00000000000E+00 0. -1.
         -2   -1    0    0    0  501 -0.00000000000E+00 -0.00000000000E+00 -0.12064635867E+02  0.12064635867E+02  0.00000000000E+00 0.  1.
          1    1    1    2  502    0 -0.25422196694E+02 -0.42208993797E+01  0.15887585653E+02  0.30274072310E+02  0.00000000000E+00 0. -1.
         -1    1    1    2    0  501  0.25422196694E+02  0.42208993797E+01  0.29210447049E+02  0.38953232127E+02  0.00000000000E+00 0.  1.
</event>
<event>
 4    1  0.6769686E+001  0.2264470E+02  0.7546771E-02  0.1497008E+00
          2   -1    0    0  502    0  0.00000000000E+00  0.00000000000E+00  0.80890989482E+03  0.80890989482E+03  0.00000000000E+00 0.  1.
         -2   -1    0    0    0  501 -0.00000000000E+00 -0.00000000000E+00 -0.64058091565E+00  0.64058091565E+00  0.00000000000E+00 0. -1.
          1    1    1    2  502    0 -0.21184448902E+02  0.80001027589E+01  0.44541659084E+03  0.44599184064E+03  0.00000000000E+00 0.  1.
         -1    1    1    2    0  501  0.21184448902E+02 -0.80001027589E+01  0.36285272306E+03  0.36355863510E+03  0.00000000000E+00 0. -1.
</event>
<event>
 4    1  0.6769686E+001  0.2797343E+02  0.7546771E-02  0.1438067E+00
          2   -1    0    0  502    0  0.00000000000E+00  0.00000000000E+00  0.34689458807E+03  0.34689458807E+03  0.00000000000E+00 0. -1.
         -2   -1    0    0    0  501 -0.00000000000E+00 -0.00000000000E+00 -0.25780984235E+01  0.25780984235E+01  0.00000000000E+00 0.  1.
          1    1    1    2  502    0 -0.27321595246E+02  0.60036196567E+01  0.11037289698E+03  0.11386259001E+03  0.00000000000E+00 0.  1.
         -1    1    1    2    0  501  0.27321595246E+02 -0.60036196567E+01  0.23394359267E+03  0.23561009649E+03  0.00000000000E+00 0. -1.
</event>
<event>
 4    1  0.6769686E+001  0.2385800E+02  0.7546771E-02  0.1481996E+00
          2   -1    0    0  502    0  0.00000000000E+00  0.00000000000E+00  0.10015687534E+02  0.10015687534E+02  0.00000000000E+00 0. -1.
         -2   -1    0    0    0  501 -0.00000000000E+00 -0.00000000000E+00 -0.60586657049E+02  0.60586657049E+02  0.00000000000E+00 0.  1.
          1    1    1    2  502    0 -0.19703181937E+02 -0.13453215035E+02 -0.34074237164E+02  0.41596370172E+02  0.00000000000E+00 0.  1.
         -1    1    1    2    0  501  0.19703181937E+02  0.13453215035E+02 -0.16496732352E+02  0.29005974411E+02  0.00000000000E+00 0. -1.
</event>
<event>
 4    1  0.6769686E+001  0.3729286E+02  0.7546771E-02  0.1365124E+00
          2   -1    0    0  502    0  0.00000000000E+00  0.00000000000E+00  0.12921096439E+02  0.12921096439E+02  0.00000000000E+00 0. -1.
         -2   -1    0    0    0  501 -0.00000000000E+00 -0.00000000000E+00 -0.55237671110E+03  0.55237671110E+03  0.00000000000E+00 0.  1.
          1    1    1    2  502    0  0.21447244391E+02  0.30508577283E+02 -0.16107670824E+02  0.40622833963E+02  0.00000000000E+00 0. -1.
         -1    1    1    2    0  501 -0.21447244391E+02 -0.30508577283E+02 -0.52334794384E+03  0.52467497358E+03  0.00000000000E+00 0.  1.
</event>
<event>
 4    1  0.6769686E+001  0.3014842E+02  0.7546771E-02  0.1418311E+00
          2   -1    0    0  502    0  0.00000000000E+00  0.00000000000E+00  0.97920375254E+03  0.97920375254E+03  0.00000000000E+00 0. -1.
         -2   -1    0    0    0  501 -0.00000000000E+00 -0.00000000000E+00 -0.94830046730E+00  0.94830046730E+00  0.00000000000E+00 0.  1.
          1    1    1    2  502    0  0.27933967005E+02 -0.11341098081E+02  0.41783236506E+03  0.41891862253E+03  0.00000000000E+00 0.  1.
         -1    1    1    2    0  501 -0.27933967005E+02  0.11341098081E+02  0.56042308701E+03  0.56123343047E+03  0.00000000000E+00 0. -1.
</event>
<event>
 4    1  0.6769686E+001  0.3495600E+02  0.7546771E-02  0.1380873E+00
          2   -1    0    0  502    0  0.00000000000E+00  0.00000000000E+00  0.35747981707E+03  0.35747981707E+03  0.00000000000E+00 0.  1.
         -2   -1    0    0    0  501 -0.00000000000E+00 -0.00000000000E+00 -0.65504303104E+01  0.65504303104E+01  0.00000000000E+00 0. -1.
          1    1    1    2  502    0 -0.30120235809E+02 -0.17739602306E+02  0.49600443073E+02  0.60680524456E+02  0.00000000000E+00 0. -1.
         -1    1    1    2    0  501  0.30120235809E+02  0.17739602306E+02  0.30132894369E+03  0.30334972293E+03  0.00000000000E+00 0.  1.
</event>
<event>
 4    1  0.6769686E+001  0.3401835E+02  0.7546771E-02  0.1387599E+00
          2   -1    0    0  502    0  0.00000000000E+00  0.00000000000E+00  0.10407761363E+04  0.10407761363E+04  0.00000000000E+00 0. -1.
         -2   -1    0    0    0  501 -0.00000000000E+00 -0.00000000000E+00 -0.13071987186E+01  0.13071987186E+01  0.00000000000E+00 0.  1.
          1    1    1    2  502    0 -0.35712962290E+01 -0.33830368368E+02  0.72112624668E+03  0.72192819008E+03  0.00000000000E+00 0. -1.
         -1    1    1    2    0  501  0.35712962290E+01  0.33830368368E+02  0.31834269090E+03  0.32015514494E+03  0.00000000000E+00 0.  1.
</event>
<event>
 4    1  0.6769686E+001  0.2006057E+02  0.7546771E-02  0.1533112E+00
          2   -1    0    0  502    0  0.00000000000E+00  0.00000000000E+00  0.51204291201E+02  0.51204291201E+02  0.00000000000E+00 0.  1.
         -2   -1    0    0    0  501 -0.00000000000E+00 -0.00000000000E+00 -0.19095441317E+02  0.19095441317E+02  0.00000000000E+00 0. -1.
          1    1    1    2  502    0 -0.89782635519E+01  0.17939269819E+02  0.43017452567E+02  0.47465017049E+02  0.00000000000E+00 0.  1.
         -1    1    1    2    0  501  0.89782635519E+01 -0.17939269819E+02 -0.10908602683E+02  0.22834715469E+02  0.00000000000E+00 0. -1.
</event>
<event>
 4    1  0.6769686E+001  0.8470081E+02  0.7546771E-02  0.1193336E+00
          2   -1    0    0  502    0  0.00000000000E+00  0.00000000000E+00  0.19138887038E+04  0.19138887038E+04  0.00000000000E+00 0. -1.
         -2   -1    0    0    0  501 -0.00000000000E+00 -0.00000000000E+00 -0.37538282052E+01  0.37538282052E+01  0.00000000000E+00 0.  1.
          1    1    1    2  502    0 -0.73160980741E+02 -0.42681357918E+02  0.91897150530E+03  0.92286665070E+03  0.00000000000E+00 0.  1.
         -1    1    1    2    0  501  0.73160980741E+02  0.42681357918E+02  0.99116337026E+03  0.99477588127E+03  0.00000000000E+00 0. -1.
</event>
<event>
 4    1  0.6769686E+001  0.2160029E+02  0.7546771E-02  0.1510864E+00
          2   -1    0    0  502    0  0.00000000000E+00  0.00000000000E+00  0.17522553124E+03  0.17522553124E+03  0.00000000000E+00 0.  1.
         -2   -1    0    0    0  501 -0.00000000000E+00 -0.00000000000E+00 -0.31849755874E+01  0.31849755874E+01  0.00000000000E+00 0. -1.
          1    1    1    2  502    0 -0.13095994043E+02  0.17177532019E+02  0.12214363329E+03  0.12403886415E+03  0.00000000000E+00 0.  1.
         -1    1    1    2    0  501  0.13095994043E+02 -0.17177532019E+02  0.49896922365E+02  0.54371642680E+02  0.00000000000E+00 0. -1.
</event>
<event>
 4    1  0.6769686E+001  0.7561446E+02  0.7546771E-02  0.1214412E+00
          2   -1    0    0  502    0  0.00000000000E+00  0.00000000000E+00  0.91317252911E+02  0.91317252911E+02  0.00000000000E+00 0. -1.
         -2   -1    0    0    0  501 -0.00000000000E+00 -0.00000000000E+00 -0.74112347842E+02  0.74112347842E+02  0.00000000000E+00 0.  1.
          1    1    1    2  502    0 -0.44527718576E+02  0.61113251072E+02  0.41185763941E+02  0.86103509392E+02  0.00000000000E+00 0. -1.
         -1    1    1    2    0  501  0.44527718576E+02 -0.61113251072E+02 -0.23980858872E+02  0.79326091360E+02  0.00000000000E+00 0.  1.
</event>
<event>
 4    1  0.6769686E+001  0.2154578E+02  0.7546771E-02  0.1511613E+00
          2   -1    0    0  502    0  0.00000000000E+00  0.00000000000E+00  0.72672210374E+01  0.72672210374E+01  0.00000000000E+00 0. -1.
         -2   -1    0    0    0  501 -0.00000000000E+00 -0.00000000000E+00 -0.76607582288E+02  0.76607582288E+02  0.00000000000E+00 0.  1.
          1    1    1    2  502    0  0.20671657304E+02 -0.60747912079E+01 -0.17575496593E+02  0.27805010059E+02  0.00000000000E+00 0. -1.
         -1    1    1    2    0  501 -0.20671657304E+02  0.60747912079E+01 -0.51764864658E+02  0.56069793267E+02  0.00000000000E+00 0.  1.
</event>
<event>
 4    1  0.6769686E+001  0.2015974E+02  0.7546771E-02  0.1531608E+00
          2   -1    0    0  502    0  0.00000000000E+00  0.00000000000E+00  0.23398956378E+04  0.23398956378E+04  0.00000000000E+00 0. -1.
         -2   -1    0    0    0  501 -0.00000000000E+00 -0.00000000000E+00 -0.17447447409E+00  0.17447447409E+00  0.00000000000E+00 0.  1.
          1    1    1    2  502    0  0.20057977332E+02 -0.20230581900E+01  0.10913784934E+04  0.10915646711E+04  0.00000000000E+00 0.  1.
         -1    1    1    2    0  501 -0.20057977332E+02  0.20230581900E+01  0.12483426700E+04  0.12485054413E+04  0.00000000000E+00 0. -1.
</event>
<event>
 4    1  0.6769686E+001  0.3404825E+02  0.7546771E-02  0.1387381E+00
          2   -1    0    0  502    0  0.00000000000E+00  0.00000000000E+00  0.38864696877E+02  0.38864696877E+02  0.00000000000E+00 0.  1.
         -2   -1    0    0    0  501 -0.00000000000E+00 -0.00000000000E+00 -0.40140020542E+02  0.40140020542E+02  0.00000000000E+00 0. -1.
          1    1    1    2  502    0 -0.18248992229E+02 -0.28744697689E+02  0.19383597382E+02  0.39179168063E+02  0.00000000000E+00 0.  1.
         -1    1    1    2    0  501  0.18248992229E+02  0.28744697689E+02 -0.20658921047E+02  0.39825549356E+02  0.00000000000E+00 0. -1.
</event>
<event>
 4    1  0.6769686E+001  0.2676403E+02  0.7546771E-02  0.1449993E+00
          2   -1    0    0  502    0  0.00000000000E+00  0.00000000000E+00  0.20979859824E+03  0.20979859824E+03  0.00000000000E+00 0.  1.
         -2   -1    0    0    0  501 -0.00000000000E+00 -0.00000000000E+00 -0.42887491578E+01  0.42887491578E+01  0.00000000000E+00 0. -1.
          1    1    1    2  502    0 -0.91937873690E+01 -0.25135390167E+02  0.15109029838E+03  0.15344247075E+03  0.00000000000E+00 0.  1.
         -1    1    1    2    0  501  0.91937873690E+01  0.25135390167E+02  0.54419550697E+02  0.60644876644E+02  0.00000000000E+00 0. -1.
</event>
<event>
 4    1  0.6769686E+001  0.2182490E+02  0.7546771E-02  0.1507806E+00
          2   -1    0    0  502    0  0.00000000000E+00  0.00000000000E+00  0.45694097550E+01  0.45694097550E+01  0.00000000000E+00 0. -1.
         -2   -1    0    0    0  501 -0.00000000000E+00 -0.00000000000E+00 -0.10867581330E+03  0.10867581330E+03  0.00000000000E+00 0.  1.
          1    1    1    2  502    0 -0.21622181571E+02 -0.29677258569E+01 -0.40616686843E+02  0.46109016285E+02  0.00000000000E+00 0.  1.
         -1    1    1    2    0  501  0.21622181571E+02  0.29677258569E+01 -0.63489716706E+02  0.67136206774E+02  0.00000000000E+00 0. -1.
</event>
<event>
 4    1  0.6769686E+001  0.2155138E+02  0.7546771E-02  0.1511536E+00
          2   -1    0    0  502    0  0.00000000000E+00  0.00000000000E+00  0.63236583078E+03  0.63236583078E+03  0.00000000000E+00 0.  1.
         -2   -1    0    0    0  501 -0.00000000000E+00 -0.00000000000E+00 -0.74948090835E+00  0.74948090835E+00  0.00000000000E+00 0. -1.
          1    1    1    2  502    0  0.19196797415E+02  0.97951531525E+01  0.27102802894E+03  0.27188353118E+03  0.00000000000E+00 0.  1.
         -1    1    1    2    0  501 -0.19196797415E+02 -0.97951531525E+01  0.36058832094E+03  0.36123178051E+03  0.00000000000E+00 0. -1.
</event>
<event>
 4    1  0.6769686E+001  0.2055451E+02  0.7546771E-02  0.1525721E+00
          2   -1    0    0  502    0  0.00000000000E+00  0.00000000000E+00  0.47390559583E+03  0.47390559583E+03  0.00000000000E+00 0. -1.
         -2   -1    0    0    0  501 -0.00000000000E+00 -0.00000000000E+00 -0.89979731425E+00  0.89979731425E+00  0.00000000000E+00 0.  1.
          1    1    1    2  502    0  0.15330205157E+02 -0.13692071092E+02  0.25929675928E+03  0.26011016392E+03  0.00000000000E+00 0.  1.
         -1    1    1    2    0  501 -0.15330205157E+02  0.13692071092E+02  0.21370903923E+03  0.21469522922E+03  0.00000000000E+00 0. -1.
</event>
<event>
 4    1  0.6769686E+001  0.2654873E+02  0.7546771E-02  0.1452195E+00
          2   -1    0    0  502    0  0.00000000000E+00  0.00000000000E+00  0.71909547259E+03  0.71909547259E+03  0.00000000000E+00 0.  1.
         -2   -1    0    0    0  501 -0.00000000000E+00 -0.00000000000E+00 -0.10411880152E+01  0.10411880152E+01  0.00000000000E+00 0. -1.
          1    1    1    2  502    0  0.26544128891E+02 -0.49442873428E+00  0.44619416425E+03  0.44698329661E+03  0.00000000000E+00 0.  1.
         -1    1    1    2    0  501 -0.26544128891E+02  0.49442873428E+00  0.27186012032E+03  0.27315336399E+03  0.00000000000E+00 0. -1.
</event>
<event>
 4    1  0.6769686E+001  0.2178253E+02  0.7546771E-02  0.1508379E+00
          2   -1    0    0  502    0  0.00000000000E+00  0.00000000000E+00  0.59924558376E+03  0.59924558376E+03  0.00000000000E+00 0. -1.
         -2   -1    0    0    0  501 -0.00000000000E+00 -0.00000000000E+00 -0.10822466892E+01  0.10822466892E+01  0.00000000000E+00 0.  1.
          1    1    1    2  502    0  0.16710674277E+02  0.13972539935E+02  0.45458286556E+03  0.45510444973E+03  0.00000000000E+00 0. -1.
         -1    1    1    2    0  501 -0.16710674277E+02 -0.13972539935E+02  0.14358047151E+03  0.14522338072E+03  0.00000000000E+00 0.  1.
</event>
<event>
 4    1  0.6769686E+001  0.4266224E+02  0.7546771E-02  0.1333554E+00
          2   -1    0    0  502    0  0.00000000000E+00  0.00000000000E+00  0.38109892406E+03  0.38109892406E+03  0.00000000000E+00 0. -1.
         -2   -1    0    0    0  501 -0.00000000000E+00 -0.00000000000E+00 -0.49736425138E+01  0.49736425138E+01  0.00000000000E+00 0.  1.
          1    1    1    2  502    0  0.18405758248E+02  0.38487588078E+02  0.14956618279E+03  0.15553169904E+03  0.00000000000E+00 0.  1.
         -1    1    1    2    0  501 -0.18405758248E+02 -0.38487588078E+02  0.22655909876E+03  0.23054086754E+03  0.00000000000E+00 0. -1.
</event>
<event>
 4    1  0.6769686E+001  0.2518584E+02  0.7546771E-02  0.1466735E+00
          2   -1    0    0  502    0  0.00000000000E+00  0.00000000000E+00  0.27550325566E+03  0.27550325566E+03  0.00000000000E+00 0. -1.
         -2   -1    0    0    0  501 -0.00000000000E+00 -0.00000000000E+00 -0.26458623686E+01  0.26458623686E+01  0.00000000000E+00 0.  1.
          1    1    1    2  502    0  0.16705042440E+02 -0.18848560127E+02  0.18653419269E+03  0.18822680920E+03  0.00000000000E+00 0. -1.
         -1    1    1    2    0  501 -0.16705042440E+02  0.18848560127E+02  0.86323200610E+02  0.89922308830E+02  0.00000000000E+00 0.  1.
</event>
<event>
 4    1  0.6769686E+001  0.3829728E+02  0.7546771E-02  0.1358763E+00
          2   -1    0    0  502    0  0.00000000000E+00  0.00000000000E+00  0.59359978784E+03  0.59359978784E+03  0.00000000000E+00 0.  1.
         -2   -1    0    0    0  501 -0.00000000000E+00 -0.00000000000E+00 -0.43621390352E+01  0.43621390352E+01  0.00000000000E+00 0. -1.
          1    1    1    2  502    0  0.34709241242E+02  0.16184870018E+02  0.97750629332E+02  0.10498507980E+03  0.00000000000E+00 0. -1.
         -1    1    1    2    0  501 -0.34709241242E+02 -0.16184870018E+02  0.49148701948E+03  0.49297684708E+03  0.00000000000E+00 0.  1.
</event>
<event>
 4    1  0.6769686E+001  0.2735749E+02  0.7546771E-02  0.1444050E+00
          2   -1    0    0  502    0  0.00000000000E+00  0.00000000000E+00  0.28771880428E+01  0.28771880428E+01  0.00000000000E+00 0.  1.
         -2   -1    0    0    0  501 -0.00000000000E+00 -0.00000000000E+00 -0.27439011970E+03  0.27439011970E+03  0.00000000000E+00 0. -1.
          1    1    1    2  502    0  0.26789149847E+02  0.55473879013E+01 -0.10414799334E+03  0.10768118025E+03  0.00000000000E+00 0.  1.
         -1    1    1    2    0  501 -0.26789149847E+02 -0.55473879013E+01 -0.16736493832E+03  0.16958612750E+03  0.00000000000E+00 0. -1.
</event>
<event>
 4    1  0.6769686E+001  0.2448617E+02  0.7546771E-02  0.1474634E+00
          2   -1    0    0  502    0  0.00000000000E+00  0.00000000000E+00  0.13115861612E+01  0.13115861612E+01  0.00000000000E+00 0. -1.
         -2   -1    0    0    0  501 -0.00000000000E+00 -0.00000000000E+00 -0.45960907001E+03  0.45960907001E+03  0.00000000000E+00 0.  1.
          1    1    1    2  502    0 -0.19883738105E+01  0.24405303060E+02 -0.24605602683E+03  0.24727139096E+03  0.00000000000E+00 0.  1.
         -1    1    1    2    0  501  0.19883738105E+01 -0.24405303060E+02 -0.21224145702E+03  0.21364926521E+03  0.00000000000E+00 0. -1.
</event>
<event>
 4    1  0.6769686E+001  0.2339803E+02  0.7546771E-02  0.1487560E+00
          2   -1    0    0  502    0  0.00000000000E+00  0.00000000000E+00  0.39441615796E+03  0.39441615796E+03  0.00000000000E+00 0. -1.
         -2   -1    0    0    0  501 -0.00000000000E+00 -0.00000000000E+00 -0.15071919680E+01  0.15071919680E+01  0.00000000000E+00 0.  1.
          1    1    1    2  502    0  0.16645095686E+02 -0.16444108186E+02  0.25211354588E+03  0.25319697454E+03  0.00000000000E+00 0.  1.
         -1    1    1    2    0  501 -0.16645095686E+02  0.16444108186E+02  0.14079542012E+03  0.14272637539E+03  0.00000000000E+00 0. -1.
</event>
<event>
 4    1  0.6769686E+001  0.2010295E+02  0.7546771E-02  0.1532468E+00
          2   -1    0    0  502    0  0.00000000000E+00  0.00000000000E+00  0.17910176209E+04  0.17910176209E+04  0.00000000000E+00 0. -1.
         -2   -1    0    0    0  501 -0.00000000000E+00 -0.00000000000E+00 -0.36599743106E+00  0.36599743106E+00  0.00000000000E+00 0.  1.
          1    1    1    2  502    0 -0.19915100668E+02  0.27417860916E+01  0.34065623687E+03  0.34124888329E+03  0.00000000000E+00 0.  1.
         -1    1    1    2    0  501  0.19915100668E+02 -0.27417860916E+01  0.14499953866E+04  0.14501347351E+04  0.00000000000E+00 0. -1.
</event>
<event>
 4    1  0.6769686E+001  0.2830603E+02  0.7546771E-02  0.1434912E+00
          2   -1    0    0  502    0  0.00000000000E+00  0.00000000000E+00  0.60163983225E+01  0.60163983225E+01  0.00000000000E+00 0.  1.
         -2   -1    0    0    0  501 -0.00000000000E+00 -0.00000000000E+00 -0.13317763453E+03  0.13317763453E+03  0.00000000000E+00 0. -1.
          1    1    1    2  502    0 -0.18765915428E+02 -0.21191318704E+02 -0.63911647308E+02  0.69899429410E+02  0.00000000000E+00 0.  1.
         -1    1    1    2    0  501  0.18765915428E+02  0.21191318704E+02 -0.63249588900E+02  0.69294603443E+02  0.00000000000E+00 0. -1.
</event>
<event>
 4    1  0.6769686E+001  0.5728955E+02  0.7546771E-02  0.1269331E+00
          2   -1    0    0  502    0  0.00000000000E+00  0.00000000000E+00  0.29559088538E+03  0.29559088538E+03  0.00000000000E+00 0.  1.
         -2   -1    0    0    0  501 -0.00000000000E+00 -0.00000000000E+00 -0.11643686772E+02  0.11643686772E+02  0.00000000000E+00 0. -1.
          1    1    1    2  502    0  0.35787849245E+01  0.57177660505E+02  0.17506140275E+03  0.18419714247E+03  0.00000000000E+00 0.  1.
         -1    1    1    2    0  501 -0.35787849245E+01 -0.57177660505E+02  0.10888579586E+03  0.12303742968E+03  0.00000000000E+00 0. -1.
</event>
<event>
 4    1  0.6769686E+001  0.3846465E+02  0.7546771E-02  0.1357726E+00
          2   -1    0    0  502    0  0.00000000000E+00  0.00000000000E+00  0.70293046000E+03  0.70293046000E+03  0.00000000000E+00 0.  1.
         -2   -1    0    0    0  501 -0.00000000000E+00 -0.00000000000E+00 -0.23189479871E+01  0.23189479871E+01  0.00000000000E+00 0. -1.
          1    1    1    2  502    0  0.19082129243E+02 -0.33397627290E+02  0.24314825059E+03  0.24617189306E+03  0.00000000000E+00 0. -1.
         -1    1    1    2    0  501 -0.19082129243E+02  0.33397627290E+02  0.45746326142E+03  0.45907751493E+03  0.00000000000E+00 0.  1.
</event>
<event>
 4    1  0.6769686E+001  0.2911348E+02  0.7546771E-02  0.1427460E+00
          2   -1    0    0  502    0  0.00000000000E+00  0.00000000000E+00  0.14656438999E+03  0.14656438999E+03  0.00000000000E+00 0.  1.
         -2   -1    0    0    0  501 -0.00000000000E+00 -0.00000000000E+00 -0.15308139211E+02  0.15308139211E+02  0.00000000000E+00 0. -1.
          1    1    1    2  502    0  0.28160005231E+02 -0.73897678824E+01  0.12947147229E+03  0.13270439594E+03  0.00000000000E+00 0.  1.
         -1    1    1    2    0  501 -0.28160005231E+02  0.73897678824E+01  0.17847784906E+01  0.29168133266E+02  0.00000000000E+00 0. -1.
</event>
<event>
 4    1  0.6769686E+001  0.2819104E+02  0.7546771E-02  0.1435997E+00
          2   -1    0    0  502    0  0.00000000000E+00  0.00000000000E+00  0.25349609442E+03  0.25349609442E+03  0.00000000000E+00 0. -1.
         -2   -1    0    0    0  501 -0.00000000000E+00 -0.00000000000E+00 -0.38090882702E+01  0.38090882702E+01  0.00000000000E+00 0.  1.
          1    1    1    2  502    0  0.30747667112E+01  0.28022854452E+02  0.70726278517E+02  0.76137645320E+02  0.00000000000E+00 0. -1.
         -1    1    1    2    0  501 -0.30747667112E+01 -0.28022854452E+02  0.17896072763E+03  0.18116753737E+03  0.00000000000E+00 0.  1.
</event>
<event>
 4    1  0.6769686E+001  0.2324879E+02  0.7546771E-02  0.1489397E+00
          2   -1    0    0  502    0  0.00000000000E+00  0.00000000000E+00  0.18161746707E+02  0.18161746707E+02  0.00000000000E+00 0. -1.
         -2   -1    0    0    0  501 -0.00000000000E+00 -0.00000000000E+00 -0.41623880958E+02  0.41623880958E+02  0.00000000000E+00 0.  1.
          1    1    1    2  502    0  0.13883242136E+02  0.18648375946E+02  0.42275790819E+01  0.23630039410E+02  0.00000000000E+00 0. -1.
         -1    1    1    2    0  501 -0.13883242136E+02 -0.18648375946E+02 -0.27689713333E+02  0.36155588255E+02  0.00000000000E+00 0.  1.
</event>
<event>
 4    1  0.6769686E+001  0.2373527E+02  0.7546771E-02  0.1483466E+00
          2   -1    0    0  502    0  0.00000000000E+00  0.00000000000E+00  0.49736157476E+00  0.49736157476E+00  0.00000000000E+00 0. -1.
         -2   -1    0    0    0  501 -0.00000000000E+00 -0.00000000000E+00 -0.12595959926E+04  0.12595959926E+04  0.00000000000E+00 0.  1.
          1    1    1    2  502    0  0.11382432725E+02  0.20827941663E+02 -0.42957419092E+03  0.43022941373E+03  0.00000000000E+00 0. -1.
         -1    1    1    2    0  501 -0.11382432725E+02 -0.20827941663E+02 -0.82952444011E+03  0.82986394046E+03  0.00000000000E+00 0.  1.
</event>
<event>
 4    1  0.6769686E+001  0.2370311E+02  0.7546771E-02  0.1483853E+00
          2   -1    0    0  502    0  0.00000000000E+00  0.00000000000E+00  0.36345563423E+02  0.36345563423E+02  0.00000000000E+00 0.  1.
         -2   -1    0    0    0  501 -0.00000000000E+00 -0.00000000000E+00 -0.15858612161E+02  0.15858612161E+02  0.00000000000E+00 0. -1.
          1    1    1    2  502    0 -0.33792693436E+00  0.23700699831E+02  0.60959351128E+01  0.24474431393E+02  0.00000000000E+00 0.  1.
         -1    1    1    2    0  501  0.33792693436E+00 -0.23700699831E+02  0.14391016150E+02  0.27729744191E+02  0.00000000000E+00 0. -1.
</event>
<event>
 4    1  0.6769686E+001  0.2259831E+02  0.7546771E-02  0.1497605E+00
          2   -1    0    0  502    0  0.00000000000E+00  0.00000000000E+00  0.10515716148E+02  0.10515716148E+02  0.00000000000E+00 0. -1.
         -2   -1    0    0    0  501 -0.00000000000E+00 -0.00000000000E+00 -0.80058123925E+02  0.80058123925E+02  0.00000000000E+00 0.  1.
          1    1    1    2  502    0 -0.22577130077E+02 -0.97813811062E+00 -0.63667822935E+01  0.23478063665E+02  0.00000000000E+00 0. -1.
         -1    1    1    2    0  501  0.22577130077E+02  0.97813811062E+00 -0.63175625484E+02  0.67095776409E+02  0.00000000000E+00 0.  1.
</event>
<event>
 4    1  0.6769686E+001  0.4224348E+02  0.7546771E-02  0.1335818E+00
          2   -1    0    0  502    0  0.00000000000E+00  0.00000000000E+00  0.40384226160E+01  0.40384226160E+01  0.00000000000E+00 0.  1.
         -2   -1    0    0    0  501 -0.00000000000E+00 -0.00000000000E+00 -0.44649994839E+03  0.44649994839E+03  0.00000000000E+00 0. -1.
          1    1    1    2  502    0 -0.15297647731E+02 -0.39376305122E+02 -0.24413708836E+03  0.24776486705E+03  0.00000000000E+00 0.  1.
         -1    1    1    2    0  501  0.15297647731E+02  0.39376305122E+02 -0.19832443742E+03  0.20277350396E+03  0.00000000000E+00 0. -1.
</event>
<event>
 4    1  0.6769686E+001  0.2064343E+02  0.7546771E-02  0.1524417E+00
          2   -1    0    0  502    0  0.00000000000E+00  0.00000000000E+00  0.24725692787E+02  0.24725692787E+02  0.00000000000E+00 0.  1.
         -2   -1    0    0    0  501 -0.00000000000E+00 -0.00000000000E+00 -0.17245838976E+02  0.17245838976E+02  0.00000000000E+00 0. -1.
          1    1    1    2  502    0  0.39807871322E+01  0.20255978637E+02  0.42620749231E+01  0.21078819213E+02  0.00000000000E+00 0. -1.
         -1    1    1    2    0  501 -0.39807871322E+01 -0.20255978637E+02  0.32177788881E+01  0.20892712551E+02  0.00000000000E+00 0.  1.
</event>
<event>
 4    1  0.6769686E+001  0.2612713E+02  0.7546771E-02  0.1456579E+00
          2   -1    0    0  502    0  0.00000000000E+00  0.00000000000E+00  0.10435809031E+02  0.10435809031E+02  0.00000000000E+00 0. -1.
         -2   -1    0    0    0  501 -0.00000000000E+00 -0.00000000000E+00 -0.65698640376E+02  0.65698640376E+02  0.00000000000E+00 0.  1.
          1    1    1    2  502    0 -0.23762865678E+02 -0.10860633278E+02 -0.25116973239E+02  0.36242095485E+02  0.00000000000E+00 0. -1.
         -1    1    1    2    0  501  0.23762865678E+02  0.10860633278E+02 -0.30145858107E+02  0.39892353922E+02  0.00000000000E+00 0.  1.
</event>
<event>
 4    1  0.6769686E+001  0.2011276E+02  0.7546771E-02  0.1532319E+00
          2   -1    0    0  502    0  0.00000000000E+00  0.00000000000E+00  0.10672066760E+04  0.10672066760E+04  0.00000000000E+00 0. -1.
         -2   -1    0    0    0  501 -0.00000000000E+00 -0.00000000000E+00 -0.40780425458E+00  0.40780425458E+00  0.00000000000E+00 0.  1.
          1    1    1    2  502    0 -0.13738325358E+02  0.14689497592E+02  0.39164973646E+03  0.39216583099E+03  0.00000000000E+00 0.  1.
         -1    1    1    2    0  501  0.13738325358E+02 -0.14689497592E+02  0.67514913527E+03  0.67544864926E+03  0.00000000000E+00 0. -1.
</event>
<event>
 4    1  0.6769686E+001  0.2099306E+02  0.7546771E-02  0.1519364E+00
          2   -1    0    0  502    0  0.00000000000E+00  0.00000000000E+00  0.20729021056E+02  0.20729021056E+02  0.00000000000E+00 0. -1.
         -2   -1    0    0    0  501 -0.00000000000E+00 -0.00000000000E+00 -0.45541981133E+02  0.45541981133E+02  0.00000000000E+00 0.  1.
          1    1    1    2  502    0 -0.20688637742E+02  0.35621119169E+01  0.11788518088E+02  0.24076493342E+02  0.00000000000E+00 0. -1.
         -1    1    1    2    0  501  0.20688637742E+02 -0.35621119169E+01 -0.36601478165E+02  0.42194508847E+02  0.00000000000E+00 0.  1.
</event>
<event>
 4    1  0.6769686E+001  0.2987496E+02  0.7546771E-02  0.1420686E+00
          2   -1    0    0  502    0  0.00000000000E+00  0.00000000000E+00  0.10811787174E+02  0.10811787174E+02  0.00000000000E+00 0. -1.
         -2   -1    0    0    0  501 -0.00000000000E+00 -0.00000000000E+00 -0.10955278578E+03  0.10955278578E+03  0.00000000000E+00 0.  1.
          1    1    1    2  502    0 -0.18664043709E+02 -0.23327382552E+02 -0.19491843638E+02  0.35671350868E+02  0.00000000000E+00 0. -1.
         -1    1    1    2    0  501  0.18664043709E+02  0.23327382552E+02 -0.79249154964E+02  0.84693222083E+02  0.00000000000E+00 0.  1.
</event>
<event>
 4    1  0.6769686E+001  0.2174793E+02  0.7546771E-02  0.1508849E+00
          2   -1    0    0  502    0  0.00000000000E+00  0.00000000000E+00  0.17799127890E+04  0.17799127890E+04  0.00000000000E+00 0.  1.
         -2   -1    0    0    0  501 -0.00000000000E+00 -0.00000000000E+00 -0.40890290172E+00  0.40890290172E+00  0.00000000000E+00 0. -1.
          1    1    1    2  502    0 -0.18066913792E+02 -0.12106152861E+02  0.14164868988E+04  0.14166538416E+04  0.00000000000E+00 0.  1.
         -1    1    1    2    0  501  0.18066913792E+02  0.12106152861E+02  0.36301698727E+03  0.36366785032E+03  0.00000000000E+00 0. -1.
</event>
<event>
 4    1  0.6769686E+001  0.2177598E+02  0.7546771E-02  0.1508468E+00
          2   -1    0    0  502    0  0.00000000000E+00  0.00000000000E+00  0.28391922676E+03  0.28391922676E+03  0.00000000000E+00 0.  1.
         -2   -1    0    0    0  501 -0.00000000000E+00 -0.00000000000E+00 -0.19686278010E+01  0.19686278010E+01  0.00000000000E+00 0. -1.
          1    1    1    2  502    0 -0.52819282394E+01  0.21125683887E+02  0.85317555437E+02  0.88052703260E+02  0.00000000000E+00 0.  1.
         -1    1    1    2    0  501  0.52819282394E+01 -0.21125683887E+02  0.19663304353E+03  0.19783515131E+03  0.00000000000E+00 0. -1.
</event>
<event>
 4    1  0.6769686E+001  0.3358822E+02  0.7546771E-02  0.1390770E+00
          2   -1    0    0  502    0  0.00000000000E+00  0.00000000000E+00  0.11111531755E+03  0.11111531755E+03  0.00000000000E+00 0. -1.
         -2   -1    0    0    0  501 -0.00000000000E+00 -0.00000000000E+00 -0.12322727383E+02  0.12322727383E+02  0.00000000000E+00 0.  1.
          1    1    1    2  502    0 -0.13036868372E+02 -0.30954941401E+02  0.75293633359E+02  0.82445737054E+02  0.00000000000E+00 0. -1.
         -1    1    1    2    0  501  0.13036868372E+02  0.30954941401E+02  0.23498956806E+02  0.40992307876E+02  0.00000000000E+00 0.  1.
</event>
<event>
 4    1  0.6769686E+001  0.3793485E+02  0.7546771E-02  0.1361032E+00
          2   -1    0    0  502    0  0.00000000000E+00  0.00000000000E+00  0.95844340544E+03  0.95844340544E+03  0.00000000000E+00 0.  1.
         -2   -1    0    0    0  501 -0.00000000000E+00 -0.00000000000E+00 -0.18055815200E+01  0.18055815200E+01  0.00000000000E+00 0. -1.
          1    1    1    2  502    0  0.13843773446E+02  0.35318590788E+02  0.67536937848E+03  0.67643392162E+03  0.00000000000E+00 0.  1.
         -1    1    1    2    0  501 -0.13843773446E+02 -0.35318590788E+02  0.28126844544E+03  0.28381506535E+03  0.00000000000E+00 0. -1.
</event>
<event>
 4    1  0.6769686E+001  0.2745832E+02  0.7546771E-02  0.1443058E+00
          2   -1    0    0  502    0  0.00000000000E+00  0.00000000000E+00  0.31942782449E+03  0.31942782449E+03  0.00000000000E+00 0.  1.
         -2   -1    0    0    0  501 -0.00000000000E+00 -0.00000000000E+00 -0.47226590704E+01  0.47226590704E+01  0.00000000000E+00 0. -1.
          1    1    1    2  502    0  0.27055595705E+02 -0.46855337089E+01  0.42724161900E+02  0.50786942172E+02  0.00000000000E+00 0. -1.
         -1    1    1    2    0  501 -0.27055595705E+02  0.46855337089E+01  0.27198100352E+03  0.27336354139E+03  0.00000000000E+00 0.  1.
</event>
<event>
 4    1  0.6769686E+001  0.2211623E+02  0.7546771E-02  0.1503904E+00
          2   -1    0    0  502    0  0.00000000000E+00  0.00000000000E+00  0.12465240570E+03  0.12465240570E+03  0.00000000000E+00 0. -1.
         -2   -1    0    0    0  501 -0.00000000000E+00 -0.00000000000E+00 -0.46121224272E+01  0.46121224272E+01  0.00000000000E+00 0.  1.
          1    1    1    2  502    0 -0.68363444451E+01  0.21033122106E+02  0.35053933137E+02  0.41447630321E+02  0.00000000000E+00 0.  1.
         -1    1    1    2    0  501  0.68363444451E+01 -0.21033122106E+02  0.84986350139E+02  0.87816897809E+02  0.00000000000E+00 0. -1.
</event>
<event>
 4    1  0.6769686E+001  0.2921499E+02  0.7546771E-02  0.1426543E+00
          2   -1    0    0  502    0  0.00000000000E+00  0.00000000000E+00  0.16270407094E+04  0.16270407094E+04  0.00000000000E+00 0. -1.
         -2   -1    0    0    0  501 -0.00000000000E+00 -0.00000000000E+00 -0.13609310059E+01  0.13609310059E+01  0.00000000000E+00 0.  1.
          1    1    1    2  502    0  0.24700841727E+01 -0.29110377363E+02  0.14511142431E+04  0.14514083030E+04  0.00000000000E+00 0. -1.
         -1    1    1    2    0  501 -0.24700841727E+01  0.29110377363E+02  0.17456553526E+03  0.17699333741E+03  0.00000000000E+00 0.  1.
</event>
<event>
 4    1  0.6769686E+001  0.3510811E+02  0.7546771E-02  0.1379805E+00
          2   -1    0    0  502    0  0.00000000000E+00  0.00000000000E+00  0.23893538296E+02  0.23893538296E+02  0.00000000000E+00 0.  1.
         -2   -1    0    0    0  501 -0.00000000000E+00 -0.00000000000E+00 -0.17174496106E+03  0.17174496106E+03  0.00000000000E+00 0. -1.
          1    1    1    2  502    0 -0.30074595535E+02 -0.18113471383E+02 -0.15574578623E+03  0.15965377875E+03  0.00000000000E+00 0. -1.
         -1    1    1    2    0  501  0.30074595535E+02  0.18113471383E+02  0.78943634673E+01  0.35984720601E+02  0.00000000000E+00 0.  1.
</event>
<event>
 4    1  0.6769686E+001  0.2129663E+02  0.7546771E-02  0.1515072E+00
          2   -1    0    0  502    0  0.00000000000E+00  0.00000000000E+00  0.17745830607E+03  0.17745830607E+03  0.00000000000E+00 0. -1.
         -2   -1    0    0    0  501 -0.00000000000E+00 -0.00000000000E+00 -0.27877791301E+01  0.27877791301E+01  0.00000000000E+00 0.  1.
          1    1    1    2  502    0 -0.38420954334E+01  0.20947185901E+02  0.11333325478E+03  0.11531683717E+03  0.00000000000E+00 0. -1.
         -1    1    1    2    0  501  0.38420954334E+01 -0.20947185901E+02  0.61337272159E+02  0.64929248035E+02  0.00000000000E+00 0.  1.
</event>
<event>
 4    1  0.6769686E+001  0.3520515E+02  0.7546771E-02  0.1379127E+00
          2   -1    0    0  502    0  0.00000000000E+00  0.00000000000E+00  0.96558253545E+01  0.96558253545E+01  0.00000000000E+00 0.  1.
         -2   -1    0    0    0  501 -0.00000000000E+00 -0.00000000000E+00 -0.15410929345E+03  0.15410929345E+03  0.00000000000E+00 0. -1.
          1    1    1    2  502    0  0.21531950690E+02  0.27852783359E+02 -0.38755131263E+02  0.52358023651E+02  0.00000000000E+00 0.  1.
         -1    1    1    2    0  501 -0.21531950690E+02 -0.27852783359E+02 -0.10569833683E+03  0.11140709515E+03  0.00000000000E+00 0. -1.
</event>
<event>
 4    1  0.6769686E+001  0.2899008E+02  0.7546771E-02  0.1428580E+00
          2   -1    0    0  502    0  0.00000000000E+00  0.00000000000E+00  0.55532379515E+02  0.55532379515E+02  0.00000000000E+00 0. -1.
         -2   -1    0    0    0  501 -0.00000000000E+00 -0.00000000000E+00 -0.23526056462E+02  0.23526056462E+02  0.00000000000E+00 0.  1.
          1    1    1    2  502    0  0.28628260103E+02  0.45659219517E+01  0.39612229241E+02  0.49087204292E+02  0.00000000000E+00 0. -1.
         -1    1    1    2    0  501 -0.28628260103E+02 -0.45659219517E+01 -0.76059061873E+01  0.29971231685E+02  0.00000000000E+00 0.  1.
</event>
<event>
 4    1  0.6769686E+001  0.2523670E+02  0.7546771E-02  0.1466173E+00
          2   -1    0    0  502    0  0.00000000000E+00  0.00000000000E+00  0.17419627611E+02  0.17419627611E+02  0.00000000000E+00 0.  1.
         -2   -1    0    0    0  501 -0.00000000000E+00 -0.00000000000E+00 -0.36582261013E+02  0.36582261013E+02  0.00000000000E+00 0. -1.
          1    1    1    2  502    0  0.25218993245E+02 -0.94515324805E+00 -0.10221679166E+02  0.27228177683E+02  0.00000000000E+00 0. -1.
         -1    1    1    2    0  501 -0.25218993245E+02  0.94515324805E+00 -0.89409542356E+01  0.26773710942E+02  0.00000000000E+00 0.  1.
</event>
<event>
 4    1  0.6769686E+001  0.2033732E+02  0.7546771E-02  0.1528940E+00
          2   -1    0    0  502    0  0.00000000000E+00  0.00000000000E+00  0.60245932251E+02  0.60245932251E+02  0.00000000000E+00 0.  1.
         -2   -1    0    0    0  501 -0.00000000000E+00 -0.00000000000E+00 -0.78313041523E+01  0.78313041523E+01  0.00000000000E+00 0. -1.
          1    1    1    2  502    0  0.17262933928E+02  0.10751628020E+02  0.38162171285E+02  0.43243007643E+02  0.00000000000E+00 0. -1.
         -1    1    1    2    0  501 -0.17262933928E+02 -0.10751628020E+02  0.14252456815E+02  0.24834228760E+02  0.00000000000E+00 0.  1.
</event>
<event>
 4    1  0.6769686E+001  0.2916080E+02  0.7546771E-02  0.1427032E+00
          2   -1    0    0  502    0  0.00000000000E+00  0.00000000000E+00  0.28232574680E+03  0.28232574680E+03  0.00000000000E+00 0. -1.
         -2   -1    0    0    0  501 -0.00000000000E+00 -0.00000000000E+00 -0.30733126985E+01  0.30733126985E+01  0.00000000000E+00 0.  1.
          1    1    1    2  502    0  0.49057911149E+01  0.28745185688E+02  0.11946330895E+03  0.12297086920E+03  0.00000000000E+00 0.  1.
         -1    1    1    2    0  501 -0.49057911149E+01 -0.28745185688E+02  0.15978912514E+03  0.16242819029E+03  0.00000000000E+00 0. -1.
</event>
<event>
 4    1  0.6769686E+001  0.2691606E+02  0.7546771E-02  0.1448453E+00
          2   -1    0    0  502    0  0.00000000000E+00  0.00000000000E+00  0.30199344161E+03  0.30199344161E+03  0.00000000000E+00 0. -1.
         -2   -1    0    0    0  501 -0.00000000000E+00 -0.00000000000E+00 -0.25724815134E+01  0.25724815134E+01  0.00000000000E+00 0.  1.
          1    1    1    2  502    0  0.24012632092E+02 -0.12160088510E+02  0.11016152644E+03  0.11340209945E+03  0.00000000000E+00 0.  1.
         -1    1    1    2    0  501 -0.24012632092E+02  0.12160088510E+02  0.18925943366E+03  0.19116382367E+03  0.00000000000E+00 0. -1.
</event>
<event>
 4    1  0.6769686E+001  0.4951397E+02  0.7546771E-02  0.1300294E+00
          2   -1    0    0  502    0  0.00000000000E+00  0.00000000000E+00  0.31185511544E+01  0.31185511544E+01  0.00000000000E+00 0. -1.
         -2   -1    0    0    0  501 -0.00000000000E+00 -0.00000000000E+00 -0.94813062688E+03  0.94813062688E+03  0.00000000000E+00 0.  1.
          1    1    1    2  502    0 -0.75497199152E+01 -0.48935011576E+02 -0.66909917457E+03  0.67092871383E+03  0.00000000000E+00 0.  1.
         -1    1    1    2    0  501  0.75497199152E+01  0.48935011576E+02 -0.27591290115E+03  0.28032046420E+03  0.00000000000E+00 0. -1.
</event>
<event>
 4    1  0.6769686E+001  0.2932936E+02  0.7546771E-02  0.1425515E+00
          2   -1    0    0  502    0  0.00000000000E+00  0.00000000000E+00  0.97490623715E+02  0.97490623715E+02  0.00000000000E+00 0.  1.
         -2   -1    0    0    0  501 -0.00000000000E+00 -0.00000000000E+00 -0.95325145560E+01  0.95325145560E+01  0.00000000000E+00 0. -1.
          1    1    1    2  502    0 -0.14027075359E+02 -0.25757576901E+02  0.29385475775E+02  0.41517680541E+02  0.00000000000E+00 0. -1.
         -1    1    1    2    0  501  0.14027075359E+02  0.25757576901E+02  0.58572633384E+02  0.65505457730E+02  0.00000000000E+00 0.  1.
</event>
<event>
 4    1  0.6769686E+001  0.2886639E+02  0.7546771E-02  0.1429710E+00
          2   -1    0    0  502    0  0.00000000000E+00  0.00000000000E+00  0.30240092649E+03  0.30240092649E+03  0.00000000000E+00 0.  1.
         -2   -1    0    0    0  501 -0.00000000000E+00 -0.00000000000E+00 -0.27947045323E+01  0.27947045323E+01  0.00000000000E+00 0. -1.
          1    1    1    2  502    0 -0.27153505140E+02  0.97957065050E+01  0.13173160333E+03  0.13485727278E+03  0.00000000000E+00 0. -1.
         -1    1    1    2    0  501  0.27153505140E+02 -0.97957065050E+01  0.16787461863E+03  0.17033835824E+03  0.00000000000E+00 0.  1.
</event>
<event>
 4    1  0.6769686E+001  0.2613660E+02  0.7546771E-02  0.1456479E+00
          2   -1    0    0  502    0  0.00000000000E+00  0.00000000000E+00  0.77151063079E+03  0.77151063079E+03  0.00000000000E+00 0. -1.
         -2   -1    0    0    0  501 -0.00000000000E+00 -0.00000000000E+00 -0.11335259830E+01  0.11335259830E+01  0.00000000000E+00 0.  1.
          1    1    1    2  502    0 -0.24930855379E+02 -0.78469253881E+01  0.20445445095E+03  0.20611827746E+03  0.00000000000E+00 0.  1.
         -1    1    1    2    0  501  0.24930855379E+02  0.78469253881E+01  0.56592265386E+03  0.56652587932E+03  0.00000000000E+00 0. -1.
</event>
<event>
 4    1  0.6769686E+001  0.2764258E+02  0.7546771E-02  0.1441258E+00
          2   -1    0    0  502    0  0.00000000000E+00  0.00000000000E+00  0.14009733584E+02  0.14009733584E+02  0.00000000000E+00 0.  1.
         -2   -1    0    0    0  501 -0.00000000000E+00 -0.00000000000E+00 -0.56792860697E+02  0.56792860697E+02  0.00000000000E+00 0. -1.
          1    1    1    2  502    0 -0.24048473759E+02  0.13630219382E+02 -0.28440023711E+02  0.39660394844E+02  0.00000000000E+00 0.  1.
         -1    1    1    2    0  501  0.24048473759E+02 -0.13630219382E+02 -0.14343103402E+02  0.31142199436E+02  0.00000000000E+00 0. -1.
</event>
<event>
 4    1  0.6769686E+001  0.3243216E+02  0.7546771E-02  0.1399574E+00
          2   -1    0    0  502    0  0.00000000000E+00  0.00000000000E+00  0.15385839416E+03  0.15385839416E+03  0.00000000000E+00 0. -1.
         -2   -1    0    0    0  501 -0.00000000000E+00 -0.00000000000E+00 -0.68371270366E+01  0.68371270366E+01  0.00000000000E+00 0.  1.
          1    1    1    2  502    0 -0.11737011581E+02  0.30233883039E+02  0.74310540612E+02  0.81079600212E+02  0.00000000000E+00 0. -1.
         -1    1    1    2    0  501  0.11737011581E+02 -0.30233883039E+02  0.72710726515E+02  0.79615920988E+02  0.00000000000E+00 0.  1.
</event>
<event>
 4    1  0.6769686E+001  0.2660441E+02  0.7546771E-02  0.1451623E+00
          2   -1    0    0  502    0  0.00000000000E+00  0.00000000000E+00  0.19255337543E+02  0.19255337543E+02  0.00000000000E+00 0.  1.
         -2   -1    0    0    0  501 -0.00000000000E+00 -0.00000000000E+00 -0.51193433149E+02  0.51193433149E+02  0.00000000000E+00 0. -1.
          1    1    1    2  502    0  0.12514661938E+02  0.23477175273E+02 -0.34673537928E+02  0.43704104552E+02  0.00000000000E+00 0.  1.
         -1    1    1    2    0  501 -0.12514661938E+02 -0.23477175273E+02  0.27354423222E+01  0.26744666140E+02  0.00000000000E+00 0. -1.
</event>
<event>
 4    1  0.6769686E+001  0.2306115E+02  0.7546771E-02  0.1491732E+00
          2   -1    0    0  502    0  0.00000000000E+00  0.00000000000E+00  0.10452627109E+01  0.10452627109E+01  0.00000000000E+00 0.  1.
         -2   -1    0    0    0  501 -0.00000000000E+00 -0.00000000000E+00 -0.51316183499E+03  0.51316183499E+03  0.00000000000E+00 0. -1.
          1    1    1    2  502    0  0.56905673179E+01 -0.22348016893E+02 -0.27979637511E+03  0.28074512986E+03  0.00000000000E+00 0.  1.
         -1    1    1    2    0  501 -0.56905673179E+01  0.22348016893E+02 -0.23232019717E+03  0.23346196784E+03  0.00000000000E+00 0. -1.
</event>
<event>
 4    1  0.6769686E+001  0.2001226E+02  0.7546771E-02  0.1533848E+00
          2   -1    0    0  502    0  0.00000000000E+00  0.00000000000E+00  0.10269082726E+03  0.10269082726E+03  0.00000000000E+00 0.  1.
         -2   -1    0    0    0  501 -0.00000000000E+00 -0.00000000000E+00 -0.39645530170E+01  0.39645530170E+01  0.00000000000E+00 0. -1.
          1    1    1    2  502    0 -0.12781457822E+02 -0.15398856065E+02  0.56169861736E+02  0.59628380823E+02  0.00000000000E+00 0.  1.
         -1    1    1    2    0  501  0.12781457822E+02  0.15398856065E+02  0.42556412509E+02  0.47026999456E+02  0.00000000000E+00 0. -1.
</event>
<event>
 4    1  0.6769686E+001  0.2951814E+02  0.7546771E-02  0.1423831E+00
          2   -1    0    0  502    0  0.00000000000E+00  0.00000000000E+00  0.73656501497E+03  0.73656501497E+03  0.00000000000E+00 0.  1.
         -2   -1    0    0    0  501 -0.00000000000E+00 -0.00000000000E+00 -0.15080017956E+01  0.15080017956E+01  0.00000000000E+00 0. -1.
          1    1    1    2  502    0 -0.29465194480E+02  0.17671485333E+01  0.19619438676E+03  0.19840251485E+03  0.00000000000E+00 0. -1.
         -1    1    1    2    0  501  0.29465194480E+02 -0.17671485333E+01  0.53886262641E+03  0.53967050191E+03  0.00000000000E+00 0.  1.
</event>
<event>
 4    1  0.6769686E+001  0.2052110E+02  0.7546771E-02  0.1526213E+00
          2   -1    0    0  502    0  0.00000000000E+00  0.00000000000E+00  0.79126815282E+03  0.79126815282E+03  0.00000000000E+00 0. -1.
         -2   -1    0    0    0  501 -0.00000000000E+00 -0.00000000000E+00 -0.53535675471E+00  0.53535675471E+00  0.00000000000E+00 0.  1.
          1    1    1    2  502    0  0.19026106635E+02  0.76891480146E+01  0.36498268022E+03  0.36555912325E+03  0.00000000000E+00 0.  1.
         -1    1    1    2    0  501 -0.19026106635E+02 -0.76891480146E+01  0.42575011585E+03  0.42624438633E+03  0.00000000000E+00 0. -1.
</event>
<event>
 4    1  0.6769686E+001  0.2153765E+02  0.7546771E-02  0.1511725E+00
          2   -1    0    0  502    0  0.00000000000E+00  0.00000000000E+00  0.43504526903E+03  0.43504526903E+03  0.00000000000E+00 0. -1.
         -2   -1    0    0    0  501 -0.00000000000E+00 -0.00000000000E+00 -0.23102566302E+01  0.23102566302E+01  0.00000000000E+00 0.  1.
          1    1    1    2  502    0  0.19819509189E+02 -0.84295689755E+01  0.55900988189E+02  0.59906519329E+02  0.00000000000E+00 0.  1.
         -1    1    1    2    0  501 -0.19819509189E+02  0.84295689755E+01  0.37683402421E+03  0.37744900633E+03  0.00000000000E+00 0. -1.
</event>
<event>
 4    1  0.6769686E+001  0.2601171E+02  0.7546771E-02  0.1457796E+00
          2   -1    0    0  502    0  0.00000000000E+00  0.00000000000E+00  0.12441826604E+02  0.12441826604E+02  0.00000000000E+00 0. -1.
         -2   -1    0    0    0  501 -0.00000000000E+00 -0.00000000000E+00 -0.12585844191E+03  0.12585844191E+03  0.00000000000E+00 0.  1.
          1    1    1    2  502    0  0.25871553798E+02 -0.26966220806E+01 -0.45967700019E+01  0.26414756501E+02  0.00000000000E+00 0. -1.
         -1    1    1    2    0  501 -0.25871553798E+02  0.26966220806E+01 -0.10881984530E+03  0.11188551201E+03  0.00000000000E+00 0.  1.
</event>
<event>
 4    1  0.6769686E+001  0.2601414E+02  0.7546771E-02  0.1457771E+00
          2   -1    0    0  502    0  0.00000000000E+00  0.00000000000E+00  0.15035780320E+04  0.15035780320E+04  0.00000000000E+00 0. -1.
         -2   -1    0    0    0  501 -0.00000000000E+00 -0.00000000000E+00 -0.14634873894E+01  0.14634873894E+01  0.00000000000E+00 0.  1.
          1    1    1    2  502    0  0.24774535433E+02  0.79345985323E+01  0.13772605051E+04  0.13775061649E+04  0.00000000000E+00 0. -1.
         -1    1    1    2    0  501 -0.24774535433E+02 -0.79345985323E+01  0.12485403951E+03  0.12753535448E+03  0.00000000000E+00 0.  1.
</event>
<event>
 4    1  0.6769686E+001  0.2141393E+02  0.7546771E-02  0.1513436E+00
          2   -1    0    0  502    0  0.00000000000E+00  0.00000000000E+00  0.86314815366E+02  0.86314815366E+02  0.00000000000E+00 0. -1.
         -2   -1    0    0    0  501 -0.00000000000E+00 -0.00000000000E+00 -0.53563573077E+01  0.53563573077E+01  0.00000000000E+00 0.  1.
          1    1    1    2  502    0 -0.16764668074E+02  0.13323003819E+02  0.44621782452E+02  0.49494040000E+02  0.00000000000E+00 0.  1.
         -1    1    1    2    0  501  0.16764668074E+02 -0.13323003819E+02  0.36336675607E+02  0.42177132673E+02  0.00000000000E+00 0. -1.
</event>
<event>
 4    1  0.6769686E+001  0.2401502E+02  0.7546771E-02  0.1480131E+00
          2   -1    0    0  502    0  0.00000000000E+00  0.00000000000E+00  0.56107513816E+01  0.56107513816E+01  0.00000000000E+00 0. -1.
         -2   -1    0    0    0  501 -0.00000000000E+00 -0.00000000000E+00 -0.28696875615E+03  0.28696875615E+03  0.00000000000E+00 0.  1.
          1    1    1    2  502    0 -0.12801865235E+02 -0.20318300804E+02 -0.25787642400E+03  0.25899222219E+03  0.00000000000E+00 0. -1.
         -1    1    1    2    0  501  0.12801865235E+02  0.20318300804E+02 -0.23481580767E+02  0.33587285338E+02  0.00000000000E+00 0.  1.
</event>
<event>
 4    1  0.6769686E+001  0.2100186E+02  0.7546771E-02  0.1519238E+00
          2   -1    0    0  502    0  0.00000000000E+00  0.00000000000E+00  0.51477880245E+02  0.51477880245E+02  0.00000000000E+00 0. -1.
         -2   -1    0    0    0  501 -0.00000000000E+00 -0.00000000000E+00 -0.88072451459E+01  0.88072451459E+01  0.00000000000E+00 0.  1.
          1    1    1    2  502    0  0.98535545615E+01 -0.18546846747E+02  0.26300174696E+02  0.33656756392E+02  0.00000000000E+00 0.  1.
         -1    1    1    2    0  501 -0.98535545615E+01  0.18546846747E+02  0.16370460403E+02  0.26628368999E+02  0.00000000000E+00 0. -1.
</event>
<event>
 4    1  0.6769686E+001  0.2686026E+02  0.7546771E-02  0.1449017E+00
          2   -1    0    0  502    0  0.00000000000E+00  0.00000000000E+00  0.38612747227E+00  0.38612747227E+00  0.00000000000E+00 0. -1.
         -2   -1    0    0    0  501 -0.00000000000E+00 -0.00000000000E+00 -0.19698766353E+04  0.19698766353E+04  0.00000000000E+00 0.  1.
          1    1    1    2  502    0  0.21684698838E+02  0.15850779771E+02 -0.76124617290E+03  0.76171990202E+03  0.00000000000E+00 0. -1.
         -1    1    1    2    0  501 -0.21684698838E+02 -0.15850779771E+02 -0.12082443349E+04  0.12085428608E+04  0.00000000000E+00 0.  1.
</event>
<event>
 4    1  0.6769686E+001  0.2327067E+02  0.7546771E-02  0.1489127E+00
          2   -1    0    0  502    0  0.00000000000E+00  0.00000000000E+00  0.23912711136E+03  0.23912711136E+03  0.00000000000E+00 0.  1.
         -2   -1    0    0    0  501 -0.00000000000E+00 -0.00000000000E+00 -0.51521294704E+01  0.51521294704E+01  0.00000000000E+00 0. -1.
          1    1    1    2  502    0  0.20020634076E+02  0.11861622192E+02  0.25549334858E+02  0.34558535581E+02  0.00000000000E+00 0. -1.
         -1    1    1    2    0  501 -0.20020634076E+02 -0.11861622192E+02  0.20842564703E+03  0.20972070525E+03  0.00000000000E+00 0.  1.
</event>
<event>
 4    1  0.6769686E+001  0.2149434E+02  0.7546771E-02  0.1512323E+00
          2   -1    0    0  502    0  0.00000000000E+00  0.00000000000E+00  0.10007378561E+04  0.10007378561E+04  0.00000000000E+00 0. -1.
         -2   -1    0    0    0  501 -0.00000000000E+00 -0.00000000000E+00 -0.55562056322E+00  0.55562056322E+00  0.00000000000E+00 0.  1.
          1    1    1    2  502    0  0.12191754922E+02  0.17702196888E+02  0.29421729466E+03  0.29500139515E+03  0.00000000000E+00 0.  1.
         -1    1    1    2    0  501 -0.12191754922E+02 -0.17702196888E+02  0.70596494089E+03  0.70629208153E+03  0.00000000000E+00 0. -1.
</event>
<event>
 4    1  0.6769686E+001  0.2026470E+02  0.7546771E-02  0.1530027E+00
          2   -1    0    0  502    0  0.00000000000E+00  0.00000000000E+00  0.10851798207E+04  0.10851798207E+04  0.00000000000E+00 0.  1.
         -2   -1    0    0    0  501 -0.00000000000E+00 -0.00000000000E+00 -0.57457241667E+00  0.57457241667E+00  0.00000000000E+00 0. -1.
          1    1    1    2  502    0 -0.20026225389E+02 -0.30997640898E+01  0.85949406597E+03  0.85973292811E+03  0.00000000000E+00 0.  1.
         -1    1    1    2    0  501  0.20026225389E+02  0.30997640898E+01  0.22511118229E+03  0.22602146498E+03  0.00000000000E+00 0. -1.
</event>
<event>
 4    1  0.6769686E+001  0.2199233E+02  0.7546771E-02  0.1505554E+00
          2   -1    0    0  502    0  0.00000000000E+00  0.00000000000E+00  0.17604957007E+04  0.17604957007E+04  0.00000000000E+00 0. -1.
         -2   -1    0    0    0  501 -0.00000000000E+00 -0.00000000000E+00 -0.28158900561E+00  0.28158900561E+00  0.00000000000E+00 0.  1.
          1    1    1    2  502    0 -0.25338009955E+01 -0.21845881774E+02  0.74271350821E+03  0.74303904202E+03  0.00000000000E+00 0. -1.
         -1    1    1    2    0  501  0.25338009955E+01  0.21845881774E+02  0.10175006035E+04  0.10177382477E+04  0.00000000000E+00 0.  1.
</event>
<event>
 4    1  0.6769686E+001  0.2661873E+02  0.7546771E-02  0.1451476E+00
          2   -1    0    0  502    0  0.00000000000E+00  0.00000000000E+00  0.12929972793E+01  0.12929972793E+01  0.00000000000E+00 0. -1.
         -2   -1    0    0    0  501 -0.00000000000E+00 -0.00000000000E+00 -0.14244490644E+04  0.14244490644E+04  0.00000000000E+00 0.  1.
          1    1    1    2  502    0 -0.14653187185E+02  0.22222535824E+02 -0.12707583843E+04  0.12710371467E+04  0.00000000000E+00 0.  1.
         -1    1    1    2    0  501  0.14653187185E+02 -0.22222535824E+02 -0.15239768280E+03  0.15470491497E+03  0.00000000000E+00 0. -1.
</event>
<event>
 4    1  0.6769686E+001  0.3272946E+02  0.7546771E-02  0.1397269E+00
          2   -1    0    0  502    0  0.00000000000E+00  0.00000000000E+00  0.10820931412E+02  0.10820931412E+02  0.00000000000E+00 0.  1.
         -2   -1    0    0    0  501 -0.00000000000E+00 -0.00000000000E+00 -0.10415420365E+03  0.10415420365E+03  0.00000000000E+00 0. -1.
          1    1    1    2  502    0 -0.14275366820E+02 -0.29452192174E+02 -0.59461284589E+02  0.67873868953E+02  0.00000000000E+00 0. -1.
         -1    1    1    2    0  501  0.14275366820E+02  0.29452192174E+02 -0.33871987647E+02  0.47101266107E+02  0.00000000000E+00 0.  1.
</event>
<event>
 4    1  0.6769686E+001  0.2011259E+02  0.7546771E-02  0.1532322E+00
          2   -1    0    0  502    0  0.00000000000E+00  0.00000000000E+00  0.20332415766E+01  0.20332415766E+01  0.00000000000E+00 0.  1.
         -2   -1    0    0    0  501 -0.00000000000E+00 -0.00000000000E+00 -0.20084604336E+03  0.20084604336E+03  0.00000000000E+00 0. -1.
          1    1    1    2  502    0 -0.12349680584E+02 -0.15874556418E+02 -0.10925888616E+03  0.11109464594E+03  0.00000000000E+00 0. -1.
         -1    1    1    2    0  501  0.12349680584E+02  0.15874556418E+02 -0.89553915623E+02  0.91784638995E+02  0.00000000000E+00 0.  1.
</event>
<event>
 4    1  0.6769686E+001  0.3858361E+02  0.7546771E-02  0.1356992E+00
          2   -1    0    0  502    0  0.00000000000E+00  0.00000000000E+00  0.14501655102E+02  0.14501655102E+02  0.00000000000E+00 0.  1.
         -2   -1    0    0    0  501 -0.00000000000E+00 -0.00000000000E+00 -0.11365709113E+03  0.11365709113E+03  0.00000000000E+00 0. -1.
          1    1    1    2  502    0 -0.62519958321E+00  0.38578543079E+02 -0.69512901328E+02  0.79503071083E+02  0.00000000000E+00 0. -1.
         -1    1    1    2    0  501  0.62519958321E+00 -0.38578543079E+02 -0.29642534696E+02  0.48655675145E+02  0.00000000000E+00 0.  1.
</event>
<event>
 4    1  0.6769686E+001  0.2729045E+02  0.7546771E-02  0.1444712E+00
          2   -1    0    0  502    0  0.00000000000E+00  0.00000000000E+00  0.18522375562E+03  0.18522375562E+03  0.00000000000E+00 0.  1.
         -2   -1    0    0    0  501 -0.00000000000E+00 -0.00000000000E+00 -0.48668071404E+01  0.48668071404E+01  0.00000000000E+00 0. -1.
          1    1    1    2  502    0  0.25560860042E+02  0.95609121700E+01  0.12980322101E+03  0.13264103736E+03  0.00000000000E+00 0.  1.
         -1    1    1    2    0  501 -0.25560860042E+02 -0.95609121700E+01  0.50553727475E+02  0.57449525404E+02  0.00000000000E+00 0. -1.
</event>
<event>
 4    1  0.6769686E+001  0.2861654E+02  0.7546771E-02  0.1432012E+00
          2   -1    0    0  502    0  0.00000000000E+00  0.00000000000E+00  0.16900563755E+03  0.16900563755E+03  0.00000000000E+00 0.  1.
         -2   -1    0    0    0  501 -0.00000000000E+00 -0.00000000000E+00 -0.48650081242E+01  0.48650081242E+01  0.00000000000E+00 0. -1.
          1    1    1    2  502    0 -0.27250324996E+02 -0.87364784671E+01  0.76556452935E+02  0.81730023580E+02  0.00000000000E+00 0.  1.
         -1    1    1    2    0  501  0.27250324996E+02  0.87364784671E+01  0.87584176493E+02  0.92140622097E+02  0.00000000000E+00 0. -1.
</event>
<event>
 4    1  0.6769686E+001  0.2900952E+02  0.7546771E-02  0.1428403E+00
          2   -1    0    0  502    0  0.00000000000E+00  0.00000000000E+00  0.12188250038E+03  0.12188250038E+03  0.00000000000E+00 0. -1.
         -2   -1    0    0    0  501 -0.00000000000E+00 -0.00000000000E+00 -0.69068493478E+01  0.69068493478E+01  0.00000000000E+00 0.  1.
          1    1    1    2  502    0 -0.24901737660E+02 -0.14881397261E+02  0.56331286127E+02  0.63362183672E+02  0.00000000000E+00 0.  1.
         -1    1    1    2    0  501  0.24901737660E+02  0.14881397261E+02  0.58644364905E+02  0.65427166055E+02  0.00000000000E+00 0. -1.
</event>
<event>
 4    1  0.6769686E+001  0.6019777E+02  0.7546771E-02  0.1259162E+00
          2   -1    0    0  502    0  0.00000000000E+00  0.00000000000E+00  0.35208442025E+03  0.35208442025E+03  0.00000000000E+00 0.  1.
         -2   -1    0    0    0  501 -0.00000000000E+00 -0.00000000000E+00 -0.11045209019E+02  0.11045209019E+02  0.00000000000E+00 0. -1.
          1    1    1    2  502    0 -0.16684893756E+02  0.57839313563E+02  0.12311669613E+03  0.13704558635E+03  0.00000000000E+00 0. -1.
         -1    1    1    2    0  501  0.16684893756E+02 -0.57839313563E+02  0.21792251510E+03  0.22608404292E+03  0.00000000000E+00 0.  1.
</event>
<event>
 4    1  0.6769686E+001  0.2504053E+02  0.7546771E-02  0.1468350E+00
          2   -1    0    0  502    0  0.00000000000E+00  0.00000000000E+00  0.20447950256E+02  0.20447950256E+02  0.00000000000E+00 0. -1.
         -2   -1    0    0    0  501 -0.00000000000E+00 -0.00000000000E+00 -0.91438687338E+02  0.91438687338E+02  0.00000000000E+00 0.  1.
          1    1    1    2  502    0  0.11429554389E+02 -0.22279893052E+02  0.10112779244E+02  0.27005492996E+02  0.00000000000E+00 0. -1.
         -1    1    1    2    0  501 -0.11429554389E+02  0.22279893052E+02 -0.81103516325E+02  0.84881144598E+02  0.00000000000E+00 0.  1.
</event>
<event>
 4    1  0.6769686E+001  0.4210625E+02  0.7546771E-02  0.1336566E+00
          2   -1    0    0  502    0  0.00000000000E+00  0.00000000000E+00  0.26209388755E+02  0.26209388755E+02  0.00000000000E+00 0.  1.
         -2   -1    0    0    0  501 -0.00000000000E+00 -0.00000000000E+00 -0.11879307044E+03  0.11879307044E+03  0.00000000000E+00 0. -1.
          1    1    1    2  502    0 -0.50847853452E+01  0.41798099007E+02  0.12815512075E+01  0.42125746238E+02  0.00000000000E+00 0.  1.
         -1    1    1    2    0  501  0.50847853452E+01 -0.41798099007E+02 -0.93865232892E+02  0.10287671296E+03  0.00000000000E+00 0. -1.
</event>
<event>
 4    1  0.6769686E+001  0.2018278E+02  0.7546771E-02  0.1531260E+00
          2   -1    0    0  502    0  0.00000000000E+00  0.00000000000E+00  0.20971724769E+03  0.20971724769E+03  0.00000000000E+00 0. -1.
         -2   -1    0    0    0  501 -0.00000000000E+00 -0.00000000000E+00 -0.19511793728E+01  0.19511793728E+01  0.00000000000E+00 0.  1.
          1    1    1    2  502    0 -0.10282198438E+02  0.17367237897E+02  0.96764151695E+02  0.98846576118E+02  0.00000000000E+00 0.  1.
         -1    1    1    2    0  501  0.10282198438E+02 -0.17367237897E+02  0.11100191662E+03  0.11282185094E+03  0.00000000000E+00 0. -1.
</event>
<event>
 4    1  0.6769686E+001  0.2175862E+02  0.7546771E-02  0.1508704E+00
          2   -1    0    0  502    0  0.00000000000E+00  0.00000000000E+00  0.75827354837E+01  0.75827354837E+01  0.00000000000E+00 0. -1.
         -2   -1    0    0    0  501 -0.00000000000E+00 -0.00000000000E+00 -0.62633829138E+02  0.62633829138E+02  0.00000000000E+00 0.  1.
          1    1    1    2  502    0  0.18968356742E+02  0.10660152632E+02 -0.29497507982E+02  0.36654336562E+02  0.00000000000E+00 0.  1.
         -1    1    1    2    0  501 -0.18968356742E+02 -0.10660152632E+02 -0.25553585672E+02  0.33562228059E+02  0.00000000000E+00 0. -1.
</event>
<event>
 4    1  0.6769686E+001  0.2108422E+02  0.7546771E-02  0.1518066E+00
          2   -1    0    0  502    0  0.00000000000E+00  0.00000000000E+00  0.17636241461E+03  0.17636241461E+03  0.00000000000E+00 0.  1.
         -2   -1    0    0    0  501 -0.00000000000E+00 -0.00000000000E+00 -0.25349852271E+01  0.25349852271E+01  0.00000000000E+00 0. -1.
          1    1    1    2  502    0  0.17149585763E+02  0.12265242333E+02  0.93644806294E+02  0.95989031702E+02  0.00000000000E+00 0. -1.
         -1    1    1    2    0  501 -0.17149585763E+02 -0.12265242333E+02  0.80182623088E+02  0.82908368133E+02  0.00000000000E+00 0.  1.
</event>
<event>
 4    1  0.6769686E+001  0.2655518E+02  0.7546771E-02  0.1452128E+00
          2   -1    0    0  502    0  0.00000000000E+00  0.00000000000E+00  0.53312781566E+02  0.53312781566E+02  0.00000000000E+00 0.  1.
         -2   -1    0    0    0  501 -0.00000000000E+00 -0.00000000000E+00 -0.28703860237E+02  0.28703860237E+02  0.00000000000E+00 0. -1.
          1    1    1    2  502    0  0.32286348268E+01  0.26358179778E+02  0.42416540126E+02  0.50043387179E+02  0.00000000000E+00 0.  1.
         -1    1    1    2    0  501 -0.32286348268E+01 -0.26358179778E+02 -0.17807618797E+02  0.31973254624E+02  0.00000000000E+00 0. -1.
</event>
<event>
 4    1  0.6769686E+001  0.2061543E+02  0.7546771E-02  0.1524827E+00
          2   -1    0    0  502    0  0.00000000000E+00  0.00000000000E+00  0.11582353526E+04  0.11582353526E+04  0.00000000000E+00 0. -1.
         -2   -1    0    0    0  501 -0.00000000000E+00 -0.00000000000E+00 -0.39677546538E+00  0.39677546538E+00  0.00000000000E+00 0.  1.
          1    1    1    2  502    0 -0.11503865453E+02  0.17107218705E+02  0.73779361910E+03  0.73808158102E+03  0.00000000000E+00 0.  1.
         -1    1    1    2    0  501  0.11503865453E+02 -0.17107218705E+02  0.42004495799E+03  0.42055054701E+03  0.00000000000E+00 0. -1.
</event>
<event>
 4    1  0.6769686E+001  0.2196919E+02  0.7546771E-02  0.1505864E+00
          2   -1    0    0  502    0  0.00000000000E+00  0.00000000000E+00  0.24954325927E+02  0.24954325927E+02  0.00000000000E+00 0.  1.
         -2   -1    0    0    0  501 -0.00000000000E+00 -0.00000000000E+00 -0.33336924521E+02  0.33336924521E+02  0.00000000000E+00 0. -1.
          1    1    1    2  502    0 -0.13171508788E+02  0.17582855311E+02  0.14693354467E+02  0.26429909386E+02  0.00000000000E+00 0.  1.
         -1    1    1    2    0  501  0.13171508788E+02 -0.17582855311E+02 -0.23075953060E+02  0.31861341062E+02  0.00000000000E+00 0. -1.
</event>
<event>
 4    1  0.6769686E+001  0.6685347E+02  0.7546771E-02  0.1238171E+00
          2   -1    0    0  502    0  0.00000000000E+00  0.00000000000E+00  0.99533215031E+02  0.99533215031E+02  0.00000000000E+00 0.  1.
         -2   -1    0    0    0  501 -0.00000000000E+00 -0.00000000000E+00 -0.63142099123E+02  0.63142099123E+02  0.00000000000E+00 0. -1.
          1    1    1    2  502    0  0.14460852360E+02  0.65270749287E+02 -0.25519214226E+02  0.71558488372E+02  0.00000000000E+00 0. -1.
         -1    1    1    2    0  501 -0.14460852360E+02 -0.65270749287E+02  0.61910330133E+02  0.91116825782E+02  0.00000000000E+00 0.  1.
</event>
<event>
 4    1  0.6769686E+001  0.2571842E+02  0.7546771E-02  0.1460925E+00
          2   -1    0    0  502    0  0.00000000000E+00  0.00000000000E+00  0.84529859834E+03  0.84529859834E+03  0.00000000000E+00 0.  1.
         -2   -1    0    0    0  501 -0.00000000000E+00 -0.00000000000E+00 -0.12857840164E+01  0.12857840164E+01  0.00000000000E+00 0. -1.
          1    1    1    2  502    0  0.24298197555E+02  0.84282032236E+01  0.15717622501E+03  0.15926645197E+03  0.00000000000E+00 0. -1.
         -1    1    1    2    0  501 -0.24298197555E+02 -0.84282032236E+01  0.68683658930E+03  0.68731793038E+03  0.00000000000E+00 0.  1.
</event>
<event>
 4    1  0.6769686E+001  0.2085064E+02  0.7546771E-02  0.1521408E+00
          2   -1    0    0  502    0  0.00000000000E+00  0.00000000000E+00  0.33767869347E+01  0.33767869347E+01  0.00000000000E+00 0.  1.
         -2   -1    0    0    0  501 -0.00000000000E+00 -0.00000000000E+00 -0.12877049939E+03  0.12877049939E+03  0.00000000000E+00 0. -1.
          1    1    1    2  502    0 -0.20798305755E+02 -0.14763053813E+01 -0.63601658833E+02  0.66932204551E+02  0.00000000000E+00 0. -1.
         -1    1    1    2    0  501  0.20798305755E+02  0.14763053813E+01 -0.61792053627E+02  0.65215081778E+02  0.00000000000E+00 0.  1.
</event>
<event>
 4    1  0.6769686E+001  0.3768204E+02  0.7546771E-02  0.1362632E+00
          2   -1    0    0  502    0  0.00000000000E+00  0.00000000000E+00  0.45781303546E+01  0.45781303546E+01  0.00000000000E+00 0. -1.
         -2   -1    0    0    0  501 -0.00000000000E+00 -0.00000000000E+00 -0.38087632671E+03  0.38087632671E+03  0.00000000000E+00 0.  1.
          1    1    1    2  502    0  0.26585463374E+01  0.37588141999E+02 -0.10510245504E+03  0.11165331318E+03  0.00000000000E+00 0. -1.
         -1    1    1    2    0  501 -0.26585463374E+01 -0.37588141999E+02 -0.27119574131E+03  0.27380114388E+03  0.00000000000E+00 0.  1.
</event>
<event>
 4    1  0.6769686E+001  0.2068203E+02  0.7546771E-02  0.1523853E+00
          2   -1    0    0  502    0  0.00000000000E+00  0.00000000000E+00  0.29709411362E+01  0.29709411362E+01  0.00000000000E+00 0.  1.
         -2   -1    0    0    0  501 -0.00000000000E+00 -0.00000000000E+00 -0.14846776390E+03  0.14846776390E+03  0.00000000000E+00 0. -1.
          1    1    1    2  502    0  0.16183473203E+02 -0.12877943508E+02 -0.85917827233E+02  0.88372050278E+02  0.00000000000E+00 0.  1.
         -1    1    1    2    0  501 -0.16183473203E+02  0.12877943508E+02 -0.59578995526E+02  0.63066654753E+02  0.00000000000E+00 0. -1.
</event>
<event>
 4    1  0.6769686E+001  0.2019960E+02  0.7546771E-02  0.1531006E+00
          2   -1    0    0  502    0  0.00000000000E+00  0.00000000000E+00  0.35083125981E+03  0.35083125981E+03  0.00000000000E+00 0. -1.
         -2   -1    0    0    0  501 -0.00000000000E+00 -0.00000000000E+00 -0.13664984197E+01  0.13664984197E+01  0.00000000000E+00 0.  1.
          1    1    1    2  502    0 -0.15413271320E+02  0.13055834247E+02  0.10677896407E+03  0.10867276985E+03  0.00000000000E+00 0.  1.
         -1    1    1    2    0  501  0.15413271320E+02 -0.13055834247E+02  0.24268579733E+03  0.24352498838E+03  0.00000000000E+00 0. -1.
</event>
<event>
 4    1  0.6769686E+001  0.3694757E+02  0.7546771E-02  0.1367365E+00
          2   -1    0    0  502    0  0.00000000000E+00  0.00000000000E+00  0.10472474797E+03  0.10472474797E+03  0.00000000000E+00 0.  1.
         -2   -1    0    0    0  501 -0.00000000000E+00 -0.00000000000E+00 -0.20473554818E+02  0.20473554818E+02  0.00000000000E+00 0. -1.
          1    1    1    2  502    0 -0.56757909493E+01 -0.36509016358E+02  0.43939180440E+01  0.37207921121E+02  0.00000000000E+00 0. -1.
         -1    1    1    2    0  501  0.56757909493E+01  0.36509016358E+02  0.79857275107E+02  0.87990381667E+02  0.00000000000E+00 0.  1.
</event>
<event>
 4    1  0.6769686E+001  0.2488162E+02  0.7546771E-02  0.1470132E+00
          2   -1    0    0  502    0  0.00000000000E+00  0.00000000000E+00  0.10023740981E+04  0.10023740981E+04  0.00000000000E+00 0. -1.
         -2   -1    0    0    0  501 -0.00000000000E+00 -0.00000000000E+00 -0.84003361716E+00  0.84003361716E+00  0.00000000000E+00 0.  1.
          1    1    1    2  502    0  0.24821669983E+02  0.17262483163E+01  0.24266745827E+03  0.24393972726E+03  0.00000000000E+00 0.  1.
         -1    1    1    2    0  501 -0.24821669983E+02 -0.17262483163E+01  0.75886660623E+03  0.75927440447E+03  0.00000000000E+00 0. -1.
</event>
<event>
 4    1  0.6769686E+001  0.4317803E+02  0.7546771E-02  0.1330806E+00
          2   -1    0    0  502    0  0.00000000000E+00  0.00000000000E+00  0.10874383681E+04  0.10874383681E+04  0.00000000000E+00 0.  1.
         -2   -1    0    0    0  501 -0.00000000000E+00 -0.00000000000E+00 -0.17271063898E+01  0.17271063898E+01  0.00000000000E+00 0. -1.
          1    1    1    2  502    0  0.41916842411E+02 -0.10359552671E+02  0.58950250921E+03  0.59108167826E+03  0.00000000000E+00 0.  1.
         -1    1    1    2    0  501 -0.41916842411E+02  0.10359552671E+02  0.49620875247E+03  0.49808379620E+03  0.00000000000E+00 0. -1.
</event>
<event>
 4    1  0.6769686E+001  0.2337607E+02  0.7546771E-02  0.1487829E+00
          2   -1    0    0  502    0  0.00000000000E+00  0.00000000000E+00  0.84007337669E+02  0.84007337669E+02  0.00000000000E+00 0.  1.
         -2   -1    0    0    0  501 -0.00000000000E+00 -0.00000000000E+00 -0.65483384959E+01  0.65483384959E+01  0.00000000000E+00 0. -1.
          1    1    1    2  502    0  0.16991206495E+01 -0.23314238637E+02  0.35032398606E+02  0.42115432876E+02  0.00000000000E+00 0. -1.
         -1    1    1    2    0  501 -0.16991206495E+01  0.23314238637E+02  0.42426600567E+02  0.48440243289E+02  0.00000000000E+00 0.  1.
</event>
<event>
 4    1  0.6769686E+001  0.2057752E+02  0.7546771E-02  0.1525383E+00
          2   -1    0    0  502    0  0.00000000000E+00  0.00000000000E+00  0.38339619467E+03  0.38339619467E+03  0.00000000000E+00 0. -1.
         -2   -1    0    0    0  501 -0.00000000000E+00 -0.00000000000E+00 -0.11091086545E+01  0.11091086545E+01  0.00000000000E+00 0.  1.
          1    1    1    2  502    0 -0.91338961823E+01  0.18439260645E+02  0.17865736168E+03  0.17983850332E+03  0.00000000000E+00 0. -1.
         -1    1    1    2    0  501  0.91338961823E+01 -0.18439260645E+02  0.20362972434E+03  0.20466680001E+03  0.00000000000E+00 0.  1.
</event>
<event>
 4    1  0.6769686E+001  0.2627198E+02  0.7546771E-02  0.1455062E+00
          2   -1    0    0  502    0  0.00000000000E+00  0.00000000000E+00  0.23618268647E+01  0.23618268647E+01  0.00000000000E+00 0.  1.
         -2   -1    0    0    0  501 -0.00000000000E+00 -0.00000000000E+00 -0.30092045064E+03  0.30092045064E+03  0.00000000000E+00 0. -1.
          1    1    1    2  502    0  0.10026751899E+02  0.24283350372E+02 -0.17503650798E+03  0.17699716377E+03  0.00000000000E+00 0.  1.
         -1    1    1    2    0  501 -0.10026751899E+02 -0.24283350372E+02 -0.12352211580E+03  0.12628511373E+03  0.00000000000E+00 0. -1.
</event>
<event>
 4    1  0.6769686E+001  0.2430352E+02  0.7546771E-02  0.1476748E+00
          2   -1    0    0  502    0  0.00000000000E+00  0.00000000000E+00  0.85811291739E+03  0.85811291739E+03  0.00000000000E+00 0. -1.
         -2   -1    0    0    0  501 -0.00000000000E+00 -0.00000000000E+00 -0.73687177185E+00  0.73687177185E+00  0.00000000000E+00 0.  1.
          1    1    1    2  502    0 -0.21569299920E+02  0.11199398338E+02  0.31846608132E+03  0.31939208847E+03  0.00000000000E+00 0. -1.
         -1    1    1    2    0  501  0.21569299920E+02 -0.11199398338E+02  0.53890996429E+03  0.53945770069E+03  0.00000000000E+00 0.  1.
</event>
<event>
 4    1  0.6769686E+001  0.3364954E+02  0.7546771E-02  0.1390314E+00
          2   -1    0    0  502    0  0.00000000000E+00  0.00000000000E+00  0.48846781891E+01  0.48846781891E+01  0.00000000000E+00 0.  1.
         -2   -1    0    0    0  501 -0.00000000000E+00 -0.00000000000E+00 -0.25562115061E+03  0.25562115061E+03  0.00000000000E+00 0. -1.
          1    1    1    2  502    0 -0.31649161624E+02 -0.11428997151E+02 -0.85609965023E+02  0.91985637568E+02  0.00000000000E+00 0.  1.
         -1    1    1    2    0  501  0.31649161624E+02  0.11428997151E+02 -0.16512650740E+03  0.16852019123E+03  0.00000000000E+00 0. -1.
</event>
<event>
 4    1  0.6769686E+001  0.2089798E+02  0.7546771E-02  0.1520726E+00
          2   -1    0    0  502    0  0.00000000000E+00  0.00000000000E+00  0.12041919811E+04  0.12041919811E+04  0.00000000000E+00 0.  1.
         -2   -1    0    0    0  501 -0.00000000000E+00 -0.00000000000E+00 -0.38476657261E+00  0.38476657261E+00  0.00000000000E+00 0. -1.
          1    1    1    2  502    0 -0.50191758544E+00  0.20891954893E+02  0.74623369905E+03  0.74652626163E+03  0.00000000000E+00 0.  1.
         -1    1    1    2    0  501  0.50191758544E+00 -0.20891954893E+02  0.45757351543E+03  0.45805048600E+03  0.00000000000E+00 0. -1.
</event>
<event>
 4    1  0.6769686E+001  0.2273271E+02  0.7546771E-02  0.1495882E+00
          2   -1    0    0  502    0  0.00000000000E+00  0.00000000000E+00  0.15978226904E+04  0.15978226904E+04  0.00000000000E+00 0.  1.
         -2   -1    0    0    0  501 -0.00000000000E+00 -0.00000000000E+00 -0.33402676906E+00  0.33402676906E+00  0.00000000000E+00 0. -1.
          1    1    1    2  502    0 -0.10724684295E+02  0.20043888214E+02  0.94110218747E+03  0.94137670652E+03  0.00000000000E+00 0.  1.
         -1    1    1    2    0  501  0.10724684295E+02 -0.20043888214E+02  0.65638647616E+03  0.65678001065E+03  0.00000000000E+00 0. -1.
</event>
<event>
 4    1  0.6769686E+001  0.2637554E+02  0.7546771E-02  0.1453984E+00
          2   -1    0    0  502    0  0.00000000000E+00  0.00000000000E+00  0.17612492859E+04  0.17612492859E+04  0.00000000000E+00 0.  1.
         -2   -1    0    0    0  501 -0.00000000000E+00 -0.00000000000E+00 -0.40520345623E+00  0.40520345623E+00  0.00000000000E+00 0. -1.
          1    1    1    2  502    0  0.22050248678E+02  0.14472580541E+02  0.10202914116E+04  0.10206322715E+04  0.00000000000E+00 0.  1.
         -1    1    1    2    0  501 -0.22050248678E+02 -0.14472580541E+02  0.74055267092E+03  0.74102221793E+03  0.00000000000E+00 0. -1.
</event>
<event>
 4    1  0.6769686E+001  0.2086281E+02  0.7546771E-02  0.1521233E+00
          2   -1    0    0  502    0  0.00000000000E+00  0.00000000000E+00  0.21113426390E+03  0.21113426390E+03  0.00000000000E+00 0.  1.
         -2   -1    0    0    0  501 -0.00000000000E+00 -0.00000000000E+00 -0.25203965537E+01  0.25203965537E+01  0.00000000000E+00 0. -1.
          1    1    1    2  502    0 -0.20811757223E+02  0.14585737503E+01  0.58724476330E+02  0.62320308057E+02  0.00000000000E+00 0. -1.
         -1    1    1    2    0  501  0.20811757223E+02 -0.14585737503E+01  0.14988939102E+03  0.15133435240E+03  0.00000000000E+00 0.  1.
</event>
<event>
 4    1  0.6769686E+001  0.2398647E+02  0.7546771E-02  0.1480469E+00
          2   -1    0    0  502    0  0.00000000000E+00  0.00000000000E+00  0.93529790585E+03  0.93529790585E+03  0.00000000000E+00 0. -1.
         -2   -1    0    0    0  501 -0.00000000000E+00 -0.00000000000E+00 -0.80957012780E+00  0.80957012780E+00  0.00000000000E+00 0.  1.
          1    1    1    2  502    0 -0.21403963116E+02  0.10826876071E+02  0.69661397830E+03  0.69702681845E+03  0.00000000000E+00 0. -1.
         -1    1    1    2    0  501  0.21403963116E+02 -0.10826876071E+02  0.23787435742E+03  0.23908065752E+03  0.00000000000E+00 0.  1.
</event>
<event>
 4    1  0.6769686E+001  0.2260636E+02  0.7546771E-02  0.1497501E+00
          2   -1    0    0  502    0  0.00000000000E+00  0.00000000000E+00  0.50760063973E+02  0.50760063973E+02  0.00000000000E+00 0.  1.
         -2   -1    0    0    0  501 -0.00000000000E+00 -0.00000000000E+00 -0.10077960787E+02  0.10077960787E+02  0.00000000000E+00 0. -1.
          1    1    1    2  502    0 -0.12418745409E+01  0.22572222915E+02  0.21301928475E+02  0.31061546266E+02  0.00000000000E+00 0.  1.
         -1    1    1    2    0  501  0.12418745409E+01 -0.22572222915E+02  0.19380174712E+02  0.29776478495E+02  0.00000000000E+00 0. -1.
</event>
<event>
 4    1  0.6769686E+001  0.2817839E+02  0.7546771E-02  0.1436117E+00
          2   -1    0    0  502    0  0.00000000000E+00  0.00000000000E+00  0.22923229442E+04  0.22923229442E+04  0.00000000000E+00 0.  1.
         -2   -1    0    0    0  501 -0.00000000000E+00 -0.00000000000E+00 -0.35343496108E+00  0.35343496108E+00  0.00000000000E+00 0. -1.
          1    1    1    2  502    0 -0.41636724063E+01  0.27869079866E+02  0.98406051803E+03  0.98446387690E+03  0.00000000000E+00 0. -1.
         -1    1    1    2    0  501  0.41636724063E+01 -0.27869079866E+02  0.13079089912E+04  0.13082125023E+04  0.00000000000E+00 0.  1.
</event>
<event>
 4    1  0.6769686E+001  0.2021305E+02  0.7546771E-02  0.1530803E+00
          2   -1    0    0  502    0  0.00000000000E+00  0.00000000000E+00  0.24299765327E+04  0.24299765327E+04  0.00000000000E+00 0. -1.
         -2   -1    0    0    0  501 -0.00000000000E+00 -0.00000000000E+00 -0.16893271826E+00  0.16893271826E+00  0.00000000000E+00 0.  1.
          1    1    1    2  502    0 -0.15828736076E+02 -0.12570549129E+02  0.11314820685E+04  0.11316625994E+04  0.00000000000E+00 0.  1.
         -1    1    1    2    0  501  0.15828736076E+02  0.12570549129E+02  0.12983255315E+04  0.12984828660E+04  0.00000000000E+00 0. -1.
</event>
<event>
 4    1  0.6769686E+001  0.7290880E+02  0.7546771E-02  0.1221342E+00
          2   -1    0    0  502    0  0.00000000000E+00  0.00000000000E+00  0.17825066498E+03  0.17825066498E+03  0.00000000000E+00 0.  1.
         -2   -1    0    0    0  501 -0.00000000000E+00 -0.00000000000E+00 -0.33904111067E+02  0.33904111067E+02  0.00000000000E+00 0. -1.
          1    1    1    2  502    0  0.66005222200E+02  0.30967794955E+02  0.10898347755E+03  0.13112243157E+03  0.00000000000E+00 0.  1.
         -1    1    1    2    0  501 -0.66005222200E+02 -0.30967794955E+02  0.35363076370E+02  0.81032344483E+02  0.00000000000E+00 0. -1.
</event>
<event>
 4    1  0.6769686E+001  0.2205344E+02  0.7546771E-02  0.1504739E+00
          2   -1    0    0  502    0  0.00000000000E+00  0.00000000000E+00  0.46915715177E+00  0.46915715177E+00  0.00000000000E+00 0. -1.
         -2   -1    0    0    0  501 -0.00000000000E+00 -0.00000000000E+00 -0.14592466425E+04  0.14592466425E+04  0.00000000000E+00 0.  1.
          1    1    1    2  502    0 -0.50593747270E+01 -0.21465254256E+02 -0.33662256815E+03  0.33734419781E+03  0.00000000000E+00 0. -1.
         -1    1    1    2    0  501  0.50593747270E+01  0.21465254256E+02 -0.11221549172E+04  0.11223716019E+04  0.00000000000E+00 0.  1.
</event>
<event>
 4    1  0.6769686E+001  0.2016456E+02  0.7546771E-02  0.1531535E+00
          2   -1    0    0  502    0  0.00000000000E+00  0.00000000000E+00  0.15817753326E+04  0.15817753326E+04  0.00000000000E+00 0.  1.
         -2   -1    0    0    0  501 -0.00000000000E+00 -0.00000000000E+00 -0.27390962215E+00  0.27390962215E+00  0.00000000000E+00 0. -1.
          1    1    1    2  502    0 -0.81309566715E+01 -0.18452560287E+02  0.98694914263E+03  0.98715511425E+03  0.00000000000E+00 0. -1.
         -1    1    1    2    0  501  0.81309566715E+01  0.18452560287E+02  0.59455228037E+03  0.59489412800E+03  0.00000000000E+00 0.  1.
</event>
<event>
 4    1  0.6769686E+001  0.2039299E+02  0.7546771E-02  0.1528111E+00
          2   -1    0    0  502    0  0.00000000000E+00  0.00000000000E+00  0.15013907956E+03  0.15013907956E+03  0.00000000000E+00 0. -1.
         -2   -1    0    0    0  501 -0.00000000000E+00 -0.00000000000E+00 -0.36710241932E+01  0.36710241932E+01  0.00000000000E+00 0.  1.
          1    1    1    2  502    0  0.15882508309E+02  0.12791399140E+02  0.11133601176E+03  0.11318825680E+03  0.00000000000E+00 0. -1.
         -1    1    1    2    0  501 -0.15882508309E+02 -0.12791399140E+02  0.35132043608E+02  0.40621846957E+02  0.00000000000E+00 0.  1.
</event>
<event>
 4    1  0.6769686E+001  0.2113134E+02  0.7546771E-02  0.1517398E+00
          2   -1    0    0  502    0  0.00000000000E+00  0.00000000000E+00  0.12934001313E+04  0.12934001313E+04  0.00000000000E+00 0. -1.
         -2   -1    0    0    0  501 -0.00000000000E+00 -0.00000000000E+00 -0.36387669891E+00  0.36387669891E+00  0.00000000000E+00 0.  1.
          1    1    1    2  502    0  0.20391966350E+02 -0.55408868099E+01  0.50012181862E+03  0.50056804450E+03  0.00000000000E+00 0.  1.
         -1    1    1    2    0  501 -0.20391966350E+02  0.55408868099E+01  0.79291443598E+03  0.79319596349E+03  0.00000000000E+00 0. -1.
</event>
<event>
 4    1  0.6769686E+001  0.5288967E+02  0.7546771E-02  0.1286108E+00
          2   -1    0    0  502    0  0.00000000000E+00  0.00000000000E+00  0.25518213402E+02  0.25518213402E+02  0.00000000000E+00 0.  1.
         -2   -1    0    0    0  501 -0.00000000000E+00 -0.00000000000E+00 -0.11977443840E+03  0.11977443840E+03  0.00000000000E+00 0. -1.
          1    1    1    2  502    0 -0.51334168744E+02  0.12732641632E+02 -0.25976146170E+02  0.58924334646E+02  0.00000000000E+00 0.  1.
         -1    1    1    2    0  501  0.51334168744E+02 -0.12732641632E+02 -0.68280078827E+02  0.86368317155E+02  0.00000000000E+00 0. -1.
</event>
<event>
 4    1  0.6769686E+001  0.2056856E+02  0.7546771E-02  0.1525515E+00
          2   -1    0    0  502    0  0.00000000000E+00  0.00000000000E+00  0.49603532108E+03  0.49603532108E+03  0.00000000000E+00 0. -1.
         -2   -1    0    0    0  501 -0.00000000000E+00 -0.00000000000E+00 -0.87765810180E+00  0.87765810180E+00  0.00000000000E+00 0.  1.
          1    1    1    2  502    0 -0.19422972934E+02 -0.67685906992E+01  0.20584422467E+03  0.20686930784E+03  0.00000000000E+00 0. -1.
         -1    1    1    2    0  501  0.19422972934E+02  0.67685906992E+01  0.28931343831E+03  0.29004367134E+03  0.00000000000E+00 0.  1.
</event>
<event>
 4    1  0.6769686E+001  0.2725056E+02  0.7546771E-02  0.1445107E+00
          2   -1    0    0  502    0  0.00000000000E+00  0.00000000000E+00  0.34927011256E+03  0.34927011256E+03  0.00000000000E+00 0. -1.
         -2   -1    0    0    0  501 -0.00000000000E+00 -0.00000000000E+00 -0.30154584778E+01  0.30154584778E+01  0.00000000000E+00 0.  1.
          1    1    1    2  502    0  0.27206364875E+02 -0.15513803877E+01  0.26878497502E+03  0.27016283213E+03  0.00000000000E+00 0. -1.
         -1    1    1    2    0  501 -0.27206364875E+02  0.15513803877E+01  0.77469679063E+02  0.82122738903E+02  0.00000000000E+00 0.  1.
</event>
<event>
 4    1  0.6769686E+001  0.3801986E+02  0.7546771E-02  0.1360497E+00
          2   -1    0    0  502    0  0.00000000000E+00  0.00000000000E+00  0.56471737351E+03  0.56471737351E+03  0.00000000000E+00 0.  1.
         -2   -1    0    0    0  501 -0.00000000000E+00 -0.00000000000E+00 -0.36048002323E+01  0.36048002323E+01  0.00000000000E+00 0. -1.
          1    1    1    2  502    0 -0.10766138259E+02  0.36463677007E+02  0.12755253198E+03  0.13309830160E+03  0.00000000000E+00 0. -1.
         -1    1    1    2    0  501  0.10766138259E+02 -0.36463677007E+02  0.43356004129E+03  0.43522387214E+03  0.00000000000E+00 0.  1.
</event>
<event>
 4    1  0.6769686E+001  0.3309087E+02  0.7546771E-02  0.1394506E+00
          2   -1    0    0  502    0  0.00000000000E+00  0.00000000000E+00  0.21558395272E+04  0.21558395272E+04  0.00000000000E+00 0. -1.
         -2   -1    0    0    0  501 -0.00000000000E+00 -0.00000000000E+00 -0.58358874573E+00  0.58358874573E+00  0.00000000000E+00 0.  1.
          1    1    1    2  502    0  0.31779901751E+01  0.32937911156E+02  0.14658617798E+04  0.14662352346E+04  0.00000000000E+00 0. -1.
         -1    1    1    2    0  501 -0.31779901751E+01 -0.32937911156E+02  0.68939415865E+03  0.69018788138E+03  0.00000000000E+00 0.  1.
</event>
<event>
 4    1  0.6769686E+001  0.2119468E+02  0.7546771E-02  0.1516503E+00
          2   -1    0    0  502    0  0.00000000000E+00  0.00000000000E+00  0.10605645950E+04  0.10605645950E+04  0.00000000000E+00 0. -1.
         -2   -1    0    0    0  501 -0.00000000000E+00 -0.00000000000E+00 -0.43524828300E+00  0.43524828300E+00  0.00000000000E+00 0.  1.
          1    1    1    2  502    0  0.34894795396E+00  0.21191808611E+02  0.44313640691E+03  0.44364297543E+03  0.00000000000E+00 0.  1.
         -1    1    1    2    0  501 -0.34894795396E+00 -0.21191808611E+02  0.61699293979E+03  0.61735686784E+03  0.00000000000E+00 0. -1.
</event>
<event>
 4    1  0.6769686E+001  0.2207892E+02  0.7546771E-02  0.1504400E+00
          2   -1    0    0  502    0  0.00000000000E+00  0.00000000000E+00  0.43750457641E+03  0.43750457641E+03  0.00000000000E+00 0.  1.
         -2   -1    0    0    0  501 -0.00000000000E+00 -0.00000000000E+00 -0.12246585448E+01  0.12246585448E+01  0.00000000000E+00 0. -1.
          1    1    1    2  502    0 -0.21404031656E+02  0.54172044018E+01  0.28401318858E+03  0.28487009314E+03  0.00000000000E+00 0.  1.
         -1    1    1    2    0  501  0.21404031656E+02 -0.54172044018E+01  0.15226672928E+03  0.15385914181E+03  0.00000000000E+00 0. -1.
</event>
<event>
 4    1  0.6769686E+001  0.2735522E+02  0.7546771E-02  0.1444072E+00
          2   -1    0    0  502    0  0.00000000000E+00  0.00000000000E+00  0.17057381385E+04  0.17057381385E+04  0.00000000000E+00 0. -1.
         -2   -1    0    0    0  501 -0.00000000000E+00 -0.00000000000E+00 -0.66241879520E+00  0.66241879520E+00  0.00000000000E+00 0.  1.
          1    1    1    2  502    0 -0.19245213155E+02 -0.19440423570E+02  0.13483707661E+04  0.13486482237E+04  0.00000000000E+00 0. -1.
         -1    1    1    2    0  501  0.19245213155E+02  0.19440423570E+02  0.35670495362E+03  0.35775233366E+03  0.00000000000E+00 0.  1.
</event>
<event>
 4    1  0.6769686E+001  0.2196054E+02  0.7546771E-02  0.1505980E+00
          2   -1    0    0  502    0  0.00000000000E+00  0.00000000000E+00  0.61894396700E+02  0.61894396700E+02  0.00000000000E+00 0.  1.
         -2   -1    0    0    0  501 -0.00000000000E+00 -0.00000000000E+00 -0.84148320506E+01  0.84148320506E+01  0.00000000000E+00 0. -1.
          1    1    1    2  502    0 -0.11166563628E+02  0.18909607387E+02  0.36305856777E+02  0.42430892415E+02  0.00000000000E+00 0. -1.
         -1    1    1    2    0  501  0.11166563628E+02 -0.18909607387E+02  0.17173707873E+02  0.27878336336E+02  0.00000000000E+00 0.  1.
</event>
<event>
 4    1  0.6769686E+001  0.2642295E+02  0.7546771E-02  0.1453492E+00
          2   -1    0    0  502    0  0.00000000000E+00  0.00000000000E+00  0.12330242065E+04  0.12330242065E+04  0.00000000000E+00 0. -1.
         -2   -1    0    0    0  501 -0.00000000000E+00 -0.00000000000E+00 -0.58269001596E+00  0.58269001596E+00  0.00000000000E+00 0.  1.
          1    1    1    2  502    0 -0.26227527896E+02  0.32076316933E+01  0.51254502703E+03  0.51322565880E+03  0.00000000000E+00 0. -1.
         -1    1    1    2    0  501  0.26227527896E+02 -0.32076316933E+01  0.71989648949E+03  0.72038123775E+03  0.00000000000E+00 0.  1.
</event>
<event>
 4    1  0.6769686E+001  0.2535153E+02  0.7546771E-02  0.1464909E+00
          2   -1    0    0  502    0  0.00000000000E+00  0.00000000000E+00  0.98745609570E+02  0.98745609570E+02  0.00000000000E+00 0.  1.
         -2   -1    0    0    0  501 -0.00000000000E+00 -0.00000000000E+00 -0.71466643677E+01  0.71466643677E+01  0.00000000000E+00 0. -1.
          1    1    1    2  502    0 -0.64577180188E+01  0.24515256810E+02  0.61619241519E+02  0.66630555032E+02  0.00000000000E+00 0.  1.
         -1    1    1    2    0  501  0.64577180188E+01 -0.24515256810E+02  0.29979703683E+02  0.39261718906E+02  0.00000000000E+00 0. -1.
</event>
<event>
 4    1  0.6769686E+001  0.2023679E+02  0.7546771E-02  0.1530446E+00
          2   -1    0    0  502    0  0.00000000000E+00  0.00000000000E+00  0.11879851822E+04  0.11879851822E+04  0.00000000000E+00 0.  1.
         -2   -1    0    0    0  501 -0.00000000000E+00 -0.00000000000E+00 -0.50353210513E+00  0.50353210513E+00  0.00000000000E+00 0. -1.
          1    1    1    2  502    0 -0.12969000454E+02 -0.15534890002E+02  0.26001722354E+03  0.26080353586E+03  0.00000000000E+00 0. -1.
         -1    1    1    2    0  501  0.12969000454E+02  0.15534890002E+02  0.92746442654E+03  0.92768517843E+03  0.00000000000E+00 0.  1.
</event>
<event>
 4    1  0.6769686E+001  0.2533508E+02  0.7546771E-02  0.1465089E+00
          2   -1    0    0  502    0  0.00000000000E+00  0.00000000000E+00  0.12721680175E+04  0.12721680175E+04  0.00000000000E+00 0. -1.
         -2   -1    0    0    0  501 -0.00000000000E+00 -0.00000000000E+00 -0.85675296798E+00  0.85675296798E+00  0.00000000000E+00 0.  1.
          1    1    1    2  502    0  0.24431737241E+02 -0.67049733039E+01  0.22754451518E+03  0.22895059039E+03  0.00000000000E+00 0.  1.
         -1    1    1    2    0  501 -0.24431737241E+02  0.67049733039E+01  0.10437667494E+04  0.10440741801E+04  0.00000000000E+00 0. -1.
</event>
<event>
 4    1  0.6769686E+001  0.2082377E+02  0.7546771E-02  0.1521796E+00
          2   -1    0    0  502    0  0.00000000000E+00  0.00000000000E+00  0.11422595243E+02  0.11422595243E+02  0.00000000000E+00 0.  1.
         -2   -1    0    0    0  501 -0.00000000000E+00 -0.00000000000E+00 -0.40407560258E+02  0.40407560258E+02  0.00000000000E+00 0. -1.
          1    1    1    2  502    0  0.17863360172E+02  0.10701851814E+02 -0.81175765391E+01  0.22350040665E+02  0.00000000000E+00 0.  1.
         -1    1    1    2    0  501 -0.17863360172E+02 -0.10701851814E+02 -0.20867388476E+02  0.29480114835E+02  0.00000000000E+00 0. -1.
</event>
<event>
 4    1  0.6769686E+001  0.2175803E+02  0.7546771E-02  0.1508712E+00
          2   -1    0    0  502    0  0.00000000000E+00  0.00000000000E+00  0.18700275756E+04  0.18700275756E+04  0.00000000000E+00 0. -1.
         -2   -1    0    0    0  501 -0.00000000000E+00 -0.00000000000E+00 -0.33907787266E+00  0.33907787266E+00  0.00000000000E+00 0.  1.
          1    1    1    2  502    0  0.18808195090E+02 -0.10939096911E+02  0.46408985794E+03  0.46459962149E+03  0.00000000000E+00 0.  1.
         -1    1    1    2    0  501 -0.18808195090E+02  0.10939096911E+02  0.14055986398E+04  0.14057670320E+04  0.00000000000E+00 0. -1.
</event>
<event>
 4    1  0.6769686E+001  0.3038089E+02  0.7546771E-02  0.1416315E+00
          2   -1    0    0  502    0  0.00000000000E+00  0.00000000000E+00  0.10908615564E+04  0.10908615564E+04  0.00000000000E+00 0.  1.
         -2   -1    0    0    0  501 -0.00000000000E+00 -0.00000000000E+00 -0.10502948142E+01  0.10502948142E+01  0.00000000000E+00 0. -1.
          1    1    1    2  502    0  0.12677195054E+02 -0.27609549644E+02  0.78562126617E+03  0.78620847895E+03  0.00000000000E+00 0.  1.
         -1    1    1    2    0  501 -0.12677195054E+02  0.27609549644E+02  0.30418999545E+03  0.30570337230E+03  0.00000000000E+00 0. -1.
</event>
<event>
 4    1  0.6769686E+001  0.2466248E+02  0.7546771E-02  0.1472615E+00
          2   -1    0    0  502    0  0.00000000000E+00  0.00000000000E+00  0.47663110606E+03  0.47663110606E+03  0.00000000000E+00 0. -1.
         -2   -1    0    0    0  501 -0.00000000000E+00 -0.00000000000E+00 -0.14396746317E+01  0.14396746317E+01  0.00000000000E+00 0.  1.
          1    1    1    2  502    0 -0.18009713431E+02  0.16848979700E+02  0.15702761931E+03  0.15895254361E+03  0.00000000000E+00 0.  1.
         -1    1    1    2    0  501  0.18009713431E+02 -0.16848979700E+02  0.31816381211E+03  0.31911823707E+03  0.00000000000E+00 0. -1.
</event>
<event>
 4    1  0.6769686E+001  0.2670885E+02  0.7546771E-02  0.1450555E+00
          2   -1    0    0  502    0  0.00000000000E+00  0.00000000000E+00  0.10723723254E+03  0.10723723254E+03  0.00000000000E+00 0.  1.
         -2   -1    0    0    0  501 -0.00000000000E+00 -0.00000000000E+00 -0.70929491860E+01  0.70929491860E+01  0.00000000000E+00 0. -1.
          1    1    1    2  502    0 -0.25005784411E+02  0.93847454369E+01  0.35822071981E+02  0.44683146061E+02  0.00000000000E+00 0. -1.
         -1    1    1    2    0  501  0.25005784411E+02 -0.93847454369E+01  0.64322211369E+02  0.69647035661E+02  0.00000000000E+00 0.  1.
</event>
<event>
 4    1  0.6769686E+001  0.3401243E+02  0.7546771E-02  0.1387642E+00
          2   -1    0    0  502    0  0.00000000000E+00  0.00000000000E+00  0.38299061377E+01  0.38299061377E+01  0.00000000000E+00 0.  1.
         -2   -1    0    0    0  501 -0.00000000000E+00 -0.00000000000E+00 -0.45756503839E+03  0.45756503839E+03  0.00000000000E+00 0. -1.
          1    1    1    2  502    0 -0.65576911641E+01  0.33374269813E+02 -0.36135898520E+03  0.36295614251E+03  0.00000000000E+00 0. -1.
         -1    1    1    2    0  501  0.65576911641E+01 -0.33374269813E+02 -0.92376147047E+02  0.98438802015E+02  0.00000000000E+00 0.  1.
</event>
<event>
 4    1  0.6769686E+001  0.4075909E+02  0.7546771E-02  0.1344094E+00
          2   -1    0    0  502    0  0.00000000000E+00  0.00000000000E+00  0.18007280207E+04  0.18007280207E+04  0.00000000000E+00 0. -1.
         -2   -1    0    0    0  501 -0.00000000000E+00 -0.00000000000E+00 -0.10446400723E+01  0.10446400723E+01  0.00000000000E+00 0.  1.
          1    1    1    2  502    0 -0.28570945643E+02  0.29068961709E+02  0.12077954484E+04  0.12084829947E+04  0.00000000000E+00 0. -1.
         -1    1    1    2    0  501  0.28570945643E+02 -0.29068961709E+02  0.59188793230E+03  0.59328966607E+03  0.00000000000E+00 0.  1.
</event>
<event>
 4    1  0.6769686E+001  0.3860955E+02  0.7546771E-02  0.1356832E+00
          2   -1    0    0  502    0  0.00000000000E+00  0.00000000000E+00  0.20984919852E+04  0.20984919852E+04  0.00000000000E+00 0.  1.
         -2   -1    0    0    0  501 -0.00000000000E+00 -0.00000000000E+00 -0.14607711882E+01  0.14607711882E+01  0.00000000000E+00 0. -1.
          1    1    1    2  502    0 -0.31310882610E+02 -0.22590394960E+02  0.29596388916E+03  0.29847164188E+03  0.00000000000E+00 0. -1.
         -1    1    1    2    0  501  0.31310882610E+02  0.22590394960E+02  0.18010673249E+04  0.18014811145E+04  0.00000000000E+00 0.  1.
</event>
<event>
 4    1  0.6769686E+001  0.4558618E+02  0.7546771E-02  0.1318534E+00
          2   -1    0    0  502    0  0.00000000000E+00  0.00000000000E+00  0.66052736722E+03  0.66052736722E+03  0.00000000000E+00 0. -1.
         -2   -1    0    0    0  501 -0.00000000000E+00 -0.00000000000E+00 -0.37843791691E+01  0.37843791691E+01  0.00000000000E+00 0.  1.
          1    1    1    2  502    0  0.43243060492E+02 -0.14426959958E+02  0.46478035494E+03  0.46701057567E+03  0.00000000000E+00 0. -1.
         -1    1    1    2    0  501 -0.43243060492E+02  0.14426959958E+02  0.19196263312E+03  0.19730117072E+03  0.00000000000E+00 0.  1.
</event>
<event>
 4    1  0.6769686E+001  0.2199793E+02  0.7546771E-02  0.1505480E+00
          2   -1    0    0  502    0  0.00000000000E+00  0.00000000000E+00  0.56623437953E+02  0.56623437953E+02  0.00000000000E+00 0. -1.
         -2   -1    0    0    0  501 -0.00000000000E+00 -0.00000000000E+00 -0.86789778027E+01  0.86789778027E+01  0.00000000000E+00 0.  1.
          1    1    1    2  502    0 -0.34244705278E+01 -0.21729743801E+02  0.19931924233E+02  0.29684850811E+02  0.00000000000E+00 0.  1.
         -1    1    1    2    0  501  0.34244705278E+01  0.21729743801E+02  0.28012535917E+02  0.35617564944E+02  0.00000000000E+00 0. -1.
</event>
<event>
 4    1  0.6769686E+001  0.2016313E+02  0.7546771E-02  0.1531556E+00
          2   -1    0    0  502    0  0.00000000000E+00  0.00000000000E+00  0.50399506700E+03  0.50399506700E+03  0.00000000000E+00 0. -1.
         -2   -1    0    0    0  501 -0.00000000000E+00 -0.00000000000E+00 -0.16105806513E+01  0.16105806513E+01  0.00000000000E+00 0.  1.
          1    1    1    2  502    0  0.11037941422E+02 -0.16873524177E+02  0.72585584736E+02  0.75334049941E+02  0.00000000000E+00 0.  1.
         -1    1    1    2    0  501 -0.11037941422E+02  0.16873524177E+02  0.42979890161E+03  0.43027159771E+03  0.00000000000E+00 0. -1.
</event>
<event>
 4    1  0.6769686E+001  0.2832200E+02  0.7546771E-02  0.1434762E+00
          2   -1    0    0  502    0  0.00000000000E+00  0.00000000000E+00  0.58866305091E+03  0.58866305091E+03  0.00000000000E+00 0.  1.
         -2   -1    0    0    0  501 -0.00000000000E+00 -0.00000000000E+00 -0.13652049327E+01  0.13652049327E+01  0.00000000000E+00 0. -1.
          1    1    1    2  502    0  0.23956201817E+02  0.15107474867E+02  0.30643807915E+03  0.30774410109E+03  0.00000000000E+00 0. -1.
         -1    1    1    2    0  501 -0.23956201817E+02 -0.15107474867E+02  0.28085976683E+03  0.28228415475E+03  0.00000000000E+00 0.  1.
</event>
<event>
 4    1  0.6769686E+001  0.2173004E+02  0.7546771E-02  0.1509092E+00
          2   -1    0    0  502    0  0.00000000000E+00  0.00000000000E+00  0.15184669987E+04  0.15184669987E+04  0.00000000000E+00 0. -1.
         -2   -1    0    0    0  501 -0.00000000000E+00 -0.00000000000E+00 -0.31139925691E+00  0.31139925691E+00  0.00000000000E+00 0.  1.
          1    1    1    2  502    0 -0.21667767292E+02 -0.16438927450E+01  0.73081505031E+03  0.73113803914E+03  0.00000000000E+00 0. -1.
         -1    1    1    2    0  501  0.21667767292E+02  0.16438927450E+01  0.78734054913E+03  0.78764035881E+03  0.00000000000E+00 0.  1.
</event>
<event>
 4    1  0.6769686E+001  0.2001738E+02  0.7546771E-02  0.1533770E+00
          2   -1    0    0  502    0  0.00000000000E+00  0.00000000000E+00  0.61754932812E+02  0.61754932812E+02  0.00000000000E+00 0. -1.
         -2   -1    0    0    0  501 -0.00000000000E+00 -0.00000000000E+00 -0.72236260819E+01  0.72236260819E+01  0.00000000000E+00 0.  1.
          1    1    1    2  502    0 -0.19662815404E+02  0.37508882474E+01  0.16263083142E+02  0.25791148589E+02  0.00000000000E+00 0.  1.
         -1    1    1    2    0  501  0.19662815404E+02 -0.37508882474E+01  0.38268223588E+02  0.43187410304E+02  0.00000000000E+00 0. -1.
</event>
<event>
 4    1  0.6769686E+001  0.2245075E+02  0.7546771E-02  0.1499513E+00
          2   -1    0    0  502    0  0.00000000000E+00  0.00000000000E+00  0.98236946131E+03  0.98236946131E+03  0.00000000000E+00 0.  1.
         -2   -1    0    0    0  501 -0.00000000000E+00 -0.00000000000E+00 -0.51443079431E+00  0.51443079431E+00  0.00000000000E+00 0. -1.
          1    1    1    2  502    0 -0.21967011103E+02 -0.46353846854E+01  0.51608896786E+03  0.51657706019E+03  0.00000000000E+00 0. -1.
         -1    1    1    2    0  501  0.21967011103E+02  0.46353846854E+01  0.46576606265E+03  0.46630683191E+03  0.00000000000E+00 0.  1.
</event>
<event>
 4    1  0.6769686E+001  0.2546228E+02  0.7546771E-02  0.1463698E+00
          2   -1    0    0  502    0  0.00000000000E+00  0.00000000000E+00  0.83390879381E+03  0.83390879381E+03  0.00000000000E+00 0.  1.
         -2   -1    0    0    0  501 -0.00000000000E+00 -0.00000000000E+00 -0.94376748353E+00  0.94376748353E+00  0.00000000000E+00 0. -1.
          1    1    1    2  502    0 -0.12365044653E+02  0.22258334959E+02  0.24125279549E+03  0.24259274337E+03  0.00000000000E+00 0. -1.
         -1    1    1    2    0  501  0.12365044653E+02 -0.22258334959E+02  0.59171223084E+03  0.59225981792E+03  0.00000000000E+00 0.  1.
</event>
<event>
 4    1  0.6769686E+001  0.2875069E+02  0.7546771E-02  0.1430773E+00
          2   -1    0    0  502    0  0.00000000000E+00  0.00000000000E+00  0.15076053392E+01  0.15076053392E+01  0.00000000000E+00 0.  1.
         -2   -1    0    0    0  501 -0.00000000000E+00 -0.00000000000E+00 -0.61576644859E+03  0.61576644859E+03  0.00000000000E+00 0. -1.
          1    1    1    2  502    0  0.22760027562E+02 -0.17566540033E+02 -0.20495975170E+03  0.20696642723E+03  0.00000000000E+00 0. -1.
         -1    1    1    2    0  501 -0.22760027562E+02  0.17566540033E+02 -0.40929909155E+03  0.41030762670E+03  0.00000000000E+00 0.  1.
</event>
<event>
 4    1  0.6769686E+001  0.2927324E+02  0.7546771E-02  0.1426019E+00
          2   -1    0    0  502    0  0.00000000000E+00  0.00000000000E+00  0.50113093869E+01  0.50113093869E+01  0.00000000000E+00 0. -1.
         -2   -1    0    0    0  501 -0.00000000000E+00 -0.00000000000E+00 -0.17099790198E+03  0.17099790198E+03  0.00000000000E+00 0.  1.
          1    1    1    2  502    0  0.21537037558E+02 -0.19826216867E+02 -0.82924132484E+02  0.87939380315E+02  0.00000000000E+00 0. -1.
         -1    1    1    2    0  501 -0.21537037558E+02  0.19826216867E+02 -0.83062460108E+02  0.88069831051E+02  0.00000000000E+00 0.  1.
</event>
<event>
 4    1  0.6769686E+001  0.2439041E+02  0.7546771E-02  0.1475740E+00
          2   -1    0    0  502    0  0.00000000000E+00  0.00000000000E+00  0.34425973661E+02  0.34425973661E+02  0.00000000000E+00 0.  1.
         -2   -1    0    0    0  501 -0.00000000000E+00 -0.00000000000E+00 -0.23060166190E+02  0.23060166190E+02  0.00000000000E+00 0. -1.
          1    1    1    2  502    0 -0.84030983982E+01 -0.22897159648E+02  0.20072874823E+02  0.31588166871E+02  0.00000000000E+00 0.  1.
         -1    1    1    2    0  501  0.84030983982E+01  0.22897159648E+02 -0.87070673516E+01  0.25897972980E+02  0.00000000000E+00 0. -1.
</event>
<event>
 4    1  0.6769686E+001  0.2178634E+02  0.7546771E-02  0.1508328E+00
          2   -1    0    0  502    0  0.00000000000E+00  0.00000000000E+00  0.77603949971E+02  0.77603949971E+02  0.00000000000E+00 0. -1.
         -2   -1    0    0    0  501 -0.00000000000E+00 -0.00000000000E+00 -0.86318446948E+01  0.86318446948E+01  0.00000000000E+00 0.  1.
          1    1    1    2  502    0 -0.72398815073E+01  0.20548205998E+02  0.11209071107E+02  0.24500774050E+02  0.00000000000E+00 0. -1.
         -1    1    1    2    0  501  0.72398815073E+01 -0.20548205998E+02  0.57763034170E+02  0.61735020616E+02  0.00000000000E+00 0.  1.
</event>
<event>
 4    1  0.6769686E+001  0.2540143E+02  0.7546771E-02  0.1464362E+00
          2   -1    0    0  502    0  0.00000000000E+00  0.00000000000E+00  0.70486538999E+01  0.70486538999E+01  0.00000000000E+00 0. -1.
         -2   -1    0    0    0  501 -0.00000000000E+00 -0.00000000000E+00 -0.11300148686E+03  0.11300148686E+03  0.00000000000E+00 0.  1.
          1    1    1    2  502    0  0.24707893519E+02 -0.58951546988E+01 -0.79135458350E+02  0.83112295236E+02  0.00000000000E+00 0.  1.
         -1    1    1    2    0  501 -0.24707893519E+02  0.58951546988E+01 -0.26817374614E+02  0.36937845528E+02  0.00000000000E+00 0. -1.
</event>
<event>
 4    1  0.6769686E+001  0.2344403E+02  0.7546771E-02  0.1486996E+00
          2   -1    0    0  502    0  0.00000000000E+00  0.00000000000E+00  0.16055894844E+04  0.16055894844E+04  0.00000000000E+00 0.  1.
         -2   -1    0    0    0  501 -0.00000000000E+00 -0.00000000000E+00 -0.34553128199E+00  0.34553128199E+00  0.00000000000E+00 0. -1.
          1    1    1    2  502    0 -0.15098477850E+02  0.17934835822E+02  0.88005403114E+03  0.88036624203E+03  0.00000000000E+00 0.  1.
         -1    1    1    2    0  501  0.15098477850E+02 -0.17934835822E+02  0.72518992193E+03  0.72556877361E+03  0.00000000000E+00 0. -1.
</event>
<event>
 4    1  0.6769686E+001  0.2231643E+02  0.7546771E-02  0.1501265E+00
          2   -1    0    0  502    0  0.00000000000E+00  0.00000000000E+00  0.21488435130E+04  0.21488435130E+04  0.00000000000E+00 0.  1.
         -2   -1    0    0    0  501 -0.00000000000E+00 -0.00000000000E+00 -0.26564764326E+00  0.26564764326E+00  0.00000000000E+00 0. -1.
          1    1    1    2  502    0 -0.85078870245E+01 -0.20631020275E+02  0.14580622775E+04  0.14582330501E+04  0.00000000000E+00 0.  1.
         -1    1    1    2    0  501  0.85078870245E+01  0.20631020275E+02  0.69051558785E+03  0.69087611061E+03  0.00000000000E+00 0. -1.
</event>
<event>
 4    1  0.6769686E+001  0.3270478E+02  0.7546771E-02  0.1397459E+00
          2   -1    0    0  502    0  0.00000000000E+00  0.00000000000E+00  0.66177135848E+02  0.66177135848E+02  0.00000000000E+00 0. -1.
         -2   -1    0    0    0  501 -0.00000000000E+00 -0.00000000000E+00 -0.99610148629E+02  0.99610148629E+02  0.00000000000E+00 0.  1.
          1    1    1    2  502    0 -0.32233573494E+02 -0.55316472285E+01  0.59154511924E+02  0.67593332971E+02  0.00000000000E+00 0. -1.
         -1    1    1    2    0  501  0.32233573494E+02  0.55316472285E+01 -0.92587524705E+02  0.98193951505E+02  0.00000000000E+00 0.  1.
</event>
<event>
 4    1  0.6769686E+001  0.2911679E+02  0.7546771E-02  0.1427430E+00
          2   -1    0    0  502    0  0.00000000000E+00  0.00000000000E+00  0.70488302697E+03  0.70488302697E+03  0.00000000000E+00 0.  1.
         -2   -1    0    0    0  501 -0.00000000000E+00 -0.00000000000E+00 -0.12258793951E+01  0.12258793951E+01  0.00000000000E+00 0. -1.
          1    1    1    2  502    0  0.17508417879E+02 -0.23264618548E+02  0.30331704893E+03  0.30471137055E+03  0.00000000000E+00 0.  1.
         -1    1    1    2    0  501 -0.17508417879E+02  0.23264618548E+02  0.40034009864E+03  0.40139753581E+03  0.00000000000E+00 0. -1.
</event>
<event>
 4    1  0.6769686E+001  0.4131523E+02  0.7546771E-02  0.1340946E+00
          2   -1    0    0  502    0  0.00000000000E+00  0.00000000000E+00  0.64386515700E+03  0.64386515700E+03  0.00000000000E+00 0.  1.
         -2   -1    0    0    0  501 -0.00000000000E+00 -0.00000000000E+00 -0.27823257676E+01  0.27823257676E+01  0.00000000000E+00 0. -1.
          1    1    1    2  502    0 -0.35734401612E+02 -0.20736465729E+02  0.25032325328E+03  0.25370983347E+03  0.00000000000E+00 0. -1.
         -1    1    1    2    0  501  0.35734401612E+02  0.20736465729E+02  0.39075957795E+03  0.39293764929E+03  0.00000000000E+00 0.  1.
</event>
<event>
 4    1  0.6769686E+001  0.2363714E+02  0.7546771E-02  0.1484649E+00
          2   -1    0    0  502    0  0.00000000000E+00  0.00000000000E+00  0.12801907945E+03  0.12801907945E+03  0.00000000000E+00 0. -1.
         -2   -1    0    0    0  501 -0.00000000000E+00 -0.00000000000E+00 -0.43665911697E+01  0.43665911697E+01  0.00000000000E+00 0.  1.
          1    1    1    2  502    0  0.18908367046E+01  0.23561386682E+02  0.60311392419E+02  0.64777914920E+02  0.00000000000E+00 0.  1.
         -1    1    1    2    0  501 -0.18908367046E+01 -0.23561386682E+02  0.63341095857E+02  0.67607755695E+02  0.00000000000E+00 0. -1.
</event>
<event>
 4    1  0.6769686E+001  0.2332133E+02  0.7546771E-02  0.1488502E+00
          2   -1    0    0  502    0  0.00000000000E+00  0.00000000000E+00  0.16484878280E+02  0.16484878280E+02  0.00000000000E+00 0.  1.
         -2   -1    0    0    0  501 -0.00000000000E+00 -0.00000000000E+00 -0.55622254948E+02  0.55622254948E+02  0.00000000000E+00 0. -1.
          1    1    1    2  502    0  0.21057263605E+02  0.10023773959E+02  0.34277067372E+01  0.23571880884E+02  0.00000000000E+00 0.  1.
         -1    1    1    2    0  501 -0.21057263605E+02 -0.10023773959E+02 -0.42565083405E+02  0.48535252345E+02  0.00000000000E+00 0. -1.
</event>
<event>
 4    1  0.6769686E+001  0.2464320E+02  0.7546771E-02  0.1472835E+00
          2   -1    0    0  502    0  0.00000000000E+00  0.00000000000E+00  0.39796469794E+02  0.39796469794E+02  0.00000000000E+00 0. -1.
         -2   -1    0    0    0  501 -0.00000000000E+00 -0.00000000000E+00 -0.15287327988E+02  0.15287327988E+02  0.00000000000E+00 0.  1.
          1    1    1    2  502    0  0.23483182104E+02  0.74717858618E+01  0.13422633815E+02  0.28061620129E+02  0.00000000000E+00 0. -1.
         -1    1    1    2    0  501 -0.23483182104E+02 -0.74717858618E+01  0.11086507991E+02  0.27022177654E+02  0.00000000000E+00 0.  1.
</event>
<event>
 4    1  0.6769686E+001  0.2407382E+02  0.7546771E-02  0.1479437E+00
          2   -1    0    0  502    0  0.00000000000E+00  0.00000000000E+00  0.38599725840E+03  0.38599725840E+03  0.00000000000E+00 0.  1.
         -2   -1    0    0    0  501 -0.00000000000E+00 -0.00000000000E+00 -0.32778979835E+01  0.32778979835E+01  0.00000000000E+00 0. -1.
          1    1    1    2  502    0 -0.14942438592E+02 -0.18875175279E+02  0.48072479228E+02  0.53763481770E+02  0.00000000000E+00 0. -1.
         -1    1    1    2    0  501  0.14942438592E+02  0.18875175279E+02  0.33464688119E+03  0.33551167461E+03  0.00000000000E+00 0.  1.
</event>
<event>
 4    1  0.6769686E+001  0.2143454E+02  0.7546771E-02  0.1513150E+00
          2   -1    0    0  502    0  0.00000000000E+00  0.00000000000E+00  0.34121647278E+03  0.34121647278E+03  0.00000000000E+00 0. -1.
         -2   -1    0    0    0  501 -0.00000000000E+00 -0.00000000000E+00 -0.15237486697E+01  0.15237486697E+01  0.00000000000E+00 0.  1.
          1    1    1    2  502    0 -0.17736196671E+02  0.12036057731E+02  0.11139416283E+03  0.11343764309E+03  0.00000000000E+00 0.  1.
         -1    1    1    2    0  501  0.17736196671E+02 -0.12036057731E+02  0.22829856128E+03  0.22930257836E+03  0.00000000000E+00 0. -1.
</event>
<event>
 4    1  0.6769686E+001  0.2312350E+02  0.7546771E-02  0.1490953E+00
          2   -1    0    0  502    0  0.00000000000E+00  0.00000000000E+00  0.33604449762E+02  0.33604449762E+02  0.00000000000E+00 0. -1.
         -2   -1    0    0    0  501 -0.00000000000E+00 -0.00000000000E+00 -0.16144724939E+02  0.16144724939E+02  0.00000000000E+00 0.  1.
          1    1    1    2  502    0  0.23096692191E+02 -0.11131570783E+01  0.11719735885E+02  0.25923898589E+02  0.00000000000E+00 0.  1.
         -1    1    1    2    0  501 -0.23096692191E+02  0.11131570783E+01  0.57399889377E+01  0.23825276112E+02  0.00000000000E+00 0. -1.
</event>
<event>
 4    1  0.6769686E+001  0.4074919E+02  0.7546771E-02  0.1344151E+00
          2   -1    0    0  502    0  0.00000000000E+00  0.00000000000E+00  0.11366223334E+04  0.11366223334E+04  0.00000000000E+00 0. -1.
         -2   -1    0    0    0  501 -0.00000000000E+00 -0.00000000000E+00 -0.15524768794E+01  0.15524768794E+01  0.00000000000E+00 0.  1.
          1    1    1    2  502    0 -0.36978970708E+02  0.17118760727E+02  0.42932171393E+03  0.43125123802E+03  0.00000000000E+00 0.  1.
         -1    1    1    2    0  501  0.36978970708E+02 -0.17118760727E+02  0.70574814263E+03  0.70692357230E+03  0.00000000000E+00 0. -1.
</event>
<event>
 4    1  0.6769686E+001  0.8648433E+02  0.7546771E-02  0.1189544E+00
          2   -1    0    0  502    0  0.00000000000E+00  0.00000000000E+00  0.74967789515E+03  0.74967789515E+03  0.00000000000E+00 0.  1.
         -2   -1    0    0    0  501 -0.00000000000E+00 -0.00000000000E+00 -0.29188211499E+02  0.29188211499E+02  0.00000000000E+00 0. -1.
          1    1    1    2  502    0 -0.24306884203E+02  0.82998281474E+02  0.67618614053E+03  0.68169438607E+03  0.00000000000E+00 0.  1.
         -1    1    1    2    0  501  0.24306884203E+02 -0.82998281474E+02  0.44303543112E+02  0.97171720575E+02  0.00000000000E+00 0. -1.
</event>
<event>
 4    1  0.6769686E+001  0.2220457E+02  0.7546771E-02  0.1502735E+00
          2   -1    0    0  502    0  0.00000000000E+00  0.00000000000E+00  0.61984183573E+03  0.61984183573E+03  0.00000000000E+00 0. -1.
         -2   -1    0    0    0  501 -0.00000000000E+00 -0.00000000000E+00 -0.97392224002E+00  0.97392224002E+00  0.00000000000E+00 0.  1.
          1    1    1    2  502    0  0.17280809794E+02 -0.13943334197E+02  0.44231897388E+03  0.44287596188E+03  0.00000000000E+00 0. -1.
         -1    1    1    2    0  501 -0.17280809794E+02  0.13943334197E+02  0.17654893961E+03  0.17793979609E+03  0.00000000000E+00 0.  1.
</event>
<event>
 4    1  0.6769686E+001  0.2603037E+02  0.7546771E-02  0.1457599E+00
          2   -1    0    0  502    0  0.00000000000E+00  0.00000000000E+00  0.44795995121E+01  0.44795995121E+01  0.00000000000E+00 0.  1.
         -2   -1    0    0    0  501 -0.00000000000E+00 -0.00000000000E+00 -0.24333131139E+03  0.24333131139E+03  0.00000000000E+00 0. -1.
          1    1    1    2  502    0 -0.25427912117E+02  0.55678720995E+01 -0.43208151811E+02  0.50443278019E+02  0.00000000000E+00 0.  1.
         -1    1    1    2    0  501  0.25427912117E+02 -0.55678720995E+01 -0.19564356007E+03  0.19736763289E+03  0.00000000000E+00 0. -1.
</event>
<event>
 4    1  0.6769686E+001  0.2010329E+02  0.7546771E-02  0.1532463E+00
          2   -1    0    0  502    0  0.00000000000E+00  0.00000000000E+00  0.99032408742E+03  0.99032408742E+03  0.00000000000E+00 0.  1.
         -2   -1    0    0    0  501 -0.00000000000E+00 -0.00000000000E+00 -0.41495738492E+00  0.41495738492E+00  0.00000000000E+00 0. -1.
          1    1    1    2  502    0  0.19382655020E+02 -0.53343177054E+01  0.43123183732E+03  0.43170017348E+03  0.00000000000E+00 0. -1.
         -1    1    1    2    0  501 -0.19382655020E+02  0.53343177054E+01  0.55867729272E+03  0.55903887133E+03  0.00000000000E+00 0.  1.
</event>
<event>
 4    1  0.6769686E+001  0.2113699E+02  0.7546771E-02  0.1517318E+00
          2   -1    0    0  502    0  0.00000000000E+00  0.00000000000E+00  0.66934494116E+03  0.66934494116E+03  0.00000000000E+00 0.  1.
         -2   -1    0    0    0  501 -0.00000000000E+00 -0.00000000000E+00 -0.68386065457E+00  0.68386065457E+00  0.00000000000E+00 0. -1.
          1    1    1    2  502    0  0.19415968501E+02 -0.83541888559E+01  0.38618498984E+03  0.38676300067E+03  0.00000000000E+00 0.  1.
         -1    1    1    2    0  501 -0.19415968501E+02  0.83541888559E+01  0.28247609066E+03  0.28326580115E+03  0.00000000000E+00 0. -1.
</event>
<event>
 4    1  0.6769686E+001  0.2597868E+02  0.7546771E-02  0.1458146E+00
          2   -1    0    0  502    0  0.00000000000E+00  0.00000000000E+00  0.22278193698E+04  0.22278193698E+04  0.00000000000E+00 0. -1.
         -2   -1    0    0    0  501 -0.00000000000E+00 -0.00000000000E+00 -0.31327462972E+00  0.31327462972E+00  0.00000000000E+00 0.  1.
          1    1    1    2  502    0  0.19576607132E+02 -0.17077711723E+02  0.91138969052E+03  0.91175986958E+03  0.00000000000E+00 0. -1.
         -1    1    1    2    0  501 -0.19576607132E+02  0.17077711723E+02  0.13161164046E+04  0.13163727748E+04  0.00000000000E+00 0.  1.
</event>
<event>
 4    1  0.6769686E+001  0.3084696E+02  0.7546771E-02  0.1412376E+00
          2   -1    0    0  502    0  0.00000000000E+00  0.00000000000E+00  0.13023251790E+03  0.13023251790E+03  0.00000000000E+00 0.  1.
         -2   -1    0    0    0  501 -0.00000000000E+00 -0.00000000000E+00 -0.74127048278E+01  0.74127048278E+01  0.00000000000E+00 0. -1.
          1    1    1    2  502    0  0.26780438533E+02  0.15308262626E+02  0.69650485670E+02  0.76175619109E+02  0.00000000000E+00 0.  1.
         -1    1    1    2    0  501 -0.26780438533E+02 -0.15308262626E+02  0.53169327404E+02  0.61469603620E+02  0.00000000000E+00 0. -1.
</event>
<event>
 4    1  0.6769686E+001  0.1683748E+03  0.7546771E-02  0.1080144E+00
          2   -1    0    0  502    0  0.00000000000E+00  0.00000000000E+00  0.41129232684E+03  0.41129232684E+03  0.00000000000E+00 0.  1.
         -2   -1    0    0    0  501 -0.00000000000E+00 -0.00000000000E+00 -0.87443895219E+02  0.87443895219E+02  0.00000000000E+00 0. -1.
          1    1    1    2  502    0 -0.15598162327E+03 -0.63402044814E+02  0.47179299741E+02  0.17485986506E+03  0.00000000000E+00 0. -1.
         -1    1    1    2    0  501  0.15598162327E+03  0.63402044814E+02  0.27666913188E+03  0.32387635699E+03  0.00000000000E+00 0.  1.
</event>
<event>
 4    1  0.6769686E+001  0.2748958E+02  0.7546771E-02  0.1442751E+00
          2   -1    0    0  502    0  0.00000000000E+00  0.00000000000E+00  0.44978220374E+03  0.44978220374E+03  0.00000000000E+00 0. -1.
         -2   -1    0    0    0  501 -0.00000000000E+00 -0.00000000000E+00 -0.16905161805E+01  0.16905161805E+01  0.00000000000E+00 0.  1.
          1    1    1    2  502    0  0.11797841553E+02 -0.24829173649E+02  0.20632249518E+03  0.20814573968E+03  0.00000000000E+00 0.  1.
         -1    1    1    2    0  501 -0.11797841553E+02  0.24829173649E+02  0.24176919238E+03  0.24332698024E+03  0.00000000000E+00 0. -1.
</event>
<event>
 4    1  0.6769686E+001  0.2163984E+02  0.7546771E-02  0.1510322E+00
          2   -1    0    0  502    0  0.00000000000E+00  0.00000000000E+00  0.74881054753E+03  0.74881054753E+03  0.00000000000E+00 0. -1.
         -2   -1    0    0    0  501 -0.00000000000E+00 -0.00000000000E+00 -0.80986654094E+00  0.80986654094E+00  0.00000000000E+00 0.  1.
          1    1    1    2  502    0  0.58683632270E+01  0.20828947037E+02  0.55289618700E+03  0.55331950654E+03  0.00000000000E+00 0. -1.
         -1    1    1    2    0  501 -0.58683632270E+01 -0.20828947037E+02  0.19510449400E+03  0.19630090754E+03  0.00000000000E+00 0.  1.
</event>
<event>
 4    1  0.6769686E+001  0.2348592E+02  0.7546771E-02  0.1486485E+00
          2   -1    0    0  502    0  0.00000000000E+00  0.00000000000E+00  0.30847486055E+03  0.30847486055E+03  0.00000000000E+00 0.  1.
         -2   -1    0    0    0  501 -0.00000000000E+00 -0.00000000000E+00 -0.19467991502E+01  0.19467991502E+01  0.00000000000E+00 0. -1.
          1    1    1    2  502    0  0.37812115859E+01  0.23179534164E+02  0.10895125724E+03  0.11145386857E+03  0.00000000000E+00 0. -1.
         -1    1    1    2    0  501 -0.37812115859E+01 -0.23179534164E+02  0.19757680416E+03  0.19896779113E+03  0.00000000000E+00 0.  1.
</event>
<event>
 4    1  0.6769686E+001  0.2598354E+02  0.7546771E-02  0.1458095E+00
          2   -1    0    0  502    0  0.00000000000E+00  0.00000000000E+00  0.45761130519E+01  0.45761130519E+01  0.00000000000E+00 0.  1.
         -2   -1    0    0    0  501 -0.00000000000E+00 -0.00000000000E+00 -0.22672202816E+03  0.22672202816E+03  0.00000000000E+00 0. -1.
          1    1    1    2  502    0 -0.25963492614E+02 -0.10204956066E+01 -0.17941969739E+03  0.18129140126E+03  0.00000000000E+00 0. -1.
         -1    1    1    2    0  501  0.25963492614E+02  0.10204956066E+01 -0.42726217722E+02  0.50006739954E+02  0.00000000000E+00 0.  1.
</event>
<event>
 4    1  0.6769686E+001  0.3540176E+02  0.7546771E-02  0.1377761E+00
          2   -1    0    0  502    0  0.00000000000E+00  0.00000000000E+00  0.48592718833E+02  0.48592718833E+02  0.00000000000E+00 0.  1.
         -2   -1    0    0    0  501 -0.00000000000E+00 -0.00000000000E+00 -0.28673009581E+02  0.28673009581E+02  0.00000000000E+00 0. -1.
          1    1    1    2  502    0  0.59383593705E+01 -0.34900148819E+02  0.22206635287E+02  0.41790180071E+02  0.00000000000E+00 0.  1.
         -1    1    1    2    0  501 -0.59383593705E+01  0.34900148819E+02 -0.22869260345E+01  0.35475548343E+02  0.00000000000E+00 0. -1.
</event>
<event>
 4    1  0.6769686E+001  0.3304058E+02  0.7546771E-02  0.1394888E+00
          2   -1    0    0  502    0  0.00000000000E+00  0.00000000000E+00  0.25380535148E+03  0.25380535148E+03  0.00000000000E+00 0. -1.
         -2   -1    0    0    0  501 -0.00000000000E+00 -0.00000000000E+00 -0.62562504313E+01  0.62562504313E+01  0.00000000000E+00 0.  1.
          1    1    1    2  502    0  0.32782943627E+02  0.41180763746E+01  0.19646255481E+03  0.19922152341E+03  0.00000000000E+00 0. -1.
         -1    1    1    2    0  501 -0.32782943627E+02 -0.41180763746E+01  0.51086546238E+02  0.60840078504E+02  0.00000000000E+00 0.  1.
</event>
<event>
 4    1  0.6769686E+001  0.4249252E+02  0.7546771E-02  0.1334468E+00
          2   -1    0    0  502    0  0.00000000000E+00  0.00000000000E+00  0.47846490890E+02  0.47846490890E+02  0.00000000000E+00 0. -1.
         -2   -1    0    0    0  501 -0.00000000000E+00 -0.00000000000E+00 -0.38492421598E+02  0.38492421598E+02  0.00000000000E+00 0.  1.
          1    1    1    2  502    0  0.38596723212E+02  0.17773776726E+02  0.10722036051E+02  0.43824379504E+02  0.00000000000E+00 0. -1.
         -1    1    1    2    0  501 -0.38596723212E+02 -0.17773776726E+02 -0.13679667595E+01  0.42514532984E+02  0.00000000000E+00 0.  1.
</event>
<event>
 4    1  0.6769686E+001  0.2802296E+02  0.7546771E-02  0.1437594E+00
          2   -1    0    0  502    0  0.00000000000E+00  0.00000000000E+00  0.11794273667E+02  0.11794273667E+02  0.00000000000E+00 0.  1.
         -2   -1    0    0    0  501 -0.00000000000E+00 -0.00000000000E+00 -0.93219424347E+02  0.93219424347E+02  0.00000000000E+00 0. -1.
          1    1    1    2  502    0 -0.21196992645E+02  0.18329585198E+02 -0.12644737509E+02  0.30743707932E+02  0.00000000000E+00 0.  1.
         -1    1    1    2    0  501  0.21196992645E+02 -0.18329585198E+02 -0.68780413171E+02  0.74269990082E+02  0.00000000000E+00 0. -1.
</event>
<event>
 4    1  0.6769686E+001  0.2950308E+02  0.7546771E-02  0.1423964E+00
          2   -1    0    0  502    0  0.00000000000E+00  0.00000000000E+00  0.24852705550E+03  0.24852705550E+03  0.00000000000E+00 0.  1.
         -2   -1    0    0    0  501 -0.00000000000E+00 -0.00000000000E+00 -0.45727702850E+01  0.45727702850E+01  0.00000000000E+00 0. -1.
          1    1    1    2  502    0 -0.24870995360E+02 -0.15870272203E+02  0.18320466662E+03  0.18556503394E+03  0.00000000000E+00 0.  1.
         -1    1    1    2    0  501  0.24870995360E+02  0.15870272203E+02  0.60749618589E+02  0.67534791839E+02  0.00000000000E+00 0. -1.
</event>
<event>
 4    1  0.6769686E+001  0.3169571E+02  0.7546771E-02  0.1405412E+00
          2   -1    0    0  502    0  0.00000000000E+00  0.00000000000E+00  0.16845818787E+03  0.16845818787E+03  0.00000000000E+00 0.  1.
         -2   -1    0    0    0  501 -0.00000000000E+00 -0.00000000000E+00 -0.13426175268E+03  0.13426175268E+03  0.00000000000E+00 0. -1.
          1    1    1    2  502    0 -0.14682021656E+02  0.28090140166E+02 -0.13086203850E+03  0.13464579776E+03  0.00000000000E+00 0. -1.
         -1    1    1    2    0  501  0.14682021656E+02 -0.28090140166E+02  0.16505847369E+03  0.16807414278E+03  0.00000000000E+00 0.  1.
</event>
<event>
 4    1  0.6769686E+001  0.2694046E+02  0.7546771E-02  0.1448207E+00
          2   -1    0    0  502    0  0.00000000000E+00  0.00000000000E+00  0.64099467396E+03  0.64099467396E+03  0.00000000000E+00 0. -1.
         -2   -1    0    0    0  501 -0.00000000000E+00 -0.00000000000E+00 -0.18462205832E+01  0.18462205832E+01  0.00000000000E+00 0.  1.
          1    1    1    2  502    0  0.27988745924E+01 -0.26794677629E+02  0.51945053465E+03  0.52014867720E+03  0.00000000000E+00 0. -1.
         -1    1    1    2    0  501 -0.27988745924E+01  0.26794677629E+02  0.11969791873E+03  0.12269221734E+03  0.00000000000E+00 0.  1.
</event>
<event>
 4    1  0.6769686E+001  0.3975720E+02  0.7546771E-02  0.1349914E+00
          2   -1    0    0  502    0  0.00000000000E+00  0.00000000000E+00  0.19330956765E+04  0.19330956765E+04  0.00000000000E+00 0.  1.
         -2   -1    0    0    0  501 -0.00000000000E+00 -0.00000000000E+00 -0.86704884662E+00  0.86704884662E+00  0.00000000000E+00 0. -1.
          1    1    1    2  502    0  0.14829719268E+02 -0.36887865440E+02  0.73535201226E+03  0.73642597532E+03  0.00000000000E+00 0.  1.
         -1    1    1    2    0  501 -0.14829719268E+02  0.36887865440E+02  0.11968766154E+04  0.11975367501E+04  0.00000000000E+00 0. -1.
</event>
<event>
 4    1  0.6769686E+001  0.3100027E+02  0.7546771E-02  0.1411099E+00
          2   -1    0    0  502    0  0.00000000000E+00  0.00000000000E+00  0.30261009589E+03  0.30261009589E+03  0.00000000000E+00 0. -1.
         -2   -1    0    0    0  501 -0.00000000000E+00 -0.00000000000E+00 -0.36910915843E+01  0.36910915843E+01  0.00000000000E+00 0.  1.
          1    1    1    2  502    0  0.30877597730E+02 -0.27551720635E+01  0.92234648942E+02  0.97304920123E+02  0.00000000000E+00 0.  1.
         -1    1    1    2    0  501 -0.30877597730E+02  0.27551720635E+01  0.20668435537E+03  0.20899626735E+03  0.00000000000E+00 0. -1.
</event>
<event>
 4    1  0.6769686E+001  0.2239530E+02  0.7546771E-02  0.1500234E+00
          2   -1    0    0  502    0  0.00000000000E+00  0.00000000000E+00  0.49049730435E+02  0.49049730435E+02  0.00000000000E+00 0. -1.
         -2   -1    0    0    0  501 -0.00000000000E+00 -0.00000000000E+00 -0.10225373041E+02  0.10225373041E+02  0.00000000000E+00 0.  1.
          1    1    1    2  502    0 -0.19515024941E+02  0.10986949200E+02  0.19345480695E+02  0.29593865487E+02  0.00000000000E+00 0.  1.
         -1    1    1    2    0  501  0.19515024941E+02 -0.10986949200E+02  0.19478876699E+02  0.29681237990E+02  0.00000000000E+00 0. -1.
</event>
<event>
 4    1  0.6769686E+001  0.4162340E+02  0.7546771E-02  0.1339227E+00
          2   -1    0    0  502    0  0.00000000000E+00  0.00000000000E+00  0.11446013499E+04  0.11446013499E+04  0.00000000000E+00 0. -1.
         -2   -1    0    0    0  501 -0.00000000000E+00 -0.00000000000E+00 -0.15287564344E+01  0.15287564344E+01  0.00000000000E+00 0.  1.
          1    1    1    2  502    0 -0.11555195165E+02  0.39987311920E+02  0.51454034666E+03  0.51622115028E+03  0.00000000000E+00 0.  1.
         -1    1    1    2    0  501  0.11555195165E+02 -0.39987311920E+02  0.62853224680E+03  0.62990895606E+03  0.00000000000E+00 0. -1.
</event>
<event>
 4    1  0.6769686E+001  0.2112833E+02  0.7546771E-02  0.1517440E+00
          2   -1    0    0  502    0  0.00000000000E+00  0.00000000000E+00  0.15135274058E+01  0.15135274058E+01  0.00000000000E+00 0. -1.
         -2   -1    0    0    0  501 -0.00000000000E+00 -0.00000000000E+00 -0.37432160526E+03  0.37432160526E+03  0.00000000000E+00 0.  1.
          1    1    1    2  502    0  0.16133711531E+02 -0.13642200434E+02 -0.27293930015E+03  0.27375585445E+03  0.00000000000E+00 0.  1.
         -1    1    1    2    0  501 -0.16133711531E+02  0.13642200434E+02 -0.99868777703E+02  0.10207927821E+03  0.00000000000E+00 0. -1.
</event>
<event>
 4    1  0.6769686E+001  0.2532782E+02  0.7546771E-02  0.1465169E+00
          2   -1    0    0  502    0  0.00000000000E+00  0.00000000000E+00  0.24749854021E+04  0.24749854021E+04  0.00000000000E+00 0.  1.
         -2   -1    0    0    0  501 -0.00000000000E+00 -0.00000000000E+00 -0.29234809547E+00  0.29234809547E+00  0.00000000000E+00 0. -1.
          1    1    1    2  502    0  0.11467884746E+02 -0.22582866638E+02  0.82055329637E+03  0.82094409702E+03  0.00000000000E+00 0. -1.
         -1    1    1    2    0  501 -0.11467884746E+02  0.22582866638E+02  0.16541397577E+04  0.16543336532E+04  0.00000000000E+00 0.  1.
</event>
<event>
 4    1  0.6769686E+001  0.2854235E+02  0.7546771E-02  0.1432701E+00
          2   -1    0    0  502    0  0.00000000000E+00  0.00000000000E+00  0.58646026888E+01  0.58646026888E+01  0.00000000000E+00 0. -1.
         -2   -1    0    0    0  501 -0.00000000000E+00 -0.00000000000E+00 -0.14654329956E+03  0.14654329956E+03  0.00000000000E+00 0.  1.
          1    1    1    2  502    0 -0.34261251683E+01  0.28335978427E+02 -0.87728664800E+02  0.92254997884E+02  0.00000000000E+00 0.  1.
         -1    1    1    2    0  501  0.34261251683E+01 -0.28335978427E+02 -0.52950032070E+02  0.60152904363E+02  0.00000000000E+00 0. -1.
</event>
<event>
 4    1  0.6769686E+001  0.3457957E+02  0.7546771E-02  0.1383543E+00
          2   -1    0    0  502    0  0.00000000000E+00  0.00000000000E+00  0.15883292013E+04  0.15883292013E+04  0.00000000000E+00 0.  1.
         -2   -1    0    0    0  501 -0.00000000000E+00 -0.00000000000E+00 -0.76998012027E+00  0.76998012027E+00  0.00000000000E+00 0. -1.
          1    1    1    2  502    0  0.31784248038E+02  0.13620135318E+02  0.67520877756E+03  0.67609366200E+03  0.00000000000E+00 0. -1.
         -1    1    1    2    0  501 -0.31784248038E+02 -0.13620135318E+02  0.91235044364E+03  0.91300551943E+03  0.00000000000E+00 0.  1.
</event>
<event>
 4    1  0.6769686E+001  0.2924909E+02  0.7546771E-02  0.1426236E+00
          2   -1    0    0  502    0  0.00000000000E+00  0.00000000000E+00  0.12862947683E+01  0.12862947683E+01  0.00000000000E+00 0. -1.
         -2   -1    0    0    0  501 -0.00000000000E+00 -0.00000000000E+00 -0.67507958830E+03  0.67507958830E+03  0.00000000000E+00 0.  1.
          1    1    1    2  502    0  0.26540701415E+02  0.12292282136E+02 -0.37802350626E+03  0.37915337308E+03  0.00000000000E+00 0.  1.
         -1    1    1    2    0  501 -0.26540701415E+02 -0.12292282136E+02 -0.29576978727E+03  0.29721250998E+03  0.00000000000E+00 0. -1.
</event>
<event>
 4    1  0.6769686E+001  0.2800214E+02  0.7546771E-02  0.1437793E+00
          2   -1    0    0  502    0  0.00000000000E+00  0.00000000000E+00  0.29639923731E+03  0.29639923731E+03  0.00000000000E+00 0. -1.
         -2   -1    0    0    0  501 -0.00000000000E+00 -0.00000000000E+00 -0.31844722082E+01  0.31844722082E+01  0.00000000000E+00 0.  1.
          1    1    1    2  502    0 -0.25305141297E+02  0.11990390478E+02  0.84982113697E+02  0.89476696901E+02  0.00000000000E+00 0. -1.
         -1    1    1    2    0  501  0.25305141297E+02 -0.11990390478E+02  0.20823265140E+03  0.21010701261E+03  0.00000000000E+00 0.  1.
</event>
<event>
 4    1  0.6769686E+001  0.3567482E+02  0.7546771E-02  0.1375880E+00
          2   -1    0    0  502    0  0.00000000000E+00  0.00000000000E+00  0.58452130876E+02  0.58452130876E+02  0.00000000000E+00 0. -1.
         -2   -1    0    0    0  501 -0.00000000000E+00 -0.00000000000E+00 -0.22925574748E+02  0.22925574748E+02  0.00000000000E+00 0.  1.
          1    1    1    2  502    0 -0.35453182566E+02 -0.39704740183E+01  0.26885547697E+02  0.44671305028E+02  0.00000000000E+00 0. -1.
         -1    1    1    2    0  501  0.35453182566E+02  0.39704740183E+01  0.86410084309E+01  0.36706400596E+02  0.00000000000E+00 0.  1.
</event>
<event>
 4    1  0.6769686E+001  0.3946818E+02  0.7546771E-02  0.1351631E+00
          2   -1    0    0  502    0  0.00000000000E+00  0.00000000000E+00  0.31732116736E+03  0.31732116736E+03  0.00000000000E+00 0.  1.
         -2   -1    0    0    0  501 -0.00000000000E+00 -0.00000000000E+00 -0.74273789295E+01  0.74273789295E+01  0.00000000000E+00 0. -1.
          1    1    1    2  502    0 -0.26625594630E+02 -0.29134432163E+02  0.60397697386E+02  0.72149977660E+02  0.00000000000E+00 0. -1.
         -1    1    1    2    0  501  0.26625594630E+02  0.29134432163E+02  0.24949609104E+03  0.25259856863E+03  0.00000000000E+00 0.  1.
</event>
<event>
 4    1  0.6769686E+001  0.2236121E+02  0.7546771E-02  0.1500679E+00
          2   -1    0    0  502    0  0.00000000000E+00  0.00000000000E+00  0.96292270025E+02  0.96292270025E+02  0.00000000000E+00 0.  1.
         -2   -1    0    0    0  501 -0.00000000000E+00 -0.00000000000E+00 -0.54302532394E+01  0.54302532394E+01  0.00000000000E+00 0. -1.
          1    1    1    2  502    0 -0.14685017496E+02  0.16863393342E+02  0.34794673013E+02  0.41360525189E+02  0.00000000000E+00 0.  1.
         -1    1    1    2    0  501  0.14685017496E+02 -0.16863393342E+02  0.56067343773E+02  0.60361998075E+02  0.00000000000E+00 0. -1.
</event>
<event>
 4    1  0.6769686E+001  0.2275951E+02  0.7546771E-02  0.1495540E+00
          2   -1    0    0  502    0  0.00000000000E+00  0.00000000000E+00  0.52151899916E+02  0.52151899916E+02  0.00000000000E+00 0. -1.
         -2   -1    0    0    0  501 -0.00000000000E+00 -0.00000000000E+00 -0.10181367248E+02  0.10181367248E+02  0.00000000000E+00 0.  1.
          1    1    1    2  502    0  0.17293226308E+02  0.14796612793E+02  0.16111931529E+02  0.27885296554E+02  0.00000000000E+00 0.  1.
         -1    1    1    2    0  501 -0.17293226308E+02 -0.14796612793E+02  0.25858601139E+02  0.34447970610E+02  0.00000000000E+00 0. -1.
</event>
<event>
 4    1  0.6769686E+001  0.2300405E+02  0.7546771E-02  0.1492447E+00
          2   -1    0    0  502    0  0.00000000000E+00  0.00000000000E+00  0.17754783822E+02  0.17754783822E+02  0.00000000000E+00 0.  1.
         -2   -1    0    0    0  501 -0.00000000000E+00 -0.00000000000E+00 -0.48404134219E+02  0.48404134219E+02  0.00000000000E+00 0. -1.
          1    1    1    2  502    0 -0.23001974986E+02  0.30910822549E+00  0.51803449790E+01  0.23580126702E+02  0.00000000000E+00 0.  1.
         -1    1    1    2    0  501  0.23001974986E+02 -0.30910822549E+00 -0.35829695376E+02  0.42578791339E+02  0.00000000000E+00 0. -1.
</event>
<event>
 4    1  0.6769686E+001  0.3215503E+02  0.7546771E-02  0.1401749E+00
          2   -1    0    0  502    0  0.00000000000E+00  0.00000000000E+00  0.23635386025E+02  0.23635386025E+02  0.00000000000E+00 0.  1.
         -2   -1    0    0    0  501 -0.00000000000E+00 -0.00000000000E+00 -0.46673792229E+02  0.46673792229E+02  0.00000000000E+00 0. -1.
          1    1    1    2  502    0 -0.18220458033E+02 -0.26494547610E+02 -0.27140077578E+01  0.32269366001E+02  0.00000000000E+00 0.  1.
         -1    1    1    2    0  501  0.18220458033E+02  0.26494547610E+02 -0.20324398447E+02  0.38039812253E+02  0.00000000000E+00 0. -1.
</event>
<event>
 4    1  0.6769686E+001  0.2359906E+02  0.7546771E-02  0.1485110E+00
          2   -1    0    0  502    0  0.00000000000E+00  0.00000000000E+00  0.10160712327E+04  0.10160712327E+04  0.00000000000E+00 0.  1.
         -2   -1    0    0    0  501 -0.00000000000E+00 -0.00000000000E+00 -0.59166838894E+00  0.59166838894E+00  0.00000000000E+00 0. -1.
          1    1    1    2  502    0 -0.47392925685E+01 -0.23118276028E+02  0.64567002874E+03  0.64610115431E+03  0.00000000000E+00 0.  1.
         -1    1    1    2    0  501  0.47392925685E+01  0.23118276028E+02  0.36980953553E+03  0.37056174674E+03  0.00000000000E+00 0. -1.
</event>
<event>
 4    1  0.6769686E+001  0.2214663E+02  0.7546771E-02  0.1503501E+00
          2   -1    0    0  502    0  0.00000000000E+00  0.00000000000E+00  0.28358185768E+03  0.28358185768E+03  0.00000000000E+00 0.  1.
         -2   -1    0    0    0  501 -0.00000000000E+00 -0.00000000000E+00 -0.52008946331E+01  0.52008946331E+01  0.00000000000E+00 0. -1.
          1    1    1    2  502    0 -0.76715583483E+00 -0.22133343303E+02  0.21226310297E+02  0.30676206785E+02  0.00000000000E+00 0. -1.
         -1    1    1    2    0  501  0.76715583483E+00  0.22133343303E+02  0.25715465275E+03  0.25810654553E+03  0.00000000000E+00 0.  1.
</event>
<event>
 4    1  0.6769686E+001  0.2440207E+02  0.7546771E-02  0.1475605E+00
          2   -1    0    0  502    0  0.00000000000E+00  0.00000000000E+00  0.22228973683E+04  0.22228973683E+04  0.00000000000E+00 0.  1.
         -2   -1    0    0    0  501 -0.00000000000E+00 -0.00000000000E+00 -0.41105014666E+00  0.41105014666E+00  0.00000000000E+00 0. -1.
          1    1    1    2  502    0 -0.42176574911E+01 -0.24034819357E+02  0.17673195287E+04  0.17674879852E+04  0.00000000000E+00 0.  1.
         -1    1    1    2    0  501  0.42176574911E+01  0.24034819357E+02  0.45516678940E+03  0.45582043323E+03  0.00000000000E+00 0. -1.
</event>
<event>
 4    1  0.6769686E+001  0.2442819E+02  0.7546771E-02  0.1475303E+00
          2   -1    0    0  502    0  0.00000000000E+00  0.00000000000E+00  0.18504793639E+03  0.18504793639E+03  0.00000000000E+00 0.  1.
         -2   -1    0    0    0  501 -0.00000000000E+00 -0.00000000000E+00 -0.35189388841E+01  0.35189388841E+01  0.00000000000E+00 0. -1.
          1    1    1    2  502    0  0.10321580289E+02 -0.22140498740E+02  0.63504286781E+02  0.68040658019E+02  0.00000000000E+00 0. -1.
         -1    1    1    2    0  501 -0.10321580289E+02  0.22140498740E+02  0.11802471073E+03  0.12052621726E+03  0.00000000000E+00 0.  1.
</event>
<event>
 4    1  0.6769686E+001  0.2110347E+02  0.7546771E-02  0.1517793E+00
          2   -1    0    0  502    0  0.00000000000E+00  0.00000000000E+00  0.71765162731E+02  0.71765162731E+02  0.00000000000E+00 0. -1.
         -2   -1    0    0    0  501 -0.00000000000E+00 -0.00000000000E+00 -0.66008264707E+01  0.66008264707E+01  0.00000000000E+00 0.  1.
          1    1    1    2  502    0  0.16983035338E+02  0.12527285750E+02  0.22996084763E+02  0.31211797321E+02  0.00000000000E+00 0. -1.
         -1    1    1    2    0  501 -0.16983035338E+02 -0.12527285750E+02  0.42168251498E+02  0.47154191881E+02  0.00000000000E+00 0.  1.
</event>
<event>
 4    1  0.6769686E+001  0.2098568E+02  0.7546771E-02  0.1519469E+00
          2   -1    0    0  502    0  0.00000000000E+00  0.00000000000E+00  0.66434167890E+03  0.66434167890E+03  0.00000000000E+00 0. -1.
         -2   -1    0    0    0  501 -0.00000000000E+00 -0.00000000000E+00 -0.66351564983E+00  0.66351564983E+00  0.00000000000E+00 0.  1.
          1    1    1    2  502    0 -0.14761328618E+02 -0.14916504147E+02  0.34188258345E+03  0.34252605709E+03  0.00000000000E+00 0.  1.
         -1    1    1    2    0  501  0.14761328618E+02  0.14916504147E+02  0.32179557980E+03  0.32247913746E+03  0.00000000000E+00 0. -1.
</event>
<event>
 4    1  0.6769686E+001  0.2025694E+02  0.7546771E-02  0.1530144E+00
          2   -1    0    0  502    0  0.00000000000E+00  0.00000000000E+00  0.95697535415E+03  0.95697535415E+03  0.00000000000E+00 0.  1.
         -2   -1    0    0    0  501 -0.00000000000E+00 -0.00000000000E+00 -0.42883386136E+00  0.42883386136E+00  0.00000000000E+00 0. -1.
          1    1    1    2  502    0 -0.18952935657E+02  0.71505055807E+01  0.48299556669E+03  0.48342017019E+03  0.00000000000E+00 0. -1.
         -1    1    1    2    0  501  0.18952935657E+02 -0.71505055807E+01  0.47355095360E+03  0.47398401783E+03  0.00000000000E+00 0.  1.
</event>
<event>
 4    1  0.6769686E+001  0.3569409E+02  0.7546771E-02  0.1375748E+00
          2   -1    0    0  502    0  0.00000000000E+00  0.00000000000E+00  0.59750061732E+03  0.59750061732E+03  0.00000000000E+00 0.  1.
         -2   -1    0    0    0  501 -0.00000000000E+00 -0.00000000000E+00 -0.21326087667E+01  0.21326087667E+01  0.00000000000E+00 0. -1.
          1    1    1    2  502    0 -0.31289811489E+02  0.17176017381E+02  0.30111816935E+03  0.30322635075E+03  0.00000000000E+00 0.  1.
         -1    1    1    2    0  501  0.31289811489E+02 -0.17176017381E+02  0.29424983920E+03  0.29640687534E+03  0.00000000000E+00 0. -1.
</event>
<event>
 4    1  0.6769686E+001  0.5244502E+02  0.7546771E-02  0.1287906E+00
          2   -1    0    0  502    0  0.00000000000E+00  0.00000000000E+00  0.40519837043E+03  0.40519837043E+03  0.00000000000E+00 0.  1.
         -2   -1    0    0    0  501 -0.00000000000E+00 -0.00000000000E+00 -0.76191056063E+01  0.76191056063E+01  0.00000000000E+00 0. -1.
          1    1    1    2  502    0  0.36111553856E+02  0.38032039786E+02  0.13061729828E+03  0.14075282939E+03  0.00000000000E+00 0.  1.
         -1    1    1    2    0  501 -0.36111553856E+02 -0.38032039786E+02  0.26696196655E+03  0.27206464664E+03  0.00000000000E+00 0. -1.
</event>
<event>
 4    1  0.6769686E+001  0.2066979E+02  0.7546771E-02  0.1524032E+00
          2   -1    0    0  502    0  0.00000000000E+00  0.00000000000E+00  0.12469412414E+04  0.12469412414E+04  0.00000000000E+00 0.  1.
         -2   -1    0    0    0  501 -0.00000000000E+00 -0.00000000000E+00 -0.37992184839E+00  0.37992184839E+00  0.00000000000E+00 0. -1.
          1    1    1    2  502    0 -0.15525018078E+02  0.13646032651E+02  0.81867133724E+03  0.81893223090E+03  0.00000000000E+00 0.  1.
         -1    1    1    2    0  501  0.15525018078E+02 -0.13646032651E+02  0.42788998234E+03  0.42838893238E+03  0.00000000000E+00 0. -1.
</event>
<event>
 4    1  0.6769686E+001  0.3403189E+02  0.7546771E-02  0.1387500E+00
          2   -1    0    0  502    0  0.00000000000E+00  0.00000000000E+00  0.55608428372E+01  0.55608428372E+01  0.00000000000E+00 0.  1.
         -2   -1    0    0    0  501 -0.00000000000E+00 -0.00000000000E+00 -0.28714567533E+03  0.28714567533E+03  0.00000000000E+00 0. -1.
          1    1    1    2  502    0  0.13903654416E+02 -0.31062162309E+02 -0.64088688914E+02  0.72563968883E+02  0.00000000000E+00 0.  1.
         -1    1    1    2    0  501 -0.13903654416E+02  0.31062162309E+02 -0.21749614358E+03  0.22014254929E+03  0.00000000000E+00 0. -1.
</event>
<event>
 4    1  0.6769686E+001  0.2203523E+02  0.7546771E-02  0.1504982E+00
          2   -1    0    0  502    0  0.00000000000E+00  0.00000000000E+00  0.11789859040E+03  0.11789859040E+03  0.00000000000E+00 0.  1.
         -2   -1    0    0    0  501 -0.00000000000E+00 -0.00000000000E+00 -0.54871865144E+01  0.54871865144E+01  0.00000000000E+00 0. -1.
          1    1    1    2  502    0  0.18961664752E+02 -0.11225269373E+02  0.25392913812E+02  0.33620700090E+02  0.00000000000E+00 0. -1.
         -1    1    1    2    0  501 -0.18961664752E+02  0.11225269373E+02  0.87018490075E+02  0.89765076826E+02  0.00000000000E+00 0.  1.
</event>
<event>
 4    1  0.6769686E+001  0.2651268E+02  0.7546771E-02  0.1452566E+00
          2   -1    0    0  502    0  0.00000000000E+00  0.00000000000E+00  0.13851139247E+02  0.13851139247E+02  0.00000000000E+00 0.  1.
         -2   -1    0    0    0  501 -0.00000000000E+00 -0.00000000000E+00 -0.51413995765E+02  0.51413995765E+02  0.00000000000E+00 0. -1.
          1    1    1    2  502    0 -0.22645422958E+02  0.13787927794E+02 -0.15068300509E+02  0.30495504817E+02  0.00000000000E+00 0. -1.
         -1    1    1    2    0  501  0.22645422958E+02 -0.13787927794E+02 -0.22494556010E+02  0.34769630195E+02  0.00000000000E+00 0.  1.
</event>
<event>
 4    1  0.6769686E+001  0.3743661E+02  0.7546771E-02  0.1364199E+00
          2   -1    0    0  502    0  0.00000000000E+00  0.00000000000E+00  0.25603274241E+02  0.25603274241E+02  0.00000000000E+00 0.  1.
         -2   -1    0    0    0  501 -0.00000000000E+00 -0.00000000000E+00 -0.56043943510E+02  0.56043943510E+02  0.00000000000E+00 0. -1.
          1    1    1    2  502    0 -0.31059199744E+02 -0.20900382047E+02 -0.21449479267E+02  0.43146031327E+02  0.00000000000E+00 0. -1.
         -1    1    1    2    0  501  0.31059199744E+02  0.20900382047E+02 -0.89911900014E+01  0.38501186424E+02  0.00000000000E+00 0.  1.
</event>
<event>
 4    1  0.6769686E+001  0.2158105E+02  0.7546771E-02  0.1511128E+00
          2   -1    0    0  502    0  0.00000000000E+00  0.00000000000E+00  0.23617297508E+04  0.23617297508E+04  0.00000000000E+00 0. -1.
         -2   -1    0    0    0  501 -0.00000000000E+00 -0.00000000000E+00 -0.20476580345E+00  0.20476580345E+00  0.00000000000E+00 0.  1.
          1    1    1    2  502    0  0.19484245871E+02 -0.92793320025E+01  0.14077126657E+04  0.14078780810E+04  0.00000000000E+00 0. -1.
         -1    1    1    2    0  501 -0.19484245871E+02  0.92793320025E+01  0.95381231932E+03  0.95405643561E+03  0.00000000000E+00 0.  1.
</event>
<event>
 4    1  0.6769686E+001  0.3976091E+02  0.7546771E-02  0.1349893E+00
          2   -1    0    0  502    0  0.00000000000E+00  0.00000000000E+00  0.26139891974E+03  0.26139891974E+03  0.00000000000E+00 0.  1.
         -2   -1    0    0    0  501 -0.00000000000E+00 -0.00000000000E+00 -0.73363896403E+01  0.73363896403E+01  0.00000000000E+00 0. -1.
          1    1    1    2  502    0 -0.39667947695E+02 -0.27173073472E+01  0.70721445044E+02  0.81132315527E+02  0.00000000000E+00 0. -1.
         -1    1    1    2    0  501  0.39667947695E+02  0.27173073472E+01  0.18334108506E+03  0.18760299386E+03  0.00000000000E+00 0.  1.
</event>
<event>
 4    1  0.6769686E+001  0.2219594E+02  0.7546771E-02  0.1502849E+00
          2   -1    0    0  502    0  0.00000000000E+00  0.00000000000E+00  0.13995882133E+03  0.13995882133E+03  0.00000000000E+00 0. -1.
         -2   -1    0    0    0  501 -0.00000000000E+00 -0.00000000000E+00 -0.35959583771E+01  0.35959583771E+01  0.00000000000E+00 0.  1.
          1    1    1    2  502    0  0.12934136149E+02 -0.18037961383E+02  0.78611052271E+02  0.81684499558E+02  0.00000000000E+00 0. -1.
         -1    1    1    2    0  501 -0.12934136149E+02  0.18037961383E+02  0.57751810681E+02  0.61870280149E+02  0.00000000000E+00 0.  1.
</event>
<event>
 4    1  0.6769686E+001  0.2057288E+02  0.7546771E-02  0.1525451E+00
          2   -1    0    0  502    0  0.00000000000E+00  0.00000000000E+00  0.55692000520E+00  0.55692000520E+00  0.00000000000E+00 0. -1.
         -2   -1    0    0    0  501 -0.00000000000E+00 -0.00000000000E+00 -0.76451585395E+03  0.76451585395E+03  0.00000000000E+00 0.  1.
          1    1    1    2  502    0 -0.10383897097E+02  0.17760016008E+02 -0.41147133019E+03  0.41198531413E+03  0.00000000000E+00 0.  1.
         -1    1    1    2    0  501  0.10383897097E+02 -0.17760016008E+02 -0.35248760375E+03  0.35308745983E+03  0.00000000000E+00 0. -1.
</event>
<event>
 4    1  0.6769686E+001  0.2301658E+02  0.7546771E-02  0.1492290E+00
          2   -1    0    0  502    0  0.00000000000E+00  0.00000000000E+00  0.17669378200E+04  0.17669378200E+04  0.00000000000E+00 0. -1.
         -2   -1    0    0    0  501 -0.00000000000E+00 -0.00000000000E+00 -0.68593259360E+00  0.68593259360E+00  0.00000000000E+00 0.  1.
          1    1    1    2  502    0  0.12475463996E+02 -0.19342336089E+02  0.22003035604E+03  0.22123092177E+03  0.00000000000E+00 0.  1.
         -1    1    1    2    0  501 -0.12475463996E+02  0.19342336089E+02  0.15462215313E+04  0.15463928308E+04  0.00000000000E+00 0. -1.
</event>
<event>
 4    1  0.6769686E+001  0.2069559E+02  0.7546771E-02  0.1523656E+00
          2   -1    0    0  502    0  0.00000000000E+00  0.00000000000E+00  0.16276199982E+04  0.16276199982E+04  0.00000000000E+00 0. -1.
         -2   -1    0    0    0  501 -0.00000000000E+00 -0.00000000000E+00 -0.51544144338E+00  0.51544144338E+00  0.00000000000E+00 0.  1.
          1    1    1    2  502    0 -0.20525586402E+02  0.26472466257E+01  0.24401462720E+03  0.24489068153E+03  0.00000000000E+00 0.  1.
         -1    1    1    2    0  501  0.20525586402E+02 -0.26472466257E+01  0.13830899295E+04  0.13832447581E+04  0.00000000000E+00 0. -1.
</event>
<event>
 4    1  0.6769686E+001  0.2728574E+02  0.7546771E-02  0.1444759E+00
          2   -1    0    0  502    0  0.00000000000E+00  0.00000000000E+00  0.20258393332E+04  0.20258393332E+04  0.00000000000E+00 0.  1.
         -2   -1    0    0    0  501 -0.00000000000E+00 -0.00000000000E+00 -0.52332676325E+00  0.52332676325E+00  0.00000000000E+00 0. -1.
          1    1    1    2  502    0  0.26149145105E+02  0.77931777127E+01  0.45980318329E+03  0.46061206972E+03  0.00000000000E+00 0. -1.
         -1    1    1    2    0  501 -0.26149145105E+02 -0.77931777127E+01  0.15655128232E+04  0.15657505902E+04  0.00000000000E+00 0.  1.
</event>
<event>
 4    1  0.6769686E+001  0.2220969E+02  0.7546771E-02  0.1502668E+00
          2   -1    0    0  502    0  0.00000000000E+00  0.00000000000E+00  0.11979913202E+04  0.11979913202E+04  0.00000000000E+00 0.  1.
         -2   -1    0    0    0  501 -0.00000000000E+00 -0.00000000000E+00 -0.47645567937E+00  0.47645567937E+00  0.00000000000E+00 0. -1.
          1    1    1    2  502    0  0.14263035872E+02 -0.17024577776E+02  0.37792478718E+03  0.37857682867E+03  0.00000000000E+00 0. -1.
         -1    1    1    2    0  501 -0.14263035872E+02  0.17024577776E+02  0.81959007735E+03  0.81989094721E+03  0.00000000000E+00 0.  1.
</event>
<event>
 4    1  0.6769686E+001  0.2176741E+02  0.7546771E-02  0.1508584E+00
          2   -1    0    0  502    0  0.00000000000E+00  0.00000000000E+00  0.13911250503E+03  0.13911250503E+03  0.00000000000E+00 0.  1.
         -2   -1    0    0    0  501 -0.00000000000E+00 -0.00000000000E+00 -0.40051392736E+01  0.40051392736E+01  0.00000000000E+00 0. -1.
          1    1    1    2  502    0  0.83189751168E+01 -0.20115042798E+02  0.39877245479E+02  0.45431431859E+02  0.00000000000E+00 0. -1.
         -1    1    1    2    0  501 -0.83189751168E+01  0.20115042798E+02  0.95230120278E+02  0.97686212445E+02  0.00000000000E+00 0.  1.
</event>
<event>
 4    1  0.6769686E+001  0.4132518E+02  0.7546771E-02  0.1340891E+00
          2   -1    0    0  502    0  0.00000000000E+00  0.00000000000E+00  0.10835234479E+02  0.10835234479E+02  0.00000000000E+00 0.  1.
         -2   -1    0    0    0  501 -0.00000000000E+00 -0.00000000000E+00 -0.22884827897E+03  0.22884827897E+03  0.00000000000E+00 0. -1.
          1    1    1    2  502    0 -0.19565501444E+02 -0.36400021182E+02 -0.42143982514E+02  0.59024449603E+02  0.00000000000E+00 0.  1.
         -1    1    1    2    0  501  0.19565501444E+02  0.36400021182E+02 -0.17586906198E+03  0.18065906385E+03  0.00000000000E+00 0. -1.
</event>
<event>
 4    1  0.6769686E+001  0.4129048E+02  0.7546771E-02  0.1341085E+00
          2   -1    0    0  502    0  0.00000000000E+00  0.00000000000E+00  0.34245549011E+03  0.34245549011E+03  0.00000000000E+00 0.  1.
         -2   -1    0    0    0  501 -0.00000000000E+00 -0.00000000000E+00 -0.49820954770E+01  0.49820954770E+01  0.00000000000E+00 0. -1.
          1    1    1    2  502    0  0.35782761891E+02 -0.20603345505E+02  0.17342384798E+03  0.17827152028E+03  0.00000000000E+00 0.  1.
         -1    1    1    2    0  501 -0.35782761891E+02  0.20603345505E+02  0.16404954665E+03  0.16916606531E+03  0.00000000000E+00 0. -1.
</event>
<event>
 4    1  0.6769686E+001  0.2146263E+02  0.7546771E-02  0.1512761E+00
          2   -1    0    0  502    0  0.00000000000E+00  0.00000000000E+00  0.22031244380E+01  0.22031244380E+01  0.00000000000E+00 0.  1.
         -2   -1    0    0    0  501 -0.00000000000E+00 -0.00000000000E+00 -0.24779282636E+03  0.24779282636E+03  0.00000000000E+00 0. -1.
          1    1    1    2  502    0  0.39104441776E+01  0.21103390052E+02 -0.73392584628E+02  0.76466437891E+02  0.00000000000E+00 0.  1.
         -1    1    1    2    0  501 -0.39104441776E+01 -0.21103390052E+02 -0.17219711730E+03  0.17352951291E+03  0.00000000000E+00 0. -1.
</event>
<event>
 4    1  0.6769686E+001  0.2960691E+02  0.7546771E-02  0.1423044E+00
          2   -1    0    0  502    0  0.00000000000E+00  0.00000000000E+00  0.36999201401E+03  0.36999201401E+03  0.00000000000E+00 0.  1.
         -2   -1    0    0    0  501 -0.00000000000E+00 -0.00000000000E+00 -0.42164925452E+01  0.42164925452E+01  0.00000000000E+00 0. -1.
          1    1    1    2  502    0  0.29336862978E+02 -0.39897047380E+01  0.30673343790E+03  0.30815900312E+03  0.00000000000E+00 0.  1.
         -1    1    1    2    0  501 -0.29336862978E+02  0.39897047380E+01  0.59042083561E+02  0.66049503439E+02  0.00000000000E+00 0. -1.
</event>
<event>
 4    1  0.6769686E+001  0.3442259E+02  0.7546771E-02  0.1384669E+00
          2   -1    0    0  502    0  0.00000000000E+00  0.00000000000E+00  0.67846781461E+03  0.67846781461E+03  0.00000000000E+00 0. -1.
         -2   -1    0    0    0  501 -0.00000000000E+00 -0.00000000000E+00 -0.18185812692E+01  0.18185812692E+01  0.00000000000E+00 0.  1.
          1    1    1    2  502    0  0.21295086015E+02  0.27045041674E+02  0.40606313411E+03  0.40751955027E+03  0.00000000000E+00 0. -1.
         -1    1    1    2    0  501 -0.21295086015E+02 -0.27045041674E+02  0.27058609922E+03  0.27276684560E+03  0.00000000000E+00 0.  1.
</event>
<event>
 4    1  0.6769686E+001  0.4317501E+02  0.7546771E-02  0.1330822E+00
          2   -1    0    0  502    0  0.00000000000E+00  0.00000000000E+00  0.12978206361E+04  0.12978206361E+04  0.00000000000E+00 0.  1.
         -2   -1    0    0    0  501 -0.00000000000E+00 -0.00000000000E+00 -0.19337641288E+01  0.19337641288E+01  0.00000000000E+00 0. -1.
          1    1    1    2  502    0 -0.15450530198E+01 -0.43147359362E+02  0.31833142686E+03  0.32124597917E+03  0.00000000000E+00 0. -1.
         -1    1    1    2    0  501  0.15450530198E+01  0.43147359362E+02  0.97755544512E+03  0.97850842106E+03  0.00000000000E+00 0.  1.
</event>
<event>
 4    1  0.6769686E+001  0.2119288E+02  0.7546771E-02  0.1516529E+00
          2   -1    0    0  502    0  0.00000000000E+00  0.00000000000E+00  0.25599225821E+03  0.25599225821E+03  0.00000000000E+00 0.  1.
         -2   -1    0    0    0  501 -0.00000000000E+00 -0.00000000000E+00 -0.18466591278E+01  0.18466591278E+01  0.00000000000E+00 0. -1.
          1    1    1    2  502    0  0.10302152894E+02  0.18520364072E+02  0.98272572220E+02  0.10053176956E+03  0.00000000000E+00 0. -1.
         -1    1    1    2    0  501 -0.10302152894E+02 -0.18520364072E+02  0.15587302686E+03  0.15730714778E+03  0.00000000000E+00 0.  1.
</event>
<event>
 4    1  0.6769686E+001  0.2197186E+02  0.7546771E-02  0.1505828E+00
          2   -1    0    0  502    0  0.00000000000E+00  0.00000000000E+00  0.80809124508E+00  0.80809124508E+00  0.00000000000E+00 0. -1.
         -2   -1    0    0    0  501 -0.00000000000E+00 -0.00000000000E+00 -0.59814711880E+03  0.59814711880E+03  0.00000000000E+00 0.  1.
          1    1    1    2  502    0 -0.15514978459E+02 -0.15557899621E+02 -0.28816534076E+03  0.28900177580E+03  0.00000000000E+00 0. -1.
         -1    1    1    2    0  501  0.15514978459E+02  0.15557899621E+02 -0.30917368679E+03  0.30995343424E+03  0.00000000000E+00 0.  1.
</event>
<event>
 4    1  0.6769686E+001  0.4879080E+02  0.7546771E-02  0.1303502E+00
          2   -1    0    0  502    0  0.00000000000E+00  0.00000000000E+00  0.17683843706E+04  0.17683843706E+04  0.00000000000E+00 0. -1.
         -2   -1    0    0    0  501 -0.00000000000E+00 -0.00000000000E+00 -0.14444525955E+01  0.14444525955E+01  0.00000000000E+00 0.  1.
          1    1    1    2  502    0  0.39188488343E+02 -0.29065518913E+02  0.11143003048E+04  0.11153679713E+04  0.00000000000E+00 0. -1.
         -1    1    1    2    0  501 -0.39188488343E+02  0.29065518913E+02  0.65263961319E+03  0.65446085193E+03  0.00000000000E+00 0.  1.
</event>
<event>
 4    1  0.6769686E+001  0.2851795E+02  0.7546771E-02  0.1432928E+00
          2   -1    0    0  502    0  0.00000000000E+00  0.00000000000E+00  0.50611025632E+03  0.50611025632E+03  0.00000000000E+00 0.  1.
         -2   -1    0    0    0  501 -0.00000000000E+00 -0.00000000000E+00 -0.35545063143E+01  0.35545063143E+01  0.00000000000E+00 0. -1.
          1    1    1    2  502    0 -0.10176216723E+02  0.26640539324E+02  0.43990946247E+03  0.44083285823E+03  0.00000000000E+00 0.  1.
         -1    1    1    2    0  501  0.10176216723E+02 -0.26640539324E+02  0.62646287532E+02  0.68831904404E+02  0.00000000000E+00 0. -1.
</event>
<event>
 4    1  0.6769686E+001  0.4451290E+02  0.7546771E-02  0.1323893E+00
          2   -1    0    0  502    0  0.00000000000E+00  0.00000000000E+00  0.37350964069E+02  0.37350964069E+02  0.00000000000E+00 0. -1.
         -2   -1    0    0    0  501 -0.00000000000E+00 -0.00000000000E+00 -0.56736741556E+02  0.56736741556E+02  0.00000000000E+00 0.  1.
          1    1    1    2  502    0 -0.15853017262E+02 -0.41594227149E+02 -0.21687980694E+02  0.49515314752E+02  0.00000000000E+00 0. -1.
         -1    1    1    2    0  501  0.15853017262E+02  0.41594227149E+02  0.23022032064E+01  0.44572390872E+02  0.00000000000E+00 0.  1.
</event>
<event>
 4    1  0.6769686E+001  0.5447547E+02  0.7546771E-02  0.1279853E+00
          2   -1    0    0  502    0  0.00000000000E+00  0.00000000000E+00  0.96332106363E+02  0.96332106363E+02  0.00000000000E+00 0.  1.
         -2   -1    0    0    0  501 -0.00000000000E+00 -0.00000000000E+00 -0.70388637540E+02  0.70388637540E+02  0.00000000000E+00 0. -1.
          1    1    1    2  502    0  0.12515376715E+02  0.53018318854E+02 -0.49540128582E+02  0.73632880755E+02  0.00000000000E+00 0. -1.
         -1    1    1    2    0  501 -0.12515376715E+02 -0.53018318854E+02  0.75483597404E+02  0.93087863148E+02  0.00000000000E+00 0.  1.
</event>
<event>
 4    1  0.6769686E+001  0.3517338E+02  0.7546771E-02  0.1379348E+00
          2   -1    0    0  502    0  0.00000000000E+00  0.00000000000E+00  0.10006274884E+03  0.10006274884E+03  0.00000000000E+00 0. -1.
         -2   -1    0    0    0  501 -0.00000000000E+00 -0.00000000000E+00 -0.48440726428E+02  0.48440726428E+02  0.00000000000E+00 0.  1.
          1    1    1    2  502    0 -0.30853485171E+02  0.16888722390E+02  0.89889966240E+02  0.96526537915E+02  0.00000000000E+00 0. -1.
         -1    1    1    2    0  501  0.30853485171E+02 -0.16888722390E+02 -0.38267943832E+02  0.51976937350E+02  0.00000000000E+00 0.  1.
</event>
<event>
 4    1  0.6769686E+001  0.2712156E+02  0.7546771E-02  0.1446391E+00
          2   -1    0    0  502    0  0.00000000000E+00  0.00000000000E+00  0.14071588712E+03  0.14071588712E+03  0.00000000000E+00 0.  1.
         -2   -1    0    0    0  501 -0.00000000000E+00 -0.00000000000E+00 -0.54319604027E+01  0.54319604027E+01  0.00000000000E+00 0. -1.
          1    1    1    2  502    0 -0.17559579549E+02  0.20669794316E+02  0.53461600283E+02  0.59947659970E+02  0.00000000000E+00 0.  1.
         -1    1    1    2    0  501  0.17559579549E+02 -0.20669794316E+02  0.81822326430E+02  0.86200187549E+02  0.00000000000E+00 0. -1.
</event>
<event>
 4    1  0.6769686E+001  0.3710235E+02  0.7546771E-02  0.1366357E+00
          2   -1    0    0  502    0  0.00000000000E+00  0.00000000000E+00  0.15825166762E+03  0.15825166762E+03  0.00000000000E+00 0.  1.
         -2   -1    0    0    0  501 -0.00000000000E+00 -0.00000000000E+00 -0.95151299436E+01  0.95151299436E+01  0.00000000000E+00 0. -1.
          1    1    1    2  502    0 -0.38715859290E+01 -0.36899797610E+02  0.49797013446E+02  0.62099330024E+02  0.00000000000E+00 0. -1.
         -1    1    1    2    0  501  0.38715859290E+01  0.36899797610E+02  0.98939524228E+02  0.10566746754E+03  0.00000000000E+00 0.  1.
</event>
<event>
 4    1  0.6769686E+001  0.3163180E+02  0.7546771E-02  0.1405927E+00
          2   -1    0    0  502    0  0.00000000000E+00  0.00000000000E+00  0.11012736004E+03  0.11012736004E+03  0.00000000000E+00 0.  1.
         -2   -1    0    0    0  501 -0.00000000000E+00 -0.00000000000E+00 -0.12154266665E+02  0.12154266665E+02  0.00000000000E+00 0. -1.
          1    1    1    2  502    0  0.44431267667E+01  0.31318193279E+02  0.18264982836E+02  0.36526431577E+02  0.00000000000E+00 0. -1.
         -1    1    1    2    0  501 -0.44431267667E+01 -0.31318193279E+02  0.79708110538E+02  0.85755195127E+02  0.00000000000E+00 0.  1.
</event>
<event>
 4    1  0.6769686E+001  0.2032813E+02  0.7546771E-02  0.1529077E+00
          2   -1    0    0  502    0  0.00000000000E+00  0.00000000000E+00  0.35629050745E+03  0.35629050745E+03  0.00000000000E+00 0.  1.
         -2   -1    0    0    0  501 -0.00000000000E+00 -0.00000000000E+00 -0.12700713548E+01  0.12700713548E+01  0.00000000000E+00 0. -1.
          1    1    1    2  502    0 -0.11519029215E+02 -0.16749466774E+02  0.23018449297E+03  0.23108036151E+03  0.00000000000E+00 0.  1.
         -1    1    1    2    0  501  0.11519029215E+02  0.16749466774E+02  0.12483594313E+03  0.12648021730E+03  0.00000000000E+00 0. -1.
</event>
<event>
 4    1  0.6769686E+001  0.2272459E+02  0.7546771E-02  0.1495986E+00
          2   -1    0    0  502    0  0.00000000000E+00  0.00000000000E+00  0.29610606432E+02  0.29610606432E+02  0.00000000000E+00 0. -1.
         -2   -1    0    0    0  501 -0.00000000000E+00 -0.00000000000E+00 -0.43731269198E+02  0.43731269198E+02  0.00000000000E+00 0.  1.
          1    1    1    2  502    0 -0.20610994906E+02  0.95704694899E+01  0.21373298350E+02  0.31196552367E+02  0.00000000000E+00 0. -1.
         -1    1    1    2    0  501  0.20610994906E+02 -0.95704694899E+01 -0.35493961116E+02  0.42145323263E+02  0.00000000000E+00 0.  1.
</event>
<event>
 4    1  0.6769686E+001  0.2278218E+02  0.7546771E-02  0.1495252E+00
          2   -1    0    0  502    0  0.00000000000E+00  0.00000000000E+00  0.17536592034E+04  0.17536592034E+04  0.00000000000E+00 0.  1.
         -2   -1    0    0    0  501 -0.00000000000E+00 -0.00000000000E+00 -0.33935116593E+00  0.33935116593E+00  0.00000000000E+00 0. -1.
          1    1    1    2  502    0  0.82829699156E+01  0.21223102477E+02  0.56309080167E+03  0.56355148708E+03  0.00000000000E+00 0. -1.
         -1    1    1    2    0  501 -0.82829699156E+01 -0.21223102477E+02  0.11902290506E+04  0.11904470675E+04  0.00000000000E+00 0.  1.
</event>
<event>
 4    1  0.6769686E+001  0.2557597E+02  0.7546771E-02  0.1462462E+00
          2   -1    0    0  502    0  0.00000000000E+00  0.00000000000E+00  0.12711327768E+04  0.12711327768E+04  0.00000000000E+00 0. -1.
         -2   -1    0    0    0  501 -0.00000000000E+00 -0.00000000000E+00 -0.16018906261E+01  0.16018906261E+01  0.00000000000E+00 0.  1.
          1    1    1    2  502    0  0.62506118602E+01 -0.24800401868E+02  0.11048523850E+03  0.11340686931E+03  0.00000000000E+00 0.  1.
         -1    1    1    2    0  501 -0.62506118602E+01  0.24800401868E+02  0.11590456476E+04  0.11593277981E+04  0.00000000000E+00 0. -1.
</event>
<event>
 4    1  0.6769686E+001  0.2327962E+02  0.7546771E-02  0.1489017E+00
          2   -1    0    0  502    0  0.00000000000E+00  0.00000000000E+00  0.24897137640E+03  0.24897137640E+03  0.00000000000E+00 0.  1.
         -2   -1    0    0    0  501 -0.00000000000E+00 -0.00000000000E+00 -0.25686070357E+01  0.25686070357E+01  0.00000000000E+00 0. -1.
          1    1    1    2  502    0  0.86228340196E+01  0.21623766757E+02  0.74075591052E+02  0.77647496708E+02  0.00000000000E+00 0. -1.
         -1    1    1    2    0  501 -0.86228340196E+01 -0.21623766757E+02  0.17232717831E+03  0.17389248673E+03  0.00000000000E+00 0.  1.
</event>
<event>
 4    1  0.6769686E+001  0.2755003E+02  0.7546771E-02  0.1442160E+00
          2   -1    0    0  502    0  0.00000000000E+00  0.00000000000E+00  0.15666836912E+04  0.15666836912E+04  0.00000000000E+00 0.  1.
         -2   -1    0    0    0  501 -0.00000000000E+00 -0.00000000000E+00 -0.48562132786E+00  0.48562132786E+00  0.00000000000E+00 0. -1.
          1    1    1    2  502    0  0.14924646028E+01 -0.27509578310E+02  0.82132561500E+03  0.82178754566E+03  0.00000000000E+00 0.  1.
         -1    1    1    2    0  501 -0.14924646028E+01  0.27509578310E+02  0.74487245488E+03  0.74538176688E+03  0.00000000000E+00 0. -1.
</event>
<event>
 4    1  0.6769686E+001  0.2643858E+02  0.7546771E-02  0.1453331E+00
          2   -1    0    0  502    0  0.00000000000E+00  0.00000000000E+00  0.41612310858E+03  0.41612310858E+03  0.00000000000E+00 0.  1.
         -2   -1    0    0    0  501 -0.00000000000E+00 -0.00000000000E+00 -0.17556677717E+01  0.17556677717E+01  0.00000000000E+00 0. -1.
          1    1    1    2  502    0 -0.11769478721E+02 -0.23674411882E+02  0.25062108946E+03  0.25201176339E+03  0.00000000000E+00 0.  1.
         -1    1    1    2    0  501  0.11769478721E+02  0.23674411882E+02  0.16374635135E+03  0.16586701296E+03  0.00000000000E+00 0. -1.
</event>
<event>
 4    1  0.6769686E+001  0.2687070E+02  0.7546771E-02  0.1448911E+00
          2   -1    0    0  502    0  0.00000000000E+00  0.00000000000E+00  0.16137620179E+04  0.16137620179E+04  0.00000000000E+00 0. -1.
         -2   -1    0    0    0  501 -0.00000000000E+00 -0.00000000000E+00 -0.51468808978E+00  0.51468808978E+00  0.00000000000E+00 0.  1.
          1    1    1    2  502    0 -0.17975500621E+02 -0.19972885206E+02  0.10984132204E+04  0.10987418430E+04  0.00000000000E+00 0. -1.
         -1    1    1    2    0  501  0.17975500621E+02  0.19972885206E+02  0.51483410938E+03  0.51553486298E+03  0.00000000000E+00 0.  1.
</event>
<event>
 4    1  0.6769686E+001  0.2986915E+02  0.7546771E-02  0.1420737E+00
          2   -1    0    0  502    0  0.00000000000E+00  0.00000000000E+00  0.25906940466E+03  0.25906940466E+03  0.00000000000E+00 0.  1.
         -2   -1    0    0    0  501 -0.00000000000E+00 -0.00000000000E+00 -0.37544127040E+01  0.37544127040E+01  0.00000000000E+00 0. -1.
          1    1    1    2  502    0 -0.19215145613E+02  0.22867970096E+02  0.89855032050E+02  0.94689453805E+02  0.00000000000E+00 0.  1.
         -1    1    1    2    0  501  0.19215145613E+02 -0.22867970096E+02  0.16545995991E+03  0.16813436356E+03  0.00000000000E+00 0. -1.
</event>
<event>
 4    1  0.6769686E+001  0.2528531E+02  0.7546771E-02  0.1465637E+00
          2   -1    0    0  502    0  0.00000000000E+00  0.00000000000E+00  0.25702251769E+02  0.25702251769E+02  0.00000000000E+00 0. -1.
         -2   -1    0    0    0  501 -0.00000000000E+00 -0.00000000000E+00 -0.26304529225E+02  0.26304529225E+02  0.00000000000E+00 0.  1.
          1    1    1    2  502    0  0.83578520077E+01  0.23864052985E+02 -0.63628089287E+01  0.26073589176E+02  0.00000000000E+00 0.  1.
         -1    1    1    2    0  501 -0.83578520077E+01 -0.23864052985E+02  0.57605314724E+01  0.25933191818E+02  0.00000000000E+00 0. -1.
</event>
<event>
 4    1  0.6769686E+001  0.2895660E+02  0.7546771E-02  0.1428885E+00
          2   -1    0    0  502    0  0.00000000000E+00  0.00000000000E+00  0.92733235179E+02  0.92733235179E+02  0.00000000000E+00 0. -1.
         -2   -1    0    0    0  501 -0.00000000000E+00 -0.00000000000E+00 -0.12751138569E+02  0.12751138569E+02  0.00000000000E+00 0.  1.
          1    1    1    2  502    0  0.28071324578E+02 -0.71053021386E+01  0.11544729691E+02  0.31173151360E+02  0.00000000000E+00 0.  1.
         -1    1    1    2    0  501 -0.28071324578E+02  0.71053021386E+01  0.68437366919E+02  0.74311222388E+02  0.00000000000E+00 0. -1.
</event>
<event>
 4    1  0.6769686E+001  0.4694523E+02  0.7546771E-02  0.1311989E+00
          2   -1    0    0  502    0  0.00000000000E+00  0.00000000000E+00  0.31478657947E+03  0.31478657947E+03  0.00000000000E+00 0.  1.
         -2   -1    0    0    0  501 -0.00000000000E+00 -0.00000000000E+00 -0.86157732384E+01  0.86157732384E+01  0.00000000000E+00 0. -1.
          1    1    1    2  502    0  0.42796893784E+02  0.19294573343E+02  0.83083899895E+02  0.95429498059E+02  0.00000000000E+00 0. -1.
         -1    1    1    2    0  501 -0.42796893784E+02 -0.19294573343E+02  0.22308690634E+03  0.22797285465E+03  0.00000000000E+00 0.  1.
</event>
<event>
 4    1  0.6769686E+001  0.3266195E+02  0.7546771E-02  0.1397790E+00
          2   -1    0    0  502    0  0.00000000000E+00  0.00000000000E+00  0.61993849167E+03  0.61993849167E+03  0.00000000000E+00 0.  1.
         -2   -1    0    0    0  501 -0.00000000000E+00 -0.00000000000E+00 -0.20554757233E+01  0.20554757233E+01  0.00000000000E+00 0. -1.
          1    1    1    2  502    0  0.17377351109E+02  0.27655570241E+02  0.18345449788E+03  0.18633935626E+03  0.00000000000E+00 0. -1.
         -1    1    1    2    0  501 -0.17377351109E+02 -0.27655570241E+02  0.43442851806E+03  0.43565461113E+03  0.00000000000E+00 0.  1.
</event>
<event>
 4    1  0.6769686E+001  0.3016402E+02  0.7546771E-02  0.1418176E+00
          2   -1    0    0  502    0  0.00000000000E+00  0.00000000000E+00  0.94111108028E+02  0.94111108028E+02  0.00000000000E+00 0. -1.
         -2   -1    0    0    0  501 -0.00000000000E+00 -0.00000000000E+00 -0.12536068385E+02  0.12536068385E+02  0.00000000000E+00 0.  1.
          1    1    1    2  502    0  0.10928677638E+02 -0.28114622208E+02  0.66292911966E+02  0.72832809597E+02  0.00000000000E+00 0. -1.
         -1    1    1    2    0  501 -0.10928677638E+02  0.28114622208E+02  0.15282127677E+02  0.33814366816E+02  0.00000000000E+00 0.  1.
</event>
<event>
 4    1  0.6769686E+001  0.2086642E+02  0.7546771E-02  0.1521181E+00
          2   -1    0    0  502    0  0.00000000000E+00  0.00000000000E+00  0.10406861378E+03  0.10406861378E+03  0.00000000000E+00 0. -1.
         -2   -1    0    0    0  501 -0.00000000000E+00 -0.00000000000E+00 -0.42891283391E+01  0.42891283391E+01  0.00000000000E+00 0.  1.
          1    1    1    2  502    0 -0.13221143297E+02  0.16143381806E+02  0.58377954429E+02  0.61995104400E+02  0.00000000000E+00 0. -1.
         -1    1    1    2    0  501  0.13221143297E+02 -0.16143381806E+02  0.41401531012E+02  0.46362637720E+02  0.00000000000E+00 0.  1.
</event>
<event>
 4    1  0.6769686E+001  0.2389610E+02  0.7546771E-02  0.1481542E+00
          2   -1    0    0  502    0  0.00000000000E+00  0.00000000000E+00  0.19093860385E+02  0.19093860385E+02  0.00000000000E+00 0.  1.
         -2   -1    0    0    0  501 -0.00000000000E+00 -0.00000000000E+00 -0.32507565625E+02  0.32507565625E+02  0.00000000000E+00 0. -1.
          1    1    1    2  502    0  0.34173986749E+00 -0.23893654062E+02  0.59185454366E+00  0.23903426164E+02  0.00000000000E+00 0.  1.
         -1    1    1    2    0  501 -0.34173986749E+00  0.23893654062E+02 -0.14005559784E+02  0.27697999846E+02  0.00000000000E+00 0. -1.
</event>
<event>
 4    1  0.6769686E+001  0.2229323E+02  0.7546771E-02  0.1501569E+00
          2   -1    0    0  502    0  0.00000000000E+00  0.00000000000E+00  0.12226852906E+02  0.12226852906E+02  0.00000000000E+00 0.  1.
         -2   -1    0    0    0  501 -0.00000000000E+00 -0.00000000000E+00 -0.43762031933E+02  0.43762031933E+02  0.00000000000E+00 0. -1.
          1    1    1    2  502    0 -0.18094384588E+02 -0.13022346087E+02 -0.82990588223E+01  0.23787867256E+02  0.00000000000E+00 0. -1.
         -1    1    1    2    0  501  0.18094384588E+02  0.13022346087E+02 -0.23236120205E+02  0.32201017584E+02  0.00000000000E+00 0.  1.
</event>
<event>
 4    1  0.6769686E+001  0.2996938E+02  0.7546771E-02  0.1419863E+00
          2   -1    0    0  502    0  0.00000000000E+00  0.00000000000E+00  0.28535210974E+03  0.28535210974E+03  0.00000000000E+00 0. -1.
         -2   -1    0    0    0  501 -0.00000000000E+00 -0.00000000000E+00 -0.38380906335E+01  0.38380906335E+01  0.00000000000E+00 0.  1.
          1    1    1    2  502    0 -0.21706789117E+02 -0.20663473939E+02  0.20208890372E+03  0.20429901825E+03  0.00000000000E+00 0. -1.
         -1    1    1    2    0  501  0.21706789117E+02  0.20663473939E+02  0.79425115379E+02  0.84891182122E+02  0.00000000000E+00 0.  1.
</event>
<event>
 4    1  0.6769686E+001  0.3774117E+02  0.7546771E-02  0.1362256E+00
          2   -1    0    0  502    0  0.00000000000E+00  0.00000000000E+00  0.98324803354E+03  0.98324803354E+03  0.00000000000E+00 0.  1.
         -2   -1    0    0    0  501 -0.00000000000E+00 -0.00000000000E+00 -0.23606214362E+01  0.23606214362E+01  0.00000000000E+00 0. -1.
          1    1    1    2  502    0 -0.36483851163E+02 -0.96604463199E+01  0.18414248826E+03  0.18797034766E+03  0.00000000000E+00 0. -1.
         -1    1    1    2    0  501  0.36483851163E+02  0.96604463199E+01  0.79674492385E+03  0.79763830731E+03  0.00000000000E+00 0.  1.
</event>
<event>
 4    1  0.6769686E+001  0.6213926E+02  0.7546771E-02  0.1252732E+00
          2   -1    0    0  502    0  0.00000000000E+00  0.00000000000E+00  0.58734732259E+01  0.58734732259E+01  0.00000000000E+00 0. -1.
         -2   -1    0    0    0  501 -0.00000000000E+00 -0.00000000000E+00 -0.80241929854E+03  0.80241929854E+03  0.00000000000E+00 0.  1.
          1    1    1    2  502    0  0.42877008251E+02  0.44976103718E+02 -0.57007719209E+03  0.57345382785E+03  0.00000000000E+00 0. -1.
         -1    1    1    2    0  501 -0.42877008251E+02 -0.44976103718E+02 -0.22646863323E+03  0.23483894392E+03  0.00000000000E+00 0.  1.
</event>
<event>
 4    1  0.6769686E+001  0.2452212E+02  0.7546771E-02  0.1474221E+00
          2   -1    0    0  502    0  0.00000000000E+00  0.00000000000E+00  0.10259137571E+04  0.10259137571E+04  0.00000000000E+00 0.  1.
         -2   -1    0    0    0  501 -0.00000000000E+00 -0.00000000000E+00 -0.58875773641E+00  0.58875773641E+00  0.00000000000E+00 0. -1.
          1    1    1    2  502    0 -0.18768981496E+02 -0.15781623882E+02  0.47847231579E+03  0.47910029357E+03  0.00000000000E+00 0. -1.
         -1    1    1    2    0  501  0.18768981496E+02  0.15781623882E+02  0.54685268355E+03  0.54740222125E+03  0.00000000000E+00 0.  1.
</event>
<event>
 4    1  0.6769686E+001  0.3284484E+02  0.7546771E-02  0.1396382E+00
          2   -1    0    0  502    0  0.00000000000E+00  0.00000000000E+00  0.13156792162E+04  0.13156792162E+04  0.00000000000E+00 0. -1.
         -2   -1    0    0    0  501 -0.00000000000E+00 -0.00000000000E+00 -0.81997527232E+00  0.81997527232E+00  0.00000000000E+00 0.  1.
          1    1    1    2  502    0  0.28050654128E+01  0.32724836959E+02  0.66149141310E+03  0.66230632864E+03  0.00000000000E+00 0.  1.
         -1    1    1    2    0  501 -0.28050654128E+01 -0.32724836959E+02  0.65336782781E+03  0.65419286282E+03  0.00000000000E+00 0. -1.
</event>
<event>
 4    1  0.6769686E+001  0.4313884E+02  0.7546771E-02  0.1331013E+00
          2   -1    0    0  502    0  0.00000000000E+00  0.00000000000E+00  0.37108844923E+03  0.37108844923E+03  0.00000000000E+00 0.  1.
         -2   -1    0    0    0  501 -0.00000000000E+00 -0.00000000000E+00 -0.50314872333E+01  0.50314872333E+01  0.00000000000E+00 0. -1.
          1    1    1    2  502    0 -0.20742206023E+02  0.37824867676E+02  0.17222039314E+03  0.17754104747E+03  0.00000000000E+00 0.  1.
         -1    1    1    2    0  501  0.20742206023E+02 -0.37824867676E+02  0.19383656886E+03  0.19857888899E+03  0.00000000000E+00 0. -1.
</event>
<event>
 4    1  0.6769686E+001  0.2567917E+02  0.7546771E-02  0.1461347E+00
          2   -1    0    0  502    0  0.00000000000E+00  0.00000000000E+00  0.10221372984E+04  0.10221372984E+04  0.00000000000E+00 0.  1.
         -2   -1    0    0    0  501 -0.00000000000E+00 -0.00000000000E+00 -0.17756736861E+01  0.17756736861E+01  0.00000000000E+00 0. -1.
          1    1    1    2  502    0  0.25321522051E+02 -0.42708591124E+01  0.91868224915E+03  0.91904107341E+03  0.00000000000E+00 0.  1.
         -1    1    1    2    0  501 -0.25321522051E+02  0.42708591124E+01  0.10167937561E+03  0.10487189872E+03  0.00000000000E+00 0. -1.
</event>
<event>
 4    1  0.6769686E+001  0.2531141E+02  0.7546771E-02  0.1465350E+00
          2   -1    0    0  502    0  0.00000000000E+00  0.00000000000E+00  0.37026601345E+03  0.37026601345E+03  0.00000000000E+00 0.  1.
         -2   -1    0    0    0  501 -0.00000000000E+00 -0.00000000000E+00 -0.18002947768E+01  0.18002947768E+01  0.00000000000E+00 0. -1.
          1    1    1    2  502    0 -0.25190688430E+02 -0.24691759032E+01  0.14754840181E+03  0.14970370233E+03  0.00000000000E+00 0. -1.
         -1    1    1    2    0  501  0.25190688430E+02  0.24691759032E+01  0.22091731686E+03  0.22236260590E+03  0.00000000000E+00 0.  1.
</event>
<event>
 4    1  0.6769686E+001  0.2148470E+02  0.7546771E-02  0.1512456E+00
          2   -1    0    0  502    0  0.00000000000E+00  0.00000000000E+00  0.51166536090E+02  0.51166536090E+02  0.00000000000E+00 0.  1.
         -2   -1    0    0    0  501 -0.00000000000E+00 -0.00000000000E+00 -0.13254450939E+02  0.13254450939E+02  0.00000000000E+00 0. -1.
          1    1    1    2  502    0  0.16079183043E+02 -0.14249634955E+02  0.37159120334E+02  0.42923099232E+02  0.00000000000E+00 0.  1.
         -1    1    1    2    0  501 -0.16079183043E+02  0.14249634955E+02  0.75296481593E+00  0.21497887796E+02  0.00000000000E+00 0. -1.
</event>
<event>
 4    1  0.6769686E+001  0.2705814E+02  0.7546771E-02  0.1447025E+00
          2   -1    0    0  502    0  0.00000000000E+00  0.00000000000E+00  0.44363720121E+03  0.44363720121E+03  0.00000000000E+00 0. -1.
         -2   -1    0    0    0  501 -0.00000000000E+00 -0.00000000000E+00 -0.20230392803E+01  0.20230392803E+01  0.00000000000E+00 0.  1.
          1    1    1    2  502    0 -0.22300661341E+02  0.15323943016E+02  0.12516181466E+03  0.12805320213E+03  0.00000000000E+00 0.  1.
         -1    1    1    2    0  501  0.22300661341E+02 -0.15323943016E+02  0.31645234727E+03  0.31760703836E+03  0.00000000000E+00 0. -1.
</event>
<event>
 4    1  0.6769686E+001  0.3420943E+02  0.7546771E-02  0.1386208E+00
          2   -1    0    0  502    0  0.00000000000E+00  0.00000000000E+00  0.48626190189E+02  0.48626190189E+02  0.00000000000E+00 0. -1.
         -2   -1    0    0    0  501 -0.00000000000E+00 -0.00000000000E+00 -0.24067278393E+02  0.24067278393E+02  0.00000000000E+00 0.  1.
          1    1    1    2  502    0 -0.61832295670E+01 -0.33645992780E+02  0.12409140274E+02  0.36390547129E+02  0.00000000000E+00 0.  1.
         -1    1    1    2    0  501  0.61832295670E+01  0.33645992780E+02  0.12149771521E+02  0.36302921453E+02  0.00000000000E+00 0. -1.
</event>
<event>
 4    1  0.6769686E+001  0.4390333E+02  0.7546771E-02  0.1327015E+00
          2   -1    0    0  502    0  0.00000000000E+00  0.00000000000E+00  0.59282055104E+03  0.59282055104E+03  0.00000000000E+00 0.  1.
         -2   -1    0    0    0  501 -0.00000000000E+00 -0.00000000000E+00 -0.54897848491E+01  0.54897848491E+01  0.00000000000E+00 0. -1.
          1    1    1    2  502    0 -0.35415767384E+02  0.25946599518E+02  0.10264255681E+03  0.11163779411E+03  0.00000000000E+00 0. -1.
         -1    1    1    2    0  501  0.35415767384E+02 -0.25946599518E+02  0.48468820938E+03  0.48667254177E+03  0.00000000000E+00 0.  1.
</event>
<event>
 4    1  0.6769686E+001  0.2812073E+02  0.7546771E-02  0.1436664E+00
          2   -1    0    0  502    0  0.00000000000E+00  0.00000000000E+00  0.11225784726E+03  0.11225784726E+03  0.00000000000E+00 0.  1.
         -2   -1    0    0    0  501 -0.00000000000E+00 -0.00000000000E+00 -0.70924843858E+01  0.70924843858E+01  0.00000000000E+00 0. -1.
          1    1    1    2  502    0  0.23320799444E+02  0.15713546804E+02  0.57502584102E+02  0.64010330559E+02  0.00000000000E+00 0.  1.
         -1    1    1    2    0  501 -0.23320799444E+02 -0.15713546804E+02  0.47662778768E+02  0.55340001082E+02  0.00000000000E+00 0. -1.
</event>
<event>
 4    1  0.6769686E+001  0.2054197E+02  0.7546771E-02  0.1525906E+00
          2   -1    0    0  502    0  0.00000000000E+00  0.00000000000E+00  0.77189493608E+02  0.77189493608E+02  0.00000000000E+00 0.  1.
         -2   -1    0    0    0  501 -0.00000000000E+00 -0.00000000000E+00 -0.60420584123E+01  0.60420584123E+01  0.00000000000E+00 0. -1.
          1    1    1    2  502    0 -0.56992675783E+01 -0.19735528301E+02  0.22731788861E+02  0.30638324906E+02  0.00000000000E+00 0. -1.
         -1    1    1    2    0  501  0.56992675783E+01  0.19735528301E+02  0.48415646335E+02  0.52593227114E+02  0.00000000000E+00 0.  1.
</event>
<event>
 4    1  0.6769686E+001  0.2074607E+02  0.7546771E-02  0.1522921E+00
          2   -1    0    0  502    0  0.00000000000E+00  0.00000000000E+00  0.42689014312E+01  0.42689014312E+01  0.00000000000E+00 0.  1.
         -2   -1    0    0    0  501 -0.00000000000E+00 -0.00000000000E+00 -0.10641596202E+03  0.10641596202E+03  0.00000000000E+00 0. -1.
          1    1    1    2  502    0  0.19070272272E+02  0.81684898765E+01 -0.63762068571E+02  0.67052225167E+02  0.00000000000E+00 0. -1.
         -1    1    1    2    0  501 -0.19070272272E+02 -0.81684898765E+01 -0.38384992017E+02  0.43632638283E+02  0.00000000000E+00 0.  1.
</event>
<event>
 4    1  0.6769686E+001  0.2304142E+02  0.7546771E-02  0.1491979E+00
          2   -1    0    0  502    0  0.00000000000E+00  0.00000000000E+00  0.37294672228E+02  0.37294672228E+02  0.00000000000E+00 0. -1.
         -2   -1    0    0    0  501 -0.00000000000E+00 -0.00000000000E+00 -0.21202157397E+03  0.21202157397E+03  0.00000000000E+00 0.  1.
          1    1    1    2  502    0 -0.21727134924E+02  0.76706443043E+01  0.33037091913E+02  0.40278488280E+02  0.00000000000E+00 0. -1.
         -1    1    1    2    0  501  0.21727134924E+02 -0.76706443043E+01 -0.20776399366E+03  0.20903775792E+03  0.00000000000E+00 0.  1.
</event>
<event>
 4    1  0.6769686E+001  0.2020498E+02  0.7546771E-02  0.1530925E+00
          2   -1    0    0  502    0  0.00000000000E+00  0.00000000000E+00  0.34930207839E+02  0.34930207839E+02  0.00000000000E+00 0. -1.
         -2   -1    0    0    0  501 -0.00000000000E+00 -0.00000000000E+00 -0.11723804378E+02  0.11723804378E+02  0.00000000000E+00 0.  1.
          1    1    1    2  502    0 -0.28549716153E+01  0.20002262711E+02  0.10302338490E+02  0.22679937276E+02  0.00000000000E+00 0. -1.
         -1    1    1    2    0  501  0.28549716153E+01 -0.20002262711E+02  0.12904064971E+02  0.23974074941E+02  0.00000000000E+00 0.  1.
</event>
<event>
 4    1  0.6769686E+001  0.3197810E+02  0.7546771E-02  0.1403151E+00
          2   -1    0    0  502    0  0.00000000000E+00  0.00000000000E+00  0.14341644307E+04  0.14341644307E+04  0.00000000000E+00 0. -1.
         -2   -1    0    0    0  501 -0.00000000000E+00 -0.00000000000E+00 -0.73205919016E+00  0.73205919016E+00  0.00000000000E+00 0.  1.
          1    1    1    2  502    0  0.15669703993E+02 -0.27875778801E+02  0.83239564523E+03  0.83300966913E+03  0.00000000000E+00 0. -1.
         -1    1    1    2    0  501 -0.15669703993E+02  0.27875778801E+02  0.60103672626E+03  0.60188682074E+03  0.00000000000E+00 0.  1.
</event>
<event>
 4    1  0.6769686E+001  0.2102905E+02  0.7546771E-02  0.1518850E+00
          2   -1    0    0  502    0  0.00000000000E+00  0.00000000000E+00  0.54917712016E+03  0.54917712016E+03  0.00000000000E+00 0.  1.
         -2   -1    0    0    0  501 -0.00000000000E+00 -0.00000000000E+00 -0.89718149335E+00  0.89718149335E+00  0.00000000000E+00 0. -1.
          1    1    1    2  502    0 -0.20856047569E+02 -0.26918910473E+01  0.36218402612E+03  0.36279400460E+03  0.00000000000E+00 0.  1.
         -1    1    1    2    0  501  0.20856047569E+02  0.26918910473E+01  0.18609591255E+03  0.18728029706E+03  0.00000000000E+00 0. -1.
</event>
<event>
 4    1  0.6769686E+001  0.2095428E+02  0.7546771E-02  0.1519919E+00
          2   -1    0    0  502    0  0.00000000000E+00  0.00000000000E+00  0.20492391475E+03  0.20492391475E+03  0.00000000000E+00 0. -1.
         -2   -1    0    0    0  501 -0.00000000000E+00 -0.00000000000E+00 -0.24314885103E+01  0.24314885103E+01  0.00000000000E+00 0.  1.
          1    1    1    2  502    0  0.20896808117E+02 -0.15508692487E+01  0.13697934473E+03  0.13857280638E+03  0.00000000000E+00 0. -1.
         -1    1    1    2    0  501 -0.20896808117E+02  0.15508692487E+01  0.65513081511E+02  0.68782596883E+02  0.00000000000E+00 0.  1.
</event>
<event>
 4    1  0.6769686E+001  0.2657489E+02  0.7546771E-02  0.1451926E+00
          2   -1    0    0  502    0  0.00000000000E+00  0.00000000000E+00  0.11621621205E+02  0.11621621205E+02  0.00000000000E+00 0. -1.
         -2   -1    0    0    0  501 -0.00000000000E+00 -0.00000000000E+00 -0.64704724537E+02  0.64704724537E+02  0.00000000000E+00 0.  1.
          1    1    1    2  502    0  0.16909976563E+02 -0.20500673024E+02 -0.17128435165E+02  0.31616580983E+02  0.00000000000E+00 0. -1.
         -1    1    1    2    0  501 -0.16909976563E+02  0.20500673024E+02 -0.35954668168E+02  0.44709764760E+02  0.00000000000E+00 0.  1.
</event>
<event>
 4    1  0.6769686E+001  0.4584742E+02  0.7546771E-02  0.1317256E+00
          2   -1    0    0  502    0  0.00000000000E+00  0.00000000000E+00  0.13103316246E+04  0.13103316246E+04  0.00000000000E+00 0.  1.
         -2   -1    0    0    0  501 -0.00000000000E+00 -0.00000000000E+00 -0.19869317986E+01  0.19869317986E+01  0.00000000000E+00 0. -1.
          1    1    1    2  502    0  0.92310068237E+01 -0.44908509187E+02  0.94216803291E+03  0.94328287800E+03  0.00000000000E+00 0.  1.
         -1    1    1    2    0  501 -0.92310068237E+01  0.44908509187E+02  0.36617665992E+03  0.36903567843E+03  0.00000000000E+00 0. -1.
</event>
<event>
 4    1  0.6769686E+001  0.2084728E+02  0.7546771E-02  0.1521457E+00
          2   -1    0    0  502    0  0.00000000000E+00  0.00000000000E+00  0.48414194879E+01  0.48414194879E+01  0.00000000000E+00 0. -1.
         -2   -1    0    0    0  501 -0.00000000000E+00 -0.00000000000E+00 -0.94844616644E+02  0.94844616644E+02  0.00000000000E+00 0.  1.
          1    1    1    2  502    0 -0.20581542992E+02 -0.33179952535E+01 -0.33471161581E+02  0.39432571080E+02  0.00000000000E+00 0.  1.
         -1    1    1    2    0  501  0.20581542992E+02  0.33179952535E+01 -0.56532035575E+02  0.60253465052E+02  0.00000000000E+00 0. -1.
</event>
<event>
 4    1  0.6769686E+001  0.2033414E+02  0.7546771E-02  0.1528988E+00
          2   -1    0    0  502    0  0.00000000000E+00  0.00000000000E+00  0.90061597914E+01  0.90061597914E+01  0.00000000000E+00 0. -1.
         -2   -1    0    0    0  501 -0.00000000000E+00 -0.00000000000E+00 -0.46162332579E+02  0.46162332579E+02  0.00000000000E+00 0.  1.
          1    1    1    2  502    0  0.26564087014E+01  0.20159884533E+02 -0.16540769404E+02  0.26212106059E+02  0.00000000000E+00 0.  1.
         -1    1    1    2    0  501 -0.26564087014E+01 -0.20159884533E+02 -0.20615403384E+02  0.28956386312E+02  0.00000000000E+00 0. -1.
</event>
<event>
 4    1  0.6769686E+001  0.2193720E+02  0.7546771E-02  0.1506293E+00
          2   -1    0    0  502    0  0.00000000000E+00  0.00000000000E+00  0.10408328152E+04  0.10408328152E+04  0.00000000000E+00 0.  1.
         -2   -1    0    0    0  501 -0.00000000000E+00 -0.00000000000E+00 -0.52353009300E+00  0.52353009300E+00  0.00000000000E+00 0. -1.
          1    1    1    2  502    0  0.17421621786E+02  0.13331461325E+02  0.34217773277E+03  0.34288021461E+03  0.00000000000E+00 0. -1.
         -1    1    1    2    0  501 -0.17421621786E+02 -0.13331461325E+02  0.69813155229E+03  0.69847613063E+03  0.00000000000E+00 0.  1.
</event>
<event>
 4    1  0.6769686E+001  0.2043409E+02  0.7546771E-02  0.1527500E+00
          2   -1    0    0  502    0  0.00000000000E+00  0.00000000000E+00  0.15698519008E+04  0.15698519008E+04  0.00000000000E+00 0. -1.
         -2   -1    0    0    0  501 -0.00000000000E+00 -0.00000000000E+00 -0.33710650345E+00  0.33710650345E+00  0.00000000000E+00 0.  1.
          1    1    1    2  502    0  0.12138283781E+02  0.16438191384E+02  0.11453763417E+04  0.11455586045E+04  0.00000000000E+00 0. -1.
         -1    1    1    2    0  501 -0.12138283781E+02 -0.16438191384E+02  0.42413845255E+03  0.42463040282E+03  0.00000000000E+00 0.  1.
</event>
<event>
 4    1  0.6769686E+001  0.5943430E+02  0.7546771E-02  0.1261767E+00
          2   -1    0    0  502    0  0.00000000000E+00  0.00000000000E+00  0.19032636349E+03  0.19032636349E+03  0.00000000000E+00 0.  1.
         -2   -1    0    0    0  501 -0.00000000000E+00 -0.00000000000E+00 -0.33202153856E+02  0.33202153856E+02  0.00000000000E+00 0. -1.
          1    1    1    2  502    0 -0.31043064854E+02 -0.50682980442E+02  0.15278261347E+03  0.16393585136E+03  0.00000000000E+00 0.  1.
         -1    1    1    2    0  501  0.31043064854E+02  0.50682980442E+02  0.43415961623E+01  0.59592665986E+02  0.00000000000E+00 0. -1.
</event>
<event>
 4    1  0.6769686E+001  0.5283316E+02  0.7546771E-02  0.1286335E+00
          2   -1    0    0  502    0  0.00000000000E+00  0.00000000000E+00  0.12059847849E+04  0.12059847849E+04  0.00000000000E+00 0. -1.
         -2   -1    0    0    0  501 -0.00000000000E+00 -0.00000000000E+00 -0.24114080925E+01  0.24114080925E+01  0.00000000000E+00 0.  1.
          1    1    1    2  502    0  0.35455661189E+02 -0.39169359409E+02  0.48071149679E+03  0.48360612669E+03  0.00000000000E+00 0.  1.
         -1    1    1    2    0  501 -0.35455661189E+02  0.39169359409E+02  0.72286187998E+03  0.72479006626E+03  0.00000000000E+00 0. -1.
</event>
<event>
 4    1  0.6769686E+001  0.2880740E+02  0.7546771E-02  0.1430251E+00
          2   -1    0    0  502    0  0.00000000000E+00  0.00000000000E+00  0.26683749358E+02  0.26683749358E+02  0.00000000000E+00 0. -1.
         -2   -1    0    0    0  501 -0.00000000000E+00 -0.00000000000E+00 -0.31110970235E+02  0.31110970235E+02  0.00000000000E+00 0.  1.
          1    1    1    2  502    0 -0.25713621295E+02 -0.12987539432E+02 -0.27544875841E+01  0.28938792347E+02  0.00000000000E+00 0. -1.
         -1    1    1    2    0  501  0.25713621295E+02  0.12987539432E+02 -0.16727332928E+01  0.28855927247E+02  0.00000000000E+00 0.  1.
</event>
<event>
 4    1  0.6769686E+001  0.2094698E+02  0.7546771E-02  0.1520023E+00
          2   -1    0    0  502    0  0.00000000000E+00  0.00000000000E+00  0.64231962558E+03  0.64231962558E+03  0.00000000000E+00 0.  1.
         -2   -1    0    0    0  501 -0.00000000000E+00 -0.00000000000E+00 -0.68315313748E+00  0.68315313748E+00  0.00000000000E+00 0. -1.
          1    1    1    2  502    0 -0.19124409556E+02  0.85459270503E+01  0.32332879780E+03  0.32400661629E+03  0.00000000000E+00 0. -1.
         -1    1    1    2    0  501  0.19124409556E+02 -0.85459270503E+01  0.31830767464E+03  0.31899616243E+03  0.00000000000E+00 0.  1.
</event>
<event>
 4    1  0.6769686E+001  0.3009084E+02  0.7546771E-02  0.1418809E+00
          2   -1    0    0  502    0  0.00000000000E+00  0.00000000000E+00  0.16108914488E+03  0.16108914488E+03  0.00000000000E+00 0. -1.
         -2   -1    0    0    0  501 -0.00000000000E+00 -0.00000000000E+00 -0.66530076531E+01  0.66530076531E+01  0.00000000000E+00 0.  1.
          1    1    1    2  502    0 -0.11327716241E+02 -0.27877260493E+02  0.11025312585E+03  0.11428565337E+03  0.00000000000E+00 0. -1.
         -1    1    1    2    0  501  0.11327716241E+02  0.27877260493E+02  0.44183011379E+02  0.53456499159E+02  0.00000000000E+00 0.  1.
</event>
<event>
 4    1  0.6769686E+001  0.2255796E+02  0.7546771E-02  0.1498125E+00
          2   -1    0    0  502    0  0.00000000000E+00  0.00000000000E+00  0.33919527328E+00  0.33919527328E+00  0.00000000000E+00 0. -1.
         -2   -1    0    0    0  501 -0.00000000000E+00 -0.00000000000E+00 -0.15078940459E+04  0.15078940459E+04  0.00000000000E+00 0.  1.
          1    1    1    2  502    0 -0.14002192173E+02  0.17686154586E+02 -0.80763814781E+03  0.80795311699E+03  0.00000000000E+00 0.  1.
         -1    1    1    2    0  501  0.14002192173E+02 -0.17686154586E+02 -0.69991670284E+03  0.70028012421E+03  0.00000000000E+00 0. -1.
</event>
<event>
 4    1  0.6769686E+001  0.2932212E+02  0.7546771E-02  0.1425580E+00
          2   -1    0    0  502    0  0.00000000000E+00  0.00000000000E+00  0.33181448984E+03  0.33181448984E+03  0.00000000000E+00 0.  1.
         -2   -1    0    0    0  501 -0.00000000000E+00 -0.00000000000E+00 -0.47278703179E+01  0.47278703179E+01  0.00000000000E+00 0. -1.
          1    1    1    2  502    0 -0.13784155319E+02  0.25880179891E+02  0.27666583924E+03  0.27821533612E+03  0.00000000000E+00 0.  1.
         -1    1    1    2    0  501  0.13784155319E+02 -0.25880179891E+02  0.50420780280E+02  0.58327024037E+02  0.00000000000E+00 0. -1.
</event>
<event>
 4    1  0.6769686E+001  0.2669850E+02  0.7546771E-02  0.1450660E+00
          2   -1    0    0  502    0  0.00000000000E+00  0.00000000000E+00  0.46521587770E+03  0.46521587770E+03  0.00000000000E+00 0. -1.
         -2   -1    0    0    0  501 -0.00000000000E+00 -0.00000000000E+00 -0.16687213679E+01  0.16687213679E+01  0.00000000000E+00 0.  1.
          1    1    1    2  502    0  0.51884778424E+01  0.26189490796E+02  0.16500570116E+03  0.16715170099E+03  0.00000000000E+00 0. -1.
         -1    1    1    2    0  501 -0.51884778424E+01 -0.26189490796E+02  0.29854145517E+03  0.29973289807E+03  0.00000000000E+00 0.  1.
</event>
<event>
 4    1  0.6769686E+001  0.2046442E+02  0.7546771E-02  0.1527051E+00
          2   -1    0    0  502    0  0.00000000000E+00  0.00000000000E+00  0.46458176911E+00  0.46458176911E+00  0.00000000000E+00 0. -1.
         -2   -1    0    0    0  501 -0.00000000000E+00 -0.00000000000E+00 -0.94594077873E+03  0.94594077873E+03  0.00000000000E+00 0.  1.
          1    1    1    2  502    0 -0.14753645893E+02 -0.14181768687E+02 -0.57537383525E+03  0.57573765112E+03  0.00000000000E+00 0. -1.
         -1    1    1    2    0  501  0.14753645893E+02  0.14181768687E+02 -0.37010236172E+03  0.37066770938E+03  0.00000000000E+00 0.  1.
</event>
<event>
 4    1  0.6769686E+001  0.4049430E+02  0.7546771E-02  0.1345613E+00
          2   -1    0    0  502    0  0.00000000000E+00  0.00000000000E+00  0.68364015730E+01  0.68364015730E+01  0.00000000000E+00 0.  1.
         -2   -1    0    0    0  501 -0.00000000000E+00 -0.00000000000E+00 -0.35116645796E+03  0.35116645796E+03  0.00000000000E+00 0. -1.
          1    1    1    2  502    0  0.40376657627E+02  0.30844724923E+01 -0.27294112898E+03  0.27592870155E+03  0.00000000000E+00 0. -1.
         -1    1    1    2    0  501 -0.40376657627E+02 -0.30844724923E+01 -0.71388927402E+02  0.82074157975E+02  0.00000000000E+00 0.  1.
</event>
<event>
 4    1  0.6769686E+001  0.3302420E+02  0.7546771E-02  0.1395012E+00
          2   -1    0    0  502    0  0.00000000000E+00  0.00000000000E+00  0.11785444316E+02  0.11785444316E+02  0.00000000000E+00 0. -1.
         -2   -1    0    0    0  501 -0.00000000000E+00 -0.00000000000E+00 -0.21306074704E+03  0.21306074704E+03  0.00000000000E+00 0.  1.
          1    1    1    2  502    0  0.32043544971E+02 -0.79880487507E+01 -0.16082727816E+02  0.36732163442E+02  0.00000000000E+00 0. -1.
         -1    1    1    2    0  501 -0.32043544971E+02  0.79880487507E+01 -0.18519257491E+03  0.18811402791E+03  0.00000000000E+00 0.  1.
</event>
<event>
 4    1  0.6769686E+001  0.2105566E+02  0.7546771E-02  0.1518472E+00
          2   -1    0    0  502    0  0.00000000000E+00  0.00000000000E+00  0.13885272653E+04  0.13885272653E+04  0.00000000000E+00 0. -1.
         -2   -1    0    0    0  501 -0.00000000000E+00 -0.00000000000E+00 -0.32776891648E+00  0.32776891648E+00  0.00000000000E+00 0.  1.
          1    1    1    2  502    0  0.20976593027E+02  0.18230213649E+01  0.80579899949E+03  0.80607404650E+03  0.00000000000E+00 0.  1.
         -1    1    1    2    0  501 -0.20976593027E+02 -0.18230213649E+01  0.58240049689E+03  0.58278098771E+03  0.00000000000E+00 0. -1.
</event>
<event>
 4    1  0.6769686E+001  0.4354967E+02  0.7546771E-02  0.1328853E+00
          2   -1    0    0  502    0  0.00000000000E+00  0.00000000000E+00  0.73098288471E+02  0.73098288471E+02  0.00000000000E+00 0. -1.
         -2   -1    0    0    0  501 -0.00000000000E+00 -0.00000000000E+00 -0.29667687268E+02  0.29667687268E+02  0.00000000000E+00 0.  1.
          1    1    1    2  502    0 -0.40017205595E+01  0.43365423551E+02  0.35151511193E+01  0.43691303649E+02  0.00000000000E+00 0.  1.
         -1    1    1    2    0  501  0.40017205595E+01 -0.43365423551E+02  0.39915450084E+02  0.59074672090E+02  0.00000000000E+00 0. -1.
</event>
<event>
 4    1  0.6769686E+001  0.2363774E+02  0.7546771E-02  0.1484642E+00
          2   -1    0    0  502    0  0.00000000000E+00  0.00000000000E+00  0.26648580330E+02  0.26648580330E+02  0.00000000000E+00 0.  1.
         -2   -1    0    0    0  501 -0.00000000000E+00 -0.00000000000E+00 -0.94226743007E+02  0.94226743007E+02  0.00000000000E+00 0. -1.
          1    1    1    2  502    0 -0.20754475720E+02 -0.11313468242E+02  0.19501815798E+02  0.30644145370E+02  0.00000000000E+00 0.  1.
         -1    1    1    2    0  501  0.20754475720E+02  0.11313468242E+02 -0.87079978474E+02  0.90231177966E+02  0.00000000000E+00 0. -1.
</event>
<event>
 4    1  0.6769686E+001  0.3083473E+02  0.7546771E-02  0.1412478E+00
          2   -1    0    0  502    0  0.00000000000E+00  0.00000000000E+00  0.25989313094E+01  0.25989313094E+01  0.00000000000E+00 0.  1.
         -2   -1    0    0    0  501 -0.00000000000E+00 -0.00000000000E+00 -0.41363960085E+03  0.41363960085E+03  0.00000000000E+00 0. -1.
          1    1    1    2  502    0 -0.71428296676E+01  0.29996003994E+02 -0.13476883233E+03  0.13825128729E+03  0.00000000000E+00 0.  1.
         -1    1    1    2    0  501  0.71428296676E+01 -0.29996003994E+02 -0.27627183721E+03  0.27798724486E+03  0.00000000000E+00 0. -1.
</event>
<event>
 4    1  0.6769686E+001  0.2295703E+02  0.7546771E-02  0.1493038E+00
          2   -1    0    0  502    0  0.00000000000E+00  0.00000000000E+00  0.38850172980E+03  0.38850172980E+03  0.00000000000E+00 0.  1.
         -2   -1    0    0    0  501 -0.00000000000E+00 -0.00000000000E+00 -0.19546278865E+01  0.19546278865E+01  0.00000000000E+00 0. -1.
          1    1    1    2  502    0  0.64832668529E+01 -0.22022539614E+02  0.30126429828E+03  0.30213772095E+03  0.00000000000E+00 0.  1.
         -1    1    1    2    0  501 -0.64832668529E+01  0.22022539614E+02  0.85282803628E+02  0.88318636736E+02  0.00000000000E+00 0. -1.
</event>
<event>
 4    1  0.6769686E+001  0.3156210E+02  0.7546771E-02  0.1406491E+00
          2   -1    0    0  502    0  0.00000000000E+00  0.00000000000E+00  0.31076355039E+01  0.31076355039E+01  0.00000000000E+00 0.  1.
         -2   -1    0    0    0  501 -0.00000000000E+00 -0.00000000000E+00 -0.40843155279E+03  0.40843155279E+03  0.00000000000E+00 0. -1.
          1    1    1    2  502    0 -0.11950181435E+02 -0.29212319463E+02 -0.10721559664E+03  0.11176471092E+03  0.00000000000E+00 0.  1.
         -1    1    1    2    0  501  0.11950181435E+02  0.29212319463E+02 -0.29810832065E+03  0.29977447737E+03  0.00000000000E+00 0. -1.
</event>
<event>
 4    1  0.6769686E+001  0.2888986E+02  0.7546771E-02  0.1429495E+00
          2   -1    0    0  502    0  0.00000000000E+00  0.00000000000E+00  0.37742979466E+02  0.37742979466E+02  0.00000000000E+00 0. -1.
         -2   -1    0    0    0  501 -0.00000000000E+00 -0.00000000000E+00 -0.30280653689E+02  0.30280653689E+02  0.00000000000E+00 0.  1.
          1    1    1    2  502    0 -0.23234230936E+02 -0.17169585266E+02 -0.13932723152E+02  0.32074053685E+02  0.00000000000E+00 0.  1.
         -1    1    1    2    0  501  0.23234230936E+02  0.17169585266E+02  0.21395048929E+02  0.35949579470E+02  0.00000000000E+00 0. -1.
</event>
<event>
 4    1  0.6769686E+001  0.2093002E+02  0.7546771E-02  0.1520266E+00
          2   -1    0    0  502    0  0.00000000000E+00  0.00000000000E+00  0.59661089350E+02  0.59661089350E+02  0.00000000000E+00 0.  1.
         -2   -1    0    0    0  501 -0.00000000000E+00 -0.00000000000E+00 -0.90429132185E+01  0.90429132185E+01  0.00000000000E+00 0. -1.
          1    1    1    2  502    0  0.13858116903E+02 -0.15684966660E+02  0.10413197887E+02  0.23377345304E+02  0.00000000000E+00 0.  1.
         -1    1    1    2    0  501 -0.13858116903E+02  0.15684966660E+02  0.40204978244E+02  0.45326657265E+02  0.00000000000E+00 0. -1.
</event>
<event>
 4    1  0.6769686E+001  0.2284049E+02  0.7546771E-02  0.1494511E+00
          2   -1    0    0  502    0  0.00000000000E+00  0.00000000000E+00  0.73664963605E+02  0.73664963605E+02  0.00000000000E+00 0. -1.
         -2   -1    0    0    0  501 -0.00000000000E+00 -0.00000000000E+00 -0.70853777081E+01  0.70853777081E+01  0.00000000000E+00 0.  1.
          1    1    1    2  502    0 -0.16747583222E+02 -0.15530827743E+02  0.34183857315E+02  0.41112337018E+02  0.00000000000E+00 0.  1.
         -1    1    1    2    0  501  0.16747583222E+02  0.15530827743E+02  0.32395728582E+02  0.39638004295E+02  0.00000000000E+00 0. -1.
</event>
<event>
 4    1  0.6769686E+001  0.4791165E+02  0.7546771E-02  0.1307490E+00
          2   -1    0    0  502    0  0.00000000000E+00  0.00000000000E+00  0.14713664944E+04  0.14713664944E+04  0.00000000000E+00 0. -1.
         -2   -1    0    0    0  501 -0.00000000000E+00 -0.00000000000E+00 -0.20122050282E+01  0.20122050282E+01  0.00000000000E+00 0.  1.
          1    1    1    2  502    0  0.46998347127E+02  0.93103003240E+01  0.38549465844E+03  0.38846062607E+03  0.00000000000E+00 0.  1.
         -1    1    1    2    0  501 -0.46998347127E+02 -0.93103003240E+01  0.10838596310E+04  0.10849180734E+04  0.00000000000E+00 0. -1.
</event>
<event>
 4    1  0.6769686E+001  0.9831314E+02  0.7546771E-02  0.1166764E+00
          2   -1    0    0  502    0  0.00000000000E+00  0.00000000000E+00  0.10751091630E+04  0.10751091630E+04  0.00000000000E+00 0.  1.
         -2   -1    0    0    0  501 -0.00000000000E+00 -0.00000000000E+00 -0.96489783613E+01  0.96489783613E+01  0.00000000000E+00 0. -1.
          1    1    1    2  502    0 -0.95849928039E+02 -0.21869247655E+02  0.39101247064E+03  0.40318261978E+03  0.00000000000E+00 0. -1.
         -1    1    1    2    0  501  0.95849928039E+02  0.21869247655E+02  0.67444771398E+03  0.68157552156E+03  0.00000000000E+00 0.  1.
</event>
<event>
 4    1  0.6769686E+001  0.3019446E+02  0.7546771E-02  0.1417914E+00
          2   -1    0    0  502    0  0.00000000000E+00  0.00000000000E+00  0.27687438225E+02  0.27687438225E+02  0.00000000000E+00 0.  1.
         -2   -1    0    0    0  501 -0.00000000000E+00 -0.00000000000E+00 -0.33038665915E+02  0.33038665915E+02  0.00000000000E+00 0. -1.
          1    1    1    2  502    0  0.12899608940E+02  0.27300278543E+02 -0.44291185363E+01  0.30517572157E+02  0.00000000000E+00 0. -1.
         -1    1    1    2    0  501 -0.12899608940E+02 -0.27300278543E+02 -0.92210915367E+00  0.30208531984E+02  0.00000000000E+00 0.  1.
</event>
<event>
 4    1  0.6769686E+001  0.2135188E+02  0.7546771E-02  0.1514300E+00
          2   -1    0    0  502    0  0.00000000000E+00  0.00000000000E+00  0.20004897792E+04  0.20004897792E+04  0.00000000000E+00 0. -1.
         -2   -1    0    0    0  501 -0.00000000000E+00 -0.00000000000E+00 -0.33607682989E+00  0.33607682989E+00  0.00000000000E+00 0.  1.
          1    1    1    2  502    0 -0.20366489464E+02  0.64116310043E+01  0.15676683467E+04  0.15678137479E+04  0.00000000000E+00 0. -1.
         -1    1    1    2    0  501  0.20366489464E+02 -0.64116310043E+01  0.43248535566E+03  0.43301210811E+03  0.00000000000E+00 0.  1.
</event>
<event>
 4    1  0.6769686E+001  0.2010309E+02  0.7546771E-02  0.1532466E+00
          2   -1    0    0  502    0  0.00000000000E+00  0.00000000000E+00  0.10479839032E+04  0.10479839032E+04  0.00000000000E+00 0.  1.
         -2   -1    0    0    0  501 -0.00000000000E+00 -0.00000000000E+00 -0.47740976125E+00  0.47740976125E+00  0.00000000000E+00 0. -1.
          1    1    1    2  502    0  0.75226172096E+01 -0.18642549489E+02  0.75360581033E+03  0.75387389647E+03  0.00000000000E+00 0.  1.
         -1    1    1    2    0  501 -0.75226172096E+01  0.18642549489E+02  0.29390068313E+03  0.29458741651E+03  0.00000000000E+00 0. -1.
</event>
<event>
 4    1  0.6769686E+001  0.2134728E+02  0.7546771E-02  0.1514364E+00
          2   -1    0    0  502    0  0.00000000000E+00  0.00000000000E+00  0.78751063991E+03  0.78751063991E+03  0.00000000000E+00 0. -1.
         -2   -1    0    0    0  501 -0.00000000000E+00 -0.00000000000E+00 -0.79648812945E+00  0.79648812945E+00  0.00000000000E+00 0.  1.
          1    1    1    2  502    0 -0.11320599912E+02 -0.18098349175E+02  0.18723426667E+03  0.18844727867E+03  0.00000000000E+00 0.  1.
         -1    1    1    2    0  501  0.11320599912E+02  0.18098349175E+02  0.59947988511E+03  0.59985984937E+03  0.00000000000E+00 0. -1.
</event>
<event>
 4    1  0.6769686E+001  0.2541770E+02  0.7546771E-02  0.1464184E+00
          2   -1    0    0  502    0  0.00000000000E+00  0.00000000000E+00  0.39112277639E+02  0.39112277639E+02  0.00000000000E+00 0.  1.
         -2   -1    0    0    0  501 -0.00000000000E+00 -0.00000000000E+00 -0.89796129712E+02  0.89796129712E+02  0.00000000000E+00 0. -1.
          1    1    1    2  502    0 -0.16192026700E+02 -0.19592800541E+02  0.32883061157E+02  0.41561463795E+02  0.00000000000E+00 0.  1.
         -1    1    1    2    0  501  0.16192026700E+02  0.19592800541E+02 -0.83566913231E+02  0.87346943556E+02  0.00000000000E+00 0. -1.
</event>
