<event>
 4    1  0.5978476E+003  0.2115385E+02  0.7546771E-02  0.1517079E+00
          2   -1    0    0  501    0  0.00000000000E+00  0.00000000000E+00  0.10337743221E+03  0.10337743221E+03  0.00000000000E+00 0.  1.
         -2   -1    0    0    0  501 -0.00000000000E+00 -0.00000000000E+00 -0.75691945596E+01  0.75691945596E+01  0.00000000000E+00 0.  1.
          2    1    1    2  502    0  0.19877386991E+02  0.72370563230E+01  0.84200871182E+02  0.86817464865E+02  0.00000000000E+00 0.  1.
         -2    1    1    2    0  502 -0.19877386991E+02 -0.72370563230E+01  0.11607366465E+02  0.24129161901E+02  0.00000000000E+00 0.  1.
</event>
<event>
 4    1  0.5978476E+003  0.2313308E+02  0.7546771E-02  0.1490834E+00
          2   -1    0    0  501    0  0.00000000000E+00  0.00000000000E+00  0.19341568897E+04  0.19341568897E+04  0.00000000000E+00 0. -1.
         -2   -1    0    0    0  501 -0.00000000000E+00 -0.00000000000E+00 -0.27692585768E+00  0.27692585768E+00  0.00000000000E+00 0. -1.
          2    1    1    2  502    0 -0.61357713175E+01 -0.22304526078E+02  0.99584872619E+03  0.99611737512E+03  0.00000000000E+00 0. -1.
         -2    1    1    2    0  502  0.61357713175E+01  0.22304526078E+02  0.93803123761E+03  0.93831644039E+03  0.00000000000E+00 0. -1.
</event>
<event>
 4    1  0.5978476E+003  0.8012849E+02  0.7546771E-02  0.1203550E+00
          2   -1    0    0  501    0  0.00000000000E+00  0.00000000000E+00  0.27584264414E+04  0.27584264414E+04  0.00000000000E+00 0. -1.
         -2   -1    0    0    0  501 -0.00000000000E+00 -0.00000000000E+00 -0.23962251721E+02  0.23962251721E+02  0.00000000000E+00 0. -1.
          2    1    1    2  502    0 -0.78185836038E+02 -0.17537091800E+02  0.26891324604E+04  0.26903259959E+04  0.00000000000E+00 0. -1.
         -2    1    1    2    0  502  0.78185836038E+02  0.17537091800E+02  0.45331729303E+02  0.92062697263E+02  0.00000000000E+00 0. -1.
</event>
<event>
 4    1  0.5978476E+003  0.6611789E+02  0.7546771E-02  0.1240352E+00
          2   -1    0    0  501    0  0.00000000000E+00  0.00000000000E+00  0.77290481257E+02  0.77290481257E+02  0.00000000000E+00 0. -1.
         -2   -1    0    0    0  501 -0.00000000000E+00 -0.00000000000E+00 -0.21386457082E+03  0.21386457082E+03  0.00000000000E+00 0. -1.
          2    1    1    2  502    0 -0.23154251497E+02 -0.61931063411E+02  0.56564842818E+02  0.87012398086E+02  0.00000000000E+00 0. -1.
         -2    1    1    2    0  502  0.23154251497E+02  0.61931063411E+02 -0.19313893238E+03  0.20414265399E+03  0.00000000000E+00 0. -1.
</event>
<event>
 4    1  0.5978476E+003  0.2302647E+02  0.7546771E-02  0.1492166E+00
          2   -1    0    0  501    0  0.00000000000E+00  0.00000000000E+00  0.22606910065E+02  0.22606910065E+02  0.00000000000E+00 0. -1.
         -2   -1    0    0    0  501 -0.00000000000E+00 -0.00000000000E+00 -0.10823642233E+03  0.10823642233E+03  0.00000000000E+00 0. -1.
          2    1    1    2  502    0  0.19300868337E+02 -0.12557652267E+02  0.15086540086E+02  0.27528564089E+02  0.00000000000E+00 0. -1.
         -2    1    1    2    0  502 -0.19300868337E+02  0.12557652267E+02 -0.10071605235E+03  0.10331476830E+03  0.00000000000E+00 0. -1.
</event>
<event>
 4    1  0.5978476E+003  0.2644863E+02  0.7546771E-02  0.1453227E+00
          2   -1    0    0  501    0  0.00000000000E+00  0.00000000000E+00  0.74666180459E+02  0.74666180459E+02  0.00000000000E+00 0. -1.
         -2   -1    0    0    0  501 -0.00000000000E+00 -0.00000000000E+00 -0.51269857163E+02  0.51269857163E+02  0.00000000000E+00 0. -1.
          2    1    1    2  502    0 -0.21489987667E+01 -0.26361184123E+02  0.68622976181E+02  0.73543477508E+02  0.00000000000E+00 0. -1.
         -2    1    1    2    0  502  0.21489987667E+01  0.26361184123E+02 -0.45226652885E+02  0.52392560113E+02  0.00000000000E+00 0. -1.
</event>
<event>
 4    1  0.5978476E+003  0.4647650E+02  0.7546771E-02  0.1314217E+00
          2   -1    0    0  501    0  0.00000000000E+00  0.00000000000E+00  0.81178533122E+03  0.81178533122E+03  0.00000000000E+00 0. -1.
         -2   -1    0    0    0  501 -0.00000000000E+00 -0.00000000000E+00 -0.16991357745E+02  0.16991357745E+02  0.00000000000E+00 0.  1.
          2    1    1    2  502    0  0.39595708534E+02  0.24336089269E+02  0.77795755447E+03  0.77934461051E+03  0.00000000000E+00 0. -1.
         -2    1    1    2    0  502 -0.39595708534E+02 -0.24336089269E+02  0.16836419002E+02  0.49432078451E+02  0.00000000000E+00 0.  1.
</event>
<event>
 4    1  0.5978476E+003  0.2630776E+02  0.7546771E-02  0.1454689E+00
          2   -1    0    0  501    0  0.00000000000E+00  0.00000000000E+00  0.12131122034E+03  0.12131122034E+03  0.00000000000E+00 0. -1.
         -2   -1    0    0    0  501 -0.00000000000E+00 -0.00000000000E+00 -0.11536951922E+02  0.11536951922E+02  0.00000000000E+00 0. -1.
          2    1    1    2  502    0 -0.14125665795E+02  0.22193772791E+02  0.10211318732E+03  0.10544762211E+03  0.00000000000E+00 0. -1.
         -2    1    1    2    0  502  0.14125665795E+02 -0.22193772791E+02  0.76610810973E+01  0.27400550148E+02  0.00000000000E+00 0. -1.
</event>
<event>
 4    1  0.5978476E+003  0.3192031E+02  0.7546771E-02  0.1403612E+00
          2   -1    0    0  501    0  0.00000000000E+00  0.00000000000E+00  0.91000021940E+03  0.91000021940E+03  0.00000000000E+00 0. -1.
         -2   -1    0    0    0  501 -0.00000000000E+00 -0.00000000000E+00 -0.67921133592E+02  0.67921133592E+02  0.00000000000E+00 0.  1.
          2    1    1    2  502    0 -0.30321924440E+02 -0.99743344530E+01  0.90595322293E+03  0.90651538795E+03  0.00000000000E+00 0. -1.
         -2    1    1    2    0  502  0.30321924440E+02  0.99743344530E+01 -0.63874137126E+02  0.71405965039E+02  0.00000000000E+00 0.  1.
</event>
<event>
 4    1  0.5978476E+003  0.2142599E+02  0.7546771E-02  0.1513269E+00
          2   -1    0    0  501    0  0.00000000000E+00  0.00000000000E+00  0.15045381604E+02  0.15045381604E+02  0.00000000000E+00 0.  1.
         -2   -1    0    0    0  501 -0.00000000000E+00 -0.00000000000E+00 -0.14022006527E+03  0.14022006527E+03  0.00000000000E+00 0.  1.
          2    1    1    2  502    0  0.12155933842E+02  0.17643879114E+02  0.60812114106E+01  0.22272277162E+02  0.00000000000E+00 0.  1.
         -2    1    1    2    0  502 -0.12155933842E+02 -0.17643879114E+02 -0.13125589508E+03  0.13299316971E+03  0.00000000000E+00 0.  1.
</event>
<event>
 4    1  0.5978476E+003  0.2361926E+02  0.7546771E-02  0.1484865E+00
          2   -1    0    0  501    0  0.00000000000E+00  0.00000000000E+00  0.39678169958E+02  0.39678169958E+02  0.00000000000E+00 0. -1.
         -2   -1    0    0    0  501 -0.00000000000E+00 -0.00000000000E+00 -0.25282950169E+02  0.25282950169E+02  0.00000000000E+00 0.  1.
          2    1    1    2  502    0 -0.18573640231E+02  0.14590727343E+02  0.28838040558E+02  0.37276024722E+02  0.00000000000E+00 0. -1.
         -2    1    1    2    0  502  0.18573640231E+02 -0.14590727343E+02 -0.14442820770E+02  0.27685095405E+02  0.00000000000E+00 0.  1.
</event>
<event>
 4    1  0.5978476E+003  0.2312005E+02  0.7546771E-02  0.1490996E+00
          2   -1    0    0  501    0  0.00000000000E+00  0.00000000000E+00  0.44187827233E+03  0.44187827233E+03  0.00000000000E+00 0.  1.
         -2   -1    0    0    0  501 -0.00000000000E+00 -0.00000000000E+00 -0.46121945259E+01  0.46121945259E+01  0.00000000000E+00 0. -1.
          2    1    1    2  502    0 -0.22111240887E+02 -0.67549684002E+01  0.41037961632E+03  0.41103037122E+03  0.00000000000E+00 0.  1.
         -2    1    1    2    0  502  0.22111240887E+02  0.67549684002E+01  0.26886461488E+02  0.35460095643E+02  0.00000000000E+00 0. -1.
</event>
<event>
 4    1  0.5978476E+003  0.2940771E+02  0.7546771E-02  0.1424814E+00
          2   -1    0    0  501    0  0.00000000000E+00  0.00000000000E+00  0.31696174203E+01  0.31696174203E+01  0.00000000000E+00 0.  1.
         -2   -1    0    0    0  501 -0.00000000000E+00 -0.00000000000E+00 -0.89986447762E+03  0.89986447762E+03  0.00000000000E+00 0.  1.
          2    1    1    2  502    0 -0.26285631007E+02  0.13186328876E+02 -0.71447393684E+02  0.77262822437E+02  0.00000000000E+00 0.  1.
         -2    1    1    2    0  502  0.26285631007E+02 -0.13186328876E+02 -0.82524746652E+03  0.82577127261E+03  0.00000000000E+00 0.  1.
</event>
<event>
 4    1  0.5978476E+003  0.2151221E+02  0.7546771E-02  0.1512076E+00
          2   -1    0    0  501    0  0.00000000000E+00  0.00000000000E+00  0.13479588438E+04  0.13479588438E+04  0.00000000000E+00 0. -1.
         -2   -1    0    0    0  501 -0.00000000000E+00 -0.00000000000E+00 -0.97155944942E+00  0.97155944942E+00  0.00000000000E+00 0. -1.
          2    1    1    2  502    0 -0.20494617731E+02  0.65380201397E+01  0.12158553764E+04  0.12160456700E+04  0.00000000000E+00 0. -1.
         -2    1    1    2    0  502  0.20494617731E+02 -0.65380201397E+01  0.13113190789E+03  0.13288473325E+03  0.00000000000E+00 0. -1.
</event>
<event>
 4    1  0.5978476E+003  0.2686068E+02  0.7546771E-02  0.1449013E+00
          2   -1    0    0  501    0  0.00000000000E+00  0.00000000000E+00  0.31501189945E+03  0.31501189945E+03  0.00000000000E+00 0.  1.
         -2   -1    0    0    0  501 -0.00000000000E+00 -0.00000000000E+00 -0.98041832467E+02  0.98041832467E+02  0.00000000000E+00 0. -1.
          2    1    1    2  502    0  0.25303248796E+02  0.90134283127E+01  0.31258528260E+03  0.31373723909E+03  0.00000000000E+00 0.  1.
         -2    1    1    2    0  502 -0.25303248796E+02 -0.90134283127E+01 -0.95615215622E+02  0.99316492829E+02  0.00000000000E+00 0. -1.
</event>
<event>
 4    1  0.5978476E+003  0.2076590E+02  0.7546771E-02  0.1522634E+00
          2   -1    0    0  501    0  0.00000000000E+00  0.00000000000E+00  0.74874679195E+01  0.74874679195E+01  0.00000000000E+00 0. -1.
         -2   -1    0    0    0  501 -0.00000000000E+00 -0.00000000000E+00 -0.13459040667E+03  0.13459040667E+03  0.00000000000E+00 0.  1.
          2    1    1    2  502    0 -0.16569693590E+02  0.12516702658E+02 -0.98200097590E+01  0.22970746239E+02  0.00000000000E+00 0. -1.
         -2    1    1    2    0  502  0.16569693590E+02 -0.12516702658E+02 -0.11728292899E+03  0.11910712835E+03  0.00000000000E+00 0.  1.
</event>
<event>
 4    1  0.5978476E+003  0.2116149E+02  0.7546771E-02  0.1516972E+00
          2   -1    0    0  501    0  0.00000000000E+00  0.00000000000E+00  0.80166140429E+01  0.80166140429E+01  0.00000000000E+00 0. -1.
         -2   -1    0    0    0  501 -0.00000000000E+00 -0.00000000000E+00 -0.89206366667E+02  0.89206366667E+02  0.00000000000E+00 0.  1.
          2    1    1    2  502    0 -0.18854532661E+02  0.96080929679E+01 -0.10873793494E+02  0.23791768268E+02  0.00000000000E+00 0. -1.
         -2    1    1    2    0  502  0.18854532661E+02 -0.96080929679E+01 -0.70315959130E+02  0.73431212442E+02  0.00000000000E+00 0.  1.
</event>
<event>
 4    1  0.5978476E+003  0.2336551E+02  0.7546771E-02  0.1487959E+00
          2   -1    0    0  501    0  0.00000000000E+00  0.00000000000E+00  0.13986140076E+03  0.13986140076E+03  0.00000000000E+00 0. -1.
         -2   -1    0    0    0  501 -0.00000000000E+00 -0.00000000000E+00 -0.10570998214E+03  0.10570998214E+03  0.00000000000E+00 0. -1.
          2    1    1    2  502    0 -0.37365418222E+01 -0.23064805982E+02  0.13757306206E+03  0.13954316330E+03  0.00000000000E+00 0. -1.
         -2    1    1    2    0  502  0.37365418222E+01  0.23064805982E+02 -0.10342164344E+03  0.10602821960E+03  0.00000000000E+00 0. -1.
</event>
<event>
 4    1  0.5978476E+003  0.2141827E+02  0.7546771E-02  0.1513376E+00
          2   -1    0    0  501    0  0.00000000000E+00  0.00000000000E+00  0.43857942843E+02  0.43857942843E+02  0.00000000000E+00 0. -1.
         -2   -1    0    0    0  501 -0.00000000000E+00 -0.00000000000E+00 -0.19124511463E+02  0.19124511463E+02  0.00000000000E+00 0. -1.
          2    1    1    2  502    0 -0.94780882634E+01  0.19206984994E+02  0.33563652659E+02  0.39815338872E+02  0.00000000000E+00 0. -1.
         -2    1    1    2    0  502  0.94780882634E+01 -0.19206984994E+02 -0.88302212799E+01  0.23167115434E+02  0.00000000000E+00 0. -1.
</event>
<event>
 4    1  0.5978476E+003  0.2445214E+02  0.7546771E-02  0.1475026E+00
          2   -1    0    0  501    0  0.00000000000E+00  0.00000000000E+00  0.18878064798E+01  0.18878064798E+01  0.00000000000E+00 0. -1.
         -2   -1    0    0    0  501 -0.00000000000E+00 -0.00000000000E+00 -0.37092122164E+03  0.37092122164E+03  0.00000000000E+00 0. -1.
          2    1    1    2  502    0  0.21233027730E+02 -0.12127071215E+02 -0.11326136053E+03  0.11587080354E+03  0.00000000000E+00 0. -1.
         -2    1    1    2    0  502 -0.21233027730E+02  0.12127071215E+02 -0.25577205463E+03  0.25693822459E+03  0.00000000000E+00 0. -1.
</event>
<event>
 4    1  0.5978476E+003  0.2247821E+02  0.7546771E-02  0.1499156E+00
          2   -1    0    0  501    0  0.00000000000E+00  0.00000000000E+00  0.38419314237E+03  0.38419314237E+03  0.00000000000E+00 0.  1.
         -2   -1    0    0    0  501 -0.00000000000E+00 -0.00000000000E+00 -0.27928376585E+01  0.27928376585E+01  0.00000000000E+00 0.  1.
          2    1    1    2  502    0 -0.22199648602E+02  0.35278099019E+01  0.33144561083E+03  0.33220695775E+03  0.00000000000E+00 0.  1.
         -2    1    1    2    0  502  0.22199648602E+02 -0.35278099019E+01  0.49954693885E+02  0.54779022280E+02  0.00000000000E+00 0.  1.
</event>
<event>
 4    1  0.5978476E+003  0.2434725E+02  0.7546771E-02  0.1476240E+00
          2   -1    0    0  501    0  0.00000000000E+00  0.00000000000E+00  0.22239538137E+03  0.22239538137E+03  0.00000000000E+00 0. -1.
         -2   -1    0    0    0  501 -0.00000000000E+00 -0.00000000000E+00 -0.14207081219E+03  0.14207081219E+03  0.00000000000E+00 0.  1.
          2    1    1    2  502    0 -0.24239609477E+02  0.22869400195E+01  0.22067779696E+03  0.22201684358E+03  0.00000000000E+00 0. -1.
         -2    1    1    2    0  502  0.24239609477E+02 -0.22869400195E+01 -0.14035322778E+03  0.14244934999E+03  0.00000000000E+00 0.  1.
</event>
<event>
 4    1  0.5978476E+003  0.4594638E+02  0.7546771E-02  0.1316774E+00
          2   -1    0    0  501    0  0.00000000000E+00  0.00000000000E+00  0.10653793218E+02  0.10653793218E+02  0.00000000000E+00 0.  1.
         -2   -1    0    0    0  501 -0.00000000000E+00 -0.00000000000E+00 -0.35940840461E+03  0.35940840461E+03  0.00000000000E+00 0. -1.
          2    1    1    2  502    0  0.44051383205E+02 -0.13059314167E+02 -0.50437974377E+02  0.68227995046E+02  0.00000000000E+00 0.  1.
         -2    1    1    2    0  502 -0.44051383205E+02  0.13059314167E+02 -0.29831663702E+03  0.30183420279E+03  0.00000000000E+00 0. -1.
</event>
<event>
 4    1  0.5978476E+003  0.2898089E+02  0.7546771E-02  0.1428664E+00
          2   -1    0    0  501    0  0.00000000000E+00  0.00000000000E+00  0.11832362944E+01  0.11832362944E+01  0.00000000000E+00 0.  1.
         -2   -1    0    0    0  501 -0.00000000000E+00 -0.00000000000E+00 -0.71090140550E+03  0.71090140550E+03  0.00000000000E+00 0.  1.
          2    1    1    2  502    0  0.49671372724E+01 -0.28552048654E+02 -0.34101147909E+03  0.34224073516E+03  0.00000000000E+00 0.  1.
         -2    1    1    2    0  502 -0.49671372724E+01  0.28552048654E+02 -0.36870669012E+03  0.36984390663E+03  0.00000000000E+00 0.  1.
</event>
<event>
 4    1  0.5978476E+003  0.2195704E+02  0.7546771E-02  0.1506027E+00
          2   -1    0    0  501    0  0.00000000000E+00  0.00000000000E+00  0.16832497583E+04  0.16832497583E+04  0.00000000000E+00 0. -1.
         -2   -1    0    0    0  501 -0.00000000000E+00 -0.00000000000E+00 -0.42288721737E+00  0.42288721737E+00  0.00000000000E+00 0. -1.
          2    1    1    2  502    0  0.14899285771E+02 -0.16128319076E+02  0.13196406412E+04  0.13198232962E+04  0.00000000000E+00 0. -1.
         -2    1    1    2    0  502 -0.14899285771E+02  0.16128319076E+02  0.36318622986E+03  0.36384934926E+03  0.00000000000E+00 0. -1.
</event>
<event>
 4    1  0.5978476E+003  0.2004731E+02  0.7546771E-02  0.1533314E+00
          2   -1    0    0  501    0  0.00000000000E+00  0.00000000000E+00  0.45445063511E+03  0.45445063511E+03  0.00000000000E+00 0. -1.
         -2   -1    0    0    0  501 -0.00000000000E+00 -0.00000000000E+00 -0.60486644338E+03  0.60486644338E+03  0.00000000000E+00 0. -1.
          2    1    1    2  502    0 -0.19340616304E+02  0.52759028720E+01  0.45406329652E+03  0.45450563455E+03  0.00000000000E+00 0. -1.
         -2    1    1    2    0  502  0.19340616304E+02 -0.52759028720E+01 -0.60447910480E+03  0.60481144394E+03  0.00000000000E+00 0. -1.
</event>
<event>
 4    1  0.5978476E+003  0.4591813E+02  0.7546771E-02  0.1316911E+00
          2   -1    0    0  501    0  0.00000000000E+00  0.00000000000E+00  0.89606522913E+03  0.89606522913E+03  0.00000000000E+00 0. -1.
         -2   -1    0    0    0  501 -0.00000000000E+00 -0.00000000000E+00 -0.29746166439E+01  0.29746166439E+01  0.00000000000E+00 0.  1.
          2    1    1    2  502    0 -0.24659327032E+02 -0.38734897113E+02  0.65203111049E+03  0.65364596206E+03  0.00000000000E+00 0. -1.
         -2    1    1    2    0  502  0.24659327032E+02  0.38734897113E+02  0.24105950199E+03  0.24539388371E+03  0.00000000000E+00 0.  1.
</event>
<event>
 4    1  0.5978476E+003  0.2018222E+02  0.7546771E-02  0.1531268E+00
          2   -1    0    0  501    0  0.00000000000E+00  0.00000000000E+00  0.18835665356E+03  0.18835665356E+03  0.00000000000E+00 0. -1.
         -2   -1    0    0    0  501 -0.00000000000E+00 -0.00000000000E+00 -0.26353252126E+01  0.26353252126E+01  0.00000000000E+00 0.  1.
          2    1    1    2  502    0  0.11819375258E+02  0.16359229037E+02  0.13331047791E+03  0.13482954249E+03  0.00000000000E+00 0. -1.
         -2    1    1    2    0  502 -0.11819375258E+02 -0.16359229037E+02  0.52410850438E+02  0.56162436288E+02  0.00000000000E+00 0.  1.
</event>
<event>
 4    1  0.5978476E+003  0.3557132E+02  0.7546771E-02  0.1376591E+00
          2   -1    0    0  501    0  0.00000000000E+00  0.00000000000E+00  0.33053492168E+02  0.33053492168E+02  0.00000000000E+00 0.  1.
         -2   -1    0    0    0  501 -0.00000000000E+00 -0.00000000000E+00 -0.15577410301E+03  0.15577410301E+03  0.00000000000E+00 0. -1.
          2    1    1    2  502    0 -0.34055157880E+02  0.10274480009E+02  0.20635972078E+02  0.41123740848E+02  0.00000000000E+00 0.  1.
         -2    1    1    2    0  502  0.34055157880E+02 -0.10274480009E+02 -0.14335658292E+03  0.14770385433E+03  0.00000000000E+00 0. -1.
</event>
<event>
 4    1  0.5978476E+003  0.4809810E+02  0.7546771E-02  0.1306636E+00
          2   -1    0    0  501    0  0.00000000000E+00  0.00000000000E+00  0.31822046075E+03  0.31822046075E+03  0.00000000000E+00 0. -1.
         -2   -1    0    0    0  501 -0.00000000000E+00 -0.00000000000E+00 -0.12195834338E+02  0.12195834338E+02  0.00000000000E+00 0. -1.
          2    1    1    2  502    0  0.17388445024E+02  0.44844948820E+02  0.25800776668E+03  0.26245272931E+03  0.00000000000E+00 0. -1.
         -2    1    1    2    0  502 -0.17388445024E+02 -0.44844948820E+02  0.48016859738E+02  0.67963565784E+02  0.00000000000E+00 0. -1.
</event>
<event>
 4    1  0.5978476E+003  0.2419753E+02  0.7546771E-02  0.1477984E+00
          2   -1    0    0  501    0  0.00000000000E+00  0.00000000000E+00  0.54826050501E+02  0.54826050501E+02  0.00000000000E+00 0. -1.
         -2   -1    0    0    0  501 -0.00000000000E+00 -0.00000000000E+00 -0.11437344582E+02  0.11437344582E+02  0.00000000000E+00 0.  1.
          2    1    1    2  502    0 -0.26500478153E+01 -0.24051982965E+02  0.30222225108E+02  0.38715675488E+02  0.00000000000E+00 0. -1.
         -2    1    1    2    0  502  0.26500478153E+01  0.24051982965E+02  0.13166480810E+02  0.27547719595E+02  0.00000000000E+00 0.  1.
</event>
<event>
 4    1  0.5978476E+003  0.2403068E+02  0.7546771E-02  0.1479946E+00
          2   -1    0    0  501    0  0.00000000000E+00  0.00000000000E+00  0.64261589547E+02  0.64261589547E+02  0.00000000000E+00 0.  1.
         -2   -1    0    0    0  501 -0.00000000000E+00 -0.00000000000E+00 -0.22739700137E+02  0.22739700137E+02  0.00000000000E+00 0.  1.
          2    1    1    2  502    0 -0.24019934034E+02 -0.71864655112E+00  0.54591445434E+02  0.59646455037E+02  0.00000000000E+00 0.  1.
         -2    1    1    2    0  502  0.24019934034E+02  0.71864655112E+00 -0.13069556025E+02  0.27354834647E+02  0.00000000000E+00 0.  1.
</event>
<event>
 4    1  0.5978476E+003  0.3672718E+02  0.7546771E-02  0.1368811E+00
          2   -1    0    0  501    0  0.00000000000E+00  0.00000000000E+00  0.23298697292E+04  0.23298697292E+04  0.00000000000E+00 0. -1.
         -2   -1    0    0    0  501 -0.00000000000E+00 -0.00000000000E+00 -0.19811003386E+01  0.19811003386E+01  0.00000000000E+00 0.  1.
          2    1    1    2  502    0  0.31052861992E+02  0.19611360671E+02  0.21448207850E+04  0.21451352138E+04  0.00000000000E+00 0. -1.
         -2    1    1    2    0  502 -0.31052861992E+02 -0.19611360671E+02  0.18306784382E+03  0.18671561570E+03  0.00000000000E+00 0.  1.
</event>
<event>
 4    1  0.5978476E+003  0.3529464E+02  0.7546771E-02  0.1378504E+00
          2   -1    0    0  501    0  0.00000000000E+00  0.00000000000E+00  0.18727223303E+03  0.18727223303E+03  0.00000000000E+00 0.  1.
         -2   -1    0    0    0  501 -0.00000000000E+00 -0.00000000000E+00 -0.31861394990E+02  0.31861394990E+02  0.00000000000E+00 0.  1.
          2    1    1    2  502    0  0.22597134800E+02 -0.27112385113E+02  0.17516598024E+03  0.17868640844E+03  0.00000000000E+00 0.  1.
         -2    1    1    2    0  502 -0.22597134800E+02  0.27112385113E+02 -0.19755142206E+02  0.40447219575E+02  0.00000000000E+00 0.  1.
</event>
<event>
 4    1  0.5978476E+003  0.2266278E+02  0.7546771E-02  0.1496777E+00
          2   -1    0    0  501    0  0.00000000000E+00  0.00000000000E+00  0.17220410702E+02  0.17220410702E+02  0.00000000000E+00 0.  1.
         -2   -1    0    0    0  501 -0.00000000000E+00 -0.00000000000E+00 -0.69952934264E+02  0.69952934264E+02  0.00000000000E+00 0.  1.
          2    1    1    2  502    0  0.45653069301E+01  0.22198185310E+02  0.66458492676E+01  0.23617128761E+02  0.00000000000E+00 0.  1.
         -2    1    1    2    0  502 -0.45653069301E+01 -0.22198185310E+02 -0.59378372829E+02  0.63556216205E+02  0.00000000000E+00 0.  1.
</event>
<event>
 4    1  0.5978476E+003  0.2101869E+02  0.7546771E-02  0.1518998E+00
          2   -1    0    0  501    0  0.00000000000E+00  0.00000000000E+00  0.22493574041E+02  0.22493574041E+02  0.00000000000E+00 0.  1.
         -2   -1    0    0    0  501 -0.00000000000E+00 -0.00000000000E+00 -0.39863649228E+02  0.39863649228E+02  0.00000000000E+00 0.  1.
          2    1    1    2  502    0  0.84190811697E+01 -0.19258876367E+02  0.13522097838E+02  0.24992646450E+02  0.00000000000E+00 0.  1.
         -2    1    1    2    0  502 -0.84190811697E+01  0.19258876367E+02 -0.30892173025E+02  0.37364576819E+02  0.00000000000E+00 0.  1.
</event>
<event>
 4    1  0.5978476E+003  0.7213723E+02  0.7546771E-02  0.1223381E+00
          2   -1    0    0  501    0  0.00000000000E+00  0.00000000000E+00  0.47426059360E+03  0.47426059360E+03  0.00000000000E+00 0. -1.
         -2   -1    0    0    0  501 -0.00000000000E+00 -0.00000000000E+00 -0.26289580343E+03  0.26289580343E+03  0.00000000000E+00 0. -1.
          2    1    1    2  502    0 -0.55639721257E+02  0.45912980342E+02  0.46648699644E+03  0.47203167076E+03  0.00000000000E+00 0. -1.
         -2    1    1    2    0  502  0.55639721257E+02 -0.45912980342E+02 -0.25512220628E+03  0.26512472628E+03  0.00000000000E+00 0. -1.
</event>
<event>
 4    1  0.5978476E+003  0.3634832E+02  0.7546771E-02  0.1371324E+00
          2   -1    0    0  501    0  0.00000000000E+00  0.00000000000E+00  0.37083834150E+02  0.37083834150E+02  0.00000000000E+00 0. -1.
         -2   -1    0    0    0  501 -0.00000000000E+00 -0.00000000000E+00 -0.78046266484E+02  0.78046266484E+02  0.00000000000E+00 0. -1.
          2    1    1    2  502    0  0.36000878318E+02  0.50137151551E+01  0.21957511376E+02  0.42465667134E+02  0.00000000000E+00 0. -1.
         -2    1    1    2    0  502 -0.36000878318E+02 -0.50137151551E+01 -0.62919943710E+02  0.72664433499E+02  0.00000000000E+00 0. -1.
</event>
<event>
 4    1  0.5978476E+003  0.2685518E+02  0.7546771E-02  0.1449068E+00
          2   -1    0    0  501    0  0.00000000000E+00  0.00000000000E+00  0.90966851017E+02  0.90966851017E+02  0.00000000000E+00 0.  1.
         -2   -1    0    0    0  501 -0.00000000000E+00 -0.00000000000E+00 -0.27747029267E+03  0.27747029267E+03  0.00000000000E+00 0. -1.
          2    1    1    2  502    0 -0.26698687607E+02 -0.28949277134E+01  0.88315935706E+02  0.92308748372E+02  0.00000000000E+00 0.  1.
         -2    1    1    2    0  502  0.26698687607E+02  0.28949277134E+01 -0.27481937736E+03  0.27612839531E+03  0.00000000000E+00 0. -1.
</event>
<event>
 4    1  0.5978476E+003  0.3067282E+02  0.7546771E-02  0.1413838E+00
          2   -1    0    0  501    0  0.00000000000E+00  0.00000000000E+00  0.13298770164E+04  0.13298770164E+04  0.00000000000E+00 0.  1.
         -2   -1    0    0    0  501 -0.00000000000E+00 -0.00000000000E+00 -0.13691247857E+01  0.13691247857E+01  0.00000000000E+00 0.  1.
          2    1    1    2  502    0  0.41329371052E+01  0.30393103153E+02  0.11269854254E+04  0.11274027546E+04  0.00000000000E+00 0.  1.
         -2    1    1    2    0  502 -0.41329371052E+01 -0.30393103153E+02  0.20152246616E+03  0.20384338658E+03  0.00000000000E+00 0.  1.
</event>
<event>
 4    1  0.5978476E+003  0.2218631E+02  0.7546771E-02  0.1502976E+00
          2   -1    0    0  501    0  0.00000000000E+00  0.00000000000E+00  0.95987242739E+00  0.95987242739E+00  0.00000000000E+00 0. -1.
         -2   -1    0    0    0  501 -0.00000000000E+00 -0.00000000000E+00 -0.56167393519E+03  0.56167393519E+03  0.00000000000E+00 0. -1.
          2    1    1    2  502    0 -0.16761999695E+02  0.14535056750E+02 -0.19738219779E+03  0.19862518599E+03  0.00000000000E+00 0. -1.
         -2    1    1    2    0  502  0.16761999695E+02 -0.14535056750E+02 -0.36333186498E+03  0.36400862162E+03  0.00000000000E+00 0. -1.
</event>
<event>
 4    1  0.5978476E+003  0.2743670E+02  0.7546771E-02  0.1443270E+00
          2   -1    0    0  501    0  0.00000000000E+00  0.00000000000E+00  0.27114219822E+03  0.27114219822E+03  0.00000000000E+00 0.  1.
         -2   -1    0    0    0  501 -0.00000000000E+00 -0.00000000000E+00 -0.57283860893E+01  0.57283860893E+01  0.00000000000E+00 0. -1.
          2    1    1    2  502    0  0.27431465057E+02 -0.53574343391E+00  0.23208602285E+03  0.23370214868E+03  0.00000000000E+00 0.  1.
         -2    1    1    2    0  502 -0.27431465057E+02  0.53574343391E+00  0.33327789283E+02  0.43168435629E+02  0.00000000000E+00 0. -1.
</event>
<event>
 4    1  0.5978476E+003  0.2576187E+02  0.7546771E-02  0.1460458E+00
          2   -1    0    0  501    0  0.00000000000E+00  0.00000000000E+00  0.40415645744E+03  0.40415645744E+03  0.00000000000E+00 0.  1.
         -2   -1    0    0    0  501 -0.00000000000E+00 -0.00000000000E+00 -0.13094086012E+03  0.13094086012E+03  0.00000000000E+00 0.  1.
          2    1    1    2  502    0 -0.25418508562E+02 -0.41920781299E+01  0.40247350826E+03  0.40329715960E+03  0.00000000000E+00 0.  1.
         -2    1    1    2    0  502  0.25418508562E+02  0.41920781299E+01 -0.12925791094E+03  0.13180015795E+03  0.00000000000E+00 0.  1.
</event>
<event>
 4    1  0.5978476E+003  0.2144744E+02  0.7546771E-02  0.1512971E+00
          2   -1    0    0  501    0  0.00000000000E+00  0.00000000000E+00  0.33235586803E+02  0.33235586803E+02  0.00000000000E+00 0. -1.
         -2   -1    0    0    0  501 -0.00000000000E+00 -0.00000000000E+00 -0.44123522377E+03  0.44123522377E+03  0.00000000000E+00 0. -1.
          2    1    1    2  502    0 -0.11933129148E+02  0.17821147775E+02  0.29485221872E+02  0.36460542894E+02  0.00000000000E+00 0. -1.
         -2    1    1    2    0  502  0.11933129148E+02 -0.17821147775E+02 -0.43748485884E+03  0.43801026768E+03  0.00000000000E+00 0. -1.
</event>
<event>
 4    1  0.5978476E+003  0.2162261E+02  0.7546771E-02  0.1510558E+00
          2   -1    0    0  501    0  0.00000000000E+00  0.00000000000E+00  0.15978099847E+04  0.15978099847E+04  0.00000000000E+00 0.  1.
         -2   -1    0    0    0  501 -0.00000000000E+00 -0.00000000000E+00 -0.42528192275E+02  0.42528192275E+02  0.00000000000E+00 0.  1.
          2    1    1    2  502    0 -0.63969831465E+01 -0.20654685744E+02  0.15949835646E+04  0.15951301229E+04  0.00000000000E+00 0.  1.
         -2    1    1    2    0  502  0.63969831465E+01  0.20654685744E+02 -0.39701772226E+02  0.45208054088E+02  0.00000000000E+00 0.  1.
</event>
<event>
 4    1  0.5978476E+003  0.2596403E+02  0.7546771E-02  0.1458302E+00
          2   -1    0    0  501    0  0.00000000000E+00  0.00000000000E+00  0.24946204349E+03  0.24946204349E+03  0.00000000000E+00 0. -1.
         -2   -1    0    0    0  501 -0.00000000000E+00 -0.00000000000E+00 -0.31165190701E+01  0.31165190701E+01  0.00000000000E+00 0. -1.
          2    1    1    2  502    0  0.23641904478E+02 -0.10732724350E+02  0.16921179323E+03  0.17119217852E+03  0.00000000000E+00 0. -1.
         -2    1    1    2    0  502 -0.23641904478E+02  0.10732724350E+02  0.77133731187E+02  0.81386384034E+02  0.00000000000E+00 0. -1.
</event>
<event>
 4    1  0.5978476E+003  0.2206071E+02  0.7546771E-02  0.1504642E+00
          2   -1    0    0  501    0  0.00000000000E+00  0.00000000000E+00  0.99229598089E+02  0.99229598089E+02  0.00000000000E+00 0.  1.
         -2   -1    0    0    0  501 -0.00000000000E+00 -0.00000000000E+00 -0.92404399184E+02  0.92404399184E+02  0.00000000000E+00 0. -1.
          2    1    1    2  502    0  0.15688171350E+02 -0.15509873901E+02  0.96652098565E+02  0.99137798371E+02  0.00000000000E+00 0.  1.
         -2    1    1    2    0  502 -0.15688171350E+02  0.15509873901E+02 -0.89826899660E+02  0.92496198902E+02  0.00000000000E+00 0. -1.
</event>
<event>
 4    1  0.5978476E+003  0.3626509E+02  0.7546771E-02  0.1371881E+00
          2   -1    0    0  501    0  0.00000000000E+00  0.00000000000E+00  0.11751945150E+04  0.11751945150E+04  0.00000000000E+00 0. -1.
         -2   -1    0    0    0  501 -0.00000000000E+00 -0.00000000000E+00 -0.17310987578E+01  0.17310987578E+01  0.00000000000E+00 0. -1.
          2    1    1    2  502    0  0.21549549125E+02 -0.29168019028E+02  0.93662410726E+03  0.93732591701E+03  0.00000000000E+00 0. -1.
         -2    1    1    2    0  502 -0.21549549125E+02  0.29168019028E+02  0.23683930898E+03  0.23959969674E+03  0.00000000000E+00 0. -1.
</event>
<event>
 4    1  0.6881722E+003  0.2365445E+02  0.7546771E-02  0.1484440E+00
          2   -1    0    0  501    0  0.00000000000E+00  0.00000000000E+00  0.45800591973E+03  0.45800591973E+03  0.00000000000E+00 0. -1.
         -2   -1    0    0    0  501 -0.00000000000E+00 -0.00000000000E+00 -0.36243774363E+03  0.36243774363E+03  0.00000000000E+00 0.  1.
          2    1    1    2  502    0 -0.69979629121E+01  0.22595606712E+02  0.45731396713E+03  0.45792531864E+03  0.00000000000E+00 0. -1.
         -2    1    1    2    0  502  0.69979629121E+01 -0.22595606712E+02 -0.36174579102E+03  0.36251834471E+03  0.00000000000E+00 0.  1.
</event>
<event>
 4    1  0.5978476E+003  0.2941067E+02  0.7546771E-02  0.1424788E+00
          2   -1    0    0  501    0  0.00000000000E+00  0.00000000000E+00  0.80459831849E+02  0.80459831849E+02  0.00000000000E+00 0.  1.
         -2   -1    0    0    0  501 -0.00000000000E+00 -0.00000000000E+00 -0.99005812798E+02  0.99005812798E+02  0.00000000000E+00 0. -1.
          2    1    1    2  502    0  0.27335402500E+02 -0.10851881771E+02  0.75448050504E+02  0.80977749367E+02  0.00000000000E+00 0.  1.
         -2    1    1    2    0  502 -0.27335402500E+02  0.10851881771E+02 -0.93994031453E+02  0.98487895279E+02  0.00000000000E+00 0. -1.
</event>
<event>
 4    1  0.5978476E+003  0.3252777E+02  0.7546771E-02  0.1398830E+00
          2   -1    0    0  501    0  0.00000000000E+00  0.00000000000E+00  0.42496394109E+03  0.42496394109E+03  0.00000000000E+00 0.  1.
         -2   -1    0    0    0  501 -0.00000000000E+00 -0.00000000000E+00 -0.29405988818E+01  0.29405988818E+01  0.00000000000E+00 0. -1.
          2    1    1    2  502    0  0.12473258538E+01 -0.32503849319E+02  0.29478623141E+03  0.29657541751E+03  0.00000000000E+00 0.  1.
         -2    1    1    2    0  502 -0.12473258538E+01  0.32503849319E+02  0.12723711080E+03  0.13132912246E+03  0.00000000000E+00 0. -1.
</event>
<event>
 4    1  0.5978476E+003  0.4838639E+02  0.7546771E-02  0.1305324E+00
          2   -1    0    0  501    0  0.00000000000E+00  0.00000000000E+00  0.13573112779E+04  0.13573112779E+04  0.00000000000E+00 0.  1.
         -2   -1    0    0    0  501 -0.00000000000E+00 -0.00000000000E+00 -0.45783834445E+01  0.45783834445E+01  0.00000000000E+00 0. -1.
          2    1    1    2  502    0 -0.38093715312E+02  0.29834743482E+02  0.12139458005E+04  0.12149097290E+04  0.00000000000E+00 0.  1.
         -2    1    1    2    0  502  0.38093715312E+02 -0.29834743482E+02  0.13878709403E+03  0.14697993242E+03  0.00000000000E+00 0. -1.
</event>
<event>
 4    1  0.5978476E+003  0.2108649E+02  0.7546771E-02  0.1518033E+00
          2   -1    0    0  501    0  0.00000000000E+00  0.00000000000E+00  0.12817091616E+04  0.12817091616E+04  0.00000000000E+00 0. -1.
         -2   -1    0    0    0  501 -0.00000000000E+00 -0.00000000000E+00 -0.22964773098E+01  0.22964773098E+01  0.00000000000E+00 0. -1.
          2    1    1    2  502    0  0.35192542944E+01 -0.20790740733E+02  0.12312336122E+04  0.12314141659E+04  0.00000000000E+00 0. -1.
         -2    1    1    2    0  502 -0.35192542944E+01  0.20790740733E+02  0.48179072106E+02  0.52591473073E+02  0.00000000000E+00 0. -1.
</event>
<event>
 4    1  0.5978476E+003  0.3350502E+02  0.7546771E-02  0.1391389E+00
          2   -1    0    0  501    0  0.00000000000E+00  0.00000000000E+00  0.36784030352E+03  0.36784030352E+03  0.00000000000E+00 0.  1.
         -2   -1    0    0    0  501 -0.00000000000E+00 -0.00000000000E+00 -0.11097656726E+02  0.11097656726E+02  0.00000000000E+00 0. -1.
          2    1    1    2  502    0  0.83958750943E+01  0.32436025122E+02  0.33969859328E+03  0.34134692136E+03  0.00000000000E+00 0.  1.
         -2    1    1    2    0  502 -0.83958750943E+01 -0.32436025122E+02  0.17044053511E+02  0.37591038885E+02  0.00000000000E+00 0. -1.
</event>
<event>
 4    1  0.5978476E+003  0.2117161E+02  0.7546771E-02  0.1516829E+00
          2   -1    0    0  501    0  0.00000000000E+00  0.00000000000E+00  0.11640603810E+02  0.11640603810E+02  0.00000000000E+00 0. -1.
         -2   -1    0    0    0  501 -0.00000000000E+00 -0.00000000000E+00 -0.10791881575E+03  0.10791881575E+03  0.00000000000E+00 0.  1.
          2    1    1    2  502    0 -0.14383852908E+02 -0.15535187535E+02 -0.19624764196E+00  0.21172524398E+02  0.00000000000E+00 0. -1.
         -2    1    1    2    0  502  0.14383852908E+02  0.15535187535E+02 -0.96081964298E+02  0.98386895162E+02  0.00000000000E+00 0.  1.
</event>
<event>
 4    1  0.5978476E+003  0.5175087E+02  0.7546771E-02  0.1290755E+00
          2   -1    0    0  501    0  0.00000000000E+00  0.00000000000E+00  0.83398452985E+03  0.83398452985E+03  0.00000000000E+00 0. -1.
         -2   -1    0    0    0  501 -0.00000000000E+00 -0.00000000000E+00 -0.39435550856E+01  0.39435550856E+01  0.00000000000E+00 0.  1.
          2    1    1    2  502    0 -0.46834575100E+02  0.22015333445E+02  0.59555984115E+03  0.59780404542E+03  0.00000000000E+00 0. -1.
         -2    1    1    2    0  502  0.46834575100E+02 -0.22015333445E+02  0.23448113361E+03  0.24012403951E+03  0.00000000000E+00 0.  1.
</event>
<event>
 4    1  0.5978476E+003  0.2657956E+02  0.7546771E-02  0.1451878E+00
          2   -1    0    0  501    0  0.00000000000E+00  0.00000000000E+00  0.14080638231E+04  0.14080638231E+04  0.00000000000E+00 0.  1.
         -2   -1    0    0    0  501 -0.00000000000E+00 -0.00000000000E+00 -0.65554209362E+01  0.65554209362E+01  0.00000000000E+00 0.  1.
          2    1    1    2  502    0  0.65523995715E+01  0.25759255238E+02  0.13804573179E+04  0.13807131779E+04  0.00000000000E+00 0.  1.
         -2    1    1    2    0  502 -0.65523995715E+01 -0.25759255238E+02  0.21051084286E+02  0.33906066127E+02  0.00000000000E+00 0.  1.
</event>
<event>
 4    1  0.5978476E+003  0.4326689E+02  0.7546771E-02  0.1330337E+00
          2   -1    0    0  501    0  0.00000000000E+00  0.00000000000E+00  0.16111414314E+03  0.16111414314E+03  0.00000000000E+00 0. -1.
         -2   -1    0    0    0  501 -0.00000000000E+00 -0.00000000000E+00 -0.19079417669E+02  0.19079417669E+02  0.00000000000E+00 0. -1.
          2    1    1    2  502    0 -0.42072831529E+02  0.10094587322E+02  0.12735534757E+03  0.13450430625E+03  0.00000000000E+00 0. -1.
         -2    1    1    2    0  502  0.42072831529E+02 -0.10094587322E+02  0.14679377899E+02  0.45689254553E+02  0.00000000000E+00 0. -1.
</event>
<event>
 4    1  0.6030100E+003  0.3215447E+02  0.7546771E-02  0.1401754E+00
          2   -1    0    0  501    0  0.00000000000E+00  0.00000000000E+00  0.14272639403E+04  0.14272639403E+04  0.00000000000E+00 0.  1.
         -2   -1    0    0    0  501 -0.00000000000E+00 -0.00000000000E+00 -0.99583512614E+02  0.99583512614E+02  0.00000000000E+00 0. -1.
          2    1    1    2  502    0  0.23079801761E+02 -0.22388226266E+02  0.14244821872E+04  0.14248450482E+04  0.00000000000E+00 0.  1.
         -2    1    1    2    0  502 -0.23079801761E+02  0.22388226266E+02 -0.96801759473E+02  0.10200240469E+03  0.00000000000E+00 0. -1.
</event>
<event>
 4    1  0.5978476E+003  0.3299473E+02  0.7546771E-02  0.1395237E+00
          2   -1    0    0  501    0  0.00000000000E+00  0.00000000000E+00  0.12023882634E+03  0.12023882634E+03  0.00000000000E+00 0.  1.
         -2   -1    0    0    0  501 -0.00000000000E+00 -0.00000000000E+00 -0.29579656681E+02  0.29579656681E+02  0.00000000000E+00 0.  1.
          2    1    1    2  502    0  0.72321869375E+01  0.32192354065E+02  0.10772985907E+03  0.11266931580E+03  0.00000000000E+00 0.  1.
         -2    1    1    2    0  502 -0.72321869375E+01 -0.32192354065E+02 -0.17070689411E+02  0.37149167219E+02  0.00000000000E+00 0.  1.
</event>
<event>
 4    1  0.5978476E+003  0.2554104E+02  0.7546771E-02  0.1462841E+00
          2   -1    0    0  501    0  0.00000000000E+00  0.00000000000E+00  0.80566518223E+03  0.80566518223E+03  0.00000000000E+00 0. -1.
         -2   -1    0    0    0  501 -0.00000000000E+00 -0.00000000000E+00 -0.22140856991E+01  0.22140856991E+01  0.00000000000E+00 0. -1.
          2    1    1    2  502    0  0.25391798646E+02  0.27570481778E+01  0.72343432063E+03  0.72388504682E+03  0.00000000000E+00 0. -1.
         -2    1    1    2    0  502 -0.25391798646E+02 -0.27570481778E+01  0.80016775901E+02  0.83994221103E+02  0.00000000000E+00 0. -1.
</event>
<event>
 4    1  0.5978476E+003  0.2092480E+02  0.7546771E-02  0.1520341E+00
          2   -1    0    0  501    0  0.00000000000E+00  0.00000000000E+00  0.51809116431E+03  0.51809116431E+03  0.00000000000E+00 0. -1.
         -2   -1    0    0    0  501 -0.00000000000E+00 -0.00000000000E+00 -0.74121669232E+01  0.74121669232E+01  0.00000000000E+00 0.  1.
          2    1    1    2  502    0 -0.20322410279E+02  0.49846808676E+01  0.50265882620E+03  0.50309416907E+03  0.00000000000E+00 0. -1.
         -2    1    1    2    0  502  0.20322410279E+02 -0.49846808676E+01  0.80201711946E+01  0.22409162164E+02  0.00000000000E+00 0.  1.
</event>
<event>
 4    1  0.5978476E+003  0.2791756E+02  0.7546771E-02  0.1438603E+00
          2   -1    0    0  501    0  0.00000000000E+00  0.00000000000E+00  0.90760481342E+03  0.90760481342E+03  0.00000000000E+00 0. -1.
         -2   -1    0    0    0  501 -0.00000000000E+00 -0.00000000000E+00 -0.88716825731E+00  0.88716825731E+00  0.00000000000E+00 0.  1.
          2    1    1    2  502    0  0.19413535811E+00  0.27916873298E+02  0.37203410103E+03  0.37308010110E+03  0.00000000000E+00 0. -1.
         -2    1    1    2    0  502 -0.19413535811E+00 -0.27916873298E+02  0.53468354413E+03  0.53541188058E+03  0.00000000000E+00 0.  1.
</event>
<event>
 4    1  0.5978476E+003  0.2082223E+02  0.7546771E-02  0.1521818E+00
          2   -1    0    0  501    0  0.00000000000E+00  0.00000000000E+00  0.12909638862E+03  0.12909638862E+03  0.00000000000E+00 0.  1.
         -2   -1    0    0    0  501 -0.00000000000E+00 -0.00000000000E+00 -0.10453915271E+02  0.10453915271E+02  0.00000000000E+00 0.  1.
          2    1    1    2  502    0 -0.19221473011E+02 -0.80062684423E+01  0.11680581696E+03  0.11864722599E+03  0.00000000000E+00 0.  1.
         -2    1    1    2    0  502  0.19221473011E+02  0.80062684423E+01  0.18366563887E+01  0.20903077902E+02  0.00000000000E+00 0.  1.
</event>
<event>
 4    1  0.5978476E+003  0.4230054E+02  0.7546771E-02  0.1335508E+00
          2   -1    0    0  501    0  0.00000000000E+00  0.00000000000E+00  0.13456142192E+04  0.13456142192E+04  0.00000000000E+00 0.  1.
         -2   -1    0    0    0  501 -0.00000000000E+00 -0.00000000000E+00 -0.29534916333E+01  0.29534916333E+01  0.00000000000E+00 0. -1.
          2    1    1    2  502    0  0.38060988217E+02  0.18457964082E+02  0.11712876241E+04  0.11720512078E+04  0.00000000000E+00 0.  1.
         -2    1    1    2    0  502 -0.38060988217E+02 -0.18457964082E+02  0.17137310344E+03  0.17651650304E+03  0.00000000000E+00 0. -1.
</event>
<event>
 4    1  0.5978476E+003  0.2128154E+02  0.7546771E-02  0.1515283E+00
          2   -1    0    0  501    0  0.00000000000E+00  0.00000000000E+00  0.28919749084E+03  0.28919749084E+03  0.00000000000E+00 0. -1.
         -2   -1    0    0    0  501 -0.00000000000E+00 -0.00000000000E+00 -0.15683248255E+01  0.15683248255E+01  0.00000000000E+00 0. -1.
          2    1    1    2  502    0  0.76826814681E+00  0.21267657626E+02  0.13830196766E+03  0.13992976008E+03  0.00000000000E+00 0. -1.
         -2    1    1    2    0  502 -0.76826814681E+00 -0.21267657626E+02  0.14932719835E+03  0.15083605559E+03  0.00000000000E+00 0. -1.
</event>
<event>
 4    1  0.5978476E+003  0.2942415E+02  0.7546771E-02  0.1424667E+00
          2   -1    0    0  501    0  0.00000000000E+00  0.00000000000E+00  0.14261256127E+04  0.14261256127E+04  0.00000000000E+00 0.  1.
         -2   -1    0    0    0  501 -0.00000000000E+00 -0.00000000000E+00 -0.33356129555E+01  0.33356129555E+01  0.00000000000E+00 0. -1.
          2    1    1    2  502    0 -0.29122805707E+02  0.42003336422E+01  0.13578208240E+04  0.13581395991E+04  0.00000000000E+00 0.  1.
         -2    1    1    2    0  502  0.29122805707E+02 -0.42003336422E+01  0.64969175782E+02  0.71321626571E+02  0.00000000000E+00 0. -1.
</event>
<event>
 4    1  0.5978476E+003  0.2202050E+02  0.7546771E-02  0.1505178E+00
          2   -1    0    0  501    0  0.00000000000E+00  0.00000000000E+00  0.10081384596E+04  0.10081384596E+04  0.00000000000E+00 0.  1.
         -2   -1    0    0    0  501 -0.00000000000E+00 -0.00000000000E+00 -0.70940410598E+01  0.70940410598E+01  0.00000000000E+00 0.  1.
          2    1    1    2  502    0  0.20649593421E+02 -0.76483158485E+01  0.99062781885E+03  0.99087253364E+03  0.00000000000E+00 0.  1.
         -2    1    1    2    0  502 -0.20649593421E+02  0.76483158485E+01  0.10416599680E+02  0.24359967009E+02  0.00000000000E+00 0.  1.
</event>
<event>
 4    1  0.5978476E+003  0.3274573E+02  0.7546771E-02  0.1397144E+00
          2   -1    0    0  501    0  0.00000000000E+00  0.00000000000E+00  0.19349808878E+04  0.19349808878E+04  0.00000000000E+00 0. -1.
         -2   -1    0    0    0  501 -0.00000000000E+00 -0.00000000000E+00 -0.27709527312E+01  0.27709527312E+01  0.00000000000E+00 0. -1.
          2    1    1    2  502    0  0.25973060158E+02 -0.19941982496E+02  0.18327005614E+04  0.18329930797E+04  0.00000000000E+00 0. -1.
         -2    1    1    2    0  502 -0.25973060158E+02  0.19941982496E+02  0.99509373630E+02  0.10475876078E+03  0.00000000000E+00 0. -1.
</event>
<event>
 4    1  0.5978476E+003  0.2361207E+02  0.7546771E-02  0.1484952E+00
          2   -1    0    0  501    0  0.00000000000E+00  0.00000000000E+00  0.16512630601E+04  0.16512630601E+04  0.00000000000E+00 0. -1.
         -2   -1    0    0    0  501 -0.00000000000E+00 -0.00000000000E+00 -0.68153482105E+01  0.68153482105E+01  0.00000000000E+00 0.  1.
          2    1    1    2  502    0  0.22443026323E+02  0.73375896997E+01  0.16304665563E+04  0.16306375197E+04  0.00000000000E+00 0. -1.
         -2    1    1    2    0  502 -0.22443026323E+02 -0.73375896997E+01  0.13981155612E+02  0.27440888568E+02  0.00000000000E+00 0.  1.
</event>
<event>
 4    1  0.5978476E+003  0.2456268E+02  0.7546771E-02  0.1473755E+00
          2   -1    0    0  501    0  0.00000000000E+00  0.00000000000E+00  0.40066111396E+03  0.40066111396E+03  0.00000000000E+00 0.  1.
         -2   -1    0    0    0  501 -0.00000000000E+00 -0.00000000000E+00 -0.15097215175E+03  0.15097215175E+03  0.00000000000E+00 0. -1.
          2    1    1    2  502    0 -0.17151681196E+02 -0.17582527694E+02  0.39928214316E+03  0.40003694241E+03  0.00000000000E+00 0.  1.
         -2    1    1    2    0  502  0.17151681196E+02  0.17582527694E+02 -0.14959318095E+03  0.15159632329E+03  0.00000000000E+00 0. -1.
</event>
<event>
 4    1  0.5978476E+003  0.4692507E+02  0.7546771E-02  0.1312085E+00
          2   -1    0    0  501    0  0.00000000000E+00  0.00000000000E+00  0.33348080023E+03  0.33348080023E+03  0.00000000000E+00 0.  1.
         -2   -1    0    0    0  501 -0.00000000000E+00 -0.00000000000E+00 -0.24602579135E+02  0.24602579135E+02  0.00000000000E+00 0.  1.
          2    1    1    2  502    0  0.28236498689E+02 -0.37478818960E+02  0.30758151385E+03  0.31114040141E+03  0.00000000000E+00 0.  1.
         -2    1    1    2    0  502 -0.28236498689E+02  0.37478818960E+02  0.12967072401E+01  0.46942977947E+02  0.00000000000E+00 0.  1.
</event>
<event>
 4    1  0.5978476E+003  0.2327034E+02  0.7546771E-02  0.1489131E+00
          2   -1    0    0  501    0  0.00000000000E+00  0.00000000000E+00  0.13385904375E+02  0.13385904375E+02  0.00000000000E+00 0. -1.
         -2   -1    0    0    0  501 -0.00000000000E+00 -0.00000000000E+00 -0.41108731347E+02  0.41108731347E+02  0.00000000000E+00 0.  1.
          2    1    1    2  502    0  0.17093168078E+02  0.15790238316E+02 -0.17301116262E+02  0.28997183396E+02  0.00000000000E+00 0.  1.
         -2    1    1    2    0  502 -0.17093168078E+02 -0.15790238316E+02 -0.10421710710E+02  0.25497452327E+02  0.00000000000E+00 0. -1.
</event>
<event>
 4    1  0.5978476E+003  0.2118780E+02  0.7546771E-02  0.1516600E+00
          2   -1    0    0  501    0  0.00000000000E+00  0.00000000000E+00  0.40318644973E+03  0.40318644973E+03  0.00000000000E+00 0. -1.
         -2   -1    0    0    0  501 -0.00000000000E+00 -0.00000000000E+00 -0.14670530330E+01  0.14670530330E+01  0.00000000000E+00 0. -1.
          2    1    1    2  502    0  0.14680600877E+02 -0.15277523558E+02  0.30019332424E+03  0.30094011811E+03  0.00000000000E+00 0. -1.
         -2    1    1    2    0  502 -0.14680600877E+02  0.15277523558E+02  0.10152607245E+03  0.10371338465E+03  0.00000000000E+00 0. -1.
</event>
<event>
 4    1  0.5978476E+003  0.2962910E+02  0.7546771E-02  0.1422847E+00
          2   -1    0    0  501    0  0.00000000000E+00  0.00000000000E+00  0.22377714905E+03  0.22377714905E+03  0.00000000000E+00 0.  1.
         -2   -1    0    0    0  501 -0.00000000000E+00 -0.00000000000E+00 -0.14315756771E+03  0.14315756771E+03  0.00000000000E+00 0.  1.
          2    1    1    2  502    0 -0.27549099446E+02  0.10905527375E+02  0.22124585874E+03  0.22322099681E+03  0.00000000000E+00 0.  1.
         -2    1    1    2    0  502  0.27549099446E+02 -0.10905527375E+02 -0.14062627739E+03  0.14371371995E+03  0.00000000000E+00 0.  1.
</event>
<event>
 4    1  0.5978476E+003  0.5490781E+02  0.7546771E-02  0.1278190E+00
          2   -1    0    0  501    0  0.00000000000E+00  0.00000000000E+00  0.18858069813E+04  0.18858069813E+04  0.00000000000E+00 0.  1.
         -2   -1    0    0    0  501 -0.00000000000E+00 -0.00000000000E+00 -0.34142349050E+01  0.34142349050E+01  0.00000000000E+00 0.  1.
          2    1    1    2  502    0 -0.54067405000E+02  0.95699242484E+01  0.16300177840E+04  0.16309423178E+04  0.00000000000E+00 0.  1.
         -2    1    1    2    0  502  0.54067405000E+02 -0.95699242484E+01  0.25237496241E+03  0.25827889845E+03  0.00000000000E+00 0.  1.
</event>
<event>
 4    1  0.5978476E+003  0.2604289E+02  0.7546771E-02  0.1457467E+00
          2   -1    0    0  501    0  0.00000000000E+00  0.00000000000E+00  0.94052483222E+01  0.94052483222E+01  0.00000000000E+00 0.  1.
         -2   -1    0    0    0  501 -0.00000000000E+00 -0.00000000000E+00 -0.72116364656E+02  0.72116364656E+02  0.00000000000E+00 0.  1.
          2    1    1    2  502    0 -0.10946014641E+00  0.26042657593E+02 -0.31041283044E+02  0.40519047978E+02  0.00000000000E+00 0.  1.
         -2    1    1    2    0  502  0.10946014641E+00 -0.26042657593E+02 -0.31669833289E+02  0.41002565000E+02  0.00000000000E+00 0.  1.
</event>
<event>
 4    1  0.5978476E+003  0.3091750E+02  0.7546771E-02  0.1411787E+00
          2   -1    0    0  501    0  0.00000000000E+00  0.00000000000E+00  0.42894417383E+03  0.42894417383E+03  0.00000000000E+00 0.  1.
         -2   -1    0    0    0  501 -0.00000000000E+00 -0.00000000000E+00 -0.10681884829E+02  0.10681884829E+02  0.00000000000E+00 0. -1.
          2    1    1    2  502    0 -0.30658164647E+02  0.39960624328E+01  0.40467556820E+03  0.40585490890E+03  0.00000000000E+00 0.  1.
         -2    1    1    2    0  502  0.30658164647E+02 -0.39960624328E+01  0.13586720801E+02  0.33771149767E+02  0.00000000000E+00 0. -1.
</event>
<event>
 4    1  0.5978476E+003  0.2053658E+02  0.7546771E-02  0.1525985E+00
          2   -1    0    0  501    0  0.00000000000E+00  0.00000000000E+00  0.22609729727E+01  0.22609729727E+01  0.00000000000E+00 0.  1.
         -2   -1    0    0    0  501 -0.00000000000E+00 -0.00000000000E+00 -0.22374695599E+03  0.22374695599E+03  0.00000000000E+00 0. -1.
          2    1    1    2  502    0  0.11759784217E+02  0.16836230625E+02 -0.64658496706E+02  0.67841524031E+02  0.00000000000E+00 0.  1.
         -2    1    1    2    0  502 -0.11759784217E+02 -0.16836230625E+02 -0.15682748631E+03  0.15816640493E+03  0.00000000000E+00 0. -1.
</event>
<event>
 4    1  0.5978476E+003  0.2621780E+02  0.7546771E-02  0.1455628E+00
          2   -1    0    0  501    0  0.00000000000E+00  0.00000000000E+00  0.13082674693E+03  0.13082674693E+03  0.00000000000E+00 0. -1.
         -2   -1    0    0    0  501 -0.00000000000E+00 -0.00000000000E+00 -0.69456898334E+02  0.69456898334E+02  0.00000000000E+00 0. -1.
          2    1    1    2  502    0 -0.13904940813E+02  0.22226693324E+02  0.12696465546E+03  0.12964334542E+03  0.00000000000E+00 0. -1.
         -2    1    1    2    0  502  0.13904940813E+02 -0.22226693324E+02 -0.65594806863E+02  0.70640299847E+02  0.00000000000E+00 0. -1.
</event>
<event>
 4    1  0.5978476E+003  0.2069572E+02  0.7546771E-02  0.1523654E+00
          2   -1    0    0  501    0  0.00000000000E+00  0.00000000000E+00  0.89426225648E+03  0.89426225648E+03  0.00000000000E+00 0.  1.
         -2   -1    0    0    0  501 -0.00000000000E+00 -0.00000000000E+00 -0.65921916416E+00  0.65921916416E+00  0.00000000000E+00 0. -1.
          2    1    1    2  502    0 -0.20678492589E+02 -0.84414222535E+00  0.68078922179E+03  0.68110371981E+03  0.00000000000E+00 0.  1.
         -2    1    1    2    0  502  0.20678492589E+02  0.84414222535E+00  0.21281381553E+03  0.21381775583E+03  0.00000000000E+00 0. -1.
</event>
<event>
 4    1  0.5978476E+003  0.2602071E+02  0.7546771E-02  0.1457701E+00
          2   -1    0    0  501    0  0.00000000000E+00  0.00000000000E+00  0.10043217261E+04  0.10043217261E+04  0.00000000000E+00 0. -1.
         -2   -1    0    0    0  501 -0.00000000000E+00 -0.00000000000E+00 -0.15369057323E+01  0.15369057323E+01  0.00000000000E+00 0. -1.
          2    1    1    2  502    0 -0.65354394532E+01  0.25186610984E+02  0.87820360088E+03  0.87858900627E+03  0.00000000000E+00 0. -1.
         -2    1    1    2    0  502  0.65354394532E+01 -0.25186610984E+02  0.12458121953E+03  0.12726962561E+03  0.00000000000E+00 0. -1.
</event>
<event>
 4    1  0.5978476E+003  0.2646733E+02  0.7546771E-02  0.1453034E+00
          2   -1    0    0  501    0  0.00000000000E+00  0.00000000000E+00  0.17062405951E+04  0.17062405951E+04  0.00000000000E+00 0.  1.
         -2   -1    0    0    0  501 -0.00000000000E+00 -0.00000000000E+00 -0.39460315416E+01  0.39460315416E+01  0.00000000000E+00 0.  1.
          2    1    1    2  502    0  0.20270221651E+02 -0.17018738080E+02  0.16605352051E+04  0.16607461235E+04  0.00000000000E+00 0.  1.
         -2    1    1    2    0  502 -0.20270221651E+02  0.17018738080E+02  0.41759358406E+02  0.49440503093E+02  0.00000000000E+00 0.  1.
</event>
<event>
 4    1  0.5978476E+003  0.2305147E+02  0.7546771E-02  0.1491853E+00
          2   -1    0    0  501    0  0.00000000000E+00  0.00000000000E+00  0.83431654394E+03  0.83431654394E+03  0.00000000000E+00 0.  1.
         -2   -1    0    0    0  501 -0.00000000000E+00 -0.00000000000E+00 -0.12782889111E+01  0.12782889111E+01  0.00000000000E+00 0. -1.
          2    1    1    2  502    0 -0.22965181940E+02 -0.19926024124E+01  0.71246648256E+03  0.71283929382E+03  0.00000000000E+00 0.  1.
         -2    1    1    2    0  502  0.22965181940E+02  0.19926024124E+01  0.12057177247E+03  0.12275553903E+03  0.00000000000E+00 0. -1.
</event>
<event>
 4    1  0.5978476E+003  0.2070751E+02  0.7546771E-02  0.1523482E+00
          2   -1    0    0  501    0  0.00000000000E+00  0.00000000000E+00  0.20242496766E+02  0.20242496766E+02  0.00000000000E+00 0. -1.
         -2   -1    0    0    0  501 -0.00000000000E+00 -0.00000000000E+00 -0.43008653454E+02  0.43008653454E+02  0.00000000000E+00 0.  1.
          2    1    1    2  502    0 -0.15166556977E+02  0.14098807806E+02  0.11145934331E+02  0.23516646959E+02  0.00000000000E+00 0. -1.
         -2    1    1    2    0  502  0.15166556977E+02 -0.14098807806E+02 -0.33912091019E+02  0.39734503261E+02  0.00000000000E+00 0.  1.
</event>
<event>
 4    1  0.5978476E+003  0.2692505E+02  0.7546771E-02  0.1448362E+00
          2   -1    0    0  501    0  0.00000000000E+00  0.00000000000E+00  0.25089941041E+04  0.25089941041E+04  0.00000000000E+00 0.  1.
         -2   -1    0    0    0  501 -0.00000000000E+00 -0.00000000000E+00 -0.35743148313E+00  0.35743148313E+00  0.00000000000E+00 0.  1.
          2    1    1    2  502    0  0.25860855317E+02 -0.74949487621E+01  0.18035323293E+04  0.18037333009E+04  0.00000000000E+00 0.  1.
         -2    1    1    2    0  502 -0.25860855317E+02  0.74949487621E+01  0.70510434339E+03  0.70561823472E+03  0.00000000000E+00 0.  1.
</event>
<event>
 4    1  0.5978476E+003  0.2158837E+02  0.7546771E-02  0.1511028E+00
          2   -1    0    0  501    0  0.00000000000E+00  0.00000000000E+00  0.17052144112E+04  0.17052144112E+04  0.00000000000E+00 0. -1.
         -2   -1    0    0    0  501 -0.00000000000E+00 -0.00000000000E+00 -0.32886776273E+00  0.32886776273E+00  0.00000000000E+00 0.  1.
          2    1    1    2  502    0  0.20538197722E+02 -0.66513116199E+01  0.12029380586E+04  0.12031317594E+04  0.00000000000E+00 0. -1.
         -2    1    1    2    0  502 -0.20538197722E+02  0.66513116199E+01  0.50194748482E+03  0.50241151960E+03  0.00000000000E+00 0.  1.
</event>
<event>
 4    1  0.5978476E+003  0.3908069E+02  0.7546771E-02  0.1353959E+00
          2   -1    0    0  501    0  0.00000000000E+00  0.00000000000E+00  0.70751056935E+02  0.70751056935E+02  0.00000000000E+00 0. -1.
         -2   -1    0    0    0  501 -0.00000000000E+00 -0.00000000000E+00 -0.21789529594E+02  0.21789529594E+02  0.00000000000E+00 0. -1.
          2    1    1    2  502    0 -0.27162731620E+02  0.28097793290E+02  0.28942145356E+02  0.48630728502E+02  0.00000000000E+00 0. -1.
         -2    1    1    2    0  502  0.27162731620E+02 -0.28097793290E+02  0.20019381985E+02  0.43909858027E+02  0.00000000000E+00 0. -1.
</event>
<event>
 4    1  0.5978476E+003  0.2495142E+02  0.7546771E-02  0.1469348E+00
          2   -1    0    0  501    0  0.00000000000E+00  0.00000000000E+00  0.47216402777E+03  0.47216402777E+03  0.00000000000E+00 0. -1.
         -2   -1    0    0    0  501 -0.00000000000E+00 -0.00000000000E+00 -0.14550850977E+01  0.14550850977E+01  0.00000000000E+00 0. -1.
          2    1    1    2  502    0  0.18612066769E+02 -0.16618178866E+02  0.16281510679E+03  0.16471591270E+03  0.00000000000E+00 0. -1.
         -2    1    1    2    0  502 -0.18612066769E+02  0.16618178866E+02  0.30789383589E+03  0.30890320017E+03  0.00000000000E+00 0. -1.
</event>
<event>
 4    1  0.5978476E+003  0.3047044E+02  0.7546771E-02  0.1415552E+00
          2   -1    0    0  501    0  0.00000000000E+00  0.00000000000E+00  0.31308174732E+01  0.31308174732E+01  0.00000000000E+00 0.  1.
         -2   -1    0    0    0  501 -0.00000000000E+00 -0.00000000000E+00 -0.34537124286E+03  0.34537124286E+03  0.00000000000E+00 0. -1.
          2    1    1    2  502    0  0.23227129974E+02 -0.19721765095E+02 -0.10560661064E+03  0.10991452950E+03  0.00000000000E+00 0.  1.
         -2    1    1    2    0  502 -0.23227129974E+02  0.19721765095E+02 -0.23663381475E+03  0.23858753083E+03  0.00000000000E+00 0. -1.
</event>
<event>
 4    1  0.5978476E+003  0.2390241E+02  0.7546771E-02  0.1481467E+00
          2   -1    0    0  501    0  0.00000000000E+00  0.00000000000E+00  0.12568112383E+04  0.12568112383E+04  0.00000000000E+00 0. -1.
         -2   -1    0    0    0  501 -0.00000000000E+00 -0.00000000000E+00 -0.46585967010E+00  0.46585967010E+00  0.00000000000E+00 0. -1.
          2    1    1    2  502    0 -0.72245189501E+01 -0.22784441456E+02  0.53036506189E+03  0.53090340301E+03  0.00000000000E+00 0. -1.
         -2    1    1    2    0  502  0.72245189501E+01  0.22784441456E+02  0.72598031677E+03  0.72637369500E+03  0.00000000000E+00 0. -1.
</event>
<event>
 4    1  0.5978476E+003  0.4625599E+02  0.7546771E-02  0.1315276E+00
          2   -1    0    0  501    0  0.00000000000E+00  0.00000000000E+00  0.88689879812E+02  0.88689879812E+02  0.00000000000E+00 0.  1.
         -2   -1    0    0    0  501 -0.00000000000E+00 -0.00000000000E+00 -0.31272912390E+02  0.31272912390E+02  0.00000000000E+00 0.  1.
          2    1    1    2  502    0  0.19085909616E+02 -0.42134835738E+02  0.57385322309E+02  0.73706794429E+02  0.00000000000E+00 0.  1.
         -2    1    1    2    0  502 -0.19085909616E+02  0.42134835738E+02  0.31645112841E-01  0.46255997773E+02  0.00000000000E+00 0.  1.
</event>
<event>
 4    1  0.5978476E+003  0.2077670E+02  0.7546771E-02  0.1522477E+00
          2   -1    0    0  501    0  0.00000000000E+00  0.00000000000E+00  0.34156794092E+03  0.34156794092E+03  0.00000000000E+00 0.  1.
         -2   -1    0    0    0  501 -0.00000000000E+00 -0.00000000000E+00 -0.22204575100E+02  0.22204575100E+02  0.00000000000E+00 0. -1.
          2    1    1    2  502    0  0.99604047426E+01 -0.18233535057E+02  0.33631600454E+03  0.33695715806E+03  0.00000000000E+00 0.  1.
         -2    1    1    2    0  502 -0.99604047426E+01  0.18233535057E+02 -0.16952638711E+02  0.26815357961E+02  0.00000000000E+00 0. -1.
</event>
<event>
 4    1  0.5978476E+003  0.4663182E+02  0.7546771E-02  0.1313476E+00
          2   -1    0    0  501    0  0.00000000000E+00  0.00000000000E+00  0.64869021293E+02  0.64869021293E+02  0.00000000000E+00 0.  1.
         -2   -1    0    0    0  501 -0.00000000000E+00 -0.00000000000E+00 -0.46252432703E+03  0.46252432703E+03  0.00000000000E+00 0.  1.
          2    1    1    2  502    0  0.42393399485E+02  0.19424886709E+02  0.55133497795E+02  0.72209619322E+02  0.00000000000E+00 0.  1.
         -2    1    1    2    0  502 -0.42393399485E+02 -0.19424886709E+02 -0.45278880353E+03  0.45518372900E+03  0.00000000000E+00 0.  1.
</event>
<event>
 4    1  0.5978476E+003  0.4362907E+02  0.7546771E-02  0.1328438E+00
          2   -1    0    0  501    0  0.00000000000E+00  0.00000000000E+00  0.46936117029E+03  0.46936117029E+03  0.00000000000E+00 0. -1.
         -2   -1    0    0    0  501 -0.00000000000E+00 -0.00000000000E+00 -0.91972670703E+02  0.91972670703E+02  0.00000000000E+00 0.  1.
          2    1    1    2  502    0 -0.48223514812E+01  0.43361746762E+02  0.46310345268E+03  0.46515406484E+03  0.00000000000E+00 0. -1.
         -2    1    1    2    0  502  0.48223514812E+01 -0.43361746762E+02 -0.85714953094E+02  0.96179776149E+02  0.00000000000E+00 0.  1.
</event>
<event>
 4    1  0.5978476E+003  0.2119604E+02  0.7546771E-02  0.1516484E+00
          2   -1    0    0  501    0  0.00000000000E+00  0.00000000000E+00  0.51471647485E+03  0.51471647485E+03  0.00000000000E+00 0.  1.
         -2   -1    0    0    0  501 -0.00000000000E+00 -0.00000000000E+00 -0.12084860790E+02  0.12084860790E+02  0.00000000000E+00 0.  1.
          2    1    1    2  502    0 -0.26750695440E+01  0.21026558415E+02  0.50502589067E+03  0.50547049608E+03  0.00000000000E+00 0.  1.
         -2    1    1    2    0  502  0.26750695440E+01 -0.21026558415E+02 -0.23942766144E+01  0.21330839560E+02  0.00000000000E+00 0.  1.
</event>
<event>
 4    1  0.5978476E+003  0.2148572E+02  0.7546771E-02  0.1512442E+00
          2   -1    0    0  501    0  0.00000000000E+00  0.00000000000E+00  0.81425253123E+03  0.81425253123E+03  0.00000000000E+00 0. -1.
         -2   -1    0    0    0  501 -0.00000000000E+00 -0.00000000000E+00 -0.19179306885E+01  0.19179306885E+01  0.00000000000E+00 0.  1.
          2    1    1    2  502    0  0.15761016096E+02 -0.14602276448E+02  0.74866673248E+03  0.74897497450E+03  0.00000000000E+00 0. -1.
         -2    1    1    2    0  502 -0.15761016096E+02  0.14602276448E+02  0.63667868061E+02  0.67195487418E+02  0.00000000000E+00 0.  1.
</event>
<event>
 4    1  0.5978476E+003  0.2371068E+02  0.7546771E-02  0.1483762E+00
          2   -1    0    0  501    0  0.00000000000E+00  0.00000000000E+00  0.26951204636E+03  0.26951204636E+03  0.00000000000E+00 0.  1.
         -2   -1    0    0    0  501 -0.00000000000E+00 -0.00000000000E+00 -0.21024266399E+01  0.21024266399E+01  0.00000000000E+00 0. -1.
          2    1    1    2  502    0 -0.12423861874E+02  0.20195144134E+02  0.14571715833E+03  0.14763362227E+03  0.00000000000E+00 0.  1.
         -2    1    1    2    0  502  0.12423861874E+02 -0.20195144134E+02  0.12169246138E+03  0.12398085073E+03  0.00000000000E+00 0. -1.
</event>
<event>
 4    1  0.5978476E+003  0.2081158E+02  0.7546771E-02  0.1521972E+00
          2   -1    0    0  501    0  0.00000000000E+00  0.00000000000E+00  0.82124922129E+03  0.82124922129E+03  0.00000000000E+00 0.  1.
         -2   -1    0    0    0  501 -0.00000000000E+00 -0.00000000000E+00 -0.52757618723E+00  0.52757618723E+00  0.00000000000E+00 0.  1.
          2    1    1    2  502    0 -0.20810953184E+02  0.16059573261E+00  0.40271638928E+03  0.40325378084E+03  0.00000000000E+00 0.  1.
         -2    1    1    2    0  502  0.20810953184E+02 -0.16059573261E+00  0.41800525582E+03  0.41852301664E+03  0.00000000000E+00 0.  1.
</event>
<event>
 4    1  0.5978476E+003  0.2050410E+02  0.7546771E-02  0.1526464E+00
          2   -1    0    0  501    0  0.00000000000E+00  0.00000000000E+00  0.42399184918E+03  0.42399184918E+03  0.00000000000E+00 0.  1.
         -2   -1    0    0    0  501 -0.00000000000E+00 -0.00000000000E+00 -0.10258309601E+01  0.10258309601E+01  0.00000000000E+00 0.  1.
          2    1    1    2  502    0 -0.15653927960E+02 -0.13242838807E+02  0.25031854137E+03  0.25115690394E+03  0.00000000000E+00 0.  1.
         -2    1    1    2    0  502  0.15653927960E+02  0.13242838807E+02  0.17264747684E+03  0.17386077620E+03  0.00000000000E+00 0.  1.
</event>
<event>
 4    1  0.5978476E+003  0.2143416E+02  0.7546771E-02  0.1513156E+00
          2   -1    0    0  501    0  0.00000000000E+00  0.00000000000E+00  0.11546948421E+03  0.11546948421E+03  0.00000000000E+00 0. -1.
         -2   -1    0    0    0  501 -0.00000000000E+00 -0.00000000000E+00 -0.14049612281E+03  0.14049612281E+03  0.00000000000E+00 0.  1.
          2    1    1    2  502    0  0.19886685488E+02  0.79964414918E+01  0.11364428191E+03  0.11564794052E+03  0.00000000000E+00 0. -1.
         -2    1    1    2    0  502 -0.19886685488E+02 -0.79964414918E+01 -0.13867092051E+03  0.14031766650E+03  0.00000000000E+00 0.  1.
</event>
<event>
 4    1  0.5978476E+003  0.2077307E+02  0.7546771E-02  0.1522530E+00
          2   -1    0    0  501    0  0.00000000000E+00  0.00000000000E+00  0.40924318036E+03  0.40924318036E+03  0.00000000000E+00 0. -1.
         -2   -1    0    0    0  501 -0.00000000000E+00 -0.00000000000E+00 -0.34100006108E+01  0.34100006108E+01  0.00000000000E+00 0. -1.
          2    1    1    2  502    0  0.17595830065E+02 -0.11041151922E+02  0.37440137348E+03  0.37497721095E+03  0.00000000000E+00 0. -1.
         -2    1    1    2    0  502 -0.17595830065E+02  0.11041151922E+02  0.31431806277E+02  0.37675970024E+02  0.00000000000E+00 0. -1.
</event>
<event>
 4    1  0.5978476E+003  0.2741848E+02  0.7546771E-02  0.1443449E+00
          2   -1    0    0  501    0  0.00000000000E+00  0.00000000000E+00  0.53180719910E+03  0.53180719910E+03  0.00000000000E+00 0. -1.
         -2   -1    0    0    0  501 -0.00000000000E+00 -0.00000000000E+00 -0.14681267006E+01  0.14681267006E+01  0.00000000000E+00 0. -1.
          2    1    1    2  502    0  0.21618972043E+02  0.16863958803E+02  0.31654626231E+03  0.31773150495E+03  0.00000000000E+00 0. -1.
         -2    1    1    2    0  502 -0.21618972043E+02 -0.16863958803E+02  0.21379281010E+03  0.21554382085E+03  0.00000000000E+00 0. -1.
</event>
<event>
 4    1  0.5978476E+003  0.3411113E+02  0.7546771E-02  0.1386922E+00
          2   -1    0    0  501    0  0.00000000000E+00  0.00000000000E+00  0.92975415610E+03  0.92975415610E+03  0.00000000000E+00 0. -1.
         -2   -1    0    0    0  501 -0.00000000000E+00 -0.00000000000E+00 -0.21276375176E+01  0.21276375176E+01  0.00000000000E+00 0. -1.
          2    1    1    2  502    0  0.23531416870E+02 -0.24694975417E+02  0.76281445933E+03  0.76357676023E+03  0.00000000000E+00 0. -1.
         -2    1    1    2    0  502 -0.23531416870E+02  0.24694975417E+02  0.16481205925E+03  0.16830503339E+03  0.00000000000E+00 0. -1.
</event>
<event>
 4    1  0.5978476E+003  0.2719890E+02  0.7546771E-02  0.1445620E+00
          2   -1    0    0  501    0  0.00000000000E+00  0.00000000000E+00  0.11839930224E+04  0.11839930224E+04  0.00000000000E+00 0. -1.
         -2   -1    0    0    0  501 -0.00000000000E+00 -0.00000000000E+00 -0.11507576961E+02  0.11507576961E+02  0.00000000000E+00 0. -1.
          2    1    1    2  502    0 -0.14982251493E+02 -0.22700496496E+02  0.11675387560E+04  0.11678555250E+04  0.00000000000E+00 0. -1.
         -2    1    1    2    0  502  0.14982251493E+02  0.22700496496E+02  0.49466894020E+01  0.27645074371E+02  0.00000000000E+00 0. -1.
</event>
<event>
 4    1  0.5978476E+003  0.2996081E+02  0.7546771E-02  0.1419937E+00
          2   -1    0    0  501    0  0.00000000000E+00  0.00000000000E+00  0.67177302308E+01  0.67177302308E+01  0.00000000000E+00 0.  1.
         -2   -1    0    0    0  501 -0.00000000000E+00 -0.00000000000E+00 -0.44228728213E+03  0.44228728213E+03  0.00000000000E+00 0. -1.
          2    1    1    2  502    0  0.26361093573E+02 -0.14238790750E+02 -0.30237220648E+02  0.42566887705E+02  0.00000000000E+00 0.  1.
         -2    1    1    2    0  502 -0.26361093573E+02  0.14238790750E+02 -0.40533233125E+03  0.40643812466E+03  0.00000000000E+00 0. -1.
</event>
<event>
 4    1  0.5978476E+003  0.2904723E+02  0.7546771E-02  0.1428061E+00
          2   -1    0    0  501    0  0.00000000000E+00  0.00000000000E+00  0.21269865136E+04  0.21269865136E+04  0.00000000000E+00 0.  1.
         -2   -1    0    0    0  501 -0.00000000000E+00 -0.00000000000E+00 -0.18063444170E+01  0.18063444170E+01  0.00000000000E+00 0.  1.
          2    1    1    2  502    0 -0.28287104046E+02 -0.66015929099E+01  0.20028770109E+04  0.20030876321E+04  0.00000000000E+00 0.  1.
         -2    1    1    2    0  502  0.28287104046E+02  0.66015929099E+01  0.12230315832E+03  0.12570522590E+03  0.00000000000E+00 0.  1.
</event>
<event>
 4    1  0.5978476E+003  0.3621526E+02  0.7546771E-02  0.1372215E+00
          2   -1    0    0  501    0  0.00000000000E+00  0.00000000000E+00  0.25333011182E+03  0.25333011182E+03  0.00000000000E+00 0. -1.
         -2   -1    0    0    0  501 -0.00000000000E+00 -0.00000000000E+00 -0.28040844169E+02  0.28040844169E+02  0.00000000000E+00 0. -1.
          2    1    1    2  502    0  0.35997041793E+02 -0.39696522967E+01  0.23968048036E+03  0.24240106812E+03  0.00000000000E+00 0. -1.
         -2    1    1    2    0  502 -0.35997041793E+02  0.39696522967E+01 -0.14391212714E+02  0.38969887870E+02  0.00000000000E+00 0. -1.
</event>
<event>
 4    1  0.5978476E+003  0.2101063E+02  0.7546771E-02  0.1519113E+00
          2   -1    0    0  501    0  0.00000000000E+00  0.00000000000E+00  0.71626752213E+03  0.71626752213E+03  0.00000000000E+00 0. -1.
         -2   -1    0    0    0  501 -0.00000000000E+00 -0.00000000000E+00 -0.80137542187E+00  0.80137542187E+00  0.00000000000E+00 0. -1.
          2    1    1    2  502    0  0.19500724963E+02  0.78210164444E+01  0.53002677499E+03  0.53044304952E+03  0.00000000000E+00 0. -1.
         -2    1    1    2    0  502 -0.19500724963E+02 -0.78210164444E+01  0.18543937172E+03  0.18662584804E+03  0.00000000000E+00 0. -1.
</event>
<event>
 4    1  0.5978476E+003  0.2699620E+02  0.7546771E-02  0.1447646E+00
          2   -1    0    0  501    0  0.00000000000E+00  0.00000000000E+00  0.11261084651E+01  0.11261084651E+01  0.00000000000E+00 0. -1.
         -2   -1    0    0    0  501 -0.00000000000E+00 -0.00000000000E+00 -0.80293494035E+03  0.80293494035E+03  0.00000000000E+00 0. -1.
          2    1    1    2  502    0  0.17934230474E+02  0.20178137345E+02 -0.57797280526E+03  0.57860293593E+03  0.00000000000E+00 0. -1.
         -2    1    1    2    0  502 -0.17934230474E+02 -0.20178137345E+02 -0.22383602663E+03  0.22545811288E+03  0.00000000000E+00 0. -1.
</event>
<event>
 4    1  0.5978476E+003  0.2940113E+02  0.7546771E-02  0.1424873E+00
          2   -1    0    0  501    0  0.00000000000E+00  0.00000000000E+00  0.14519397429E+04  0.14519397429E+04  0.00000000000E+00 0. -1.
         -2   -1    0    0    0  501 -0.00000000000E+00 -0.00000000000E+00 -0.24378078950E+01  0.24378078950E+01  0.00000000000E+00 0.  1.
          2    1    1    2  502    0  0.22545685310E+02 -0.18871100827E+02  0.13569372569E+04  0.13572557407E+04  0.00000000000E+00 0. -1.
         -2    1    1    2    0  502 -0.22545685310E+02  0.18871100827E+02  0.92564678102E+02  0.97121810139E+02  0.00000000000E+00 0.  1.
</event>
<event>
 4    1  0.6068703E+003  0.2841712E+02  0.7546771E-02  0.1433870E+00
          2   -1    0    0  501    0  0.00000000000E+00  0.00000000000E+00  0.17581351932E+04  0.17581351932E+04  0.00000000000E+00 0.  1.
         -2   -1    0    0    0  501 -0.00000000000E+00 -0.00000000000E+00 -0.90237956264E+02  0.90237956264E+02  0.00000000000E+00 0. -1.
          2    1    1    2  502    0  0.26405938224E+02 -0.10500446305E+02  0.17557801326E+04  0.17560100817E+04  0.00000000000E+00 0.  1.
         -2    1    1    2    0  502 -0.26405938224E+02  0.10500446305E+02 -0.87882895646E+02  0.92363067798E+02  0.00000000000E+00 0. -1.
</event>
<event>
 4    1  0.5978476E+003  0.4745421E+02  0.7546771E-02  0.1309604E+00
          2   -1    0    0  501    0  0.00000000000E+00  0.00000000000E+00  0.12842333938E+04  0.12842333938E+04  0.00000000000E+00 0. -1.
         -2   -1    0    0    0  501 -0.00000000000E+00 -0.00000000000E+00 -0.18916094440E+01  0.18916094440E+01  0.00000000000E+00 0. -1.
          2    1    1    2  502    0  0.41325117929E+02 -0.23326744463E+02  0.81493105340E+03  0.81631153623E+03  0.00000000000E+00 0. -1.
         -2    1    1    2    0  502 -0.41325117929E+02  0.23326744463E+02  0.46741073096E+03  0.46981346702E+03  0.00000000000E+00 0. -1.
</event>
<event>
 4    1  0.5978476E+003  0.2851217E+02  0.7546771E-02  0.1432982E+00
          2   -1    0    0  501    0  0.00000000000E+00  0.00000000000E+00  0.17398328789E+01  0.17398328789E+01  0.00000000000E+00 0. -1.
         -2   -1    0    0    0  501 -0.00000000000E+00 -0.00000000000E+00 -0.68725678484E+03  0.68725678484E+03  0.00000000000E+00 0.  1.
          2    1    1    2  502    0 -0.74027830209E+01  0.27534395119E+02 -0.14784515112E+03  0.15056936216E+03  0.00000000000E+00 0. -1.
         -2    1    1    2    0  502  0.74027830209E+01 -0.27534395119E+02 -0.53767180084E+03  0.53842725556E+03  0.00000000000E+00 0.  1.
</event>
<event>
 4    1  0.5978476E+003  0.2287218E+02  0.7546771E-02  0.1494109E+00
          2   -1    0    0  501    0  0.00000000000E+00  0.00000000000E+00  0.57412677848E+01  0.57412677848E+01  0.00000000000E+00 0.  1.
         -2   -1    0    0    0  501 -0.00000000000E+00 -0.00000000000E+00 -0.16082610958E+03  0.16082610958E+03  0.00000000000E+00 0.  1.
          2    1    1    2  502    0 -0.10729049152E+02  0.20199605437E+02 -0.22712034120E+02  0.32233104868E+02  0.00000000000E+00 0.  1.
         -2    1    1    2    0  502  0.10729049152E+02 -0.20199605437E+02 -0.13237280767E+03  0.13433427250E+03  0.00000000000E+00 0.  1.
</event>
<event>
 4    1  0.5978476E+003  0.2626458E+02  0.7546771E-02  0.1455139E+00
          2   -1    0    0  501    0  0.00000000000E+00  0.00000000000E+00  0.11473439431E+03  0.11473439431E+03  0.00000000000E+00 0. -1.
         -2   -1    0    0    0  501 -0.00000000000E+00 -0.00000000000E+00 -0.14993685322E+02  0.14993685322E+02  0.00000000000E+00 0.  1.
          2    1    1    2  502    0 -0.37141921046E+01 -0.26000635865E+02  0.10007214529E+03  0.10346140610E+03  0.00000000000E+00 0. -1.
         -2    1    1    2    0  502  0.37141921046E+01  0.26000635865E+02 -0.33143630735E+00  0.26266673531E+02  0.00000000000E+00 0.  1.
</event>
<event>
 4    1  0.5978476E+003  0.2284858E+02  0.7546771E-02  0.1494408E+00
          2   -1    0    0  501    0  0.00000000000E+00  0.00000000000E+00  0.80694821835E+02  0.80694821835E+02  0.00000000000E+00 0.  1.
         -2   -1    0    0    0  501 -0.00000000000E+00 -0.00000000000E+00 -0.39346940195E+02  0.39346940195E+02  0.00000000000E+00 0. -1.
          2    1    1    2  502    0 -0.88614051002E+01 -0.21060228889E+02  0.75538976938E+02  0.78918912676E+02  0.00000000000E+00 0.  1.
         -2    1    1    2    0  502  0.88614051002E+01  0.21060228889E+02 -0.34191095298E+02  0.41122849353E+02  0.00000000000E+00 0. -1.
</event>
<event>
 4    1  0.5978476E+003  0.2088197E+02  0.7546771E-02  0.1520957E+00
          2   -1    0    0  501    0  0.00000000000E+00  0.00000000000E+00  0.12377676786E+04  0.12377676786E+04  0.00000000000E+00 0. -1.
         -2   -1    0    0    0  501 -0.00000000000E+00 -0.00000000000E+00 -0.44230772519E+00  0.44230772519E+00  0.00000000000E+00 0.  1.
          2    1    1    2  502    0 -0.88674768051E+01 -0.18905669290E+02  0.89795541374E+03  0.89819818612E+03  0.00000000000E+00 0. -1.
         -2    1    1    2    0  502  0.88674768051E+01  0.18905669290E+02  0.33936995718E+03  0.34001180025E+03  0.00000000000E+00 0.  1.
</event>
<event>
 4    1  0.5978476E+003  0.2538232E+02  0.7546771E-02  0.1464572E+00
          2   -1    0    0  501    0  0.00000000000E+00  0.00000000000E+00  0.25938077274E+01  0.25938077274E+01  0.00000000000E+00 0.  1.
         -2   -1    0    0    0  501 -0.00000000000E+00 -0.00000000000E+00 -0.38283924736E+03  0.38283924736E+03  0.00000000000E+00 0. -1.
          2    1    1    2  502    0  0.19973047623E+02  0.15663318338E+02 -0.75914208444E+02  0.80045169851E+02  0.00000000000E+00 0.  1.
         -2    1    1    2    0  502 -0.19973047623E+02 -0.15663318338E+02 -0.30433123119E+03  0.30538788523E+03  0.00000000000E+00 0. -1.
</event>
<event>
 4    1  0.5978476E+003  0.2003821E+02  0.7546771E-02  0.1533452E+00
          2   -1    0    0  501    0  0.00000000000E+00  0.00000000000E+00  0.35959373985E+03  0.35959373985E+03  0.00000000000E+00 0.  1.
         -2   -1    0    0    0  501 -0.00000000000E+00 -0.00000000000E+00 -0.63800463844E+02  0.63800463844E+02  0.00000000000E+00 0.  1.
          2    1    1    2  502    0  0.21379488859E+01 -0.19923829037E+02  0.35773302617E+03  0.35829380095E+03  0.00000000000E+00 0.  1.
         -2    1    1    2    0  502 -0.21379488859E+01  0.19923829037E+02 -0.61939750155E+02  0.65100402750E+02  0.00000000000E+00 0.  1.
</event>
<event>
 4    1  0.5978476E+003  0.3854969E+02  0.7546771E-02  0.1357201E+00
          2   -1    0    0  501    0  0.00000000000E+00  0.00000000000E+00  0.81516485088E+03  0.81516485088E+03  0.00000000000E+00 0.  1.
         -2   -1    0    0    0  501 -0.00000000000E+00 -0.00000000000E+00 -0.27801097664E+01  0.27801097664E+01  0.00000000000E+00 0. -1.
          2    1    1    2  502    0 -0.24864604559E+02 -0.29458960308E+02  0.64615007426E+03  0.64729900152E+03  0.00000000000E+00 0.  1.
         -2    1    1    2    0  502  0.24864604559E+02  0.29458960308E+02  0.16623466685E+03  0.17064595912E+03  0.00000000000E+00 0. -1.
</event>
<event>
 4    1  0.5978476E+003  0.3844963E+02  0.7546771E-02  0.1357818E+00
          2   -1    0    0  501    0  0.00000000000E+00  0.00000000000E+00  0.26157032294E+03  0.26157032294E+03  0.00000000000E+00 0.  1.
         -2   -1    0    0    0  501 -0.00000000000E+00 -0.00000000000E+00 -0.20311250695E+03  0.20311250695E+03  0.00000000000E+00 0.  1.
          2    1    1    2  502    0 -0.22256186158E+02  0.31353410598E+02  0.25831488727E+03  0.26116078412E+03  0.00000000000E+00 0.  1.
         -2    1    1    2    0  502  0.22256186158E+02 -0.31353410598E+02 -0.19985707127E+03  0.20352204577E+03  0.00000000000E+00 0.  1.
</event>
<event>
 4    1  0.5978476E+003  0.3882041E+02  0.7546771E-02  0.1355540E+00
          2   -1    0    0  501    0  0.00000000000E+00  0.00000000000E+00  0.51316456222E+03  0.51316456222E+03  0.00000000000E+00 0.  1.
         -2   -1    0    0    0  501 -0.00000000000E+00 -0.00000000000E+00 -0.40366416194E+01  0.40366416194E+01  0.00000000000E+00 0.  1.
          2    1    1    2  502    0 -0.63193477503E+00 -0.38815269539E+02  0.38955309691E+03  0.39148261750E+03  0.00000000000E+00 0.  1.
         -2    1    1    2    0  502  0.63193477503E+00  0.38815269539E+02  0.11957482369E+03  0.12571858634E+03  0.00000000000E+00 0.  1.
</event>
<event>
 4    1  0.5978476E+003  0.3123204E+02  0.7546771E-02  0.1409184E+00
          2   -1    0    0  501    0  0.00000000000E+00  0.00000000000E+00  0.41117633367E+03  0.41117633367E+03  0.00000000000E+00 0.  1.
         -2   -1    0    0    0  501 -0.00000000000E+00 -0.00000000000E+00 -0.42133032244E+01  0.42133032244E+01  0.00000000000E+00 0.  1.
          2    1    1    2  502    0 -0.13258752479E+02 -0.28278004938E+02  0.34077177422E+03  0.34220000319E+03  0.00000000000E+00 0.  1.
         -2    1    1    2    0  502  0.13258752479E+02  0.28278004938E+02  0.66191256227E+02  0.73189633702E+02  0.00000000000E+00 0.  1.
</event>
<event>
 4    1  0.5978476E+003  0.2245710E+02  0.7546771E-02  0.1499430E+00
          2   -1    0    0  501    0  0.00000000000E+00  0.00000000000E+00  0.11640955682E+04  0.11640955682E+04  0.00000000000E+00 0. -1.
         -2   -1    0    0    0  501 -0.00000000000E+00 -0.00000000000E+00 -0.21822482042E+01  0.21822482042E+01  0.00000000000E+00 0.  1.
          2    1    1    2  502    0 -0.11191283994E+02 -0.19469882536E+02  0.11030126793E+04  0.11032412664E+04  0.00000000000E+00 0. -1.
         -2    1    1    2    0  502  0.11191283994E+02  0.19469882536E+02  0.58900640665E+02  0.63036549986E+02  0.00000000000E+00 0.  1.
</event>
<event>
 4    1  0.5978476E+003  0.4331671E+02  0.7546771E-02  0.1330074E+00
          2   -1    0    0  501    0  0.00000000000E+00  0.00000000000E+00  0.27210675872E+04  0.27210675872E+04  0.00000000000E+00 0. -1.
         -2   -1    0    0    0  501 -0.00000000000E+00 -0.00000000000E+00 -0.10399916056E+01  0.10399916056E+01  0.00000000000E+00 0.  1.
          2    1    1    2  502    0 -0.38691880301E+02 -0.19474995818E+02  0.21500782660E+04  0.21505145633E+04  0.00000000000E+00 0. -1.
         -2    1    1    2    0  502  0.38691880301E+02  0.19474995818E+02  0.56994932955E+03  0.57159301546E+03  0.00000000000E+00 0.  1.
</event>
<event>
 4    1  0.5978476E+003  0.2088041E+02  0.7546771E-02  0.1520979E+00
          2   -1    0    0  501    0  0.00000000000E+00  0.00000000000E+00  0.23259939532E+02  0.23259939532E+02  0.00000000000E+00 0. -1.
         -2   -1    0    0    0  501 -0.00000000000E+00 -0.00000000000E+00 -0.63171926370E+02  0.63171926370E+02  0.00000000000E+00 0. -1.
          2    1    1    2  502    0  0.16631790769E+02  0.12624385566E+02  0.16285687062E+02  0.26480467862E+02  0.00000000000E+00 0. -1.
         -2    1    1    2    0  502 -0.16631790769E+02 -0.12624385566E+02 -0.56197673900E+02  0.59951398039E+02  0.00000000000E+00 0. -1.
</event>
<event>
 4    1  0.5978476E+003  0.2249404E+02  0.7546771E-02  0.1498951E+00
          2   -1    0    0  501    0  0.00000000000E+00  0.00000000000E+00  0.23595086667E+01  0.23595086667E+01  0.00000000000E+00 0. -1.
         -2   -1    0    0    0  501 -0.00000000000E+00 -0.00000000000E+00 -0.57905582739E+03  0.57905582739E+03  0.00000000000E+00 0. -1.
          2    1    1    2  502    0 -0.22324516708E+02 -0.27563781574E+01 -0.57667146495E+02  0.61898961636E+02  0.00000000000E+00 0. -1.
         -2    1    1    2    0  502  0.22324516708E+02  0.27563781574E+01 -0.51902917223E+03  0.51951637442E+03  0.00000000000E+00 0. -1.
</event>
<event>
 4    1  0.5978476E+003  0.2889336E+02  0.7546771E-02  0.1429463E+00
          2   -1    0    0  501    0  0.00000000000E+00  0.00000000000E+00  0.50372285124E+03  0.50372285124E+03  0.00000000000E+00 0. -1.
         -2   -1    0    0    0  501 -0.00000000000E+00 -0.00000000000E+00 -0.22429272652E+01  0.22429272652E+01  0.00000000000E+00 0.  1.
          2    1    1    2  502    0 -0.46552500128E+01  0.28515872793E+02  0.38000748666E+03  0.38110433777E+03  0.00000000000E+00 0. -1.
         -2    1    1    2    0  502  0.46552500128E+01 -0.28515872793E+02  0.12147243732E+03  0.12486144073E+03  0.00000000000E+00 0.  1.
</event>
<event>
 4    1  0.5978476E+003  0.2101741E+02  0.7546771E-02  0.1519016E+00
          2   -1    0    0  501    0  0.00000000000E+00  0.00000000000E+00  0.20699782724E+04  0.20699782724E+04  0.00000000000E+00 0. -1.
         -2   -1    0    0    0  501 -0.00000000000E+00 -0.00000000000E+00 -0.27361738132E+00  0.27361738132E+00  0.00000000000E+00 0.  1.
          2    1    1    2  502    0  0.20653335110E+02 -0.38950461511E+01  0.15204597267E+04  0.15206049822E+04  0.00000000000E+00 0. -1.
         -2    1    1    2    0  502 -0.20653335110E+02  0.38950461511E+01  0.54924492838E+03  0.54964690756E+03  0.00000000000E+00 0.  1.
</event>
<event>
 4    1  0.5978476E+003  0.3730484E+02  0.7546771E-02  0.1365047E+00
          2   -1    0    0  501    0  0.00000000000E+00  0.00000000000E+00  0.39852771617E+03  0.39852771617E+03  0.00000000000E+00 0.  1.
         -2   -1    0    0    0  501 -0.00000000000E+00 -0.00000000000E+00 -0.11399296411E+02  0.11399296411E+02  0.00000000000E+00 0.  1.
          2    1    1    2  502    0 -0.35788115187E+02  0.10529108403E+02  0.36427149009E+03  0.36617669205E+03  0.00000000000E+00 0.  1.
         -2    1    1    2    0  502  0.35788115187E+02 -0.10529108403E+02  0.22856929672E+02  0.43750320529E+02  0.00000000000E+00 0.  1.
</event>
<event>
 4    1  0.5978476E+003  0.3379226E+02  0.7546771E-02  0.1389259E+00
          2   -1    0    0  501    0  0.00000000000E+00  0.00000000000E+00  0.19740292990E+04  0.19740292990E+04  0.00000000000E+00 0.  1.
         -2   -1    0    0    0  501 -0.00000000000E+00 -0.00000000000E+00 -0.62925864930E+02  0.62925864930E+02  0.00000000000E+00 0.  1.
          2    1    1    2  502    0 -0.22023414292E+02 -0.25629782855E+02  0.19693371195E+04  0.19696270222E+04  0.00000000000E+00 0.  1.
         -2    1    1    2    0  502  0.22023414292E+02  0.25629782855E+02 -0.58233685417E+02  0.67328141690E+02  0.00000000000E+00 0.  1.
</event>
<event>
 4    1  0.5978476E+003  0.3132739E+02  0.7546771E-02  0.1408402E+00
          2   -1    0    0  501    0  0.00000000000E+00  0.00000000000E+00  0.20329852995E+01  0.20329852995E+01  0.00000000000E+00 0.  1.
         -2   -1    0    0    0  501 -0.00000000000E+00 -0.00000000000E+00 -0.17530554811E+04  0.17530554811E+04  0.00000000000E+00 0.  1.
          2    1    1    2  502    0  0.31316790633E+02  0.81479659105E+00 -0.12850055594E+03  0.13226412267E+03  0.00000000000E+00 0.  1.
         -2    1    1    2    0  502 -0.31316790633E+02 -0.81479659105E+00 -0.16225219399E+04  0.16228243438E+04  0.00000000000E+00 0.  1.
</event>
<event>
 4    1  0.5978476E+003  0.2889585E+02  0.7546771E-02  0.1429440E+00
          2   -1    0    0  501    0  0.00000000000E+00  0.00000000000E+00  0.56809174124E+01  0.56809174124E+01  0.00000000000E+00 0.  1.
         -2   -1    0    0    0  501 -0.00000000000E+00 -0.00000000000E+00 -0.50818605629E+03  0.50818605629E+03  0.00000000000E+00 0.  1.
          2    1    1    2  502    0  0.48459972236E+01 -0.28486598009E+02 -0.34637810119E+02  0.45108179359E+02  0.00000000000E+00 0.  1.
         -2    1    1    2    0  502 -0.48459972236E+01  0.28486598009E+02 -0.46786732875E+03  0.46875879434E+03  0.00000000000E+00 0.  1.
</event>
<event>
 4    1  0.5978476E+003  0.2364667E+02  0.7546771E-02  0.1484534E+00
          2   -1    0    0  501    0  0.00000000000E+00  0.00000000000E+00  0.13451348810E+04  0.13451348810E+04  0.00000000000E+00 0.  1.
         -2   -1    0    0    0  501 -0.00000000000E+00 -0.00000000000E+00 -0.25640991377E+01  0.25640991377E+01  0.00000000000E+00 0.  1.
          2    1    1    2  502    0 -0.56017290718E+01 -0.22973586942E+02  0.12880984306E+04  0.12883154629E+04  0.00000000000E+00 0.  1.
         -2    1    1    2    0  502  0.56017290718E+01  0.22973586942E+02  0.54472351222E+02  0.59383517184E+02  0.00000000000E+00 0.  1.
</event>
<event>
 4    1  0.5978476E+003  0.2291148E+02  0.7546771E-02  0.1493613E+00
          2   -1    0    0  501    0  0.00000000000E+00  0.00000000000E+00  0.21373629908E+03  0.21373629908E+03  0.00000000000E+00 0. -1.
         -2   -1    0    0    0  501 -0.00000000000E+00 -0.00000000000E+00 -0.17573004394E+02  0.17573004394E+02  0.00000000000E+00 0. -1.
          2    1    1    2  502    0 -0.16985247216E+02  0.15376513489E+02  0.20535034395E+03  0.20662453763E+03  0.00000000000E+00 0. -1.
         -2    1    1    2    0  502  0.16985247216E+02 -0.15376513489E+02 -0.91870492723E+01  0.24684765836E+02  0.00000000000E+00 0. -1.
</event>
<event>
 4    1  0.5978476E+003  0.2932055E+02  0.7546771E-02  0.1425594E+00
          2   -1    0    0  501    0  0.00000000000E+00  0.00000000000E+00  0.74003230094E+03  0.74003230094E+03  0.00000000000E+00 0. -1.
         -2   -1    0    0    0  501 -0.00000000000E+00 -0.00000000000E+00 -0.33485728990E+02  0.33485728990E+02  0.00000000000E+00 0. -1.
          2    1    1    2  502    0  0.18688347001E+00 -0.29319953453E+02  0.73326429305E+03  0.73385026951E+03  0.00000000000E+00 0. -1.
         -2    1    1    2    0  502 -0.18688347001E+00  0.29319953453E+02 -0.26717721101E+02  0.39667760420E+02  0.00000000000E+00 0. -1.
</event>
<event>
 4    1  0.5978476E+003  0.3227760E+02  0.7546771E-02  0.1400784E+00
          2   -1    0    0  501    0  0.00000000000E+00  0.00000000000E+00  0.27725014939E+01  0.27725014939E+01  0.00000000000E+00 0. -1.
         -2   -1    0    0    0  501 -0.00000000000E+00 -0.00000000000E+00 -0.38002762518E+03  0.38002762518E+03  0.00000000000E+00 0.  1.
          2    1    1    2  502    0 -0.15753125223E+02 -0.28172348286E+02 -0.20887002340E+03  0.21134930527E+03  0.00000000000E+00 0. -1.
         -2    1    1    2    0  502  0.15753125223E+02  0.28172348286E+02 -0.16838510028E+03  0.17145082140E+03  0.00000000000E+00 0.  1.
</event>
<event>
 4    1  0.5978476E+003  0.2283532E+02  0.7546771E-02  0.1494576E+00
          2   -1    0    0  501    0  0.00000000000E+00  0.00000000000E+00  0.11816795455E+02  0.11816795455E+02  0.00000000000E+00 0. -1.
         -2   -1    0    0    0  501 -0.00000000000E+00 -0.00000000000E+00 -0.84385718237E+03  0.84385718237E+03  0.00000000000E+00 0.  1.
          2    1    1    2  502    0  0.86742173144E+01 -0.21123682395E+02  0.48010308785E+00  0.22840370026E+02  0.00000000000E+00 0. -1.
         -2    1    1    2    0  502 -0.86742173144E+01  0.21123682395E+02 -0.83252049000E+03  0.83283360780E+03  0.00000000000E+00 0.  1.
</event>
<event>
 4    1  0.8601950E+003  0.2207102E+02  0.7546771E-02  0.1504505E+00
          2   -1    0    0  501    0  0.00000000000E+00  0.00000000000E+00  0.15604864886E+04  0.15604864886E+04  0.00000000000E+00 0. -1.
         -2   -1    0    0    0  501 -0.00000000000E+00 -0.00000000000E+00 -0.24596426709E+03  0.24596426709E+03  0.00000000000E+00 0.  1.
          2    1    1    2  502    0 -0.20887409192E+02 -0.71306315618E+01  0.15599131428E+04  0.15600692750E+04  0.00000000000E+00 0. -1.
         -2    1    1    2    0  502  0.20887409192E+02  0.71306315618E+01 -0.24539092129E+03  0.24638148068E+03  0.00000000000E+00 0.  1.
</event>
<event>
 4    1  0.5978476E+003  0.2021733E+02  0.7546771E-02  0.1530739E+00
          2   -1    0    0  501    0  0.00000000000E+00  0.00000000000E+00  0.11450364155E+02  0.11450364155E+02  0.00000000000E+00 0. -1.
         -2   -1    0    0    0  501 -0.00000000000E+00 -0.00000000000E+00 -0.13121192283E+03  0.13121192283E+03  0.00000000000E+00 0. -1.
          2    1    1    2  502    0 -0.13142986388E+02 -0.15362363508E+02  0.97878161997E+00  0.20241005835E+02  0.00000000000E+00 0. -1.
         -2    1    1    2    0  502  0.13142986388E+02  0.15362363508E+02 -0.12074034029E+03  0.12242128115E+03  0.00000000000E+00 0. -1.
</event>
<event>
 4    1  0.5978476E+003  0.2604152E+02  0.7546771E-02  0.1457481E+00
          2   -1    0    0  501    0  0.00000000000E+00  0.00000000000E+00  0.54673620650E+02  0.54673620650E+02  0.00000000000E+00 0. -1.
         -2   -1    0    0    0  501 -0.00000000000E+00 -0.00000000000E+00 -0.13070533455E+02  0.13070533455E+02  0.00000000000E+00 0. -1.
          2    1    1    2  502    0  0.24727712799E+02  0.81670145832E+01  0.13151291376E+02  0.29173898819E+02  0.00000000000E+00 0. -1.
         -2    1    1    2    0  502 -0.24727712799E+02 -0.81670145832E+01  0.28451795819E+02  0.38570255285E+02  0.00000000000E+00 0. -1.
</event>
<event>
 4    1  0.5978476E+003  0.5116418E+02  0.7546771E-02  0.1293202E+00
          2   -1    0    0  501    0  0.00000000000E+00  0.00000000000E+00  0.39380964882E+03  0.39380964882E+03  0.00000000000E+00 0. -1.
         -2   -1    0    0    0  501 -0.00000000000E+00 -0.00000000000E+00 -0.26852286706E+03  0.26852286706E+03  0.00000000000E+00 0. -1.
          2    1    1    2  502    0 -0.27602550361E+02 -0.43079834655E+02  0.38968493826E+03  0.39302941880E+03  0.00000000000E+00 0. -1.
         -2    1    1    2    0  502  0.27602550361E+02  0.43079834655E+02 -0.26439815650E+03  0.26930309709E+03  0.00000000000E+00 0. -1.
</event>
<event>
 4    1  0.7234547E+003  0.2414170E+02  0.7546771E-02  0.1478639E+00
          2   -1    0    0  501    0  0.00000000000E+00  0.00000000000E+00  0.13644760557E+04  0.13644760557E+04  0.00000000000E+00 0. -1.
         -2   -1    0    0    0  501 -0.00000000000E+00 -0.00000000000E+00 -0.12846778771E+03  0.12846778771E+03  0.00000000000E+00 0.  1.
          2    1    1    2  502    0  0.38999987181E+00  0.24138546394E+02  0.13632340593E+04  0.13634478069E+04  0.00000000000E+00 0. -1.
         -2    1    1    2    0  502 -0.38999987181E+00 -0.24138546394E+02 -0.12722579130E+03  0.12949603660E+03  0.00000000000E+00 0.  1.
</event>
<event>
 4    1  0.5978476E+003  0.2222127E+02  0.7546771E-02  0.1502515E+00
          2   -1    0    0  501    0  0.00000000000E+00  0.00000000000E+00  0.12932077566E+04  0.12932077566E+04  0.00000000000E+00 0. -1.
         -2   -1    0    0    0  501 -0.00000000000E+00 -0.00000000000E+00 -0.35627791201E+01  0.35627791201E+01  0.00000000000E+00 0.  1.
          2    1    1    2  502    0  0.21963750761E+02  0.33732074610E+01  0.12574790437E+04  0.12576753676E+04  0.00000000000E+00 0. -1.
         -2    1    1    2    0  502 -0.21963750761E+02 -0.33732074610E+01  0.32165933792E+02  0.39095168151E+02  0.00000000000E+00 0.  1.
</event>
<event>
 4    1  0.5978476E+003  0.2551207E+02  0.7546771E-02  0.1463156E+00
          2   -1    0    0  501    0  0.00000000000E+00  0.00000000000E+00  0.57323710159E+01  0.57323710159E+01  0.00000000000E+00 0.  1.
         -2   -1    0    0    0  501 -0.00000000000E+00 -0.00000000000E+00 -0.11451759512E+03  0.11451759512E+03  0.00000000000E+00 0. -1.
          2    1    1    2  502    0 -0.25485741077E+02  0.11588607752E+01 -0.48843653641E+02  0.55105067439E+02  0.00000000000E+00 0.  1.
         -2    1    1    2    0  502  0.25485741077E+02 -0.11588607752E+01 -0.59941570462E+02  0.65144898695E+02  0.00000000000E+00 0. -1.
</event>
<event>
 4    1  0.5978476E+003  0.2221510E+02  0.7546771E-02  0.1502597E+00
          2   -1    0    0  501    0  0.00000000000E+00  0.00000000000E+00  0.86965367709E+03  0.86965367709E+03  0.00000000000E+00 0.  1.
         -2   -1    0    0    0  501 -0.00000000000E+00 -0.00000000000E+00 -0.23327855325E+01  0.23327855325E+01  0.00000000000E+00 0.  1.
          2    1    1    2  502    0  0.14227057779E+02 -0.17061698765E+02  0.81293379637E+03  0.81323727658E+03  0.00000000000E+00 0.  1.
         -2    1    1    2    0  502 -0.14227057779E+02  0.17061698765E+02  0.54387095191E+02  0.58749186046E+02  0.00000000000E+00 0.  1.
</event>
<event>
 4    1  0.5978476E+003  0.4182543E+02  0.7546771E-02  0.1338108E+00
          2   -1    0    0  501    0  0.00000000000E+00  0.00000000000E+00  0.12345314487E+04  0.12345314487E+04  0.00000000000E+00 0. -1.
         -2   -1    0    0    0  501 -0.00000000000E+00 -0.00000000000E+00 -0.15634472467E+03  0.15634472467E+03  0.00000000000E+00 0.  1.
          2    1    1    2  502    0 -0.36270184087E+02  0.20828841020E+02  0.12313727267E+04  0.12320828540E+04  0.00000000000E+00 0. -1.
         -2    1    1    2    0  502  0.36270184087E+02 -0.20828841020E+02 -0.15318600270E+03  0.15879331942E+03  0.00000000000E+00 0.  1.
</event>
<event>
 4    1  0.5978476E+003  0.9442252E+02  0.7546771E-02  0.1173840E+00
          2   -1    0    0  501    0  0.00000000000E+00  0.00000000000E+00  0.71840139138E+03  0.71840139138E+03  0.00000000000E+00 0. -1.
         -2   -1    0    0    0  501 -0.00000000000E+00 -0.00000000000E+00 -0.17842519320E+02  0.17842519320E+02  0.00000000000E+00 0. -1.
          2    1    1    2  502    0  0.10141643384E+02 -0.93876298708E+02  0.55339831886E+03  0.56139586007E+03  0.00000000000E+00 0. -1.
         -2    1    1    2    0  502 -0.10141643384E+02  0.93876298708E+02  0.14716055320E+03  0.17484805062E+03  0.00000000000E+00 0. -1.
</event>
<event>
 4    1  0.5978476E+003  0.2556975E+02  0.7546771E-02  0.1462529E+00
          2   -1    0    0  501    0  0.00000000000E+00  0.00000000000E+00  0.10300897524E+02  0.10300897524E+02  0.00000000000E+00 0.  1.
         -2   -1    0    0    0  501 -0.00000000000E+00 -0.00000000000E+00 -0.87427312688E+02  0.87427312688E+02  0.00000000000E+00 0. -1.
          2    1    1    2  502    0  0.19541223074E+02  0.16490995896E+02 -0.12984842443E+02  0.28677839496E+02  0.00000000000E+00 0.  1.
         -2    1    1    2    0  502 -0.19541223074E+02 -0.16490995896E+02 -0.64141572721E+02  0.69050370716E+02  0.00000000000E+00 0. -1.
</event>
<event>
 4    1  0.5978476E+003  0.3342646E+02  0.7546771E-02  0.1391976E+00
          2   -1    0    0  501    0  0.00000000000E+00  0.00000000000E+00  0.16371841510E+03  0.16371841510E+03  0.00000000000E+00 0. -1.
         -2   -1    0    0    0  501 -0.00000000000E+00 -0.00000000000E+00 -0.76093901425E+01  0.76093901425E+01  0.00000000000E+00 0. -1.
          2    1    1    2  502    0  0.96165531413E+01  0.32013283599E+02  0.10556340593E+03  0.11072922420E+03  0.00000000000E+00 0. -1.
         -2    1    1    2    0  502 -0.96165531413E+01 -0.32013283599E+02  0.50545619028E+02  0.60598581040E+02  0.00000000000E+00 0. -1.
</event>
<event>
 4    1  0.5978476E+003  0.2149478E+02  0.7546771E-02  0.1512317E+00
          2   -1    0    0  501    0  0.00000000000E+00  0.00000000000E+00  0.12132638117E+03  0.12132638117E+03  0.00000000000E+00 0.  1.
         -2   -1    0    0    0  501 -0.00000000000E+00 -0.00000000000E+00 -0.54208318326E+01  0.54208318326E+01  0.00000000000E+00 0. -1.
          2    1    1    2  502    0  0.18055194762E+02  0.11663424211E+02  0.92519140889E+02  0.94983245644E+02  0.00000000000E+00 0.  1.
         -2    1    1    2    0  502 -0.18055194762E+02 -0.11663424211E+02  0.23386408446E+02  0.31763967357E+02  0.00000000000E+00 0. -1.
</event>
<event>
 4    1  0.5978476E+003  0.2821319E+02  0.7546771E-02  0.1435788E+00
          2   -1    0    0  501    0  0.00000000000E+00  0.00000000000E+00  0.44607691625E+03  0.44607691625E+03  0.00000000000E+00 0.  1.
         -2   -1    0    0    0  501 -0.00000000000E+00 -0.00000000000E+00 -0.21576452758E+01  0.21576452758E+01  0.00000000000E+00 0.  1.
          2    1    1    2  502    0  0.41908828037E+01 -0.27900188304E+02  0.31517270268E+03  0.31643295739E+03  0.00000000000E+00 0.  1.
         -2    1    1    2    0  502 -0.41908828037E+01  0.27900188304E+02  0.12874656830E+03  0.13180160414E+03  0.00000000000E+00 0.  1.
</event>
<event>
 4    1  0.5978476E+003  0.2678618E+02  0.7546771E-02  0.1449768E+00
          2   -1    0    0  501    0  0.00000000000E+00  0.00000000000E+00  0.51619006585E+02  0.51619006585E+02  0.00000000000E+00 0.  1.
         -2   -1    0    0    0  501 -0.00000000000E+00 -0.00000000000E+00 -0.22489794794E+02  0.22489794794E+02  0.00000000000E+00 0.  1.
          2    1    1    2  502    0  0.72310776385E+00  0.26776418608E+02  0.37464883644E+02  0.46055585815E+02  0.00000000000E+00 0.  1.
         -2    1    1    2    0  502 -0.72310776385E+00 -0.26776418608E+02 -0.83356718526E+01  0.28053215565E+02  0.00000000000E+00 0.  1.
</event>
<event>
 4    1  0.5978476E+003  0.2285364E+02  0.7546771E-02  0.1494344E+00
          2   -1    0    0  501    0  0.00000000000E+00  0.00000000000E+00  0.56265252380E+02  0.56265252380E+02  0.00000000000E+00 0.  1.
         -2   -1    0    0    0  501 -0.00000000000E+00 -0.00000000000E+00 -0.47959632609E+03  0.47959632609E+03  0.00000000000E+00 0.  1.
          2    1    1    2  502    0  0.47852141704E+01 -0.22347051355E+02  0.53659673416E+02  0.58323661836E+02  0.00000000000E+00 0.  1.
         -2    1    1    2    0  502 -0.47852141704E+01  0.22347051355E+02 -0.47699074712E+03  0.47753791663E+03  0.00000000000E+00 0.  1.
</event>
<event>
 4    1  0.5978476E+003  0.2000308E+02  0.7546771E-02  0.1533989E+00
          2   -1    0    0  501    0  0.00000000000E+00  0.00000000000E+00  0.66188410576E+03  0.66188410576E+03  0.00000000000E+00 0. -1.
         -2   -1    0    0    0  501 -0.00000000000E+00 -0.00000000000E+00 -0.36604962842E+01  0.36604962842E+01  0.00000000000E+00 0.  1.
          2    1    1    2  502    0  0.16606687936E+02  0.11150833285E+02  0.63316674791E+03  0.63348263893E+03  0.00000000000E+00 0. -1.
         -2    1    1    2    0  502 -0.16606687936E+02 -0.11150833285E+02  0.25056861563E+02  0.32061963111E+02  0.00000000000E+00 0.  1.
</event>
<event>
 4    1  0.5978476E+003  0.2107428E+02  0.7546771E-02  0.1518207E+00
          2   -1    0    0  501    0  0.00000000000E+00  0.00000000000E+00  0.39556669376E+01  0.39556669376E+01  0.00000000000E+00 0.  1.
         -2   -1    0    0    0  501 -0.00000000000E+00 -0.00000000000E+00 -0.17551552530E+03  0.17551552530E+03  0.00000000000E+00 0.  1.
          2    1    1    2  502    0 -0.21059285081E+02 -0.79484595339E+00 -0.31915468080E+02  0.38245553610E+02  0.00000000000E+00 0.  1.
         -2    1    1    2    0  502  0.21059285081E+02  0.79484595339E+00 -0.13964439028E+03  0.14122563862E+03  0.00000000000E+00 0.  1.
</event>
<event>
 4    1  0.5978476E+003  0.2994017E+02  0.7546771E-02  0.1420117E+00
          2   -1    0    0  501    0  0.00000000000E+00  0.00000000000E+00  0.93500085792E+02  0.93500085792E+02  0.00000000000E+00 0.  1.
         -2   -1    0    0    0  501 -0.00000000000E+00 -0.00000000000E+00 -0.17562556807E+03  0.17562556807E+03  0.00000000000E+00 0.  1.
          2    1    1    2  502    0  0.13355997611E+02 -0.26796104928E+02  0.89775687942E+02  0.94636610553E+02  0.00000000000E+00 0.  1.
         -2    1    1    2    0  502 -0.13355997611E+02  0.26796104928E+02 -0.17190117022E+03  0.17448904331E+03  0.00000000000E+00 0.  1.
</event>
<event>
 4    1  0.5978476E+003  0.5213002E+02  0.7546771E-02  0.1289192E+00
          2   -1    0    0  501    0  0.00000000000E+00  0.00000000000E+00  0.25878630781E+03  0.25878630781E+03  0.00000000000E+00 0. -1.
         -2   -1    0    0    0  501 -0.00000000000E+00 -0.00000000000E+00 -0.14766253756E+02  0.14766253756E+02  0.00000000000E+00 0. -1.
          2    1    1    2  502    0  0.52124830888E+02 -0.73584699342E+00  0.19551949067E+03  0.20234972374E+03  0.00000000000E+00 0. -1.
         -2    1    1    2    0  502 -0.52124830888E+02  0.73584699342E+00  0.48500563386E+02  0.71202837827E+02  0.00000000000E+00 0. -1.
</event>
<event>
 4    1  0.5978476E+003  0.3511818E+02  0.7546771E-02  0.1379734E+00
          2   -1    0    0  501    0  0.00000000000E+00  0.00000000000E+00  0.14746541747E+04  0.14746541747E+04  0.00000000000E+00 0. -1.
         -2   -1    0    0    0  501 -0.00000000000E+00 -0.00000000000E+00 -0.18764614448E+01  0.18764614448E+01  0.00000000000E+00 0.  1.
          2    1    1    2  502    0 -0.76276578103E+01 -0.34279807808E+02  0.12860415166E+04  0.12865209165E+04  0.00000000000E+00 0. -1.
         -2    1    1    2    0  502  0.76276578103E+01  0.34279807808E+02  0.18673619671E+03  0.19000971962E+03  0.00000000000E+00 0.  1.
</event>
<event>
 4    1  0.5978476E+003  0.3718285E+02  0.7546771E-02  0.1365835E+00
          2   -1    0    0  501    0  0.00000000000E+00  0.00000000000E+00  0.10628617108E+04  0.10628617108E+04  0.00000000000E+00 0.  1.
         -2   -1    0    0    0  501 -0.00000000000E+00 -0.00000000000E+00 -0.58287699377E+01  0.58287699377E+01  0.00000000000E+00 0. -1.
          2    1    1    2  502    0 -0.35872153311E+02 -0.97853621188E+01  0.99947809210E+03  0.10001694963E+04  0.00000000000E+00 0.  1.
         -2    1    1    2    0  502  0.35872153311E+02  0.97853621188E+01  0.57554848742E+02  0.68520984440E+02  0.00000000000E+00 0. -1.
</event>
<event>
 4    1  0.5978476E+003  0.3408324E+02  0.7546771E-02  0.1387125E+00
          2   -1    0    0  501    0  0.00000000000E+00  0.00000000000E+00  0.55763683144E+01  0.55763683144E+01  0.00000000000E+00 0. -1.
         -2   -1    0    0    0  501 -0.00000000000E+00 -0.00000000000E+00 -0.37832391069E+03  0.37832391069E+03  0.00000000000E+00 0.  1.
          2    1    1    2  502    0  0.32236151631E+02 -0.11067857842E+02 -0.57701053602E+02  0.67015509667E+02  0.00000000000E+00 0. -1.
         -2    1    1    2    0  502 -0.32236151631E+02  0.11067857842E+02 -0.31504648878E+03  0.31688476934E+03  0.00000000000E+00 0.  1.
</event>
<event>
 4    1  0.5978476E+003  0.2357201E+02  0.7546771E-02  0.1485438E+00
          2   -1    0    0  501    0  0.00000000000E+00  0.00000000000E+00  0.32468975149E+03  0.32468975149E+03  0.00000000000E+00 0. -1.
         -2   -1    0    0    0  501 -0.00000000000E+00 -0.00000000000E+00 -0.27004650523E+02  0.27004650523E+02  0.00000000000E+00 0.  1.
          2    1    1    2  502    0 -0.20698021426E+02  0.11279706111E+02  0.31902681647E+03  0.31989646683E+03  0.00000000000E+00 0. -1.
         -2    1    1    2    0  502  0.20698021426E+02 -0.11279706111E+02 -0.21341715509E+02  0.31797935181E+02  0.00000000000E+00 0.  1.
</event>
<event>
 4    1  0.5978476E+003  0.3767986E+02  0.7546771E-02  0.1362646E+00
          2   -1    0    0  501    0  0.00000000000E+00  0.00000000000E+00  0.18401971784E+04  0.18401971784E+04  0.00000000000E+00 0. -1.
         -2   -1    0    0    0  501 -0.00000000000E+00 -0.00000000000E+00 -0.80398930997E+00  0.80398930997E+00  0.00000000000E+00 0. -1.
          2    1    1    2  502    0 -0.29356016644E+02  0.23621941612E+02  0.11046456756E+04  0.11052881255E+04  0.00000000000E+00 0. -1.
         -2    1    1    2    0  502  0.29356016644E+02 -0.23621941612E+02  0.73474751352E+03  0.73571304220E+03  0.00000000000E+00 0. -1.
</event>
<event>
 4    1  0.5978476E+003  0.2025341E+02  0.7546771E-02  0.1530196E+00
          2   -1    0    0  501    0  0.00000000000E+00  0.00000000000E+00  0.22512863806E+02  0.22512863806E+02  0.00000000000E+00 0.  1.
         -2   -1    0    0    0  501 -0.00000000000E+00 -0.00000000000E+00 -0.54679832071E+02  0.54679832071E+02  0.00000000000E+00 0. -1.
          2    1    1    2  502    0 -0.10958594503E+02 -0.17032614748E+02  0.15432844862E+02  0.25463178497E+02  0.00000000000E+00 0.  1.
         -2    1    1    2    0  502  0.10958594503E+02  0.17032614748E+02 -0.47599813127E+02  0.51729517380E+02  0.00000000000E+00 0. -1.
</event>
<event>
 4    1  0.5978476E+003  0.2682764E+02  0.7546771E-02  0.1449347E+00
          2   -1    0    0  501    0  0.00000000000E+00  0.00000000000E+00  0.98082251576E+03  0.98082251576E+03  0.00000000000E+00 0.  1.
         -2   -1    0    0    0  501 -0.00000000000E+00 -0.00000000000E+00 -0.84790715690E+00  0.84790715690E+00  0.00000000000E+00 0. -1.
          2    1    1    2  502    0  0.24171503864E+02 -0.11638748579E+02  0.67005203784E+03  0.67058888709E+03  0.00000000000E+00 0.  1.
         -2    1    1    2    0  502 -0.24171503864E+02  0.11638748579E+02  0.30992257076E+03  0.31108153583E+03  0.00000000000E+00 0. -1.
</event>
<event>
 4    1  0.5978476E+003  0.3054910E+02  0.7546771E-02  0.1414884E+00
          2   -1    0    0  501    0  0.00000000000E+00  0.00000000000E+00  0.23950841608E+03  0.23950841608E+03  0.00000000000E+00 0. -1.
         -2   -1    0    0    0  501 -0.00000000000E+00 -0.00000000000E+00 -0.89640962604E+01  0.89640962604E+01  0.00000000000E+00 0. -1.
          2    1    1    2  502    0  0.68925840376E+01  0.29761381019E+02  0.20868263300E+03  0.21090682499E+03  0.00000000000E+00 0. -1.
         -2    1    1    2    0  502 -0.68925840376E+01 -0.29761381019E+02  0.21861686819E+02  0.37565687342E+02  0.00000000000E+00 0. -1.
</event>
<event>
 4    1  0.5978476E+003  0.2498007E+02  0.7546771E-02  0.1469026E+00
          2   -1    0    0  501    0  0.00000000000E+00  0.00000000000E+00  0.43895680730E+03  0.43895680730E+03  0.00000000000E+00 0.  1.
         -2   -1    0    0    0  501 -0.00000000000E+00 -0.00000000000E+00 -0.32547736704E+01  0.32547736704E+01  0.00000000000E+00 0.  1.
          2    1    1    2  502    0 -0.12340146374E+02  0.21719224570E+02  0.38378912359E+03  0.38460121595E+03  0.00000000000E+00 0.  1.
         -2    1    1    2    0  502  0.12340146374E+02 -0.21719224570E+02  0.51912910049E+02  0.57610365024E+02  0.00000000000E+00 0.  1.
</event>
<event>
 4    1  0.5978476E+003  0.2406227E+02  0.7546771E-02  0.1479573E+00
          2   -1    0    0  501    0  0.00000000000E+00  0.00000000000E+00  0.15076475312E+04  0.15076475312E+04  0.00000000000E+00 0.  1.
         -2   -1    0    0    0  501 -0.00000000000E+00 -0.00000000000E+00 -0.41219714550E+00  0.41219714550E+00  0.00000000000E+00 0.  1.
          2    1    1    2  502    0  0.20536693376E+02 -0.12539418640E+02  0.95070180134E+03  0.95100626068E+03  0.00000000000E+00 0.  1.
         -2    1    1    2    0  502 -0.20536693376E+02  0.12539418640E+02  0.55653353267E+03  0.55705346762E+03  0.00000000000E+00 0.  1.
</event>
<event>
 4    1  0.5978476E+003  0.2036866E+02  0.7546771E-02  0.1528473E+00
          2   -1    0    0  501    0  0.00000000000E+00  0.00000000000E+00  0.11991514162E+03  0.11991514162E+03  0.00000000000E+00 0.  1.
         -2   -1    0    0    0  501 -0.00000000000E+00 -0.00000000000E+00 -0.49996604404E+02  0.49996604404E+02  0.00000000000E+00 0. -1.
          2    1    1    2  502    0  0.15877801689E+02 -0.12758442219E+02  0.11692294503E+03  0.11868385530E+03  0.00000000000E+00 0.  1.
         -2    1    1    2    0  502 -0.15877801689E+02  0.12758442219E+02 -0.47004407813E+02  0.51227890725E+02  0.00000000000E+00 0. -1.
</event>
<event>
 4    1  0.5978476E+003  0.6645979E+02  0.7546771E-02  0.1239334E+00
          2   -1    0    0  501    0  0.00000000000E+00  0.00000000000E+00  0.52214436681E+03  0.52214436681E+03  0.00000000000E+00 0.  1.
         -2   -1    0    0    0  501 -0.00000000000E+00 -0.00000000000E+00 -0.99238039315E+01  0.99238039315E+01  0.00000000000E+00 0.  1.
          2    1    1    2  502    0 -0.21126553495E+02  0.63012477834E+02  0.35831335901E+03  0.36442470673E+03  0.00000000000E+00 0.  1.
         -2    1    1    2    0  502  0.21126553495E+02 -0.63012477834E+02  0.15390720386E+03  0.16764346401E+03  0.00000000000E+00 0.  1.
</event>
<event>
 4    1  0.5978476E+003  0.3304552E+02  0.7546771E-02  0.1394850E+00
          2   -1    0    0  501    0  0.00000000000E+00  0.00000000000E+00  0.58468837243E+03  0.58468837243E+03  0.00000000000E+00 0.  1.
         -2   -1    0    0    0  501 -0.00000000000E+00 -0.00000000000E+00 -0.25055819255E+01  0.25055819255E+01  0.00000000000E+00 0.  1.
          2    1    1    2  502    0  0.21706158598E+02 -0.24916842688E+02  0.43923291629E+03  0.44047424569E+03  0.00000000000E+00 0.  1.
         -2    1    1    2    0  502 -0.21706158598E+02  0.24916842688E+02  0.14294987422E+03  0.14671970867E+03  0.00000000000E+00 0.  1.
</event>
<event>
 4    1  0.5978476E+003  0.3464377E+02  0.7546771E-02  0.1383085E+00
          2   -1    0    0  501    0  0.00000000000E+00  0.00000000000E+00  0.60714728674E+03  0.60714728674E+03  0.00000000000E+00 0. -1.
         -2   -1    0    0    0  501 -0.00000000000E+00 -0.00000000000E+00 -0.35951111809E+02  0.35951111809E+02  0.00000000000E+00 0.  1.
          2    1    1    2  502    0  0.42465872440E+01  0.34382515613E+02  0.59818212168E+03  0.59918448042E+03  0.00000000000E+00 0. -1.
         -2    1    1    2    0  502 -0.42465872440E+01 -0.34382515613E+02 -0.26985946750E+02  0.43913918125E+02  0.00000000000E+00 0.  1.
</event>
<event>
 4    1  0.5978476E+003  0.2406731E+02  0.7546771E-02  0.1479514E+00
          2   -1    0    0  501    0  0.00000000000E+00  0.00000000000E+00  0.24655627381E+03  0.24655627381E+03  0.00000000000E+00 0.  1.
         -2   -1    0    0    0  501 -0.00000000000E+00 -0.00000000000E+00 -0.19279285530E+02  0.19279285530E+02  0.00000000000E+00 0.  1.
          2    1    1    2  502    0  0.15636977986E+02  0.18295358966E+02  0.23819484416E+03  0.23940764196E+03  0.00000000000E+00 0.  1.
         -2    1    1    2    0  502 -0.15636977986E+02 -0.18295358966E+02 -0.10917855883E+02  0.26427917385E+02  0.00000000000E+00 0.  1.
</event>
<event>
 4    1  0.5978476E+003  0.2290239E+02  0.7546771E-02  0.1493727E+00
          2   -1    0    0  501    0  0.00000000000E+00  0.00000000000E+00  0.18430444765E+03  0.18430444765E+03  0.00000000000E+00 0. -1.
         -2   -1    0    0    0  501 -0.00000000000E+00 -0.00000000000E+00 -0.23833586438E+02  0.23833586438E+02  0.00000000000E+00 0. -1.
          2    1    1    2  502    0  0.16699163655E+02  0.15673467514E+02  0.17789360662E+03  0.17936179896E+03  0.00000000000E+00 0. -1.
         -2    1    1    2    0  502 -0.16699163655E+02 -0.15673467514E+02 -0.17422745406E+02  0.28776235128E+02  0.00000000000E+00 0. -1.
</event>
<event>
 4    1  0.5978476E+003  0.2198824E+02  0.7546771E-02  0.1505609E+00
          2   -1    0    0  501    0  0.00000000000E+00  0.00000000000E+00  0.12247861096E+04  0.12247861096E+04  0.00000000000E+00 0. -1.
         -2   -1    0    0    0  501 -0.00000000000E+00 -0.00000000000E+00 -0.96097886771E+00  0.96097886771E+00  0.00000000000E+00 0.  1.
          2    1    1    2  502    0 -0.15911157027E+02  0.15176218487E+02  0.10823593670E+04  0.10825826906E+04  0.00000000000E+00 0. -1.
         -2    1    1    2    0  502  0.15911157027E+02 -0.15176218487E+02  0.14146576374E+03  0.14316439793E+03  0.00000000000E+00 0.  1.
</event>
<event>
 4    1  0.5978476E+003  0.6506660E+02  0.7546771E-02  0.1243526E+00
          2   -1    0    0  501    0  0.00000000000E+00  0.00000000000E+00  0.15963658553E+04  0.15963658553E+04  0.00000000000E+00 0. -1.
         -2   -1    0    0    0  501 -0.00000000000E+00 -0.00000000000E+00 -0.81186626361E+01  0.81186626361E+01  0.00000000000E+00 0.  1.
          2    1    1    2  502    0  0.48132725919E+02  0.43782448106E+02  0.14524206941E+04  0.14538774139E+04  0.00000000000E+00 0. -1.
         -2    1    1    2    0  502 -0.48132725919E+02 -0.43782448106E+02  0.13582649855E+03  0.15060710400E+03  0.00000000000E+00 0.  1.
</event>
<event>
 4    1  0.5978476E+003  0.2354329E+02  0.7546771E-02  0.1485786E+00
          2   -1    0    0  501    0  0.00000000000E+00  0.00000000000E+00  0.22757579873E+01  0.22757579873E+01  0.00000000000E+00 0. -1.
         -2   -1    0    0    0  501 -0.00000000000E+00 -0.00000000000E+00 -0.25136082187E+03  0.25136082187E+03  0.00000000000E+00 0. -1.
          2    1    1    2  502    0  0.13573323741E+02  0.19236718364E+02 -0.10220328161E+03  0.10487991811E+03  0.00000000000E+00 0. -1.
         -2    1    1    2    0  502 -0.13573323741E+02 -0.19236718364E+02 -0.14688178227E+03  0.14875666174E+03  0.00000000000E+00 0. -1.
</event>
<event>
 4    1  0.5978476E+003  0.2224190E+02  0.7546771E-02  0.1502244E+00
          2   -1    0    0  501    0  0.00000000000E+00  0.00000000000E+00  0.32018176370E+01  0.32018176370E+01  0.00000000000E+00 0. -1.
         -2   -1    0    0    0  501 -0.00000000000E+00 -0.00000000000E+00 -0.15800080626E+03  0.15800080626E+03  0.00000000000E+00 0. -1.
          2    1    1    2  502    0  0.27131508349E+01 -0.22075794584E+02 -0.65413116868E+02  0.69091083017E+02  0.00000000000E+00 0. -1.
         -2    1    1    2    0  502 -0.27131508349E+01  0.22075794584E+02 -0.89385871750E+02  0.92111540876E+02  0.00000000000E+00 0. -1.
</event>
<event>
 4    1  0.5978476E+003  0.2747331E+02  0.7546771E-02  0.1442911E+00
          2   -1    0    0  501    0  0.00000000000E+00  0.00000000000E+00  0.46432084058E+02  0.46432084058E+02  0.00000000000E+00 0.  1.
         -2   -1    0    0    0  501 -0.00000000000E+00 -0.00000000000E+00 -0.22045337833E+03  0.22045337833E+03  0.00000000000E+00 0.  1.
          2    1    1    2  502    0  0.15010314849E+02 -0.23010283981E+02  0.41418032797E+02  0.49701470416E+02  0.00000000000E+00 0.  1.
         -2    1    1    2    0  502 -0.15010314849E+02  0.23010283981E+02 -0.21543932707E+03  0.21718399197E+03  0.00000000000E+00 0.  1.
</event>
<event>
 4    1  0.5978476E+003  0.2445119E+02  0.7546771E-02  0.1475037E+00
          2   -1    0    0  501    0  0.00000000000E+00  0.00000000000E+00  0.11117694997E+04  0.11117694997E+04  0.00000000000E+00 0.  1.
         -2   -1    0    0    0  501 -0.00000000000E+00 -0.00000000000E+00 -0.31609430862E+01  0.31609430862E+01  0.00000000000E+00 0. -1.
          2    1    1    2  502    0  0.19746226540E+02  0.14420372463E+02  0.10621409765E+04  0.10624223805E+04  0.00000000000E+00 0.  1.
         -2    1    1    2    0  502 -0.19746226540E+02 -0.14420372463E+02  0.46467580115E+02  0.52508062298E+02  0.00000000000E+00 0. -1.
</event>
<event>
 4    1  0.5978476E+003  0.2104503E+02  0.7546771E-02  0.1518623E+00
          2   -1    0    0  501    0  0.00000000000E+00  0.00000000000E+00  0.15781423090E+04  0.15781423090E+04  0.00000000000E+00 0.  1.
         -2   -1    0    0    0  501 -0.00000000000E+00 -0.00000000000E+00 -0.29658649471E+00  0.29658649471E+00  0.00000000000E+00 0.  1.
          2    1    1    2  502    0 -0.16883704728E+02 -0.12563193047E+02  0.97191185203E+03  0.97213967176E+03  0.00000000000E+00 0.  1.
         -2    1    1    2    0  502  0.16883704728E+02  0.12563193047E+02  0.60593387050E+03  0.60629922375E+03  0.00000000000E+00 0.  1.
</event>
<event>
 4    1  0.5978476E+003  0.2151581E+02  0.7546771E-02  0.1512026E+00
          2   -1    0    0  501    0  0.00000000000E+00  0.00000000000E+00  0.14667263869E+03  0.14667263869E+03  0.00000000000E+00 0. -1.
         -2   -1    0    0    0  501 -0.00000000000E+00 -0.00000000000E+00 -0.17635383375E+02  0.17635383375E+02  0.00000000000E+00 0. -1.
          2    1    1    2  502    0 -0.21845507248E+01  0.21404622301E+02  0.13895893468E+03  0.14061477748E+03  0.00000000000E+00 0. -1.
         -2    1    1    2    0  502  0.21845507248E+01 -0.21404622301E+02 -0.99216793639E+01  0.23693244588E+02  0.00000000000E+00 0. -1.
</event>
<event>
 4    1  0.5978476E+003  0.4569376E+02  0.7546771E-02  0.1318006E+00
          2   -1    0    0  501    0  0.00000000000E+00  0.00000000000E+00  0.34959156328E+03  0.34959156328E+03  0.00000000000E+00 0.  1.
         -2   -1    0    0    0  501 -0.00000000000E+00 -0.00000000000E+00 -0.51309417363E+02  0.51309417363E+02  0.00000000000E+00 0.  1.
          2    1    1    2  502    0 -0.38027982400E+02 -0.25333622580E+02  0.33756445320E+03  0.34064303889E+03  0.00000000000E+00 0.  1.
         -2    1    1    2    0  502  0.38027982400E+02  0.25333622580E+02 -0.39282307287E+02  0.60257941752E+02  0.00000000000E+00 0.  1.
</event>
<event>
 4    1  0.5978476E+003  0.3439128E+02  0.7546771E-02  0.1384894E+00
          2   -1    0    0  501    0  0.00000000000E+00  0.00000000000E+00  0.28558075585E+03  0.28558075585E+03  0.00000000000E+00 0.  1.
         -2   -1    0    0    0  501 -0.00000000000E+00 -0.00000000000E+00 -0.43648707700E+01  0.43648707700E+01  0.00000000000E+00 0. -1.
          2    1    1    2  502    0 -0.34331286121E+02 -0.20305476991E+01  0.17339632305E+03  0.17677399463E+03  0.00000000000E+00 0.  1.
         -2    1    1    2    0  502  0.34331286121E+02  0.20305476991E+01  0.10781956204E+03  0.11317163200E+03  0.00000000000E+00 0. -1.
</event>
<event>
 4    1  0.5978476E+003  0.2721489E+02  0.7546771E-02  0.1445461E+00
          2   -1    0    0  501    0  0.00000000000E+00  0.00000000000E+00  0.38017492871E+03  0.38017492871E+03  0.00000000000E+00 0. -1.
         -2   -1    0    0    0  501 -0.00000000000E+00 -0.00000000000E+00 -0.35395840994E+02  0.35395840994E+02  0.00000000000E+00 0.  1.
          2    1    1    2  502    0  0.14555333767E+02  0.22995492066E+02  0.37437576075E+03  0.37536363786E+03  0.00000000000E+00 0. -1.
         -2    1    1    2    0  502 -0.14555333767E+02 -0.22995492066E+02 -0.29596673030E+02  0.40207131841E+02  0.00000000000E+00 0.  1.
</event>
<event>
 4    1  0.5978476E+003  0.2471098E+02  0.7546771E-02  0.1472063E+00
          2   -1    0    0  501    0  0.00000000000E+00  0.00000000000E+00  0.83539152134E+03  0.83539152134E+03  0.00000000000E+00 0.  1.
         -2   -1    0    0    0  501 -0.00000000000E+00 -0.00000000000E+00 -0.11052542616E+02  0.11052542616E+02  0.00000000000E+00 0.  1.
          2    1    1    2  502    0 -0.58058820816E+01 -0.24019243758E+02  0.82115738297E+03  0.82152911084E+03  0.00000000000E+00 0.  1.
         -2    1    1    2    0  502  0.58058820816E+01  0.24019243758E+02  0.31815957495E+01  0.24914953120E+02  0.00000000000E+00 0.  1.
</event>
<event>
 4    1  0.5978476E+003  0.2445204E+02  0.7546771E-02  0.1475028E+00
          2   -1    0    0  501    0  0.00000000000E+00  0.00000000000E+00  0.81837409897E+03  0.81837409897E+03  0.00000000000E+00 0.  1.
         -2   -1    0    0    0  501 -0.00000000000E+00 -0.00000000000E+00 -0.55248032202E+01  0.55248032202E+01  0.00000000000E+00 0. -1.
          2    1    1    2  502    0  0.11291201041E+02  0.21688956949E+02  0.79017064125E+03  0.79054888803E+03  0.00000000000E+00 0.  1.
         -2    1    1    2    0  502 -0.11291201041E+02 -0.21688956949E+02  0.22678654501E+02  0.33350014160E+02  0.00000000000E+00 0. -1.
</event>
<event>
 4    1  0.5978476E+003  0.3438362E+02  0.7546771E-02  0.1384949E+00
          2   -1    0    0  501    0  0.00000000000E+00  0.00000000000E+00  0.63727234599E+03  0.63727234599E+03  0.00000000000E+00 0.  1.
         -2   -1    0    0    0  501 -0.00000000000E+00 -0.00000000000E+00 -0.12961461559E+02  0.12961461559E+02  0.00000000000E+00 0. -1.
          2    1    1    2  502    0 -0.26074221137E+02  0.22413580140E+02  0.61310766562E+03  0.61407104086E+03  0.00000000000E+00 0.  1.
         -2    1    1    2    0  502  0.26074221137E+02 -0.22413580140E+02  0.11203218807E+02  0.36162766684E+02  0.00000000000E+00 0. -1.
</event>
<event>
 4    1  0.5978476E+003  0.3138043E+02  0.7546771E-02  0.1407968E+00
          2   -1    0    0  501    0  0.00000000000E+00  0.00000000000E+00  0.63422835362E+03  0.63422835362E+03  0.00000000000E+00 0.  1.
         -2   -1    0    0    0  501 -0.00000000000E+00 -0.00000000000E+00 -0.18456968080E+01  0.18456968080E+01  0.00000000000E+00 0.  1.
          2    1    1    2  502    0 -0.63883992775E+01 -0.30723277341E+02  0.44291851164E+03  0.44402875962E+03  0.00000000000E+00 0.  1.
         -2    1    1    2    0  502  0.63883992775E+01  0.30723277341E+02  0.18946414517E+03  0.19204529080E+03  0.00000000000E+00 0.  1.
</event>
<event>
 4    1  0.5978476E+003  0.2798576E+02  0.7546771E-02  0.1437950E+00
          2   -1    0    0  501    0  0.00000000000E+00  0.00000000000E+00  0.84388752430E+02  0.84388752430E+02  0.00000000000E+00 0. -1.
         -2   -1    0    0    0  501 -0.00000000000E+00 -0.00000000000E+00 -0.14010199475E+03  0.14010199475E+03  0.00000000000E+00 0. -1.
          2    1    1    2  502    0 -0.19921596360E+00 -0.27985047803E+02  0.80607274633E+02  0.85327224912E+02  0.00000000000E+00 0. -1.
         -2    1    1    2    0  502  0.19921596360E+00  0.27985047803E+02 -0.13632051696E+03  0.13916352227E+03  0.00000000000E+00 0. -1.
</event>
<event>
 4    1  0.5978476E+003  0.2040463E+02  0.7546771E-02  0.1527938E+00
          2   -1    0    0  501    0  0.00000000000E+00  0.00000000000E+00  0.17858415872E+03  0.17858415872E+03  0.00000000000E+00 0. -1.
         -2   -1    0    0    0  501 -0.00000000000E+00 -0.00000000000E+00 -0.35592555385E+01  0.35592555385E+01  0.00000000000E+00 0.  1.
          2    1    1    2  502    0  0.18549260444E+02 -0.85013930091E+01  0.14100334703E+03  0.14247207663E+03  0.00000000000E+00 0. -1.
         -2    1    1    2    0  502 -0.18549260444E+02  0.85013930091E+01  0.34021556150E+02  0.39671337625E+02  0.00000000000E+00 0.  1.
</event>
<event>
 4    1  0.5978476E+003  0.3125932E+02  0.7546771E-02  0.1408960E+00
          2   -1    0    0  501    0  0.00000000000E+00  0.00000000000E+00  0.62860337193E+03  0.62860337193E+03  0.00000000000E+00 0. -1.
         -2   -1    0    0    0  501 -0.00000000000E+00 -0.00000000000E+00 -0.16508685505E+01  0.16508685505E+01  0.00000000000E+00 0. -1.
          2    1    1    2  502    0 -0.31181307506E+02 -0.22068228043E+01  0.23732647192E+03  0.23937626925E+03  0.00000000000E+00 0. -1.
         -2    1    1    2    0  502  0.31181307506E+02  0.22068228043E+01  0.38962603146E+03  0.39087797123E+03  0.00000000000E+00 0. -1.
</event>
<event>
 4    1  0.5978476E+003  0.3329662E+02  0.7546771E-02  0.1392951E+00
          2   -1    0    0  501    0  0.00000000000E+00  0.00000000000E+00  0.74869444254E+03  0.74869444254E+03  0.00000000000E+00 0. -1.
         -2   -1    0    0    0  501 -0.00000000000E+00 -0.00000000000E+00 -0.20204289034E+01  0.20204289034E+01  0.00000000000E+00 0.  1.
          2    1    1    2  502    0 -0.25230475951E+02  0.21727583395E+02  0.56732367237E+03  0.56829993316E+03  0.00000000000E+00 0. -1.
         -2    1    1    2    0  502  0.25230475951E+02 -0.21727583395E+02  0.17935034127E+03  0.18241493828E+03  0.00000000000E+00 0.  1.
</event>
<event>
 4    1  0.5978476E+003  0.3728641E+02  0.7546771E-02  0.1365166E+00
          2   -1    0    0  501    0  0.00000000000E+00  0.00000000000E+00  0.18114829151E+03  0.18114829151E+03  0.00000000000E+00 0. -1.
         -2   -1    0    0    0  501 -0.00000000000E+00 -0.00000000000E+00 -0.15095243403E+02  0.15095243403E+02  0.00000000000E+00 0.  1.
          2    1    1    2  502    0  0.55133923173E+00 -0.37282331847E+02  0.15182207267E+03  0.15633367517E+03  0.00000000000E+00 0. -1.
         -2    1    1    2    0  502 -0.55133923173E+00  0.37282331847E+02  0.14230975440E+02  0.39909859745E+02  0.00000000000E+00 0.  1.
</event>
<event>
 4    1  0.5978476E+003  0.2989403E+02  0.7546771E-02  0.1420520E+00
          2   -1    0    0  501    0  0.00000000000E+00  0.00000000000E+00  0.33147654729E+03  0.33147654729E+03  0.00000000000E+00 0. -1.
         -2   -1    0    0    0  501 -0.00000000000E+00 -0.00000000000E+00 -0.31365758752E+03  0.31365758752E+03  0.00000000000E+00 0. -1.
          2    1    1    2  502    0 -0.47743089741E+01 -0.29510322262E+02  0.33008727728E+03  0.33143817488E+03  0.00000000000E+00 0. -1.
         -2    1    1    2    0  502  0.47743089741E+01  0.29510322262E+02 -0.31226831752E+03  0.31369595993E+03  0.00000000000E+00 0. -1.
</event>
<event>
 4    1  0.5978476E+003  0.3084225E+02  0.7546771E-02  0.1412416E+00
          2   -1    0    0  501    0  0.00000000000E+00  0.00000000000E+00  0.35164768617E+02  0.35164768617E+02  0.00000000000E+00 0. -1.
         -2   -1    0    0    0  501 -0.00000000000E+00 -0.00000000000E+00 -0.51697836953E+02  0.51697836953E+02  0.00000000000E+00 0. -1.
          2    1    1    2  502    0  0.23061694018E+01  0.30755906962E+02  0.21721413680E+02  0.37723521079E+02  0.00000000000E+00 0. -1.
         -2    1    1    2    0  502 -0.23061694018E+01 -0.30755906962E+02 -0.38254482016E+02  0.49139084492E+02  0.00000000000E+00 0. -1.
</event>
<event>
 4    1  0.5978476E+003  0.2606675E+02  0.7546771E-02  0.1457215E+00
          2   -1    0    0  501    0  0.00000000000E+00  0.00000000000E+00  0.46572384447E+03  0.46572384447E+03  0.00000000000E+00 0. -1.
         -2   -1    0    0    0  501 -0.00000000000E+00 -0.00000000000E+00 -0.48452462962E+03  0.48452462962E+03  0.00000000000E+00 0.  1.
          2    1    1    2  502    0 -0.21249763626E+02 -0.15097112266E+02  0.46500797507E+03  0.46573800803E+03  0.00000000000E+00 0. -1.
         -2    1    1    2    0  502  0.21249763626E+02  0.15097112266E+02 -0.48380876022E+03  0.48451046606E+03  0.00000000000E+00 0.  1.
</event>
<event>
 4    1  0.5978476E+003  0.2482866E+02  0.7546771E-02  0.1470729E+00
          2   -1    0    0  501    0  0.00000000000E+00  0.00000000000E+00  0.10775956406E+03  0.10775956406E+03  0.00000000000E+00 0. -1.
         -2   -1    0    0    0  501 -0.00000000000E+00 -0.00000000000E+00 -0.15774070702E+02  0.15774070702E+02  0.00000000000E+00 0. -1.
          2    1    1    2  502    0  0.22458027262E+02 -0.10587697763E+02  0.95303171182E+02  0.98484297072E+02  0.00000000000E+00 0. -1.
         -2    1    1    2    0  502 -0.22458027262E+02  0.10587697763E+02 -0.33176778273E+01  0.25049337688E+02  0.00000000000E+00 0. -1.
</event>
<event>
 4    1  0.5978476E+003  0.6974803E+02  0.7546771E-02  0.1229884E+00
          2   -1    0    0  501    0  0.00000000000E+00  0.00000000000E+00  0.50164624118E+03  0.50164624118E+03  0.00000000000E+00 0. -1.
         -2   -1    0    0    0  501 -0.00000000000E+00 -0.00000000000E+00 -0.10606274606E+02  0.10606274606E+02  0.00000000000E+00 0. -1.
          2    1    1    2  502    0 -0.71579748890E+01  0.69379755499E+02  0.32048629646E+03  0.32798819078E+03  0.00000000000E+00 0. -1.
         -2    1    1    2    0  502  0.71579748890E+01 -0.69379755499E+02  0.17055367012E+03  0.18426432500E+03  0.00000000000E+00 0. -1.
</event>
<event>
 4    1  0.5978476E+003  0.2016160E+02  0.7546771E-02  0.1531580E+00
          2   -1    0    0  501    0  0.00000000000E+00  0.00000000000E+00  0.78302965829E+02  0.78302965829E+02  0.00000000000E+00 0.  1.
         -2   -1    0    0    0  501 -0.00000000000E+00 -0.00000000000E+00 -0.52111863558E+01  0.52111863558E+01  0.00000000000E+00 0.  1.
          2    1    1    2  502    0  0.17011280823E+02 -0.10821553251E+02  0.33962645214E+02  0.39496214501E+02  0.00000000000E+00 0.  1.
         -2    1    1    2    0  502 -0.17011280823E+02  0.10821553251E+02  0.39129134260E+02  0.44017937684E+02  0.00000000000E+00 0.  1.
</event>
<event>
 4    1  0.5978476E+003  0.3180205E+02  0.7546771E-02  0.1404557E+00
          2   -1    0    0  501    0  0.00000000000E+00  0.00000000000E+00  0.80573223691E+02  0.80573223691E+02  0.00000000000E+00 0.  1.
         -2   -1    0    0    0  501 -0.00000000000E+00 -0.00000000000E+00 -0.17877696501E+02  0.17877696501E+02  0.00000000000E+00 0. -1.
          2    1    1    2  502    0  0.31151603584E+02 -0.63990676337E+01  0.58214470238E+02  0.66334719548E+02  0.00000000000E+00 0.  1.
         -2    1    1    2    0  502 -0.31151603584E+02  0.63990676337E+01  0.44810569516E+01  0.32116200644E+02  0.00000000000E+00 0. -1.
</event>
<event>
 4    1  0.5978476E+003  0.2385764E+02  0.7546771E-02  0.1482001E+00
          2   -1    0    0  501    0  0.00000000000E+00  0.00000000000E+00  0.17386227032E+04  0.17386227032E+04  0.00000000000E+00 0.  1.
         -2   -1    0    0    0  501 -0.00000000000E+00 -0.00000000000E+00 -0.43565088312E+02  0.43565088312E+02  0.00000000000E+00 0. -1.
          2    1    1    2  502    0 -0.22411190035E+02  0.81807962432E+01  0.17352682433E+04  0.17354322410E+04  0.00000000000E+00 0.  1.
         -2    1    1    2    0  502  0.22411190035E+02 -0.81807962432E+01 -0.40210628419E+02  0.46755550514E+02  0.00000000000E+00 0. -1.
</event>
<event>
 4    1  0.5978476E+003  0.2321642E+02  0.7546771E-02  0.1489798E+00
          2   -1    0    0  501    0  0.00000000000E+00  0.00000000000E+00  0.77313270744E+03  0.77313270744E+03  0.00000000000E+00 0.  1.
         -2   -1    0    0    0  501 -0.00000000000E+00 -0.00000000000E+00 -0.16069462237E+01  0.16069462237E+01  0.00000000000E+00 0. -1.
          2    1    1    2  502    0 -0.15437894230E+02  0.17339944136E+02  0.67723246331E+03  0.67763029124E+03  0.00000000000E+00 0.  1.
         -2    1    1    2    0  502  0.15437894230E+02 -0.17339944136E+02  0.94293297907E+02  0.97109362427E+02  0.00000000000E+00 0. -1.
</event>
<event>
 4    1  0.5978476E+003  0.2046335E+02  0.7546771E-02  0.1527066E+00
          2   -1    0    0  501    0  0.00000000000E+00  0.00000000000E+00  0.17470703043E+03  0.17470703043E+03  0.00000000000E+00 0. -1.
         -2   -1    0    0    0  501 -0.00000000000E+00 -0.00000000000E+00 -0.91896309204E+03  0.91896309204E+03  0.00000000000E+00 0. -1.
          2    1    1    2  502    0  0.58124719436E+01 -0.19620499918E+02  0.17399343019E+03  0.17519264424E+03  0.00000000000E+00 0. -1.
         -2    1    1    2    0  502 -0.58124719436E+01  0.19620499918E+02 -0.91824949179E+03  0.91847747823E+03  0.00000000000E+00 0. -1.
</event>
<event>
 4    1  0.5978476E+003  0.2249771E+02  0.7546771E-02  0.1498904E+00
          2   -1    0    0  501    0  0.00000000000E+00  0.00000000000E+00  0.56200150408E+01  0.56200150408E+01  0.00000000000E+00 0. -1.
         -2   -1    0    0    0  501 -0.00000000000E+00 -0.00000000000E+00 -0.41422841891E+03  0.41422841891E+03  0.00000000000E+00 0. -1.
          2    1    1    2  502    0 -0.12947313924E+02 -0.18398745643E+02 -0.18597760730E+02  0.29189441297E+02  0.00000000000E+00 0. -1.
         -2    1    1    2    0  502  0.12947313924E+02  0.18398745643E+02 -0.39001064314E+03  0.39065899266E+03  0.00000000000E+00 0. -1.
</event>
<event>
 4    1  0.5978476E+003  0.4552460E+02  0.7546771E-02  0.1318837E+00
          2   -1    0    0  501    0  0.00000000000E+00  0.00000000000E+00  0.12092928888E+04  0.12092928888E+04  0.00000000000E+00 0. -1.
         -2   -1    0    0    0  501 -0.00000000000E+00 -0.00000000000E+00 -0.34883934240E+02  0.34883934240E+02  0.00000000000E+00 0.  1.
          2    1    1    2  502    0  0.43385176752E+02  0.13791856844E+02  0.11938192487E+04  0.11946869412E+04  0.00000000000E+00 0. -1.
         -2    1    1    2    0  502 -0.43385176752E+02 -0.13791856844E+02 -0.19410294214E+02  0.49489881779E+02  0.00000000000E+00 0.  1.
</event>
<event>
 4    1  0.5978476E+003  0.2059609E+02  0.7546771E-02  0.1525110E+00
          2   -1    0    0  501    0  0.00000000000E+00  0.00000000000E+00  0.37659546677E+03  0.37659546677E+03  0.00000000000E+00 0.  1.
         -2   -1    0    0    0  501 -0.00000000000E+00 -0.00000000000E+00 -0.51328780208E+01  0.51328780208E+01  0.00000000000E+00 0.  1.
          2    1    1    2  502    0 -0.19152888985E+02 -0.75740159617E+01  0.35435750222E+03  0.35495554405E+03  0.00000000000E+00 0.  1.
         -2    1    1    2    0  502  0.19152888985E+02  0.75740159617E+01  0.17105086533E+02  0.26772800742E+02  0.00000000000E+00 0.  1.
</event>
<event>
 4    1  0.5978476E+003  0.2639776E+02  0.7546771E-02  0.1453753E+00
          2   -1    0    0  501    0  0.00000000000E+00  0.00000000000E+00  0.16823209032E+03  0.16823209032E+03  0.00000000000E+00 0.  1.
         -2   -1    0    0    0  501 -0.00000000000E+00 -0.00000000000E+00 -0.40904214126E+02  0.40904214126E+02  0.00000000000E+00 0.  1.
          2    1    1    2  502    0 -0.18849822086E+02 -0.18480417604E+02  0.16279628407E+03  0.16492262348E+03  0.00000000000E+00 0.  1.
         -2    1    1    2    0  502  0.18849822086E+02  0.18480417604E+02 -0.35468407877E+02  0.44213680969E+02  0.00000000000E+00 0.  1.
</event>
<event>
 4    1  0.5978476E+003  0.2797567E+02  0.7546771E-02  0.1438046E+00
          2   -1    0    0  501    0  0.00000000000E+00  0.00000000000E+00  0.38491663440E+03  0.38491663440E+03  0.00000000000E+00 0. -1.
         -2   -1    0    0    0  501 -0.00000000000E+00 -0.00000000000E+00 -0.14291015559E+02  0.14291015559E+02  0.00000000000E+00 0. -1.
          2    1    1    2  502    0 -0.27925095489E+02  0.16814054169E+01  0.37017269384E+03  0.37122831431E+03  0.00000000000E+00 0. -1.
         -2    1    1    2    0  502  0.27925095489E+02 -0.16814054169E+01  0.45292500280E+00  0.27979335648E+02  0.00000000000E+00 0. -1.
</event>
<event>
 4    1  0.5978476E+003  0.2043099E+02  0.7546771E-02  0.1527546E+00
          2   -1    0    0  501    0  0.00000000000E+00  0.00000000000E+00  0.23858064176E+03  0.23858064176E+03  0.00000000000E+00 0. -1.
         -2   -1    0    0    0  501 -0.00000000000E+00 -0.00000000000E+00 -0.55556661528E+01  0.55556661528E+01  0.00000000000E+00 0.  1.
          2    1    1    2  502    0  0.16259718633E+02  0.12371220311E+02  0.21754736376E+03  0.21850464760E+03  0.00000000000E+00 0. -1.
         -2    1    1    2    0  502 -0.16259718633E+02 -0.12371220311E+02  0.15477611843E+02  0.25631660313E+02  0.00000000000E+00 0.  1.
</event>
<event>
 4    1  0.5978476E+003  0.2039669E+02  0.7546771E-02  0.1528055E+00
          2   -1    0    0  501    0  0.00000000000E+00  0.00000000000E+00  0.28919189387E+03  0.28919189387E+03  0.00000000000E+00 0.  1.
         -2   -1    0    0    0  501 -0.00000000000E+00 -0.00000000000E+00 -0.89787657751E+02  0.89787657751E+02  0.00000000000E+00 0. -1.
          2    1    1    2  502    0 -0.15304904729E+02 -0.13482765025E+02  0.28766776168E+03  0.28838995505E+03  0.00000000000E+00 0.  1.
         -2    1    1    2    0  502  0.15304904729E+02  0.13482765025E+02 -0.88263525566E+02  0.90589596570E+02  0.00000000000E+00 0. -1.
</event>
<event>
 4    1  0.5978476E+003  0.4029919E+02  0.7546771E-02  0.1346741E+00
          2   -1    0    0  501    0  0.00000000000E+00  0.00000000000E+00  0.14748321420E+03  0.14748321420E+03  0.00000000000E+00 0. -1.
         -2   -1    0    0    0  501 -0.00000000000E+00 -0.00000000000E+00 -0.79347692503E+02  0.79347692503E+02  0.00000000000E+00 0. -1.
          2    1    1    2  502    0 -0.31129264413E+02  0.25592844757E+02  0.13931971854E+03  0.14503106143E+03  0.00000000000E+00 0. -1.
         -2    1    1    2    0  502  0.31129264413E+02 -0.25592844757E+02 -0.71184196845E+02  0.81799845270E+02  0.00000000000E+00 0. -1.
</event>
<event>
 4    1  0.5978476E+003  0.4135536E+02  0.7546771E-02  0.1340721E+00
          2   -1    0    0  501    0  0.00000000000E+00  0.00000000000E+00  0.45192131449E+03  0.45192131449E+03  0.00000000000E+00 0.  1.
         -2   -1    0    0    0  501 -0.00000000000E+00 -0.00000000000E+00 -0.16346740110E+02  0.16346740110E+02  0.00000000000E+00 0.  1.
          2    1    1    2  502    0 -0.10746170630E+02 -0.39934764649E+02  0.42303752644E+03  0.42505413113E+03  0.00000000000E+00 0.  1.
         -2    1    1    2    0  502  0.10746170630E+02  0.39934764649E+02  0.12537047936E+02  0.43213923471E+02  0.00000000000E+00 0.  1.
</event>
<event>
 4    1  0.5978476E+003  0.3314757E+02  0.7546771E-02  0.1394076E+00
          2   -1    0    0  501    0  0.00000000000E+00  0.00000000000E+00  0.25299429740E+02  0.25299429740E+02  0.00000000000E+00 0.  1.
         -2   -1    0    0    0  501 -0.00000000000E+00 -0.00000000000E+00 -0.75257391552E+02  0.75257391552E+02  0.00000000000E+00 0.  1.
          2    1    1    2  502    0 -0.18727921415E+02  0.27350073881E+02  0.77178379952E+01  0.34034197583E+02  0.00000000000E+00 0.  1.
         -2    1    1    2    0  502  0.18727921415E+02 -0.27350073881E+02 -0.57675799807E+02  0.66522623710E+02  0.00000000000E+00 0.  1.
</event>
<event>
 4    1  0.5978476E+003  0.2775336E+02  0.7546771E-02  0.1440184E+00
          2   -1    0    0  501    0  0.00000000000E+00  0.00000000000E+00  0.19888973606E+03  0.19888973606E+03  0.00000000000E+00 0. -1.
         -2   -1    0    0    0  501 -0.00000000000E+00 -0.00000000000E+00 -0.22227023475E+02  0.22227023475E+02  0.00000000000E+00 0. -1.
          2    1    1    2  502    0 -0.15418536379E+02 -0.23076349997E+02  0.18879748596E+03  0.19082646541E+03  0.00000000000E+00 0. -1.
         -2    1    1    2    0  502  0.15418536379E+02  0.23076349997E+02 -0.12134773381E+02  0.30290294126E+02  0.00000000000E+00 0. -1.
</event>
<event>
 4    1  0.5978476E+003  0.2853451E+02  0.7546771E-02  0.1432774E+00
          2   -1    0    0  501    0  0.00000000000E+00  0.00000000000E+00  0.11801602241E+03  0.11801602241E+03  0.00000000000E+00 0. -1.
         -2   -1    0    0    0  501 -0.00000000000E+00 -0.00000000000E+00 -0.72176751869E+01  0.72176751869E+01  0.00000000000E+00 0. -1.
          2    1    1    2  502    0  0.13661314007E+02 -0.25051660258E+02  0.42246188419E+02  0.50979972715E+02  0.00000000000E+00 0. -1.
         -2    1    1    2    0  502 -0.13661314007E+02  0.25051660258E+02  0.68552158799E+02  0.74253724877E+02  0.00000000000E+00 0. -1.
</event>
<event>
 4    1  0.5978476E+003  0.2135851E+02  0.7546771E-02  0.1514207E+00
          2   -1    0    0  501    0  0.00000000000E+00  0.00000000000E+00  0.41073135839E+03  0.41073135839E+03  0.00000000000E+00 0. -1.
         -2   -1    0    0    0  501 -0.00000000000E+00 -0.00000000000E+00 -0.31028973247E+01  0.31028973247E+01  0.00000000000E+00 0.  1.
          2    1    1    2  502    0  0.12954016899E+02 -0.16981741376E+02  0.36961342839E+03  0.37023002653E+03  0.00000000000E+00 0. -1.
         -2    1    1    2    0  502 -0.12954016899E+02  0.16981741376E+02  0.38015032675E+02  0.43604229190E+02  0.00000000000E+00 0.  1.
</event>
<event>
 4    1  0.5978476E+003  0.2644109E+02  0.7546771E-02  0.1453305E+00
          2   -1    0    0  501    0  0.00000000000E+00  0.00000000000E+00  0.38088811473E+03  0.38088811473E+03  0.00000000000E+00 0. -1.
         -2   -1    0    0    0  501 -0.00000000000E+00 -0.00000000000E+00 -0.79164836549E+01  0.79164836549E+01  0.00000000000E+00 0. -1.
          2    1    1    2  502    0  0.46233406576E+01 -0.26033747667E+02  0.35686679436E+03  0.35784499467E+03  0.00000000000E+00 0. -1.
         -2    1    1    2    0  502 -0.46233406576E+01  0.26033747667E+02  0.16104836719E+02  0.30959603715E+02  0.00000000000E+00 0. -1.
</event>
<event>
 4    1  0.5978476E+003  0.2236499E+02  0.7546771E-02  0.1500630E+00
          2   -1    0    0  501    0  0.00000000000E+00  0.00000000000E+00  0.73050406734E+01  0.73050406734E+01  0.00000000000E+00 0.  1.
         -2   -1    0    0    0  501 -0.00000000000E+00 -0.00000000000E+00 -0.85529852699E+02  0.85529852699E+02  0.00000000000E+00 0. -1.
          2    1    1    2  502    0 -0.40481779746E+01 -0.21995570002E+02 -0.18383284080E+02  0.28950612744E+02  0.00000000000E+00 0.  1.
         -2    1    1    2    0  502  0.40481779746E+01  0.21995570002E+02 -0.59841527945E+02  0.63884280629E+02  0.00000000000E+00 0. -1.
</event>
<event>
 4    1  0.5978476E+003  0.3390934E+02  0.7546771E-02  0.1388397E+00
          2   -1    0    0  501    0  0.00000000000E+00  0.00000000000E+00  0.12106133178E+03  0.12106133178E+03  0.00000000000E+00 0. -1.
         -2   -1    0    0    0  501 -0.00000000000E+00 -0.00000000000E+00 -0.66008195416E+02  0.66008195416E+02  0.00000000000E+00 0.  1.
          2    1    1    2  502    0 -0.32904479051E+02  0.81938299516E+01  0.11407066111E+03  0.11900403067E+03  0.00000000000E+00 0. -1.
         -2    1    1    2    0  502  0.32904479051E+02 -0.81938299516E+01 -0.59017524740E+02  0.68065496526E+02  0.00000000000E+00 0.  1.
</event>
<event>
 4    1  0.5978476E+003  0.2149724E+02  0.7546771E-02  0.1512283E+00
          2   -1    0    0  501    0  0.00000000000E+00  0.00000000000E+00  0.18722256870E+03  0.18722256870E+03  0.00000000000E+00 0.  1.
         -2   -1    0    0    0  501 -0.00000000000E+00 -0.00000000000E+00 -0.10012800677E+04  0.10012800677E+04  0.00000000000E+00 0. -1.
          2    1    1    2  502    0 -0.86878128825E+01 -0.19663496037E+02  0.18648964368E+03  0.18772458115E+03  0.00000000000E+00 0.  1.
         -2    1    1    2    0  502  0.86878128825E+01  0.19663496037E+02 -0.10005471427E+04  0.10007780552E+04  0.00000000000E+00 0. -1.
</event>
<event>
 4    1  0.5978476E+003  0.2836730E+02  0.7546771E-02  0.1434337E+00
          2   -1    0    0  501    0  0.00000000000E+00  0.00000000000E+00  0.20300279431E+04  0.20300279431E+04  0.00000000000E+00 0. -1.
         -2   -1    0    0    0  501 -0.00000000000E+00 -0.00000000000E+00 -0.11391183850E+02  0.11391183850E+02  0.00000000000E+00 0. -1.
          2    1    1    2  502    0 -0.27132487329E+02 -0.82783843843E+01  0.20121109251E+04  0.20123108802E+04  0.00000000000E+00 0. -1.
         -2    1    1    2    0  502  0.27132487329E+02  0.82783843843E+01  0.65258340849E+01  0.29108246721E+02  0.00000000000E+00 0. -1.
</event>
<event>
 4    1  0.5978476E+003  0.2175489E+02  0.7546771E-02  0.1508754E+00
          2   -1    0    0  501    0  0.00000000000E+00  0.00000000000E+00  0.13468459598E+03  0.13468459598E+03  0.00000000000E+00 0.  1.
         -2   -1    0    0    0  501 -0.00000000000E+00 -0.00000000000E+00 -0.14951484280E+02  0.14951484280E+02  0.00000000000E+00 0.  1.
          2    1    1    2  502    0 -0.20828412481E+02 -0.62811092817E+01  0.12530460665E+03  0.12717908455E+03  0.00000000000E+00 0.  1.
         -2    1    1    2    0  502  0.20828412481E+02  0.62811092817E+01 -0.55714949480E+01  0.22456995709E+02  0.00000000000E+00 0.  1.
</event>
<event>
 4    1  0.5978476E+003  0.2315093E+02  0.7546771E-02  0.1490612E+00
          2   -1    0    0  501    0  0.00000000000E+00  0.00000000000E+00  0.15348367180E+02  0.15348367180E+02  0.00000000000E+00 0. -1.
         -2   -1    0    0    0  501 -0.00000000000E+00 -0.00000000000E+00 -0.16112394424E+03  0.16112394424E+03  0.00000000000E+00 0.  1.
          2    1    1    2  502    0  0.19790752750E+02  0.12012137542E+02  0.52035666732E+01  0.23728515522E+02  0.00000000000E+00 0. -1.
         -2    1    1    2    0  502 -0.19790752750E+02 -0.12012137542E+02 -0.15097914374E+03  0.15274379590E+03  0.00000000000E+00 0.  1.
</event>
<event>
 4    1  0.5978476E+003  0.8194645E+02  0.7546771E-02  0.1199400E+00
          2   -1    0    0  501    0  0.00000000000E+00  0.00000000000E+00  0.24951711519E+03  0.24951711519E+03  0.00000000000E+00 0.  1.
         -2   -1    0    0    0  501 -0.00000000000E+00 -0.00000000000E+00 -0.54667878425E+02  0.54667878425E+02  0.00000000000E+00 0.  1.
          2    1    1    2  502    0  0.41728916132E+02  0.70526009032E+02  0.20579544893E+03  0.22151069318E+03  0.00000000000E+00 0.  1.
         -2    1    1    2    0  502 -0.41728916132E+02 -0.70526009032E+02 -0.10946212168E+02  0.82674300434E+02  0.00000000000E+00 0.  1.
</event>
<event>
 4    1  0.5978476E+003  0.3696208E+02  0.7546771E-02  0.1367270E+00
          2   -1    0    0  501    0  0.00000000000E+00  0.00000000000E+00  0.31045309415E+03  0.31045309415E+03  0.00000000000E+00 0. -1.
         -2   -1    0    0    0  501 -0.00000000000E+00 -0.00000000000E+00 -0.23501216340E+02  0.23501216340E+02  0.00000000000E+00 0. -1.
          2    1    1    2  502    0  0.35518816583E+02 -0.10227845901E+02  0.29401008342E+03  0.29632435660E+03  0.00000000000E+00 0. -1.
         -2    1    1    2    0  502 -0.35518816583E+02  0.10227845901E+02 -0.70582056092E+01  0.37629953888E+02  0.00000000000E+00 0. -1.
</event>
<event>
 4    1  0.5978476E+003  0.2117935E+02  0.7546771E-02  0.1516720E+00
          2   -1    0    0  501    0  0.00000000000E+00  0.00000000000E+00  0.15892091082E+04  0.15892091082E+04  0.00000000000E+00 0.  1.
         -2   -1    0    0    0  501 -0.00000000000E+00 -0.00000000000E+00 -0.91464165141E+00  0.91464165141E+00  0.00000000000E+00 0. -1.
          2    1    1    2  502    0  0.82549938883E+01  0.19504354857E+02  0.14552458279E+04  0.14553999397E+04  0.00000000000E+00 0.  1.
         -2    1    1    2    0  502 -0.82549938883E+01 -0.19504354857E+02  0.13304863865E+03  0.13472381017E+03  0.00000000000E+00 0. -1.
</event>
<event>
 4    1  0.5978476E+003  0.2366417E+02  0.7546771E-02  0.1484322E+00
          2   -1    0    0  501    0  0.00000000000E+00  0.00000000000E+00  0.20072300050E+04  0.20072300050E+04  0.00000000000E+00 0. -1.
         -2   -1    0    0    0  501 -0.00000000000E+00 -0.00000000000E+00 -0.29847391969E+00  0.29847391969E+00  0.00000000000E+00 0. -1.
          2    1    1    2  502    0 -0.16383798433E+02  0.17075249929E+02  0.12599374277E+04  0.12601596386E+04  0.00000000000E+00 0. -1.
         -2    1    1    2    0  502  0.16383798433E+02 -0.17075249929E+02  0.74699410335E+03  0.74736884030E+03  0.00000000000E+00 0. -1.
</event>
<event>
 4    1  0.5978476E+003  0.2702027E+02  0.7546771E-02  0.1447405E+00
          2   -1    0    0  501    0  0.00000000000E+00  0.00000000000E+00  0.71148625488E+02  0.71148625488E+02  0.00000000000E+00 0. -1.
         -2   -1    0    0    0  501 -0.00000000000E+00 -0.00000000000E+00 -0.17878633559E+02  0.17878633559E+02  0.00000000000E+00 0.  1.
          2    1    1    2  502    0  0.26908593373E+02 -0.24540716572E+01  0.55689959226E+02  0.61898840245E+02  0.00000000000E+00 0. -1.
         -2    1    1    2    0  502 -0.26908593373E+02  0.24540716572E+01 -0.24199672971E+01  0.27128418803E+02  0.00000000000E+00 0.  1.
</event>
<event>
 4    1  0.5978476E+003  0.2355030E+02  0.7546771E-02  0.1485701E+00
          2   -1    0    0  501    0  0.00000000000E+00  0.00000000000E+00  0.91782136845E+02  0.91782136845E+02  0.00000000000E+00 0.  1.
         -2   -1    0    0    0  501 -0.00000000000E+00 -0.00000000000E+00 -0.14008833335E+02  0.14008833335E+02  0.00000000000E+00 0. -1.
          2    1    1    2  502    0 -0.23540020158E+02 -0.69572347228E+00  0.78774446018E+02  0.82219401151E+02  0.00000000000E+00 0.  1.
         -2    1    1    2    0  502  0.23540020158E+02  0.69572347228E+00 -0.10011425089E+01  0.23571569029E+02  0.00000000000E+00 0. -1.
</event>
<event>
 4    1  0.5978476E+003  0.2276563E+02  0.7546771E-02  0.1495462E+00
          2   -1    0    0  501    0  0.00000000000E+00  0.00000000000E+00  0.48294501562E+03  0.48294501562E+03  0.00000000000E+00 0.  1.
         -2   -1    0    0    0  501 -0.00000000000E+00 -0.00000000000E+00 -0.20826426348E+02  0.20826426348E+02  0.00000000000E+00 0.  1.
          2    1    1    2  502    0 -0.17824588735E+02 -0.14161848272E+02  0.47636955177E+03  0.47691322456E+03  0.00000000000E+00 0.  1.
         -2    1    1    2    0  502  0.17824588735E+02  0.14161848272E+02 -0.14250962497E+02  0.26858217405E+02  0.00000000000E+00 0.  1.
</event>
<event>
 4    1  0.5978476E+003  0.2525228E+02  0.7546771E-02  0.1466001E+00
          2   -1    0    0  501    0  0.00000000000E+00  0.00000000000E+00  0.29509447092E+02  0.29509447092E+02  0.00000000000E+00 0.  1.
         -2   -1    0    0    0  501 -0.00000000000E+00 -0.00000000000E+00 -0.98830942228E+02  0.98830942228E+02  0.00000000000E+00 0.  1.
          2    1    1    2  502    0  0.61719806346E+01 -0.24486414876E+02  0.22061896404E+02  0.33532150712E+02  0.00000000000E+00 0.  1.
         -2    1    1    2    0  502 -0.61719806346E+01  0.24486414876E+02 -0.91383391540E+02  0.94808238607E+02  0.00000000000E+00 0.  1.
</event>
<event>
 4    1  0.5978476E+003  0.2323559E+02  0.7546771E-02  0.1489561E+00
          2   -1    0    0  501    0  0.00000000000E+00  0.00000000000E+00  0.75168007046E+03  0.75168007046E+03  0.00000000000E+00 0. -1.
         -2   -1    0    0    0  501 -0.00000000000E+00 -0.00000000000E+00 -0.14196190166E+02  0.14196190166E+02  0.00000000000E+00 0.  1.
          2    1    1    2  502    0 -0.22209246930E+01 -0.23129200863E+02  0.74186707750E+03  0.74223086242E+03  0.00000000000E+00 0. -1.
         -2    1    1    2    0  502  0.22209246930E+01  0.23129200863E+02 -0.43831972047E+01  0.23645398216E+02  0.00000000000E+00 0.  1.
</event>
<event>
 4    1  0.5978476E+003  0.2495228E+02  0.7546771E-02  0.1469338E+00
          2   -1    0    0  501    0  0.00000000000E+00  0.00000000000E+00  0.41996388154E+02  0.41996388154E+02  0.00000000000E+00 0.  1.
         -2   -1    0    0    0  501 -0.00000000000E+00 -0.00000000000E+00 -0.17508309105E+02  0.17508309105E+02  0.00000000000E+00 0.  1.
          2    1    1    2  502    0  0.14894786963E+02  0.20019034262E+02  0.23890555962E+02  0.34545261262E+02  0.00000000000E+00 0.  1.
         -2    1    1    2    0  502 -0.14894786963E+02 -0.20019034262E+02  0.59752308650E+00  0.24959435998E+02  0.00000000000E+00 0.  1.
</event>
<event>
 4    1  0.5978476E+003  0.2367383E+02  0.7546771E-02  0.1484206E+00
          2   -1    0    0  501    0  0.00000000000E+00  0.00000000000E+00  0.64935710039E+03  0.64935710039E+03  0.00000000000E+00 0. -1.
         -2   -1    0    0    0  501 -0.00000000000E+00 -0.00000000000E+00 -0.13588066030E+01  0.13588066030E+01  0.00000000000E+00 0.  1.
          2    1    1    2  502    0 -0.63160149777E+01 -0.22815747950E+02  0.52051677244E+03  0.52105485392E+03  0.00000000000E+00 0. -1.
         -2    1    1    2    0  502  0.63160149777E+01  0.22815747950E+02  0.12748152135E+03  0.12966105308E+03  0.00000000000E+00 0.  1.
</event>
<event>
 4    1  0.5978476E+003  0.5166664E+02  0.7546771E-02  0.1291104E+00
          2   -1    0    0  501    0  0.00000000000E+00  0.00000000000E+00  0.33309478398E+03  0.33309478398E+03  0.00000000000E+00 0.  1.
         -2   -1    0    0    0  501 -0.00000000000E+00 -0.00000000000E+00 -0.15364755612E+02  0.15364755612E+02  0.00000000000E+00 0.  1.
          2    1    1    2  502    0  0.48796294930E+02 -0.16981267350E+02  0.27937519314E+03  0.28411254879E+03  0.00000000000E+00 0.  1.
         -2    1    1    2    0  502 -0.48796294930E+02  0.16981267350E+02  0.38354835234E+02  0.64346990804E+02  0.00000000000E+00 0.  1.
</event>
<event>
 4    1  0.5978476E+003  0.2855662E+02  0.7546771E-02  0.1432568E+00
          2   -1    0    0  501    0  0.00000000000E+00  0.00000000000E+00  0.45859353760E+01  0.45859353760E+01  0.00000000000E+00 0.  1.
         -2   -1    0    0    0  501 -0.00000000000E+00 -0.00000000000E+00 -0.29101859994E+03  0.29101859994E+03  0.00000000000E+00 0.  1.
          2    1    1    2  502    0 -0.12749680073E+02  0.25552418534E+02 -0.51036202167E+02  0.58482256852E+02  0.00000000000E+00 0.  1.
         -2    1    1    2    0  502  0.12749680073E+02 -0.25552418534E+02 -0.23539646240E+03  0.23712227847E+03  0.00000000000E+00 0.  1.
</event>
<event>
 4    1  0.5978476E+003  0.2869208E+02  0.7546771E-02  0.1431313E+00
          2   -1    0    0  501    0  0.00000000000E+00  0.00000000000E+00  0.83777066460E+03  0.83777066460E+03  0.00000000000E+00 0. -1.
         -2   -1    0    0    0  501 -0.00000000000E+00 -0.00000000000E+00 -0.41886181908E+01  0.41886181908E+01  0.00000000000E+00 0. -1.
          2    1    1    2  502    0 -0.11747274142E+02  0.26177034681E+02  0.78509405238E+03  0.78561816850E+03  0.00000000000E+00 0. -1.
         -2    1    1    2    0  502  0.11747274142E+02 -0.26177034681E+02  0.48487994022E+02  0.56341114284E+02  0.00000000000E+00 0. -1.
</event>
<event>
 4    1  0.5978476E+003  0.7327806E+02  0.7546771E-02  0.1220376E+00
          2   -1    0    0  501    0  0.00000000000E+00  0.00000000000E+00  0.83775923765E+03  0.83775923765E+03  0.00000000000E+00 0.  1.
         -2   -1    0    0    0  501 -0.00000000000E+00 -0.00000000000E+00 -0.10242471603E+03  0.10242471603E+03  0.00000000000E+00 0.  1.
          2    1    1    2  502    0  0.64079252257E+02 -0.35546082646E+02  0.82281284475E+03  0.82606939905E+03  0.00000000000E+00 0.  1.
         -2    1    1    2    0  502 -0.64079252257E+02  0.35546082646E+02 -0.87478323125E+02  0.11411455463E+03  0.00000000000E+00 0.  1.
</event>
<event>
 4    1  0.5978476E+003  0.2102253E+02  0.7546771E-02  0.1518943E+00
          2   -1    0    0  501    0  0.00000000000E+00  0.00000000000E+00  0.54175936506E+02  0.54175936506E+02  0.00000000000E+00 0.  1.
         -2   -1    0    0    0  501 -0.00000000000E+00 -0.00000000000E+00 -0.30594414479E+02  0.30594414479E+02  0.00000000000E+00 0. -1.
          2    1    1    2  502    0 -0.37786602880E+00 -0.21019137225E+02  0.48087974030E+02  0.52482379507E+02  0.00000000000E+00 0.  1.
         -2    1    1    2    0  502  0.37786602880E+00  0.21019137225E+02 -0.24506452003E+02  0.32287971478E+02  0.00000000000E+00 0. -1.
</event>
<event>
 4    1  0.5978476E+003  0.2181052E+02  0.7546771E-02  0.1508000E+00
          2   -1    0    0  501    0  0.00000000000E+00  0.00000000000E+00  0.31129230777E+03  0.31129230777E+03  0.00000000000E+00 0.  1.
         -2   -1    0    0    0  501 -0.00000000000E+00 -0.00000000000E+00 -0.59663465729E+02  0.59663465729E+02  0.00000000000E+00 0.  1.
          2    1    1    2  502    0  0.49426518202E+01  0.21243097424E+02  0.30890160562E+03  0.30967063301E+03  0.00000000000E+00 0.  1.
         -2    1    1    2    0  502 -0.49426518202E+01 -0.21243097424E+02 -0.57272763585E+02  0.61285140481E+02  0.00000000000E+00 0.  1.
</event>
<event>
 4    1  0.5978476E+003  0.2385258E+02  0.7546771E-02  0.1482061E+00
          2   -1    0    0  501    0  0.00000000000E+00  0.00000000000E+00  0.12900133019E+02  0.12900133019E+02  0.00000000000E+00 0. -1.
         -2   -1    0    0    0  501 -0.00000000000E+00 -0.00000000000E+00 -0.76261797251E+02  0.76261797251E+02  0.00000000000E+00 0. -1.
          2    1    1    2  502    0 -0.15671085871E+02  0.17982285171E+02 -0.27313954129E+01  0.24008457535E+02  0.00000000000E+00 0. -1.
         -2    1    1    2    0  502  0.15671085871E+02 -0.17982285171E+02 -0.60630268819E+02  0.65153472735E+02  0.00000000000E+00 0. -1.
</event>
<event>
 4    1  0.5978476E+003  0.3137831E+02  0.7546771E-02  0.1407985E+00
          2   -1    0    0  501    0  0.00000000000E+00  0.00000000000E+00  0.10475059935E+04  0.10475059935E+04  0.00000000000E+00 0. -1.
         -2   -1    0    0    0  501 -0.00000000000E+00 -0.00000000000E+00 -0.71861304261E+02  0.71861304261E+02  0.00000000000E+00 0. -1.
          2    1    1    2  502    0  0.56818605811E+01 -0.30859596093E+02  0.10438336169E+04  0.10443051364E+04  0.00000000000E+00 0. -1.
         -2    1    1    2    0  502 -0.56818605811E+01  0.30859596093E+02 -0.68188927650E+02  0.75062161339E+02  0.00000000000E+00 0. -1.
</event>
<event>
 4    1  0.5978476E+003  0.7359489E+02  0.7546771E-02  0.1219553E+00
          2   -1    0    0  501    0  0.00000000000E+00  0.00000000000E+00  0.15943238363E+04  0.15943238363E+04  0.00000000000E+00 0.  1.
         -2   -1    0    0    0  501 -0.00000000000E+00 -0.00000000000E+00 -0.34142106668E+01  0.34142106668E+01  0.00000000000E+00 0. -1.
          2    1    1    2  502    0  0.71112924833E+02  0.18951366879E+02  0.73903033283E+03  0.74268569074E+03  0.00000000000E+00 0.  1.
         -2    1    1    2    0  502 -0.71112924833E+02 -0.18951366879E+02  0.85187929279E+03  0.85505235622E+03  0.00000000000E+00 0. -1.
</event>
<event>
 4    1  0.5978476E+003  0.2086536E+02  0.7546771E-02  0.1521196E+00
          2   -1    0    0  501    0  0.00000000000E+00  0.00000000000E+00  0.57420368959E+03  0.57420368959E+03  0.00000000000E+00 0. -1.
         -2   -1    0    0    0  501 -0.00000000000E+00 -0.00000000000E+00 -0.20612436799E+02  0.20612436799E+02  0.00000000000E+00 0.  1.
          2    1    1    2  502    0  0.13104148443E+02 -0.16237135953E+02  0.56868254365E+03  0.56906519727E+03  0.00000000000E+00 0. -1.
         -2    1    1    2    0  502 -0.13104148443E+02  0.16237135953E+02 -0.15091290863E+02  0.25750929115E+02  0.00000000000E+00 0.  1.
</event>
<event>
 4    1  0.5978476E+003  0.2683148E+02  0.7546771E-02  0.1449308E+00
          2   -1    0    0  501    0  0.00000000000E+00  0.00000000000E+00  0.55112861417E+02  0.55112861417E+02  0.00000000000E+00 0.  1.
         -2   -1    0    0    0  501 -0.00000000000E+00 -0.00000000000E+00 -0.33604085261E+02  0.33604085261E+02  0.00000000000E+00 0.  1.
          2    1    1    2  502    0 -0.26666304970E+02  0.29726623598E+01  0.45435603539E+02  0.52766680881E+02  0.00000000000E+00 0.  1.
         -2    1    1    2    0  502  0.26666304970E+02 -0.29726623598E+01 -0.23926827384E+02  0.35950265797E+02  0.00000000000E+00 0.  1.
</event>
<event>
 4    1  0.5978476E+003  0.2143434E+02  0.7546771E-02  0.1513153E+00
          2   -1    0    0  501    0  0.00000000000E+00  0.00000000000E+00  0.37981143077E+02  0.37981143077E+02  0.00000000000E+00 0.  1.
         -2   -1    0    0    0  501 -0.00000000000E+00 -0.00000000000E+00 -0.16645962498E+03  0.16645962498E+03  0.00000000000E+00 0. -1.
          2    1    1    2  502    0 -0.16597214841E+01 -0.21369981165E+02  0.34197025751E+02  0.40359228692E+02  0.00000000000E+00 0.  1.
         -2    1    1    2    0  502  0.16597214841E+01  0.21369981165E+02 -0.16267550766E+03  0.16408153937E+03  0.00000000000E+00 0. -1.
</event>
<event>
 4    1  0.5978476E+003  0.3036559E+02  0.7546771E-02  0.1416445E+00
          2   -1    0    0  501    0  0.00000000000E+00  0.00000000000E+00  0.19426280417E+04  0.19426280417E+04  0.00000000000E+00 0. -1.
         -2   -1    0    0    0  501 -0.00000000000E+00 -0.00000000000E+00 -0.67529801465E+01  0.67529801465E+01  0.00000000000E+00 0. -1.
          2    1    1    2  502    0  0.26034692361E+02 -0.15628949927E+02  0.19077496921E+04  0.19079913409E+04  0.00000000000E+00 0. -1.
         -2    1    1    2    0  502 -0.26034692361E+02  0.15628949927E+02  0.28125369495E+02  0.41389680977E+02  0.00000000000E+00 0. -1.
</event>
<event>
 4    1  0.5978476E+003  0.2701439E+02  0.7546771E-02  0.1447464E+00
          2   -1    0    0  501    0  0.00000000000E+00  0.00000000000E+00  0.23219656479E+02  0.23219656479E+02  0.00000000000E+00 0. -1.
         -2   -1    0    0    0  501 -0.00000000000E+00 -0.00000000000E+00 -0.13649987849E+03  0.13649987849E+03  0.00000000000E+00 0. -1.
          2    1    1    2  502    0 -0.30099916815E+01 -0.26846181987E+02  0.13425106054E+02  0.30166388743E+02  0.00000000000E+00 0. -1.
         -2    1    1    2    0  502  0.30099916815E+01  0.26846181987E+02 -0.12670532807E+03  0.12955314623E+03  0.00000000000E+00 0. -1.
</event>
<event>
 4    1  0.5978476E+003  0.2079914E+02  0.7546771E-02  0.1522152E+00
          2   -1    0    0  501    0  0.00000000000E+00  0.00000000000E+00  0.49390727829E+03  0.49390727829E+03  0.00000000000E+00 0.  1.
         -2   -1    0    0    0  501 -0.00000000000E+00 -0.00000000000E+00 -0.34393362550E+01  0.34393362550E+01  0.00000000000E+00 0. -1.
          2    1    1    2  502    0 -0.20514261621E+02  0.34306144646E+01  0.45992046046E+03  0.46039052335E+03  0.00000000000E+00 0.  1.
         -2    1    1    2    0  502  0.20514261621E+02 -0.34306144646E+01  0.30547481575E+02  0.36956091190E+02  0.00000000000E+00 0. -1.
</event>
<event>
 4    1  0.5978476E+003  0.2812008E+02  0.7546771E-02  0.1436670E+00
          2   -1    0    0  501    0  0.00000000000E+00  0.00000000000E+00  0.37228847053E+04  0.37228847053E+04  0.00000000000E+00 0.  1.
         -2   -1    0    0    0  501 -0.00000000000E+00 -0.00000000000E+00 -0.21319799589E+00  0.21319799589E+00  0.00000000000E+00 0.  1.
          2    1    1    2  502    0  0.37068457323E+01 -0.27874684186E+02  0.19752632270E+04  0.19754633772E+04  0.00000000000E+00 0.  1.
         -2    1    1    2    0  502 -0.37068457323E+01  0.27874684186E+02  0.17474082804E+04  0.17476345262E+04  0.00000000000E+00 0.  1.
</event>
<event>
 4    1  0.5978476E+003  0.2010297E+02  0.7546771E-02  0.1532467E+00
          2   -1    0    0  501    0  0.00000000000E+00  0.00000000000E+00  0.13039302189E+04  0.13039302189E+04  0.00000000000E+00 0. -1.
         -2   -1    0    0    0  501 -0.00000000000E+00 -0.00000000000E+00 -0.47676304423E+00  0.47676304423E+00  0.00000000000E+00 0.  1.
          2    1    1    2  502    0  0.20102369632E+02 -0.15550259447E+00  0.10375340941E+04  0.10377288306E+04  0.00000000000E+00 0. -1.
         -2    1    1    2    0  502 -0.20102369632E+02  0.15550259447E+00  0.26591936176E+03  0.26667815134E+03  0.00000000000E+00 0.  1.
</event>
<event>
 4    1  0.5978476E+003  0.3804233E+02  0.7546771E-02  0.1360356E+00
          2   -1    0    0  501    0  0.00000000000E+00  0.00000000000E+00  0.23819863021E+04  0.23819863021E+04  0.00000000000E+00 0.  1.
         -2   -1    0    0    0  501 -0.00000000000E+00 -0.00000000000E+00 -0.86404789011E+01  0.86404789011E+01  0.00000000000E+00 0. -1.
          2    1    1    2  502    0 -0.37834649055E+02  0.39696525371E+01  0.23391952477E+04  0.23395045684E+04  0.00000000000E+00 0.  1.
         -2    1    1    2    0  502  0.37834649055E+02 -0.39696525371E+01  0.34150575453E+02  0.51122212532E+02  0.00000000000E+00 0. -1.
</event>
<event>
 4    1  0.5978476E+003  0.2011123E+02  0.7546771E-02  0.1532342E+00
          2   -1    0    0  501    0  0.00000000000E+00  0.00000000000E+00  0.67722114414E+03  0.67722114414E+03  0.00000000000E+00 0.  1.
         -2   -1    0    0    0  501 -0.00000000000E+00 -0.00000000000E+00 -0.77342388344E+00  0.77342388344E+00  0.00000000000E+00 0.  1.
          2    1    1    2  502    0  0.99041352027E+01 -0.17503414751E+02  0.50002232707E+03  0.50042660699E+03  0.00000000000E+00 0.  1.
         -2    1    1    2    0  502 -0.99041352027E+01  0.17503414751E+02  0.17642539319E+03  0.17756796103E+03  0.00000000000E+00 0.  1.
</event>
<event>
 4    1  0.5978476E+003  0.2782190E+02  0.7546771E-02  0.1439522E+00
          2   -1    0    0  501    0  0.00000000000E+00  0.00000000000E+00  0.63998591651E+03  0.63998591651E+03  0.00000000000E+00 0. -1.
         -2   -1    0    0    0  501 -0.00000000000E+00 -0.00000000000E+00 -0.13450947435E+02  0.13450947435E+02  0.00000000000E+00 0.  1.
          2    1    1    2  502    0  0.25752765707E+02 -0.10528692900E+02  0.62495091363E+03  0.62556990237E+03  0.00000000000E+00 0. -1.
         -2    1    1    2    0  502 -0.25752765707E+02  0.10528692900E+02  0.15840554543E+01  0.27866961575E+02  0.00000000000E+00 0.  1.
</event>
<event>
 4    1  0.5978476E+003  0.3893390E+02  0.7546771E-02  0.1354849E+00
          2   -1    0    0  501    0  0.00000000000E+00  0.00000000000E+00  0.14598195512E+04  0.14598195512E+04  0.00000000000E+00 0. -1.
         -2   -1    0    0    0  501 -0.00000000000E+00 -0.00000000000E+00 -0.11901077289E+02  0.11901077289E+02  0.00000000000E+00 0. -1.
          2    1    1    2  502    0  0.28312232431E+02  0.26725749997E+02  0.14269847266E+04  0.14275157645E+04  0.00000000000E+00 0. -1.
         -2    1    1    2    0  502 -0.28312232431E+02 -0.26725749997E+02  0.20933747371E+02  0.44204863954E+02  0.00000000000E+00 0. -1.
</event>
<event>
 4    1  0.5978476E+003  0.3246460E+02  0.7546771E-02  0.1399321E+00
          2   -1    0    0  501    0  0.00000000000E+00  0.00000000000E+00  0.98820328567E+03  0.98820328567E+03  0.00000000000E+00 0.  1.
         -2   -1    0    0    0  501 -0.00000000000E+00 -0.00000000000E+00 -0.93623104780E+02  0.93623104780E+02  0.00000000000E+00 0.  1.
          2    1    1    2  502    0  0.22057051492E+02  0.23820927522E+02  0.98511348501E+03  0.98564827827E+03  0.00000000000E+00 0.  1.
         -2    1    1    2    0  502 -0.22057051492E+02 -0.23820927522E+02 -0.90533304117E+02  0.96178112182E+02  0.00000000000E+00 0.  1.
</event>
<event>
 4    1  0.5978476E+003  0.2232622E+02  0.7546771E-02  0.1501137E+00
          2   -1    0    0  501    0  0.00000000000E+00  0.00000000000E+00  0.49335031801E+02  0.49335031801E+02  0.00000000000E+00 0. -1.
         -2   -1    0    0    0  501 -0.00000000000E+00 -0.00000000000E+00 -0.35520460393E+02  0.35520460393E+02  0.00000000000E+00 0. -1.
          2    1    1    2  502    0 -0.22182227639E+02 -0.25315490762E+01  0.42797154718E+02  0.48270657917E+02  0.00000000000E+00 0. -1.
         -2    1    1    2    0  502  0.22182227639E+02  0.25315490762E+01 -0.28982583310E+02  0.36584834277E+02  0.00000000000E+00 0. -1.
</event>
<event>
 4    1  0.5978476E+003  0.3133249E+02  0.7546771E-02  0.1408360E+00
          2   -1    0    0  501    0  0.00000000000E+00  0.00000000000E+00  0.93529897055E+01  0.93529897055E+01  0.00000000000E+00 0. -1.
         -2   -1    0    0    0  501 -0.00000000000E+00 -0.00000000000E+00 -0.12057146743E+03  0.12057146743E+03  0.00000000000E+00 0. -1.
          2    1    1    2  502    0  0.23482836840E+02 -0.20743217903E+02 -0.32236555581E+02  0.44954646376E+02  0.00000000000E+00 0. -1.
         -2    1    1    2    0  502 -0.23482836840E+02  0.20743217903E+02 -0.78981922141E+02  0.84969810757E+02  0.00000000000E+00 0. -1.
</event>
<event>
 4    1  0.5978476E+003  0.3779910E+02  0.7546771E-02  0.1361889E+00
          2   -1    0    0  501    0  0.00000000000E+00  0.00000000000E+00  0.42462546694E+03  0.42462546694E+03  0.00000000000E+00 0.  1.
         -2   -1    0    0    0  501 -0.00000000000E+00 -0.00000000000E+00 -0.41562402437E+01  0.41562402437E+01  0.00000000000E+00 0. -1.
          2    1    1    2  502    0  0.32764921294E+02 -0.18847587874E+02  0.30379031346E+03  0.30613285709E+03  0.00000000000E+00 0.  1.
         -2    1    1    2    0  502 -0.32764921294E+02  0.18847587874E+02  0.11667891324E+03  0.12264885010E+03  0.00000000000E+00 0. -1.
</event>
<event>
 4    1  0.5978476E+003  0.2101367E+02  0.7546771E-02  0.1519070E+00
          2   -1    0    0  501    0  0.00000000000E+00  0.00000000000E+00  0.80861516371E+03  0.80861516371E+03  0.00000000000E+00 0. -1.
         -2   -1    0    0    0  501 -0.00000000000E+00 -0.00000000000E+00 -0.56917694509E+00  0.56917694509E+00  0.00000000000E+00 0. -1.
          2    1    1    2  502    0 -0.65783332505E+01 -0.19957452561E+02  0.48551284072E+03  0.48596737842E+03  0.00000000000E+00 0. -1.
         -2    1    1    2    0  502  0.65783332505E+01  0.19957452561E+02  0.32253314604E+03  0.32321696224E+03  0.00000000000E+00 0. -1.
</event>
<event>
 4    1  0.5978476E+003  0.2162308E+02  0.7546771E-02  0.1510552E+00
          2   -1    0    0  501    0  0.00000000000E+00  0.00000000000E+00  0.34458648830E+03  0.34458648830E+03  0.00000000000E+00 0.  1.
         -2   -1    0    0    0  501 -0.00000000000E+00 -0.00000000000E+00 -0.10397162504E+02  0.10397162504E+02  0.00000000000E+00 0.  1.
          2    1    1    2  502    0  0.20165193883E+02 -0.78052759827E+01  0.33260011278E+03  0.33330225381E+03  0.00000000000E+00 0.  1.
         -2    1    1    2    0  502 -0.20165193883E+02  0.78052759827E+01  0.15892130206E+01  0.21681396993E+02  0.00000000000E+00 0.  1.
</event>
<event>
 4    1  0.5978476E+003  0.4514034E+02  0.7546771E-02  0.1320739E+00
          2   -1    0    0  501    0  0.00000000000E+00  0.00000000000E+00  0.17829123347E+03  0.17829123347E+03  0.00000000000E+00 0. -1.
         -2   -1    0    0    0  501 -0.00000000000E+00 -0.00000000000E+00 -0.52370104401E+02  0.52370104401E+02  0.00000000000E+00 0. -1.
          2    1    1    2  502    0 -0.39320394813E+02  0.22171078090E+02  0.16493329975E+03  0.17099895765E+03  0.00000000000E+00 0. -1.
         -2    1    1    2    0  502  0.39320394813E+02 -0.22171078090E+02 -0.39012170682E+02  0.59662380217E+02  0.00000000000E+00 0. -1.
</event>
<event>
 4    1  0.5978476E+003  0.2320047E+02  0.7546771E-02  0.1489996E+00
          2   -1    0    0  501    0  0.00000000000E+00  0.00000000000E+00  0.94861992475E+03  0.94861992475E+03  0.00000000000E+00 0.  1.
         -2   -1    0    0    0  501 -0.00000000000E+00 -0.00000000000E+00 -0.99148242407E+01  0.99148242407E+01  0.00000000000E+00 0.  1.
          2    1    1    2  502    0 -0.79169987418E+01  0.21807868675E+02  0.93470388529E+03  0.93499177279E+03  0.00000000000E+00 0.  1.
         -2    1    1    2    0  502  0.79169987418E+01 -0.21807868675E+02  0.40012152183E+01  0.23542976202E+02  0.00000000000E+00 0.  1.
</event>
<event>
 4    1  0.5978476E+003  0.2375575E+02  0.7546771E-02  0.1483220E+00
          2   -1    0    0  501    0  0.00000000000E+00  0.00000000000E+00  0.16037180232E+03  0.16037180232E+03  0.00000000000E+00 0. -1.
         -2   -1    0    0    0  501 -0.00000000000E+00 -0.00000000000E+00 -0.90386090646E+01  0.90386090646E+01  0.00000000000E+00 0.  1.
          2    1    1    2  502    0  0.20931596865E+02  0.11234045286E+02  0.14186028975E+03  0.14383559131E+03  0.00000000000E+00 0. -1.
         -2    1    1    2    0  502 -0.20931596865E+02 -0.11234045286E+02  0.94729035052E+01  0.25574820070E+02  0.00000000000E+00 0.  1.
</event>
<event>
 4    1  0.5978476E+003  0.3533367E+02  0.7546771E-02  0.1378232E+00
          2   -1    0    0  501    0  0.00000000000E+00  0.00000000000E+00  0.14618475408E+03  0.14618475408E+03  0.00000000000E+00 0.  1.
         -2   -1    0    0    0  501 -0.00000000000E+00 -0.00000000000E+00 -0.36068451219E+02  0.36068451219E+02  0.00000000000E+00 0.  1.
          2    1    1    2  502    0  0.30744678503E+02 -0.17413586422E+02  0.13466851352E+03  0.13922671001E+03  0.00000000000E+00 0.  1.
         -2    1    1    2    0  502 -0.30744678503E+02  0.17413586422E+02 -0.24552210657E+02  0.43026495285E+02  0.00000000000E+00 0.  1.
</event>
<event>
 4    1  0.5978476E+003  0.5431007E+02  0.7546771E-02  0.1280494E+00
          2   -1    0    0  501    0  0.00000000000E+00  0.00000000000E+00  0.69559619500E+02  0.69559619500E+02  0.00000000000E+00 0.  1.
         -2   -1    0    0    0  501 -0.00000000000E+00 -0.00000000000E+00 -0.42851418674E+02  0.42851418674E+02  0.00000000000E+00 0.  1.
          2    1    1    2  502    0 -0.47710261156E+02  0.25948302919E+02  0.19099383988E+02  0.57570564638E+02  0.00000000000E+00 0.  1.
         -2    1    1    2    0  502  0.47710261156E+02 -0.25948302919E+02  0.76088168377E+01  0.54840473536E+02  0.00000000000E+00 0.  1.
</event>
<event>
 4    1  0.5978476E+003  0.2175295E+02  0.7546771E-02  0.1508781E+00
          2   -1    0    0  501    0  0.00000000000E+00  0.00000000000E+00  0.90172527153E+02  0.90172527153E+02  0.00000000000E+00 0.  1.
         -2   -1    0    0    0  501 -0.00000000000E+00 -0.00000000000E+00 -0.53451049074E+01  0.53451049074E+01  0.00000000000E+00 0.  1.
          2    1    1    2  502    0 -0.20325986495E+02  0.77488456440E+01  0.35963641395E+02  0.42030629763E+02  0.00000000000E+00 0.  1.
         -2    1    1    2    0  502  0.20325986495E+02 -0.77488456440E+01  0.48863780850E+02  0.53487002297E+02  0.00000000000E+00 0.  1.
</event>
<event>
 4    1  0.5978476E+003  0.2366641E+02  0.7546771E-02  0.1484295E+00
          2   -1    0    0  501    0  0.00000000000E+00  0.00000000000E+00  0.10388342463E+04  0.10388342463E+04  0.00000000000E+00 0.  1.
         -2   -1    0    0    0  501 -0.00000000000E+00 -0.00000000000E+00 -0.15489480139E+02  0.15489480139E+02  0.00000000000E+00 0. -1.
          2    1    1    2  502    0 -0.22500211043E+02  0.73375231944E+01  0.10295782101E+04  0.10298501781E+04  0.00000000000E+00 0.  1.
         -2    1    1    2    0  502  0.22500211043E+02 -0.73375231944E+01 -0.62334439130E+01  0.24473548305E+02  0.00000000000E+00 0. -1.
</event>
<event>
 4    1  0.5978476E+003  0.2146945E+02  0.7546771E-02  0.1512667E+00
          2   -1    0    0  501    0  0.00000000000E+00  0.00000000000E+00  0.93640757847E+03  0.93640757847E+03  0.00000000000E+00 0. -1.
         -2   -1    0    0    0  501 -0.00000000000E+00 -0.00000000000E+00 -0.12345013648E+03  0.12345013648E+03  0.00000000000E+00 0.  1.
          2    1    1    2  502    0  0.10811577387E+02 -0.18548511611E+02  0.93535001441E+03  0.93559638036E+03  0.00000000000E+00 0. -1.
         -2    1    1    2    0  502 -0.10811577387E+02  0.18548511611E+02 -0.12239257242E+03  0.12426133458E+03  0.00000000000E+00 0.  1.
</event>
<event>
 4    1  0.5978476E+003  0.3650156E+02  0.7546771E-02  0.1370303E+00
          2   -1    0    0  501    0  0.00000000000E+00  0.00000000000E+00  0.21140129219E+04  0.21140129219E+04  0.00000000000E+00 0. -1.
         -2   -1    0    0    0  501 -0.00000000000E+00 -0.00000000000E+00 -0.48199280939E+01  0.48199280939E+01  0.00000000000E+00 0. -1.
          2    1    1    2  502    0  0.25881057503E+02 -0.25739754767E+02  0.20423226817E+04  0.20426488441E+04  0.00000000000E+00 0. -1.
         -2    1    1    2    0  502 -0.25881057503E+02  0.25739754767E+02  0.66870312101E+02  0.76184005890E+02  0.00000000000E+00 0. -1.
</event>
<event>
 4    1  0.5978476E+003  0.3389198E+02  0.7546771E-02  0.1388525E+00
          2   -1    0    0  501    0  0.00000000000E+00  0.00000000000E+00  0.79798156406E+01  0.79798156406E+01  0.00000000000E+00 0. -1.
         -2   -1    0    0    0  501 -0.00000000000E+00 -0.00000000000E+00 -0.17648130440E+03  0.17648130440E+03  0.00000000000E+00 0. -1.
          2    1    1    2  502    0  0.20126063352E+02 -0.27269170562E+02 -0.44650308734E+02  0.56056365912E+02  0.00000000000E+00 0. -1.
         -2    1    1    2    0  502 -0.20126063352E+02  0.27269170562E+02 -0.12385118002E+03  0.12840475413E+03  0.00000000000E+00 0. -1.
</event>
<event>
 4    1  0.5978476E+003  0.3390742E+02  0.7546771E-02  0.1388411E+00
          2   -1    0    0  501    0  0.00000000000E+00  0.00000000000E+00  0.30580130928E+02  0.30580130928E+02  0.00000000000E+00 0. -1.
         -2   -1    0    0    0  501 -0.00000000000E+00 -0.00000000000E+00 -0.40755981911E+02  0.40755981911E+02  0.00000000000E+00 0.  1.
          2    1    1    2  502    0  0.20312560490E+02  0.27149825451E+02  0.48426729623E+01  0.34251490728E+02  0.00000000000E+00 0. -1.
         -2    1    1    2    0  502 -0.20312560490E+02 -0.27149825451E+02 -0.15018523945E+02  0.37084622112E+02  0.00000000000E+00 0.  1.
</event>
<event>
 4    1  0.5978476E+003  0.2507330E+02  0.7546771E-02  0.1467985E+00
          2   -1    0    0  501    0  0.00000000000E+00  0.00000000000E+00  0.14771942358E+03  0.14771942358E+03  0.00000000000E+00 0. -1.
         -2   -1    0    0    0  501 -0.00000000000E+00 -0.00000000000E+00 -0.36635514554E+02  0.36635514554E+02  0.00000000000E+00 0. -1.
          2    1    1    2  502    0 -0.20116104189E+02  0.14967051024E+02  0.14220019559E+03  0.14439378757E+03  0.00000000000E+00 0. -1.
         -2    1    1    2    0  502  0.20116104189E+02 -0.14967051024E+02 -0.31116286567E+02  0.39961150556E+02  0.00000000000E+00 0. -1.
</event>
<event>
 4    1  0.5978476E+003  0.2493638E+02  0.7546771E-02  0.1469516E+00
          2   -1    0    0  501    0  0.00000000000E+00  0.00000000000E+00  0.14520717003E+04  0.14520717003E+04  0.00000000000E+00 0.  1.
         -2   -1    0    0    0  501 -0.00000000000E+00 -0.00000000000E+00 -0.48613400692E+00  0.48613400692E+00  0.00000000000E+00 0. -1.
          2    1    1    2  502    0 -0.23545187800E+02  0.82126241418E+01  0.97644615291E+03  0.97676451236E+03  0.00000000000E+00 0.  1.
         -2    1    1    2    0  502  0.23545187800E+02 -0.82126241418E+01  0.47513941342E+03  0.47579332199E+03  0.00000000000E+00 0. -1.
</event>
<event>
 4    1  0.5978476E+003  0.2099064E+02  0.7546771E-02  0.1519398E+00
          2   -1    0    0  501    0  0.00000000000E+00  0.00000000000E+00  0.10936245285E+04  0.10936245285E+04  0.00000000000E+00 0. -1.
         -2   -1    0    0    0  501 -0.00000000000E+00 -0.00000000000E+00 -0.97362548314E+00  0.97362548314E+00  0.00000000000E+00 0. -1.
          2    1    1    2  502    0 -0.20340845354E+02  0.51823914274E+01  0.96535756286E+03  0.96558574520E+03  0.00000000000E+00 0. -1.
         -2    1    1    2    0  502  0.20340845354E+02 -0.51823914274E+01  0.12729334015E+03  0.12901240877E+03  0.00000000000E+00 0. -1.
</event>
<event>
 4    1  0.5978476E+003  0.3042242E+02  0.7546771E-02  0.1415960E+00
          2   -1    0    0  501    0  0.00000000000E+00  0.00000000000E+00  0.33105241265E+03  0.33105241265E+03  0.00000000000E+00 0.  1.
         -2   -1    0    0    0  501 -0.00000000000E+00 -0.00000000000E+00 -0.25364966200E+02  0.25364966200E+02  0.00000000000E+00 0. -1.
          2    1    1    2  502    0 -0.30047328453E+02  0.47625462886E+01  0.32094477683E+03  0.32238342632E+03  0.00000000000E+00 0.  1.
         -2    1    1    2    0  502  0.30047328453E+02 -0.47625462886E+01 -0.15257330378E+02  0.34033952526E+02  0.00000000000E+00 0. -1.
</event>
<event>
 4    1  0.5978476E+003  0.2725131E+02  0.7546771E-02  0.1445100E+00
          2   -1    0    0  501    0  0.00000000000E+00  0.00000000000E+00  0.16335468394E+03  0.16335468394E+03  0.00000000000E+00 0. -1.
         -2   -1    0    0    0  501 -0.00000000000E+00 -0.00000000000E+00 -0.57837439540E+01  0.57837439540E+01  0.00000000000E+00 0. -1.
          2    1    1    2  502    0  0.84966041238E+01 -0.25892885079E+02  0.11790539864E+03  0.12101370505E+03  0.00000000000E+00 0. -1.
         -2    1    1    2    0  502 -0.84966041238E+01  0.25892885079E+02  0.39665541343E+02  0.48124722850E+02  0.00000000000E+00 0. -1.
</event>
<event>
 4    1  0.5978476E+003  0.3384051E+02  0.7546771E-02  0.1388903E+00
          2   -1    0    0  501    0  0.00000000000E+00  0.00000000000E+00  0.72954119248E+03  0.72954119248E+03  0.00000000000E+00 0. -1.
         -2   -1    0    0    0  501 -0.00000000000E+00 -0.00000000000E+00 -0.38758748416E+02  0.38758748416E+02  0.00000000000E+00 0. -1.
          2    1    1    2  502    0  0.19127015682E+02  0.27916617486E+02  0.72168176973E+03  0.72247474491E+03  0.00000000000E+00 0. -1.
         -2    1    1    2    0  502 -0.19127015682E+02 -0.27916617486E+02 -0.30899325669E+02  0.45825195991E+02  0.00000000000E+00 0. -1.
</event>
<event>
 4    1  0.5978476E+003  0.2793761E+02  0.7546771E-02  0.1438410E+00
          2   -1    0    0  501    0  0.00000000000E+00  0.00000000000E+00  0.10103146206E+03  0.10103146206E+03  0.00000000000E+00 0. -1.
         -2   -1    0    0    0  501 -0.00000000000E+00 -0.00000000000E+00 -0.66723116261E+03  0.66723116261E+03  0.00000000000E+00 0.  1.
          2    1    1    2  502    0 -0.24921980075E+02 -0.12625577650E+02  0.98801189258E+02  0.10267514451E+03  0.00000000000E+00 0. -1.
         -2    1    1    2    0  502  0.24921980075E+02  0.12625577650E+02 -0.66500088980E+03  0.66558748015E+03  0.00000000000E+00 0.  1.
</event>
<event>
 4    1  0.5978476E+003  0.2205956E+02  0.7546771E-02  0.1504657E+00
          2   -1    0    0  501    0  0.00000000000E+00  0.00000000000E+00  0.38861550208E+03  0.38861550208E+03  0.00000000000E+00 0. -1.
         -2   -1    0    0    0  501 -0.00000000000E+00 -0.00000000000E+00 -0.15051166135E+03  0.15051166135E+03  0.00000000000E+00 0. -1.
          2    1    1    2  502    0  0.11963955808E+01  0.22027089478E+02  0.38749182731E+03  0.38811923460E+03  0.00000000000E+00 0. -1.
         -2    1    1    2    0  502 -0.11963955808E+01 -0.22027089478E+02 -0.14938798658E+03  0.15100792883E+03  0.00000000000E+00 0. -1.
</event>
<event>
 4    1  0.6566202E+003  0.3368378E+02  0.7546771E-02  0.1390060E+00
          2   -1    0    0  501    0  0.00000000000E+00  0.00000000000E+00  0.15192202524E+04  0.15192202524E+04  0.00000000000E+00 0. -1.
         -2   -1    0    0    0  501 -0.00000000000E+00 -0.00000000000E+00 -0.12533933235E+03  0.12533933235E+03  0.00000000000E+00 0.  1.
          2    1    1    2  502    0  0.14320447324E+02  0.30488064216E+02  0.15167668340E+04  0.15171408063E+04  0.00000000000E+00 0. -1.
         -2    1    1    2    0  502 -0.14320447324E+02 -0.30488064216E+02 -0.12288591394E+03  0.12741877850E+03  0.00000000000E+00 0.  1.
</event>
<event>
 4    1  0.5978476E+003  0.2103100E+02  0.7546771E-02  0.1518823E+00
          2   -1    0    0  501    0  0.00000000000E+00  0.00000000000E+00  0.86055787054E+00  0.86055787054E+00  0.00000000000E+00 0. -1.
         -2   -1    0    0    0  501 -0.00000000000E+00 -0.00000000000E+00 -0.91166211433E+03  0.91166211433E+03  0.00000000000E+00 0. -1.
          2    1    1    2  502    0  0.84511884235E+01  0.19258258713E+02 -0.15405242866E+03  0.15548136188E+03  0.00000000000E+00 0. -1.
         -2    1    1    2    0  502 -0.84511884235E+01 -0.19258258713E+02 -0.75674912779E+03  0.75704131032E+03  0.00000000000E+00 0. -1.
</event>
<event>
 4    1  0.5978476E+003  0.3052895E+02  0.7546771E-02  0.1415054E+00
          2   -1    0    0  501    0  0.00000000000E+00  0.00000000000E+00  0.54556371661E+02  0.54556371661E+02  0.00000000000E+00 0. -1.
         -2   -1    0    0    0  501 -0.00000000000E+00 -0.00000000000E+00 -0.31796395538E+02  0.31796395538E+02  0.00000000000E+00 0. -1.
          2    1    1    2  502    0  0.87599903964E+01 -0.29245164067E+02  0.40750093601E+02  0.50917454587E+02  0.00000000000E+00 0. -1.
         -2    1    1    2    0  502 -0.87599903964E+01  0.29245164067E+02 -0.17990117477E+02  0.35435312612E+02  0.00000000000E+00 0. -1.
</event>
<event>
 4    1  0.5978476E+003  0.3658470E+02  0.7546771E-02  0.1369752E+00
          2   -1    0    0  501    0  0.00000000000E+00  0.00000000000E+00  0.30063073053E+03  0.30063073053E+03  0.00000000000E+00 0.  1.
         -2   -1    0    0    0  501 -0.00000000000E+00 -0.00000000000E+00 -0.21344647102E+03  0.21344647102E+03  0.00000000000E+00 0. -1.
          2    1    1    2  502    0  0.13581794710E+02 -0.33970206826E+02  0.29793592449E+03  0.30017370838E+03  0.00000000000E+00 0.  1.
         -2    1    1    2    0  502 -0.13581794710E+02  0.33970206826E+02 -0.21075166498E+03  0.21390349317E+03  0.00000000000E+00 0. -1.
</event>
<event>
 4    1  0.5978476E+003  0.3501432E+02  0.7546771E-02  0.1380463E+00
          2   -1    0    0  501    0  0.00000000000E+00  0.00000000000E+00  0.42187618258E+02  0.42187618258E+02  0.00000000000E+00 0.  1.
         -2   -1    0    0    0  501 -0.00000000000E+00 -0.00000000000E+00 -0.94042963330E+02  0.94042963330E+02  0.00000000000E+00 0.  1.
          2    1    1    2  502    0 -0.27603277765E+02  0.21542089767E+02  0.30693493820E+02  0.46562787050E+02  0.00000000000E+00 0.  1.
         -2    1    1    2    0  502  0.27603277765E+02 -0.21542089767E+02 -0.82548838892E+02  0.89667794539E+02  0.00000000000E+00 0.  1.
</event>
<event>
 4    1  0.5978476E+003  0.2004986E+02  0.7546771E-02  0.1533275E+00
          2   -1    0    0  501    0  0.00000000000E+00  0.00000000000E+00  0.12438573635E+04  0.12438573635E+04  0.00000000000E+00 0. -1.
         -2   -1    0    0    0  501 -0.00000000000E+00 -0.00000000000E+00 -0.21781626224E+02  0.21781626224E+02  0.00000000000E+00 0.  1.
          2    1    1    2  502    0  0.40318515264E+01  0.19640289541E+02  0.12391450782E+04  0.12393072749E+04  0.00000000000E+00 0. -1.
         -2    1    1    2    0  502 -0.40318515264E+01 -0.19640289541E+02 -0.17069340991E+02  0.26331714753E+02  0.00000000000E+00 0.  1.
</event>
<event>
 4    1  0.5978476E+003  0.2501246E+02  0.7546771E-02  0.1468664E+00
          2   -1    0    0  501    0  0.00000000000E+00  0.00000000000E+00  0.13367544705E+03  0.13367544705E+03  0.00000000000E+00 0.  1.
         -2   -1    0    0    0  501 -0.00000000000E+00 -0.00000000000E+00 -0.86684121343E+01  0.86684121343E+01  0.00000000000E+00 0.  1.
          2    1    1    2  502    0 -0.12026020030E+02  0.21931668245E+02  0.11077937117E+03  0.11356800741E+03  0.00000000000E+00 0.  1.
         -2    1    1    2    0  502  0.12026020030E+02 -0.21931668245E+02  0.14227663745E+02  0.28775851775E+02  0.00000000000E+00 0.  1.
</event>
<event>
 4    1  0.5978476E+003  0.2429098E+02  0.7546771E-02  0.1476894E+00
          2   -1    0    0  501    0  0.00000000000E+00  0.00000000000E+00  0.16024640692E+03  0.16024640692E+03  0.00000000000E+00 0.  1.
         -2   -1    0    0    0  501 -0.00000000000E+00 -0.00000000000E+00 -0.14288423021E+02  0.14288423021E+02  0.00000000000E+00 0.  1.
          2    1    1    2  502    0 -0.22695969289E+02 -0.86570692792E+01  0.14816573822E+03  0.15014372399E+03  0.00000000000E+00 0.  1.
         -2    1    1    2    0  502  0.22695969289E+02  0.86570692792E+01 -0.22077543209E+01  0.24391105953E+02  0.00000000000E+00 0.  1.
</event>
<event>
 4    1  0.5978476E+003  0.2068200E+02  0.7546771E-02  0.1523854E+00
          2   -1    0    0  501    0  0.00000000000E+00  0.00000000000E+00  0.84684746605E+01  0.84684746605E+01  0.00000000000E+00 0.  1.
         -2   -1    0    0    0  501 -0.00000000000E+00 -0.00000000000E+00 -0.25234458408E+03  0.25234458408E+03  0.00000000000E+00 0. -1.
          2    1    1    2  502    0 -0.16900457542E+02  0.11921390068E+02 -0.53108582390E+01  0.21352990927E+02  0.00000000000E+00 0.  1.
         -2    1    1    2    0  502  0.16900457542E+02 -0.11921390068E+02 -0.23856525118E+03  0.23946006782E+03  0.00000000000E+00 0. -1.
</event>
<event>
 4    1  0.5978476E+003  0.2259980E+02  0.7546771E-02  0.1497586E+00
          2   -1    0    0  501    0  0.00000000000E+00  0.00000000000E+00  0.54593123667E+02  0.54593123667E+02  0.00000000000E+00 0.  1.
         -2   -1    0    0    0  501 -0.00000000000E+00 -0.00000000000E+00 -0.11142804898E+03  0.11142804898E+03  0.00000000000E+00 0. -1.
          2    1    1    2  502    0  0.11749393564E+01  0.22569235009E+02  0.51031916532E+02  0.55812250952E+02  0.00000000000E+00 0.  1.
         -2    1    1    2    0  502 -0.11749393564E+01 -0.22569235009E+02 -0.10786684185E+03  0.11020892170E+03  0.00000000000E+00 0. -1.
</event>
<event>
 4    1  0.5978476E+003  0.4090175E+02  0.7546771E-02  0.1343281E+00
          2   -1    0    0  501    0  0.00000000000E+00  0.00000000000E+00  0.92545316238E+03  0.92545316238E+03  0.00000000000E+00 0.  1.
         -2   -1    0    0    0  501 -0.00000000000E+00 -0.00000000000E+00 -0.37451791819E+01  0.37451791819E+01  0.00000000000E+00 0.  1.
          2    1    1    2  502    0  0.25825865522E+02  0.31717156457E+02  0.79501766781E+03  0.79606912104E+03  0.00000000000E+00 0.  1.
         -2    1    1    2    0  502 -0.25825865522E+02 -0.31717156457E+02  0.12669031539E+03  0.13312922053E+03  0.00000000000E+00 0.  1.
</event>
<event>
 4    1  0.5978476E+003  0.2220357E+02  0.7546771E-02  0.1502749E+00
          2   -1    0    0  501    0  0.00000000000E+00  0.00000000000E+00  0.11356529781E+02  0.11356529781E+02  0.00000000000E+00 0.  1.
         -2   -1    0    0    0  501 -0.00000000000E+00 -0.00000000000E+00 -0.11102831082E+03  0.11102831082E+03  0.00000000000E+00 0.  1.
          2    1    1    2  502    0 -0.20800635546E+02 -0.77673777052E+01 -0.20819040085E+01  0.22300962308E+02  0.00000000000E+00 0.  1.
         -2    1    1    2    0  502  0.20800635546E+02  0.77673777052E+01 -0.97589877031E+02  0.10008387829E+03  0.00000000000E+00 0.  1.
</event>
<event>
 4    1  0.5978476E+003  0.2830078E+02  0.7546771E-02  0.1434962E+00
          2   -1    0    0  501    0  0.00000000000E+00  0.00000000000E+00  0.10341647477E+03  0.10341647477E+03  0.00000000000E+00 0.  1.
         -2   -1    0    0    0  501 -0.00000000000E+00 -0.00000000000E+00 -0.30723174732E+02  0.30723174732E+02  0.00000000000E+00 0. -1.
          2    1    1    2  502    0  0.21620989468E+02 -0.18261082119E+02  0.94350162332E+02  0.98503235672E+02  0.00000000000E+00 0.  1.
         -2    1    1    2    0  502 -0.21620989468E+02  0.18261082119E+02 -0.21656862299E+02  0.35636413826E+02  0.00000000000E+00 0. -1.
</event>
<event>
 4    1  0.5978476E+003  0.2777484E+02  0.7546771E-02  0.1439976E+00
          2   -1    0    0  501    0  0.00000000000E+00  0.00000000000E+00  0.15929037268E+04  0.15929037268E+04  0.00000000000E+00 0.  1.
         -2   -1    0    0    0  501 -0.00000000000E+00 -0.00000000000E+00 -0.33746832853E+01  0.33746832853E+01  0.00000000000E+00 0.  1.
          2    1    1    2  502    0 -0.14655683936E+02 -0.23593491619E+02  0.15334165869E+04  0.15336681098E+04  0.00000000000E+00 0.  1.
         -2    1    1    2    0  502  0.14655683936E+02  0.23593491619E+02  0.56112456544E+02  0.62610300253E+02  0.00000000000E+00 0.  1.
</event>
<event>
 4    1  0.5978476E+003  0.2126583E+02  0.7546771E-02  0.1515503E+00
          2   -1    0    0  501    0  0.00000000000E+00  0.00000000000E+00  0.71109965258E+03  0.71109965258E+03  0.00000000000E+00 0.  1.
         -2   -1    0    0    0  501 -0.00000000000E+00 -0.00000000000E+00 -0.26297574658E+01  0.26297574658E+01  0.00000000000E+00 0.  1.
          2    1    1    2  502    0 -0.14851219385E+02 -0.15220934084E+02  0.66496664785E+03  0.66530660474E+03  0.00000000000E+00 0.  1.
         -2    1    1    2    0  502  0.14851219385E+02  0.15220934084E+02  0.43503247265E+02  0.48422805311E+02  0.00000000000E+00 0.  1.
</event>
<event>
 4    1  0.5978476E+003  0.2180468E+02  0.7546771E-02  0.1508079E+00
          2   -1    0    0  501    0  0.00000000000E+00  0.00000000000E+00  0.10966429958E+02  0.10966429958E+02  0.00000000000E+00 0. -1.
         -2   -1    0    0    0  501 -0.00000000000E+00 -0.00000000000E+00 -0.23951191318E+03  0.23951191318E+03  0.00000000000E+00 0. -1.
          2    1    1    2  502    0  0.17811818211E+02  0.12577088551E+02 -0.93384105222E+00  0.21824666859E+02  0.00000000000E+00 0. -1.
         -2    1    1    2    0  502 -0.17811818211E+02 -0.12577088551E+02 -0.22761164217E+03  0.22865367627E+03  0.00000000000E+00 0. -1.
</event>
<event>
 4    1  0.5978476E+003  0.3172183E+02  0.7546771E-02  0.1405201E+00
          2   -1    0    0  501    0  0.00000000000E+00  0.00000000000E+00  0.70171809497E+01  0.70171809497E+01  0.00000000000E+00 0. -1.
         -2   -1    0    0    0  501 -0.00000000000E+00 -0.00000000000E+00 -0.15482451608E+03  0.15482451608E+03  0.00000000000E+00 0.  1.
          2    1    1    2  502    0 -0.25720507486E+02  0.18566885251E+02 -0.95883907120E+02  0.10099503640E+03  0.00000000000E+00 0. -1.
         -2    1    1    2    0  502  0.25720507486E+02 -0.18566885251E+02 -0.51923428015E+02  0.60846660632E+02  0.00000000000E+00 0.  1.
</event>
<event>
 4    1  0.5978476E+003  0.2528790E+02  0.7546771E-02  0.1465608E+00
          2   -1    0    0  501    0  0.00000000000E+00  0.00000000000E+00  0.71857816474E+03  0.71857816474E+03  0.00000000000E+00 0. -1.
         -2   -1    0    0    0  501 -0.00000000000E+00 -0.00000000000E+00 -0.23975686999E+02  0.23975686999E+02  0.00000000000E+00 0.  1.
          2    1    1    2  502    0 -0.19408714122E+02  0.16210477516E+02  0.71162254851E+03  0.71207171641E+03  0.00000000000E+00 0. -1.
         -2    1    1    2    0  502  0.19408714122E+02 -0.16210477516E+02 -0.17020070769E+02  0.30482135328E+02  0.00000000000E+00 0.  1.
</event>
<event>
 4    1  0.5978476E+003  0.2610212E+02  0.7546771E-02  0.1456842E+00
          2   -1    0    0  501    0  0.00000000000E+00  0.00000000000E+00  0.46676361631E+03  0.46676361631E+03  0.00000000000E+00 0.  1.
         -2   -1    0    0    0  501 -0.00000000000E+00 -0.00000000000E+00 -0.15492853308E+01  0.15492853308E+01  0.00000000000E+00 0.  1.
          2    1    1    2  502    0  0.17788879052E+02  0.19101743955E+02  0.28892314197E+03  0.29009981525E+03  0.00000000000E+00 0.  1.
         -2    1    1    2    0  502 -0.17788879052E+02 -0.19101743955E+02  0.17629118901E+03  0.17821308640E+03  0.00000000000E+00 0.  1.
</event>
<event>
 4    1  0.5978476E+003  0.2206929E+02  0.7546771E-02  0.1504528E+00
          2   -1    0    0  501    0  0.00000000000E+00  0.00000000000E+00  0.96853276099E+03  0.96853276099E+03  0.00000000000E+00 0. -1.
         -2   -1    0    0    0  501 -0.00000000000E+00 -0.00000000000E+00 -0.76193110421E+01  0.76193110421E+01  0.00000000000E+00 0. -1.
          2    1    1    2  502    0 -0.76566745166E+01  0.20698524060E+02  0.95215123874E+03  0.95240696921E+03  0.00000000000E+00 0. -1.
         -2    1    1    2    0  502  0.76566745166E+01 -0.20698524060E+02  0.87622112106E+01  0.23745102826E+02  0.00000000000E+00 0. -1.
</event>
<event>
 4    1  0.5978476E+003  0.2519160E+02  0.7546771E-02  0.1466671E+00
          2   -1    0    0  501    0  0.00000000000E+00  0.00000000000E+00  0.19683088854E+03  0.19683088854E+03  0.00000000000E+00 0.  1.
         -2   -1    0    0    0  501 -0.00000000000E+00 -0.00000000000E+00 -0.39741801241E+02  0.39741801241E+02  0.00000000000E+00 0.  1.
          2    1    1    2  502    0  0.96920320700E+01  0.23252553648E+02  0.19193124556E+03  0.19357742575E+03  0.00000000000E+00 0.  1.
         -2    1    1    2    0  502 -0.96920320700E+01 -0.23252553648E+02 -0.34842158263E+02  0.42995264032E+02  0.00000000000E+00 0.  1.
</event>
<event>
 4    1  0.5978476E+003  0.2191737E+02  0.7546771E-02  0.1506559E+00
          2   -1    0    0  501    0  0.00000000000E+00  0.00000000000E+00  0.52172578645E+02  0.52172578645E+02  0.00000000000E+00 0.  1.
         -2   -1    0    0    0  501 -0.00000000000E+00 -0.00000000000E+00 -0.25045490088E+02  0.25045490088E+02  0.00000000000E+00 0. -1.
          2    1    1    2  502    0  0.35518604357E+01 -0.21627650402E+02  0.44266226655E+02  0.49395038179E+02  0.00000000000E+00 0.  1.
         -2    1    1    2    0  502 -0.35518604357E+01  0.21627650402E+02 -0.17139138098E+02  0.27823030554E+02  0.00000000000E+00 0. -1.
</event>
<event>
 4    1  0.5978476E+003  0.4022465E+02  0.7546771E-02  0.1347174E+00
          2   -1    0    0  501    0  0.00000000000E+00  0.00000000000E+00  0.32712785963E+03  0.32712785963E+03  0.00000000000E+00 0. -1.
         -2   -1    0    0    0  501 -0.00000000000E+00 -0.00000000000E+00 -0.50161694044E+02  0.50161694044E+02  0.00000000000E+00 0. -1.
          2    1    1    2  502    0 -0.40031670076E+02 -0.39354525964E+01  0.31758596864E+03  0.32012321046E+03  0.00000000000E+00 0. -1.
         -2    1    1    2    0  502  0.40031670076E+02  0.39354525964E+01 -0.40619803057E+02  0.57166343215E+02  0.00000000000E+00 0. -1.
</event>
<event>
 4    1  0.5978476E+003  0.2439066E+02  0.7546771E-02  0.1475737E+00
          2   -1    0    0  501    0  0.00000000000E+00  0.00000000000E+00  0.31420300200E+02  0.31420300200E+02  0.00000000000E+00 0. -1.
         -2   -1    0    0    0  501 -0.00000000000E+00 -0.00000000000E+00 -0.52891783517E+02  0.52891783517E+02  0.00000000000E+00 0.  1.
          2    1    1    2  502    0 -0.24104819275E+02  0.37231685256E+01  0.23042493078E+02  0.33553849010E+02  0.00000000000E+00 0. -1.
         -2    1    1    2    0  502  0.24104819275E+02 -0.37231685256E+01 -0.44513976394E+02  0.50758234707E+02  0.00000000000E+00 0.  1.
</event>
<event>
 4    1  0.5978476E+003  0.6038770E+02  0.7546771E-02  0.1258521E+00
          2   -1    0    0  501    0  0.00000000000E+00  0.00000000000E+00  0.10469952983E+04  0.10469952983E+04  0.00000000000E+00 0. -1.
         -2   -1    0    0    0  501 -0.00000000000E+00 -0.00000000000E+00 -0.45073710812E+01  0.45073710812E+01  0.00000000000E+00 0. -1.
          2    1    1    2  502    0 -0.43670893432E+02  0.41707647853E+02  0.77188337733E+03  0.77424196671E+03  0.00000000000E+00 0. -1.
         -2    1    1    2    0  502  0.43670893432E+02 -0.41707647853E+02  0.27060454986E+03  0.27726070264E+03  0.00000000000E+00 0. -1.
</event>
<event>
 4    1  0.5978476E+003  0.7309001E+02  0.7546771E-02  0.1220867E+00
          2   -1    0    0  501    0  0.00000000000E+00  0.00000000000E+00  0.85883956713E+03  0.85883956713E+03  0.00000000000E+00 0.  1.
         -2   -1    0    0    0  501 -0.00000000000E+00 -0.00000000000E+00 -0.90175212063E+02  0.90175212063E+02  0.00000000000E+00 0.  1.
          2    1    1    2  502    0 -0.54400533262E+02  0.48813236574E+02  0.84218165156E+03  0.84534731579E+03  0.00000000000E+00 0.  1.
         -2    1    1    2    0  502  0.54400533262E+02 -0.48813236574E+02 -0.73517296497E+02  0.10366746340E+03  0.00000000000E+00 0.  1.
</event>
<event>
 4    1  0.5978476E+003  0.3142680E+02  0.7546771E-02  0.1407590E+00
          2   -1    0    0  501    0  0.00000000000E+00  0.00000000000E+00  0.73635771249E+03  0.73635771249E+03  0.00000000000E+00 0.  1.
         -2   -1    0    0    0  501 -0.00000000000E+00 -0.00000000000E+00 -0.34263687905E+02  0.34263687905E+02  0.00000000000E+00 0. -1.
          2    1    1    2  502    0 -0.29096889435E+02 -0.11874956308E+02  0.72874091741E+03  0.72941823960E+03  0.00000000000E+00 0.  1.
         -2    1    1    2    0  502  0.29096889435E+02  0.11874956308E+02 -0.26646892822E+02  0.41203160791E+02  0.00000000000E+00 0. -1.
</event>
<event>
 4    1  0.5978476E+003  0.2166681E+02  0.7546771E-02  0.1509954E+00
          2   -1    0    0  501    0  0.00000000000E+00  0.00000000000E+00  0.53666538393E+02  0.53666538393E+02  0.00000000000E+00 0. -1.
         -2   -1    0    0    0  501 -0.00000000000E+00 -0.00000000000E+00 -0.58197727140E+02  0.58197727140E+02  0.00000000000E+00 0.  1.
          2    1    1    2  502    0  0.20764906601E+02  0.61862035590E+01  0.49291960844E+02  0.53843735611E+02  0.00000000000E+00 0. -1.
         -2    1    1    2    0  502 -0.20764906601E+02 -0.61862035590E+01 -0.53823149591E+02  0.58020529923E+02  0.00000000000E+00 0.  1.
</event>
<event>
 4    1  0.5978476E+003  0.2719113E+02  0.7546771E-02  0.1445698E+00
          2   -1    0    0  501    0  0.00000000000E+00  0.00000000000E+00  0.10679318562E+04  0.10679318562E+04  0.00000000000E+00 0. -1.
         -2   -1    0    0    0  501 -0.00000000000E+00 -0.00000000000E+00 -0.24120569469E+02  0.24120569469E+02  0.00000000000E+00 0.  1.
          2    1    1    2  502    0  0.19974426759E+02 -0.18449389962E+02  0.10600385771E+04  0.10603872607E+04  0.00000000000E+00 0. -1.
         -2    1    1    2    0  502 -0.19974426759E+02  0.18449389962E+02 -0.16227290426E+02  0.31665164911E+02  0.00000000000E+00 0.  1.
</event>
<event>
 4    1  0.5978476E+003  0.2434614E+02  0.7546771E-02  0.1476253E+00
          2   -1    0    0  501    0  0.00000000000E+00  0.00000000000E+00  0.82073543260E+00  0.82073543260E+00  0.00000000000E+00 0.  1.
         -2   -1    0    0    0  501 -0.00000000000E+00 -0.00000000000E+00 -0.73010400609E+03  0.73010400609E+03  0.00000000000E+00 0. -1.
          2    1    1    2  502    0 -0.15447714036E+02 -0.18817618787E+02 -0.32661480520E+03  0.32752093921E+03  0.00000000000E+00 0. -1.
         -2    1    1    2    0  502  0.15447714036E+02  0.18817618787E+02 -0.40266846546E+03  0.40340380232E+03  0.00000000000E+00 0.  1.
</event>
<event>
 4    1  0.5978476E+003  0.2335768E+02  0.7546771E-02  0.1488055E+00
          2   -1    0    0  501    0  0.00000000000E+00  0.00000000000E+00  0.41604415435E+03  0.41604415435E+03  0.00000000000E+00 0.  1.
         -2   -1    0    0    0  501 -0.00000000000E+00 -0.00000000000E+00 -0.38466541615E+03  0.38466541615E+03  0.00000000000E+00 0. -1.
          2    1    1    2  502    0  0.20934357003E+02  0.10360213898E+02  0.41536115141E+03  0.41601738838E+03  0.00000000000E+00 0.  1.
         -2    1    1    2    0  502 -0.20934357003E+02 -0.10360213898E+02 -0.38398241321E+03  0.38469218213E+03  0.00000000000E+00 0. -1.
</event>
<event>
 4    1  0.5978476E+003  0.2870852E+02  0.7546771E-02  0.1431161E+00
          2   -1    0    0  501    0  0.00000000000E+00  0.00000000000E+00  0.66642533159E+03  0.66642533159E+03  0.00000000000E+00 0.  1.
         -2   -1    0    0    0  501 -0.00000000000E+00 -0.00000000000E+00 -0.18285692864E+01  0.18285692864E+01  0.00000000000E+00 0.  1.
          2    1    1    2  502    0  0.26868305928E+02 -0.10113034335E+02  0.52238982829E+03  0.52317808825E+03  0.00000000000E+00 0.  1.
         -2    1    1    2    0  502 -0.26868305928E+02  0.10113034335E+02  0.14220693401E+03  0.14507581262E+03  0.00000000000E+00 0.  1.
</event>
<event>
 4    1  0.5978476E+003  0.2649172E+02  0.7546771E-02  0.1452782E+00
          2   -1    0    0  501    0  0.00000000000E+00  0.00000000000E+00  0.13201863542E+03  0.13201863542E+03  0.00000000000E+00 0. -1.
         -2   -1    0    0    0  501 -0.00000000000E+00 -0.00000000000E+00 -0.23675639819E+03  0.23675639819E+03  0.00000000000E+00 0. -1.
          2    1    1    2  502    0 -0.25925024352E+02  0.54501594056E+01  0.12993681414E+03  0.13260990458E+03  0.00000000000E+00 0. -1.
         -2    1    1    2    0  502  0.25925024352E+02 -0.54501594056E+01 -0.23467457691E+03  0.23616512903E+03  0.00000000000E+00 0. -1.
</event>
<event>
 4    1  0.5978476E+003  0.2578967E+02  0.7546771E-02  0.1460160E+00
          2   -1    0    0  501    0  0.00000000000E+00  0.00000000000E+00  0.44955133739E+03  0.44955133739E+03  0.00000000000E+00 0. -1.
         -2   -1    0    0    0  501 -0.00000000000E+00 -0.00000000000E+00 -0.39546001816E+03  0.39546001816E+03  0.00000000000E+00 0.  1.
          2    1    1    2  502    0 -0.19110020472E+01  0.25718771905E+02  0.44876025983E+03  0.44950069851E+03  0.00000000000E+00 0. -1.
         -2    1    1    2    0  502  0.19110020472E+01 -0.25718771905E+02 -0.39466894060E+03  0.39551065704E+03  0.00000000000E+00 0.  1.
</event>
<event>
 4    1  0.5978476E+003  0.2433816E+02  0.7546771E-02  0.1476345E+00
          2   -1    0    0  501    0  0.00000000000E+00  0.00000000000E+00  0.15179723316E+01  0.15179723316E+01  0.00000000000E+00 0. -1.
         -2   -1    0    0    0  501 -0.00000000000E+00 -0.00000000000E+00 -0.47449232347E+03  0.47449232347E+03  0.00000000000E+00 0. -1.
          2    1    1    2  502    0 -0.48468971276E+01  0.23850649177E+02 -0.13618516671E+03  0.13834285493E+03  0.00000000000E+00 0. -1.
         -2    1    1    2    0  502  0.48468971276E+01 -0.23850649177E+02 -0.33678918442E+03  0.33766744087E+03  0.00000000000E+00 0. -1.
</event>
<event>
 4    1  0.5978476E+003  0.2920913E+02  0.7546771E-02  0.1426596E+00
          2   -1    0    0  501    0  0.00000000000E+00  0.00000000000E+00  0.72912750561E+03  0.72912750561E+03  0.00000000000E+00 0. -1.
         -2   -1    0    0    0  501 -0.00000000000E+00 -0.00000000000E+00 -0.24120644110E+01  0.24120644110E+01  0.00000000000E+00 0. -1.
          2    1    1    2  502    0 -0.22509758597E+02  0.18614087617E+02  0.62581753751E+03  0.62649881384E+03  0.00000000000E+00 0. -1.
         -2    1    1    2    0  502  0.22509758597E+02 -0.18614087617E+02  0.10089790369E+03  0.10504075618E+03  0.00000000000E+00 0. -1.
</event>
<event>
 4    1  0.5978476E+003  0.3043826E+02  0.7546771E-02  0.1415825E+00
          2   -1    0    0  501    0  0.00000000000E+00  0.00000000000E+00  0.29839363184E+02  0.29839363184E+02  0.00000000000E+00 0.  1.
         -2   -1    0    0    0  501 -0.00000000000E+00 -0.00000000000E+00 -0.92617642269E+02  0.92617642269E+02  0.00000000000E+00 0.  1.
          2    1    1    2  502    0 -0.73973113607E+01 -0.29525712706E+02  0.18532163462E+02  0.35636063317E+02  0.00000000000E+00 0.  1.
         -2    1    1    2    0  502  0.73973113607E+01  0.29525712706E+02 -0.81310442547E+02  0.86820942135E+02  0.00000000000E+00 0.  1.
</event>
<event>
 4    1  0.5978476E+003  0.2231446E+02  0.7546771E-02  0.1501291E+00
          2   -1    0    0  501    0  0.00000000000E+00  0.00000000000E+00  0.94072963012E+03  0.94072963012E+03  0.00000000000E+00 0. -1.
         -2   -1    0    0    0  501 -0.00000000000E+00 -0.00000000000E+00 -0.54274726778E+00  0.54274726778E+00  0.00000000000E+00 0. -1.
          2    1    1    2  502    0  0.18206448671E+02  0.12901945743E+02  0.54415400986E+03  0.54461134897E+03  0.00000000000E+00 0. -1.
         -2    1    1    2    0  502 -0.18206448671E+02 -0.12901945743E+02  0.39603287299E+03  0.39666102842E+03  0.00000000000E+00 0. -1.
</event>
<event>
 4    1  0.5978476E+003  0.6119852E+02  0.7546771E-02  0.1255814E+00
          2   -1    0    0  501    0  0.00000000000E+00  0.00000000000E+00  0.12628681140E+02  0.12628681140E+02  0.00000000000E+00 0. -1.
         -2   -1    0    0    0  501 -0.00000000000E+00 -0.00000000000E+00 -0.62210634484E+03  0.62210634484E+03  0.00000000000E+00 0.  1.
          2    1    1    2  502    0  0.22206669905E+02  0.57027381524E+02 -0.75160204655E+02  0.96924273511E+02  0.00000000000E+00 0. -1.
         -2    1    1    2    0  502 -0.22206669905E+02 -0.57027381524E+02 -0.53431745905E+03  0.53781075247E+03  0.00000000000E+00 0.  1.
</event>
<event>
 4    1  0.5978476E+003  0.2824219E+02  0.7546771E-02  0.1435514E+00
          2   -1    0    0  501    0  0.00000000000E+00  0.00000000000E+00  0.10662825888E+03  0.10662825888E+03  0.00000000000E+00 0. -1.
         -2   -1    0    0    0  501 -0.00000000000E+00 -0.00000000000E+00 -0.83565105145E+01  0.83565105145E+01  0.00000000000E+00 0.  1.
          2    1    1    2  502    0 -0.79821013792E+01  0.27090725670E+02  0.67751551398E+02  0.73402275691E+02  0.00000000000E+00 0. -1.
         -2    1    1    2    0  502  0.79821013792E+01 -0.27090725670E+02  0.30520196969E+02  0.41582493705E+02  0.00000000000E+00 0.  1.
</event>
<event>
 4    1  0.5978476E+003  0.3505734E+02  0.7546771E-02  0.1380161E+00
          2   -1    0    0  501    0  0.00000000000E+00  0.00000000000E+00  0.27426993632E+02  0.27426993632E+02  0.00000000000E+00 0.  1.
         -2   -1    0    0    0  501 -0.00000000000E+00 -0.00000000000E+00 -0.73509594783E+02  0.73509594783E+02  0.00000000000E+00 0.  1.
          2    1    1    2  502    0  0.20895679241E+02 -0.28149376478E+02  0.84928289066E+01  0.36071386859E+02  0.00000000000E+00 0.  1.
         -2    1    1    2    0  502 -0.20895679241E+02  0.28149376478E+02 -0.54575430057E+02  0.64865201557E+02  0.00000000000E+00 0.  1.
</event>
<event>
 4    1  0.5978476E+003  0.2300446E+02  0.7546771E-02  0.1492442E+00
          2   -1    0    0  501    0  0.00000000000E+00  0.00000000000E+00  0.82756406312E+03  0.82756406312E+03  0.00000000000E+00 0. -1.
         -2   -1    0    0    0  501 -0.00000000000E+00 -0.00000000000E+00 -0.11012294879E+01  0.11012294879E+01  0.00000000000E+00 0.  1.
          2    1    1    2  502    0 -0.18491133873E+02 -0.13685147225E+02  0.68152884305E+03  0.68191698116E+03  0.00000000000E+00 0. -1.
         -2    1    1    2    0  502  0.18491133873E+02  0.13685147225E+02  0.14493399058E+03  0.14674831145E+03  0.00000000000E+00 0.  1.
</event>
<event>
 4    1  0.5978476E+003  0.2258200E+02  0.7546771E-02  0.1497815E+00
          2   -1    0    0  501    0  0.00000000000E+00  0.00000000000E+00  0.12843719425E+03  0.12843719425E+03  0.00000000000E+00 0. -1.
         -2   -1    0    0    0  501 -0.00000000000E+00 -0.00000000000E+00 -0.94135675738E+01  0.94135675738E+01  0.00000000000E+00 0.  1.
          2    1    1    2  502    0 -0.17300066893E+02 -0.14513934299E+02  0.11192348835E+03  0.11417886778E+03  0.00000000000E+00 0. -1.
         -2    1    1    2    0  502  0.17300066893E+02  0.14513934299E+02  0.71001383276E+01  0.23671894044E+02  0.00000000000E+00 0.  1.
</event>
<event>
 4    1  0.5978476E+003  0.3027893E+02  0.7546771E-02  0.1417188E+00
          2   -1    0    0  501    0  0.00000000000E+00  0.00000000000E+00  0.26836074476E+03  0.26836074476E+03  0.00000000000E+00 0. -1.
         -2   -1    0    0    0  501 -0.00000000000E+00 -0.00000000000E+00 -0.50563233209E+02  0.50563233209E+02  0.00000000000E+00 0.  1.
          2    1    1    2  502    0  0.85808834269E+01  0.29037595367E+02  0.26287944696E+03  0.26461749213E+03  0.00000000000E+00 0. -1.
         -2    1    1    2    0  502 -0.85808834269E+01 -0.29037595367E+02 -0.45081935405E+02  0.54306485846E+02  0.00000000000E+00 0.  1.
</event>
<event>
 4    1  0.5978476E+003  0.2049364E+02  0.7546771E-02  0.1526619E+00
          2   -1    0    0  501    0  0.00000000000E+00  0.00000000000E+00  0.11541152339E+03  0.11541152339E+03  0.00000000000E+00 0. -1.
         -2   -1    0    0    0  501 -0.00000000000E+00 -0.00000000000E+00 -0.22799601813E+02  0.22799601813E+02  0.00000000000E+00 0. -1.
          2    1    1    2  502    0  0.10862317522E+02 -0.17378122906E+02  0.10965693592E+03  0.11155551395E+03  0.00000000000E+00 0. -1.
         -2    1    1    2    0  502 -0.10862317522E+02  0.17378122906E+02 -0.17045014337E+02  0.26655611256E+02  0.00000000000E+00 0. -1.
</event>
<event>
 4    1  0.5978476E+003  0.2397952E+02  0.7546771E-02  0.1480551E+00
          2   -1    0    0  501    0  0.00000000000E+00  0.00000000000E+00  0.70629632673E+02  0.70629632673E+02  0.00000000000E+00 0.  1.
         -2   -1    0    0    0  501 -0.00000000000E+00 -0.00000000000E+00 -0.10424093756E+02  0.10424093756E+02  0.00000000000E+00 0.  1.
          2    1    1    2  502    0 -0.23240952784E+02 -0.59055527310E+01  0.49067934252E+02  0.54613914080E+02  0.00000000000E+00 0.  1.
         -2    1    1    2    0  502  0.23240952784E+02  0.59055527310E+01  0.11137604666E+02  0.26439812349E+02  0.00000000000E+00 0.  1.
</event>
<event>
 4    1  0.5978476E+003  0.5692888E+02  0.7546771E-02  0.1270640E+00
          2   -1    0    0  501    0  0.00000000000E+00  0.00000000000E+00  0.16083484722E+04  0.16083484722E+04  0.00000000000E+00 0.  1.
         -2   -1    0    0    0  501 -0.00000000000E+00 -0.00000000000E+00 -0.20183704983E+01  0.20183704983E+01  0.00000000000E+00 0.  1.
          2    1    1    2  502    0  0.60377926357E+01  0.56607763244E+02  0.77047970370E+03  0.77258000726E+03  0.00000000000E+00 0.  1.
         -2    1    1    2    0  502 -0.60377926357E+01 -0.56607763244E+02  0.83585039800E+03  0.83778683544E+03  0.00000000000E+00 0.  1.
</event>
<event>
 4    1  0.5978476E+003  0.2292400E+02  0.7546771E-02  0.1493455E+00
          2   -1    0    0  501    0  0.00000000000E+00  0.00000000000E+00  0.34814720999E+03  0.34814720999E+03  0.00000000000E+00 0.  1.
         -2   -1    0    0    0  501 -0.00000000000E+00 -0.00000000000E+00 -0.23257437042E+01  0.23257437042E+01  0.00000000000E+00 0.  1.
          2    1    1    2  502    0 -0.22842213260E+02  0.19346955040E+01  0.27672752733E+03  0.27767541147E+03  0.00000000000E+00 0.  1.
         -2    1    1    2    0  502  0.22842213260E+02 -0.19346955040E+01  0.69093938953E+02  0.72797542221E+02  0.00000000000E+00 0.  1.
</event>
<event>
 4    1  0.5978476E+003  0.2047958E+02  0.7546771E-02  0.1526826E+00
          2   -1    0    0  501    0  0.00000000000E+00  0.00000000000E+00  0.29809124623E+02  0.29809124623E+02  0.00000000000E+00 0.  1.
         -2   -1    0    0    0  501 -0.00000000000E+00 -0.00000000000E+00 -0.73727414794E+02  0.73727414794E+02  0.00000000000E+00 0.  1.
          2    1    1    2  502    0 -0.12597033759E+02 -0.16147066996E+02  0.24608205131E+02  0.32015258735E+02  0.00000000000E+00 0.  1.
         -2    1    1    2    0  502  0.12597033759E+02  0.16147066996E+02 -0.68526495302E+02  0.71521280683E+02  0.00000000000E+00 0.  1.
</event>
<event>
 4    1  0.5978476E+003  0.4456289E+02  0.7546771E-02  0.1323640E+00
          2   -1    0    0  501    0  0.00000000000E+00  0.00000000000E+00  0.25046453778E+03  0.25046453778E+03  0.00000000000E+00 0.  1.
         -2   -1    0    0    0  501 -0.00000000000E+00 -0.00000000000E+00 -0.23604815425E+02  0.23604815425E+02  0.00000000000E+00 0. -1.
          2    1    1    2  502    0 -0.37114389893E+02  0.24665222913E+02  0.22510327419E+03  0.22947186148E+03  0.00000000000E+00 0.  1.
         -2    1    1    2    0  502  0.37114389893E+02 -0.24665222913E+02  0.17564481656E+01  0.44597491730E+02  0.00000000000E+00 0. -1.
</event>
<event>
 4    1  0.5978476E+003  0.2975029E+02  0.7546771E-02  0.1421779E+00
          2   -1    0    0  501    0  0.00000000000E+00  0.00000000000E+00  0.18949257518E+03  0.18949257518E+03  0.00000000000E+00 0. -1.
         -2   -1    0    0    0  501 -0.00000000000E+00 -0.00000000000E+00 -0.11950939901E+03  0.11950939901E+03  0.00000000000E+00 0. -1.
          2    1    1    2  502    0 -0.84702829093E+01  0.28519008434E+02  0.18644330250E+03  0.18880197186E+03  0.00000000000E+00 0. -1.
         -2    1    1    2    0  502  0.84702829093E+01 -0.28519008434E+02 -0.11646012633E+03  0.12020000233E+03  0.00000000000E+00 0. -1.
</event>
<event>
 4    1  0.5978476E+003  0.2514762E+02  0.7546771E-02  0.1467159E+00
          2   -1    0    0  501    0  0.00000000000E+00  0.00000000000E+00  0.27953971191E+02  0.27953971191E+02  0.00000000000E+00 0. -1.
         -2   -1    0    0    0  501 -0.00000000000E+00 -0.00000000000E+00 -0.63355256941E+02  0.63355256941E+02  0.00000000000E+00 0.  1.
          2    1    1    2  502    0 -0.24498828928E+02 -0.56753997302E+01  0.18906224654E+02  0.31461851688E+02  0.00000000000E+00 0. -1.
         -2    1    1    2    0  502  0.24498828928E+02  0.56753997302E+01 -0.54307510405E+02  0.59847376445E+02  0.00000000000E+00 0.  1.
</event>
<event>
 4    1  0.5978476E+003  0.2495097E+02  0.7546771E-02  0.1469353E+00
          2   -1    0    0  501    0  0.00000000000E+00  0.00000000000E+00  0.29694730025E+02  0.29694730025E+02  0.00000000000E+00 0. -1.
         -2   -1    0    0    0  501 -0.00000000000E+00 -0.00000000000E+00 -0.59103663401E+03  0.59103663401E+03  0.00000000000E+00 0. -1.
          2    1    1    2  502    0  0.91499202528E+00  0.24934187596E+02  0.24140442691E+02  0.34717602088E+02  0.00000000000E+00 0. -1.
         -2    1    1    2    0  502 -0.91499202528E+00 -0.24934187596E+02 -0.58548234668E+03  0.58601376195E+03  0.00000000000E+00 0. -1.
</event>
<event>
 4    1  0.5978476E+003  0.2167644E+02  0.7546771E-02  0.1509822E+00
          2   -1    0    0  501    0  0.00000000000E+00  0.00000000000E+00  0.18452407445E+03  0.18452407445E+03  0.00000000000E+00 0. -1.
         -2   -1    0    0    0  501 -0.00000000000E+00 -0.00000000000E+00 -0.15704523114E+03  0.15704523114E+03  0.00000000000E+00 0. -1.
          2    1    1    2  502    0 -0.15188982967E+02  0.15464883906E+02  0.18313384008E+03  0.18441223175E+03  0.00000000000E+00 0. -1.
         -2    1    1    2    0  502  0.15188982967E+02 -0.15464883906E+02 -0.15565499677E+03  0.15715707384E+03  0.00000000000E+00 0. -1.
</event>
<event>
 4    1  0.5978476E+003  0.2144283E+02  0.7546771E-02  0.1513035E+00
          2   -1    0    0  501    0  0.00000000000E+00  0.00000000000E+00  0.97517332266E+03  0.97517332266E+03  0.00000000000E+00 0. -1.
         -2   -1    0    0    0  501 -0.00000000000E+00 -0.00000000000E+00 -0.91249775091E+00  0.91249775091E+00  0.00000000000E+00 0. -1.
          2    1    1    2  502    0  0.18493279854E+02 -0.10853266406E+02  0.82641177719E+03  0.82668991785E+03  0.00000000000E+00 0. -1.
         -2    1    1    2    0  502 -0.18493279854E+02  0.10853266406E+02  0.14784904771E+03  0.14939590256E+03  0.00000000000E+00 0. -1.
</event>
<event>
 4    1  0.5978476E+003  0.2682910E+02  0.7546771E-02  0.1449332E+00
          2   -1    0    0  501    0  0.00000000000E+00  0.00000000000E+00  0.60840692801E+02  0.60840692801E+02  0.00000000000E+00 0. -1.
         -2   -1    0    0    0  501 -0.00000000000E+00 -0.00000000000E+00 -0.25208517036E+03  0.25208517036E+03  0.00000000000E+00 0. -1.
          2    1    1    2  502    0 -0.10917681118E+02 -0.24507240051E+02  0.57124999164E+02  0.63111537023E+02  0.00000000000E+00 0. -1.
         -2    1    1    2    0  502  0.10917681118E+02  0.24507240051E+02 -0.24836947672E+03  0.24981432613E+03  0.00000000000E+00 0. -1.
</event>
<event>
 4    1  0.5978476E+003  0.2405638E+02  0.7546771E-02  0.1479643E+00
          2   -1    0    0  501    0  0.00000000000E+00  0.00000000000E+00  0.10669641268E+04  0.10669641268E+04  0.00000000000E+00 0. -1.
         -2   -1    0    0    0  501 -0.00000000000E+00 -0.00000000000E+00 -0.80721482992E+00  0.80721482992E+00  0.00000000000E+00 0. -1.
          2    1    1    2  502    0 -0.47154525153E+00  0.24051753340E+02  0.83887613620E+03  0.83922099657E+03  0.00000000000E+00 0. -1.
         -2    1    1    2    0  502  0.47154525153E+00 -0.24051753340E+02  0.22728077581E+03  0.22855034510E+03  0.00000000000E+00 0. -1.
</event>
<event>
 4    1  0.5978476E+003  0.2277836E+02  0.7546771E-02  0.1495300E+00
          2   -1    0    0  501    0  0.00000000000E+00  0.00000000000E+00  0.20680956921E+03  0.20680956921E+03  0.00000000000E+00 0. -1.
         -2   -1    0    0    0  501 -0.00000000000E+00 -0.00000000000E+00 -0.33233552724E+01  0.33233552724E+01  0.00000000000E+00 0.  1.
          2    1    1    2  502    0  0.21278989290E+02  0.81276066762E+01  0.49728691679E+02  0.54697313934E+02  0.00000000000E+00 0.  1.
         -2    1    1    2    0  502 -0.21278989290E+02 -0.81276066762E+01  0.15375752226E+03  0.15543561055E+03  0.00000000000E+00 0. -1.
</event>
<event>
 4    1  0.5978476E+003  0.2337028E+02  0.7546771E-02  0.1487900E+00
          2   -1    0    0  501    0  0.00000000000E+00  0.00000000000E+00  0.77858175227E+01  0.77858175227E+01  0.00000000000E+00 0. -1.
         -2   -1    0    0    0  501 -0.00000000000E+00 -0.00000000000E+00 -0.10995153883E+03  0.10995153883E+03  0.00000000000E+00 0. -1.
          2    1    1    2  502    0 -0.39804250845E+01 -0.23028799363E+02 -0.86501964194E+02  0.89603343651E+02  0.00000000000E+00 0. -1.
         -2    1    1    2    0  502  0.39804250845E+01  0.23028799363E+02 -0.15663757118E+02  0.28134012707E+02  0.00000000000E+00 0. -1.
</event>
<event>
 4    1  0.5978476E+003  0.2306639E+02  0.7546771E-02  0.1491666E+00
          2   -1    0    0  501    0  0.00000000000E+00  0.00000000000E+00  0.21571407639E+03  0.21571407639E+03  0.00000000000E+00 0.  1.
         -2   -1    0    0    0  501 -0.00000000000E+00 -0.00000000000E+00 -0.25930599307E+01  0.25930599307E+01  0.00000000000E+00 0.  1.
          2    1    1    2  502    0 -0.53036874630E+01 -0.22448359214E+02  0.82445554448E+02  0.85611490936E+02  0.00000000000E+00 0.  1.
         -2    1    1    2    0  502  0.53036874630E+01  0.22448359214E+02  0.13067546201E+03  0.13269564538E+03  0.00000000000E+00 0.  1.
</event>
<event>
 4    1  0.5978476E+003  0.3070087E+02  0.7546771E-02  0.1413602E+00
          2   -1    0    0  501    0  0.00000000000E+00  0.00000000000E+00  0.13858515459E+04  0.13858515459E+04  0.00000000000E+00 0. -1.
         -2   -1    0    0    0  501 -0.00000000000E+00 -0.00000000000E+00 -0.44999546422E+01  0.44999546422E+01  0.00000000000E+00 0. -1.
          2    1    1    2  502    0 -0.70531502612E+01 -0.29879704321E+02  0.13311665974E+04  0.13315205796E+04  0.00000000000E+00 0. -1.
         -2    1    1    2    0  502  0.70531502612E+01  0.29879704321E+02  0.50184993823E+02  0.58830920985E+02  0.00000000000E+00 0. -1.
</event>
<event>
 4    1  0.5978476E+003  0.3396464E+02  0.7546771E-02  0.1387992E+00
          2   -1    0    0  501    0  0.00000000000E+00  0.00000000000E+00  0.23264097052E+03  0.23264097052E+03  0.00000000000E+00 0.  1.
         -2   -1    0    0    0  501 -0.00000000000E+00 -0.00000000000E+00 -0.20736763795E+02  0.20736763795E+02  0.00000000000E+00 0. -1.
          2    1    1    2  502    0  0.29611752449E+02 -0.16635521564E+02  0.21646038736E+03  0.21910886736E+03  0.00000000000E+00 0.  1.
         -2    1    1    2    0  502 -0.29611752449E+02  0.16635521564E+02 -0.45561806288E+01  0.34268866960E+02  0.00000000000E+00 0. -1.
</event>
<event>
 4    1  0.8330797E+003  0.2935400E+02  0.7546771E-02  0.1425294E+00
          2   -1    0    0  501    0  0.00000000000E+00  0.00000000000E+00  0.16069591534E+04  0.16069591534E+04  0.00000000000E+00 0.  1.
         -2   -1    0    0    0  501 -0.00000000000E+00 -0.00000000000E+00 -0.16870284078E+03  0.16870284078E+03  0.00000000000E+00 0. -1.
          2    1    1    2  502    0 -0.24912503742E+02 -0.15524966842E+02  0.16055470932E+04  0.16058154084E+04  0.00000000000E+00 0.  1.
         -2    1    1    2    0  502  0.24912503742E+02  0.15524966842E+02 -0.16729078057E+03  0.16984658578E+03  0.00000000000E+00 0. -1.
</event>
<event>
 4    1  0.5978476E+003  0.2381422E+02  0.7546771E-02  0.1482519E+00
          2   -1    0    0  501    0  0.00000000000E+00  0.00000000000E+00  0.14430336711E+04  0.14430336711E+04  0.00000000000E+00 0.  1.
         -2   -1    0    0    0  501 -0.00000000000E+00 -0.00000000000E+00 -0.49441915085E+00  0.49441915085E+00  0.00000000000E+00 0. -1.
          2    1    1    2  502    0  0.23620659717E+02  0.30301370161E+01  0.10481584511E+04  0.10484289465E+04  0.00000000000E+00 0.  1.
         -2    1    1    2    0  502 -0.23620659717E+02 -0.30301370161E+01  0.39438080089E+03  0.39509914377E+03  0.00000000000E+00 0. -1.
</event>
<event>
 4    1  0.5978476E+003  0.2045913E+02  0.7546771E-02  0.1527129E+00
          2   -1    0    0  501    0  0.00000000000E+00  0.00000000000E+00  0.11623650159E+04  0.11623650159E+04  0.00000000000E+00 0.  1.
         -2   -1    0    0    0  501 -0.00000000000E+00 -0.00000000000E+00 -0.14476992099E+02  0.14476992099E+02  0.00000000000E+00 0.  1.
          2    1    1    2  502    0  0.13365618553E+02 -0.15489871462E+02  0.11550006093E+04  0.11551817967E+04  0.00000000000E+00 0.  1.
         -2    1    1    2    0  502 -0.13365618553E+02  0.15489871462E+02 -0.71125855872E+01  0.21660211240E+02  0.00000000000E+00 0.  1.
</event>
<event>
 4    1  0.5978476E+003  0.2044166E+02  0.7546771E-02  0.1527388E+00
          2   -1    0    0  501    0  0.00000000000E+00  0.00000000000E+00  0.34653005217E+02  0.34653005217E+02  0.00000000000E+00 0. -1.
         -2   -1    0    0    0  501 -0.00000000000E+00 -0.00000000000E+00 -0.13025325350E+02  0.13025325350E+02  0.00000000000E+00 0. -1.
          2    1    1    2  502    0 -0.12898096177E+02  0.15858775086E+02  0.17308872623E+02  0.26785419610E+02  0.00000000000E+00 0. -1.
         -2    1    1    2    0  502  0.12898096177E+02 -0.15858775086E+02  0.43188072442E+01  0.20892910957E+02  0.00000000000E+00 0. -1.
</event>
<event>
 4    1  0.5978476E+003  0.2616101E+02  0.7546771E-02  0.1456223E+00
          2   -1    0    0  501    0  0.00000000000E+00  0.00000000000E+00  0.25588796669E+02  0.25588796669E+02  0.00000000000E+00 0. -1.
         -2   -1    0    0    0  501 -0.00000000000E+00 -0.00000000000E+00 -0.86660348494E+02  0.86660348494E+02  0.00000000000E+00 0. -1.
          2    1    1    2  502    0 -0.82313251225E+01 -0.24832311557E+02  0.16131041863E+02  0.30734490758E+02  0.00000000000E+00 0. -1.
         -2    1    1    2    0  502  0.82313251225E+01  0.24832311557E+02 -0.77202593689E+02  0.81514654405E+02  0.00000000000E+00 0. -1.
</event>
<event>
 4    1  0.5978476E+003  0.3428135E+02  0.7546771E-02  0.1385687E+00
          2   -1    0    0  501    0  0.00000000000E+00  0.00000000000E+00  0.19095808022E+04  0.19095808022E+04  0.00000000000E+00 0. -1.
         -2   -1    0    0    0  501 -0.00000000000E+00 -0.00000000000E+00 -0.13748171862E+01  0.13748171862E+01  0.00000000000E+00 0. -1.
          2    1    1    2  502    0  0.15620226884E+02 -0.30515890887E+02  0.16642202958E+04  0.16645733399E+04  0.00000000000E+00 0. -1.
         -2    1    1    2    0  502 -0.15620226884E+02  0.30515890887E+02  0.24398568927E+03  0.24638227951E+03  0.00000000000E+00 0. -1.
</event>
<event>
 4    1  0.5978476E+003  0.2219950E+02  0.7546771E-02  0.1502802E+00
          2   -1    0    0  501    0  0.00000000000E+00  0.00000000000E+00  0.18988719573E+02  0.18988719573E+02  0.00000000000E+00 0.  1.
         -2   -1    0    0    0  501 -0.00000000000E+00 -0.00000000000E+00 -0.37816759882E+02  0.37816759882E+02  0.00000000000E+00 0. -1.
          2    1    1    2  502    0  0.16222735928E+01  0.22140149593E+02  0.64943478618E+01  0.23129949195E+02  0.00000000000E+00 0.  1.
         -2    1    1    2    0  502 -0.16222735928E+01 -0.22140149593E+02 -0.25322388171E+02  0.33675530260E+02  0.00000000000E+00 0. -1.
</event>
<event>
 4    1  0.5978476E+003  0.2633949E+02  0.7546771E-02  0.1454358E+00
          2   -1    0    0  501    0  0.00000000000E+00  0.00000000000E+00  0.37400606879E+03  0.37400606879E+03  0.00000000000E+00 0. -1.
         -2   -1    0    0    0  501 -0.00000000000E+00 -0.00000000000E+00 -0.20007247637E+02  0.20007247637E+02  0.00000000000E+00 0.  1.
          2    1    1    2  502    0  0.95470333503E+01  0.24548375121E+02  0.36465125618E+03  0.36560129540E+03  0.00000000000E+00 0. -1.
         -2    1    1    2    0  502 -0.95470333503E+01 -0.24548375121E+02 -0.10652435024E+02  0.28412021027E+02  0.00000000000E+00 0.  1.
</event>
<event>
 4    1  0.5978476E+003  0.3016021E+02  0.7546771E-02  0.1418209E+00
          2   -1    0    0  501    0  0.00000000000E+00  0.00000000000E+00  0.24231879835E+04  0.24231879835E+04  0.00000000000E+00 0.  1.
         -2   -1    0    0    0  501 -0.00000000000E+00 -0.00000000000E+00 -0.47054925478E+00  0.47054925478E+00  0.00000000000E+00 0.  1.
          2    1    1    2  502    0 -0.18801278200E+02 -0.23582841808E+02  0.17563208625E+04  0.17565798048E+04  0.00000000000E+00 0.  1.
         -2    1    1    2    0  502  0.18801278200E+02  0.23582841808E+02  0.66639657176E+03  0.66707872799E+03  0.00000000000E+00 0.  1.
</event>
<event>
 4    1  0.5978476E+003  0.2552289E+02  0.7546771E-02  0.1463038E+00
          2   -1    0    0  501    0  0.00000000000E+00  0.00000000000E+00  0.52276553110E+01  0.52276553110E+01  0.00000000000E+00 0.  1.
         -2   -1    0    0    0  501 -0.00000000000E+00 -0.00000000000E+00 -0.22646534377E+03  0.22646534377E+03  0.00000000000E+00 0. -1.
          2    1    1    2  502    0 -0.23270095518E+02 -0.10484295813E+02 -0.32927241328E+02  0.41660785225E+02  0.00000000000E+00 0.  1.
         -2    1    1    2    0  502  0.23270095518E+02  0.10484295813E+02 -0.18831044713E+03  0.19003221386E+03  0.00000000000E+00 0. -1.
</event>
<event>
 4    1  0.5978476E+003  0.2132316E+02  0.7546771E-02  0.1514701E+00
          2   -1    0    0  501    0  0.00000000000E+00  0.00000000000E+00  0.10702303393E+03  0.10702303393E+03  0.00000000000E+00 0.  1.
         -2   -1    0    0    0  501 -0.00000000000E+00 -0.00000000000E+00 -0.42833159358E+01  0.42833159358E+01  0.00000000000E+00 0.  1.
          2    1    1    2  502    0  0.61758253805E+01  0.20409219288E+02  0.56394312724E+02  0.60290924348E+02  0.00000000000E+00 0.  1.
         -2    1    1    2    0  502 -0.61758253805E+01 -0.20409219288E+02  0.46345405265E+02  0.51015425513E+02  0.00000000000E+00 0.  1.
</event>
<event>
 4    1  0.5978476E+003  0.3938891E+02  0.7546771E-02  0.1352104E+00
          2   -1    0    0  501    0  0.00000000000E+00  0.00000000000E+00  0.17045895088E+04  0.17045895088E+04  0.00000000000E+00 0. -1.
         -2   -1    0    0    0  501 -0.00000000000E+00 -0.00000000000E+00 -0.44139946815E+02  0.44139946815E+02  0.00000000000E+00 0. -1.
          2    1    1    2  502    0  0.39101296952E+02 -0.47513354681E+01  0.16955276897E+04  0.16959851512E+04  0.00000000000E+00 0. -1.
         -2    1    1    2    0  502 -0.39101296952E+02  0.47513354681E+01 -0.35078127660E+02  0.52744304452E+02  0.00000000000E+00 0. -1.
</event>
<event>
 4    1  0.5978476E+003  0.2276296E+02  0.7546771E-02  0.1495496E+00
          2   -1    0    0  501    0  0.00000000000E+00  0.00000000000E+00  0.80972885500E+01  0.80972885500E+01  0.00000000000E+00 0.  1.
         -2   -1    0    0    0  501 -0.00000000000E+00 -0.00000000000E+00 -0.68582133869E+03  0.68582133869E+03  0.00000000000E+00 0. -1.
          2    1    1    2  502    0 -0.13888996452E+02 -0.18034632882E+02 -0.84855870275E+01  0.24293155267E+02  0.00000000000E+00 0.  1.
         -2    1    1    2    0  502  0.13888996452E+02  0.18034632882E+02 -0.66923846312E+03  0.66962547198E+03  0.00000000000E+00 0. -1.
</event>
<event>
 4    1  0.5978476E+003  0.2212536E+02  0.7546771E-02  0.1503783E+00
          2   -1    0    0  501    0  0.00000000000E+00  0.00000000000E+00  0.20885368064E+02  0.20885368064E+02  0.00000000000E+00 0. -1.
         -2   -1    0    0    0  501 -0.00000000000E+00 -0.00000000000E+00 -0.23730145436E+02  0.23730145436E+02  0.00000000000E+00 0.  1.
          2    1    1    2  502    0  0.98336503591E+01 -0.19819946925E+02 -0.38935571195E+01  0.22465323558E+02  0.00000000000E+00 0. -1.
         -2    1    1    2    0  502 -0.98336503591E+01  0.19819946925E+02  0.10487797474E+01  0.22150189942E+02  0.00000000000E+00 0.  1.
</event>
<event>
 4    1  0.5978476E+003  0.2019856E+02  0.7546771E-02  0.1531022E+00
          2   -1    0    0  501    0  0.00000000000E+00  0.00000000000E+00  0.30550719268E+03  0.30550719268E+03  0.00000000000E+00 0. -1.
         -2   -1    0    0    0  501 -0.00000000000E+00 -0.00000000000E+00 -0.28211717833E+01  0.28211717833E+01  0.00000000000E+00 0. -1.
          2    1    1    2  502    0  0.99655296404E+01  0.17569005167E+02  0.26322011602E+03  0.26399396053E+03  0.00000000000E+00 0. -1.
         -2    1    1    2    0  502 -0.99655296404E+01 -0.17569005167E+02  0.39465904879E+02  0.44334403926E+02  0.00000000000E+00 0. -1.
</event>
<event>
 4    1  0.5978476E+003  0.3824505E+02  0.7546771E-02  0.1359088E+00
          2   -1    0    0  501    0  0.00000000000E+00  0.00000000000E+00  0.19876834657E+04  0.19876834657E+04  0.00000000000E+00 0.  1.
         -2   -1    0    0    0  501 -0.00000000000E+00 -0.00000000000E+00 -0.40691401788E+02  0.40691401788E+02  0.00000000000E+00 0.  1.
          2    1    1    2  502    0  0.17569926269E+02 -0.33970309100E+02  0.19784712128E+04  0.19788408284E+04  0.00000000000E+00 0.  1.
         -2    1    1    2    0  502 -0.17569926269E+02  0.33970309100E+02 -0.31479148923E+02  0.49534039068E+02  0.00000000000E+00 0.  1.
</event>
<event>
 4    1  0.5978476E+003  0.2616774E+02  0.7546771E-02  0.1456152E+00
          2   -1    0    0  501    0  0.00000000000E+00  0.00000000000E+00  0.35924781523E+03  0.35924781523E+03  0.00000000000E+00 0.  1.
         -2   -1    0    0    0  501 -0.00000000000E+00 -0.00000000000E+00 -0.55894534643E+01  0.55894534643E+01  0.00000000000E+00 0. -1.
          2    1    1    2  502    0  0.26128572843E+02 -0.14312132083E+01  0.32491317680E+03  0.32596521770E+03  0.00000000000E+00 0.  1.
         -2    1    1    2    0  502 -0.26128572843E+02  0.14312132083E+01  0.28745184969E+02  0.38872051000E+02  0.00000000000E+00 0. -1.
</event>
<event>
 4    1  0.5978476E+003  0.3331766E+02  0.7546771E-02  0.1392793E+00
          2   -1    0    0  501    0  0.00000000000E+00  0.00000000000E+00  0.20190952812E+01  0.20190952812E+01  0.00000000000E+00 0. -1.
         -2   -1    0    0    0  501 -0.00000000000E+00 -0.00000000000E+00 -0.55067633869E+03  0.55067633869E+03  0.00000000000E+00 0. -1.
          2    1    1    2  502    0  0.13936465373E+02  0.30262870609E+02 -0.26320471017E+03  0.26530508073E+03  0.00000000000E+00 0. -1.
         -2    1    1    2    0  502 -0.13936465373E+02 -0.30262870609E+02 -0.28545253324E+03  0.28739035324E+03  0.00000000000E+00 0. -1.
</event>
<event>
 4    1  0.5978476E+003  0.2653583E+02  0.7546771E-02  0.1452327E+00
          2   -1    0    0  501    0  0.00000000000E+00  0.00000000000E+00  0.57703815516E+02  0.57703815516E+02  0.00000000000E+00 0.  1.
         -2   -1    0    0    0  501 -0.00000000000E+00 -0.00000000000E+00 -0.24318568629E+02  0.24318568629E+02  0.00000000000E+00 0.  1.
          2    1    1    2  502    0  0.63080193844E+00  0.26528326729E+02  0.45639938028E+02  0.52793503135E+02  0.00000000000E+00 0.  1.
         -2    1    1    2    0  502 -0.63080193844E+00 -0.26528326729E+02 -0.12254691140E+02  0.29228881010E+02  0.00000000000E+00 0.  1.
</event>
<event>
 4    1  0.5978476E+003  0.2502465E+02  0.7546771E-02  0.1468528E+00
          2   -1    0    0  501    0  0.00000000000E+00  0.00000000000E+00  0.10634335373E+03  0.10634335373E+03  0.00000000000E+00 0. -1.
         -2   -1    0    0    0  501 -0.00000000000E+00 -0.00000000000E+00 -0.58940189223E+01  0.58940189223E+01  0.00000000000E+00 0.  1.
          2    1    1    2  502    0 -0.20953621311E+02 -0.13681324444E+02  0.51897365068E+02  0.57615704332E+02  0.00000000000E+00 0. -1.
         -2    1    1    2    0  502  0.20953621311E+02  0.13681324444E+02  0.48551969741E+02  0.54621668322E+02  0.00000000000E+00 0.  1.
</event>
<event>
 4    1  0.5978476E+003  0.4036243E+02  0.7546771E-02  0.1346375E+00
          2   -1    0    0  501    0  0.00000000000E+00  0.00000000000E+00  0.64694211404E+03  0.64694211404E+03  0.00000000000E+00 0. -1.
         -2   -1    0    0    0  501 -0.00000000000E+00 -0.00000000000E+00 -0.18144364002E+02  0.18144364002E+02  0.00000000000E+00 0. -1.
          2    1    1    2  502    0  0.86383927624E+01  0.39427196498E+02  0.62300427574E+03  0.62431038214E+03  0.00000000000E+00 0. -1.
         -2    1    1    2    0  502 -0.86383927624E+01 -0.39427196498E+02  0.57934743036E+01  0.40776095911E+02  0.00000000000E+00 0. -1.
</event>
<event>
 4    1  0.5978476E+003  0.4660367E+02  0.7546771E-02  0.1313610E+00
          2   -1    0    0  501    0  0.00000000000E+00  0.00000000000E+00  0.13761118555E+03  0.13761118555E+03  0.00000000000E+00 0. -1.
         -2   -1    0    0    0  501 -0.00000000000E+00 -0.00000000000E+00 -0.16278240003E+02  0.16278240003E+02  0.00000000000E+00 0. -1.
          2    1    1    2  502    0  0.46582709205E+02 -0.13968769257E+01  0.47243831967E+02  0.66361733860E+02  0.00000000000E+00 0. -1.
         -2    1    1    2    0  502 -0.46582709205E+02  0.13968769257E+01  0.74089113578E+02  0.87527691691E+02  0.00000000000E+00 0. -1.
</event>
<event>
 4    1  0.5978476E+003  0.2298039E+02  0.7546771E-02  0.1492745E+00
          2   -1    0    0  501    0  0.00000000000E+00  0.00000000000E+00  0.14268543885E+03  0.14268543885E+03  0.00000000000E+00 0.  1.
         -2   -1    0    0    0  501 -0.00000000000E+00 -0.00000000000E+00 -0.16932621440E+02  0.16932621440E+02  0.00000000000E+00 0. -1.
          2    1    1    2  502    0  0.35332870665E+01 -0.22707142915E+02  0.13342595212E+03  0.13539048399E+03  0.00000000000E+00 0.  1.
         -2    1    1    2    0  502 -0.35332870665E+01  0.22707142915E+02 -0.76731347109E+01  0.24227576296E+02  0.00000000000E+00 0. -1.
</event>
<event>
 4    1  0.5978476E+003  0.3106387E+02  0.7546771E-02  0.1410571E+00
          2   -1    0    0  501    0  0.00000000000E+00  0.00000000000E+00  0.17534109704E+04  0.17534109704E+04  0.00000000000E+00 0.  1.
         -2   -1    0    0    0  501 -0.00000000000E+00 -0.00000000000E+00 -0.70986194209E+02  0.70986194209E+02  0.00000000000E+00 0.  1.
          2    1    1    2  502    0 -0.18490211646E+02 -0.24961490704E+02  0.17498680853E+04  0.17501437883E+04  0.00000000000E+00 0.  1.
         -2    1    1    2    0  502  0.18490211646E+02  0.24961490704E+02 -0.67443309101E+02  0.74253376269E+02  0.00000000000E+00 0.  1.
</event>
<event>
 4    1  0.5978476E+003  0.5077869E+02  0.7546771E-02  0.1294831E+00
          2   -1    0    0  501    0  0.00000000000E+00  0.00000000000E+00  0.55274430886E+03  0.55274430886E+03  0.00000000000E+00 0. -1.
         -2   -1    0    0    0  501 -0.00000000000E+00 -0.00000000000E+00 -0.70209316477E+01  0.70209316477E+01  0.00000000000E+00 0.  1.
          2    1    1    2  502    0 -0.47671849476E+02  0.17489073463E+02  0.11072805311E+03  0.12181615110E+03  0.00000000000E+00 0. -1.
         -2    1    1    2    0  502  0.47671849476E+02 -0.17489073463E+02  0.43499532410E+03  0.43794908940E+03  0.00000000000E+00 0.  1.
</event>
<event>
 4    1  0.5978476E+003  0.2178287E+02  0.7546771E-02  0.1508375E+00
          2   -1    0    0  501    0  0.00000000000E+00  0.00000000000E+00  0.88971742624E+03  0.88971742624E+03  0.00000000000E+00 0. -1.
         -2   -1    0    0    0  501 -0.00000000000E+00 -0.00000000000E+00 -0.22022037931E+01  0.22022037931E+01  0.00000000000E+00 0.  1.
          2    1    1    2  502    0  0.21530917138E+02 -0.33034585111E+01  0.83198092405E+03  0.83226603392E+03  0.00000000000E+00 0. -1.
         -2    1    1    2    0  502 -0.21530917138E+02  0.33034585111E+01  0.55534298390E+02  0.59653596108E+02  0.00000000000E+00 0.  1.
</event>
<event>
 4    1  0.5978476E+003  0.3203098E+02  0.7546771E-02  0.1402731E+00
          2   -1    0    0  501    0  0.00000000000E+00  0.00000000000E+00  0.13600776414E+03  0.13600776414E+03  0.00000000000E+00 0. -1.
         -2   -1    0    0    0  501 -0.00000000000E+00 -0.00000000000E+00 -0.11637736702E+02  0.11637736702E+02  0.00000000000E+00 0.  1.
          2    1    1    2  502    0 -0.25295387859E+02 -0.19650114327E+02  0.10597137884E+03  0.11070644414E+03  0.00000000000E+00 0. -1.
         -2    1    1    2    0  502  0.25295387859E+02  0.19650114327E+02  0.18398648596E+02  0.36939056704E+02  0.00000000000E+00 0.  1.
</event>
<event>
 4    1  0.5978476E+003  0.2441736E+02  0.7546771E-02  0.1475428E+00
          2   -1    0    0  501    0  0.00000000000E+00  0.00000000000E+00  0.97231117818E+03  0.97231117818E+03  0.00000000000E+00 0.  1.
         -2   -1    0    0    0  501 -0.00000000000E+00 -0.00000000000E+00 -0.48272436510E+01  0.48272436510E+01  0.00000000000E+00 0.  1.
          2    1    1    2  502    0 -0.11459069391E+02  0.21561469378E+02  0.94022720838E+03  0.94054420981E+03  0.00000000000E+00 0.  1.
         -2    1    1    2    0  502  0.11459069391E+02 -0.21561469378E+02  0.27256726154E+02  0.36594212024E+02  0.00000000000E+00 0.  1.
</event>
<event>
 4    1  0.5978476E+003  0.3128620E+02  0.7546771E-02  0.1408739E+00
          2   -1    0    0  501    0  0.00000000000E+00  0.00000000000E+00  0.13663268111E+03  0.13663268111E+03  0.00000000000E+00 0.  1.
         -2   -1    0    0    0  501 -0.00000000000E+00 -0.00000000000E+00 -0.59092669883E+03  0.59092669883E+03  0.00000000000E+00 0.  1.
          2    1    1    2  502    0 -0.31229174932E+02  0.18881076453E+01  0.13442086930E+03  0.13801375447E+03  0.00000000000E+00 0.  1.
         -2    1    1    2    0  502  0.31229174932E+02 -0.18881076453E+01 -0.58871488702E+03  0.58954562547E+03  0.00000000000E+00 0.  1.
</event>
<event>
 4    1  0.5978476E+003  0.2489830E+02  0.7546771E-02  0.1469944E+00
          2   -1    0    0  501    0  0.00000000000E+00  0.00000000000E+00  0.34021648061E+03  0.34021648061E+03  0.00000000000E+00 0.  1.
         -2   -1    0    0    0  501 -0.00000000000E+00 -0.00000000000E+00 -0.40669577924E+01  0.40669577924E+01  0.00000000000E+00 0.  1.
          2    1    1    2  502    0 -0.90491319282E+01 -0.23195658100E+02  0.29596603646E+03  0.29701148139E+03  0.00000000000E+00 0.  1.
         -2    1    1    2    0  502  0.90491319282E+01  0.23195658100E+02  0.40183486357E+02  0.47271957005E+02  0.00000000000E+00 0.  1.
</event>
<event>
 4    1  0.5978476E+003  0.2358780E+02  0.7546771E-02  0.1485246E+00
          2   -1    0    0  501    0  0.00000000000E+00  0.00000000000E+00  0.61230419769E+00  0.61230419769E+00  0.00000000000E+00 0. -1.
         -2   -1    0    0    0  501 -0.00000000000E+00 -0.00000000000E+00 -0.12961452946E+04  0.12961452946E+04  0.00000000000E+00 0. -1.
          2    1    1    2  502    0 -0.23546966600E+02  0.13873885384E+01 -0.29326169938E+03  0.29420878438E+03  0.00000000000E+00 0. -1.
         -2    1    1    2    0  502  0.23546966600E+02 -0.13873885384E+01 -0.10022712910E+04  0.10025488144E+04  0.00000000000E+00 0. -1.
</event>
<event>
 4    1  0.5978476E+003  0.2454812E+02  0.7546771E-02  0.1473923E+00
          2   -1    0    0  501    0  0.00000000000E+00  0.00000000000E+00  0.49485865371E+01  0.49485865371E+01  0.00000000000E+00 0.  1.
         -2   -1    0    0    0  501 -0.00000000000E+00 -0.00000000000E+00 -0.13101410219E+03  0.13101410219E+03  0.00000000000E+00 0.  1.
          2    1    1    2  502    0  0.14595425076E+02 -0.19737874079E+02 -0.44979121083E+02  0.51241891454E+02  0.00000000000E+00 0.  1.
         -2    1    1    2    0  502 -0.14595425076E+02  0.19737874079E+02 -0.81086394567E+02  0.84720797271E+02  0.00000000000E+00 0.  1.
</event>
<event>
 4    1  0.5978476E+003  0.3332732E+02  0.7546771E-02  0.1392720E+00
          2   -1    0    0  501    0  0.00000000000E+00  0.00000000000E+00  0.35164309919E+03  0.35164309919E+03  0.00000000000E+00 0. -1.
         -2   -1    0    0    0  501 -0.00000000000E+00 -0.00000000000E+00 -0.64773807894E+03  0.64773807894E+03  0.00000000000E+00 0.  1.
          2    1    1    2  502    0 -0.29025111998E+02 -0.16378442568E+02  0.35042326459E+03  0.35200450974E+03  0.00000000000E+00 0. -1.
         -2    1    1    2    0  502  0.29025111998E+02  0.16378442568E+02 -0.64651824435E+03  0.64737666839E+03  0.00000000000E+00 0.  1.
</event>
<event>
 4    1  0.5978476E+003  0.2119275E+02  0.7546771E-02  0.1516531E+00
          2   -1    0    0  501    0  0.00000000000E+00  0.00000000000E+00  0.43780070720E+01  0.43780070720E+01  0.00000000000E+00 0. -1.
         -2   -1    0    0    0  501 -0.00000000000E+00 -0.00000000000E+00 -0.56023595803E+03  0.56023595803E+03  0.00000000000E+00 0.  1.
          2    1    1    2  502    0  0.76711935196E+01  0.19755646982E+02 -0.22775376464E+02  0.31110296861E+02  0.00000000000E+00 0. -1.
         -2    1    1    2    0  502 -0.76711935196E+01 -0.19755646982E+02 -0.53308257449E+03  0.53350366824E+03  0.00000000000E+00 0.  1.
</event>
<event>
 4    1  0.5978476E+003  0.2626860E+02  0.7546771E-02  0.1455097E+00
          2   -1    0    0  501    0  0.00000000000E+00  0.00000000000E+00  0.99829826886E+03  0.99829826886E+03  0.00000000000E+00 0.  1.
         -2   -1    0    0    0  501 -0.00000000000E+00 -0.00000000000E+00 -0.66057384903E+01  0.66057384903E+01  0.00000000000E+00 0. -1.
          2    1    1    2  502    0 -0.13487937896E+02  0.22541403258E+02  0.97128411464E+03  0.97163926983E+03  0.00000000000E+00 0.  1.
         -2    1    1    2    0  502  0.13487937896E+02 -0.22541403258E+02  0.20408415730E+02  0.33264737517E+02  0.00000000000E+00 0. -1.
</event>
<event>
 4    1  0.5978476E+003  0.2208796E+02  0.7546771E-02  0.1504280E+00
          2   -1    0    0  501    0  0.00000000000E+00  0.00000000000E+00  0.15321258699E+04  0.15321258699E+04  0.00000000000E+00 0. -1.
         -2   -1    0    0    0  501 -0.00000000000E+00 -0.00000000000E+00 -0.12367412094E+01  0.12367412094E+01  0.00000000000E+00 0.  1.
          2    1    1    2  502    0 -0.20277665346E+02 -0.87575307654E+01  0.14260922289E+04  0.14262632728E+04  0.00000000000E+00 0. -1.
         -2    1    1    2    0  502  0.20277665346E+02  0.87575307654E+01  0.10479689978E+03  0.10709933829E+03  0.00000000000E+00 0.  1.
</event>
<event>
 4    1  0.5978476E+003  0.3627242E+02  0.7546771E-02  0.1371832E+00
          2   -1    0    0  501    0  0.00000000000E+00  0.00000000000E+00  0.67874619457E+03  0.67874619457E+03  0.00000000000E+00 0. -1.
         -2   -1    0    0    0  501 -0.00000000000E+00 -0.00000000000E+00 -0.60742820439E+01  0.60742820439E+01  0.00000000000E+00 0. -1.
          2    1    1    2  502    0  0.36042646376E+02  0.40762797145E+01  0.61887782416E+03  0.61993987584E+03  0.00000000000E+00 0. -1.
         -2    1    1    2    0  502 -0.36042646376E+02 -0.40762797145E+01  0.53794088360E+02  0.64880600772E+02  0.00000000000E+00 0. -1.
</event>
<event>
 4    1  0.5978476E+003  0.4421862E+02  0.7546771E-02  0.1325393E+00
          2   -1    0    0  501    0  0.00000000000E+00  0.00000000000E+00  0.58947264769E+02  0.58947264769E+02  0.00000000000E+00 0.  1.
         -2   -1    0    0    0  501 -0.00000000000E+00 -0.00000000000E+00 -0.41286505448E+02  0.41286505448E+02  0.00000000000E+00 0.  1.
          2    1    1    2  502    0 -0.44169510537E+02 -0.20834852030E+01  0.31051293647E+02  0.54032114606E+02  0.00000000000E+00 0.  1.
         -2    1    1    2    0  502  0.44169510537E+02  0.20834852030E+01 -0.13390534326E+02  0.46201655611E+02  0.00000000000E+00 0.  1.
</event>
<event>
 4    1  0.5978476E+003  0.2412079E+02  0.7546771E-02  0.1478884E+00
          2   -1    0    0  501    0  0.00000000000E+00  0.00000000000E+00  0.41297626314E+01  0.41297626314E+01  0.00000000000E+00 0.  1.
         -2   -1    0    0    0  501 -0.00000000000E+00 -0.00000000000E+00 -0.14182270921E+03  0.14182270921E+03  0.00000000000E+00 0.  1.
          2    1    1    2  502    0 -0.82157455643E+01  0.22678489761E+02 -0.62905468502E+02  0.67371435643E+02  0.00000000000E+00 0.  1.
         -2    1    1    2    0  502  0.82157455643E+01 -0.22678489761E+02 -0.74787478072E+02  0.78581036195E+02  0.00000000000E+00 0.  1.
</event>
<event>
 4    1  0.5978476E+003  0.3511260E+02  0.7546771E-02  0.1379773E+00
          2   -1    0    0  501    0  0.00000000000E+00  0.00000000000E+00  0.12397273079E+04  0.12397273079E+04  0.00000000000E+00 0. -1.
         -2   -1    0    0    0  501 -0.00000000000E+00 -0.00000000000E+00 -0.62275788424E+01  0.62275788424E+01  0.00000000000E+00 0. -1.
          2    1    1    2  502    0 -0.27683451586E+02 -0.21599101836E+02  0.11878231129E+04  0.11883419719E+04  0.00000000000E+00 0. -1.
         -2    1    1    2    0  502  0.27683451586E+02  0.21599101836E+02  0.45676616213E+02  0.57612914876E+02  0.00000000000E+00 0. -1.
</event>
<event>
 4    1  0.5978476E+003  0.2297551E+02  0.7546771E-02  0.1492806E+00
          2   -1    0    0  501    0  0.00000000000E+00  0.00000000000E+00  0.18863356956E+02  0.18863356956E+02  0.00000000000E+00 0. -1.
         -2   -1    0    0    0  501 -0.00000000000E+00 -0.00000000000E+00 -0.63011514488E+02  0.63011514488E+02  0.00000000000E+00 0. -1.
          2    1    1    2  502    0  0.19511560945E+02  0.12131498608E+02  0.84480381002E+01  0.24479452950E+02  0.00000000000E+00 0. -1.
         -2    1    1    2    0  502 -0.19511560945E+02 -0.12131498608E+02 -0.52596195632E+02  0.57395418493E+02  0.00000000000E+00 0. -1.
</event>
<event>
 4    1  0.5978476E+003  0.2793564E+02  0.7546771E-02  0.1438429E+00
          2   -1    0    0  501    0  0.00000000000E+00  0.00000000000E+00  0.75820872945E+02  0.75820872945E+02  0.00000000000E+00 0.  1.
         -2   -1    0    0    0  501 -0.00000000000E+00 -0.00000000000E+00 -0.76574790212E+02  0.76574790212E+02  0.00000000000E+00 0.  1.
          2    1    1    2  502    0 -0.28757284419E+01 -0.27787231679E+02  0.70515145151E+02  0.75847120935E+02  0.00000000000E+00 0.  1.
         -2    1    1    2    0  502  0.28757284419E+01  0.27787231679E+02 -0.71269062417E+02  0.76548542222E+02  0.00000000000E+00 0.  1.
</event>
<event>
 4    1  0.5978476E+003  0.6412188E+02  0.7546771E-02  0.1246436E+00
          2   -1    0    0  501    0  0.00000000000E+00  0.00000000000E+00  0.20447872055E+04  0.20447872055E+04  0.00000000000E+00 0. -1.
         -2   -1    0    0    0  501 -0.00000000000E+00 -0.00000000000E+00 -0.33356115491E+01  0.33356115491E+01  0.00000000000E+00 0. -1.
          2    1    1    2  502    0 -0.23268033074E+02 -0.59751265732E+02  0.16661106445E+04  0.16673440841E+04  0.00000000000E+00 0. -1.
         -2    1    1    2    0  502  0.23268033074E+02  0.59751265732E+02  0.37534094947E+03  0.38077873295E+03  0.00000000000E+00 0. -1.
</event>
<event>
 4    1  0.5978476E+003  0.2483041E+02  0.7546771E-02  0.1470710E+00
          2   -1    0    0  501    0  0.00000000000E+00  0.00000000000E+00  0.43505897114E+03  0.43505897114E+03  0.00000000000E+00 0. -1.
         -2   -1    0    0    0  501 -0.00000000000E+00 -0.00000000000E+00 -0.18116880403E+01  0.18116880403E+01  0.00000000000E+00 0. -1.
          2    1    1    2  502    0 -0.98122792018E+01 -0.22809393181E+02  0.31855756930E+03  0.31952382414E+03  0.00000000000E+00 0. -1.
         -2    1    1    2    0  502  0.98122792018E+01  0.22809393181E+02  0.11468971380E+03  0.11734683503E+03  0.00000000000E+00 0. -1.
</event>
<event>
 4    1  0.5978476E+003  0.2985308E+02  0.7546771E-02  0.1420878E+00
          2   -1    0    0  501    0  0.00000000000E+00  0.00000000000E+00  0.11562247867E+03  0.11562247867E+03  0.00000000000E+00 0. -1.
         -2   -1    0    0    0  501 -0.00000000000E+00 -0.00000000000E+00 -0.82953720460E+01  0.82953720460E+01  0.00000000000E+00 0.  1.
          2    1    1    2  502    0  0.23031723997E+02 -0.18993316952E+02  0.70152005088E+02  0.76239820415E+02  0.00000000000E+00 0. -1.
         -2    1    1    2    0  502 -0.23031723997E+02  0.18993316952E+02  0.37175101533E+02  0.47678030297E+02  0.00000000000E+00 0.  1.
</event>
<event>
 4    1  0.5978476E+003  0.2151009E+02  0.7546771E-02  0.1512105E+00
          2   -1    0    0  501    0  0.00000000000E+00  0.00000000000E+00  0.98247761573E+02  0.98247761573E+02  0.00000000000E+00 0.  1.
         -2   -1    0    0    0  501 -0.00000000000E+00 -0.00000000000E+00 -0.21159766508E+02  0.21159766508E+02  0.00000000000E+00 0.  1.
          2    1    1    2  502    0  0.58772739942E+01  0.20691578529E+02  0.91186270772E+02  0.93688952118E+02  0.00000000000E+00 0.  1.
         -2    1    1    2    0  502 -0.58772739942E+01 -0.20691578529E+02 -0.14098275708E+02  0.25718575963E+02  0.00000000000E+00 0.  1.
</event>
<event>
 4    1  0.5978476E+003  0.2006166E+02  0.7546771E-02  0.1533095E+00
          2   -1    0    0  501    0  0.00000000000E+00  0.00000000000E+00  0.81166940460E+02  0.81166940460E+02  0.00000000000E+00 0.  1.
         -2   -1    0    0    0  501 -0.00000000000E+00 -0.00000000000E+00 -0.64193810418E+01  0.64193810418E+01  0.00000000000E+00 0.  1.
          2    1    1    2  502    0  0.15249937396E+02 -0.13034942896E+02  0.58264803255E+02  0.61621892419E+02  0.00000000000E+00 0.  1.
         -2    1    1    2    0  502 -0.15249937396E+02  0.13034942896E+02  0.16482756163E+02  0.25964429083E+02  0.00000000000E+00 0.  1.
</event>
<event>
 4    1  0.5978476E+003  0.2414982E+02  0.7546771E-02  0.1478543E+00
          2   -1    0    0  501    0  0.00000000000E+00  0.00000000000E+00  0.35826106514E+03  0.35826106514E+03  0.00000000000E+00 0.  1.
         -2   -1    0    0    0  501 -0.00000000000E+00 -0.00000000000E+00 -0.66287149465E+01  0.66287149465E+01  0.00000000000E+00 0.  1.
          2    1    1    2  502    0 -0.97620059914E+01 -0.22088847061E+02  0.33428262728E+03  0.33515382860E+03  0.00000000000E+00 0.  1.
         -2    1    1    2    0  502  0.97620059914E+01  0.22088847061E+02  0.17349722912E+02  0.29735951483E+02  0.00000000000E+00 0.  1.
</event>
<event>
 4    1  0.5978476E+003  0.4546055E+02  0.7546771E-02  0.1319152E+00
          2   -1    0    0  501    0  0.00000000000E+00  0.00000000000E+00  0.18978239704E+04  0.18978239704E+04  0.00000000000E+00 0.  1.
         -2   -1    0    0    0  501 -0.00000000000E+00 -0.00000000000E+00 -0.25561599358E+01  0.25561599358E+01  0.00000000000E+00 0. -1.
          2    1    1    2  502    0  0.44731039849E+02 -0.81114303346E+01  0.16675147042E+04  0.16681342721E+04  0.00000000000E+00 0.  1.
         -2    1    1    2    0  502 -0.44731039849E+02  0.81114303346E+01  0.22775310635E+03  0.23224585826E+03  0.00000000000E+00 0. -1.
</event>
<event>
 4    1  0.5978476E+003  0.3659776E+02  0.7546771E-02  0.1369665E+00
          2   -1    0    0  501    0  0.00000000000E+00  0.00000000000E+00  0.54345701626E+02  0.54345701626E+02  0.00000000000E+00 0. -1.
         -2   -1    0    0    0  501 -0.00000000000E+00 -0.00000000000E+00 -0.50240499679E+02  0.50240499679E+02  0.00000000000E+00 0. -1.
          2    1    1    2  502    0 -0.35576251981E+02  0.85863402725E+01 -0.35271742705E+02  0.50828051091E+02  0.00000000000E+00 0. -1.
         -2    1    1    2    0  502  0.35576251981E+02 -0.85863402725E+01  0.39376944652E+02  0.53758150214E+02  0.00000000000E+00 0. -1.
</event>
<event>
 4    1  0.5978476E+003  0.2144230E+02  0.7546771E-02  0.1513043E+00
          2   -1    0    0  501    0  0.00000000000E+00  0.00000000000E+00  0.21846143329E+03  0.21846143329E+03  0.00000000000E+00 0.  1.
         -2   -1    0    0    0  501 -0.00000000000E+00 -0.00000000000E+00 -0.52761262594E+02  0.52761262594E+02  0.00000000000E+00 0. -1.
          2    1    1    2  502    0  0.19505396079E+02 -0.89057029696E+01  0.21572921268E+03  0.21679221671E+03  0.00000000000E+00 0.  1.
         -2    1    1    2    0  502 -0.19505396079E+02  0.89057029696E+01 -0.50029041984E+02  0.54430479177E+02  0.00000000000E+00 0. -1.
</event>
<event>
 4    1  0.5978476E+003  0.2195567E+02  0.7546771E-02  0.1506045E+00
          2   -1    0    0  501    0  0.00000000000E+00  0.00000000000E+00  0.76570639329E+01  0.76570639329E+01  0.00000000000E+00 0. -1.
         -2   -1    0    0    0  501 -0.00000000000E+00 -0.00000000000E+00 -0.31121446652E+03  0.31121446652E+03  0.00000000000E+00 0. -1.
          2    1    1    2  502    0 -0.21656459657E+02 -0.36123479087E+01 -0.93791322566E+01  0.23875079564E+02  0.00000000000E+00 0. -1.
         -2    1    1    2    0  502  0.21656459657E+02  0.36123479087E+01 -0.29417827033E+03  0.29499645089E+03  0.00000000000E+00 0. -1.
</event>
<event>
 4    1  0.5978476E+003  0.2595598E+02  0.7546771E-02  0.1458387E+00
          2   -1    0    0  501    0  0.00000000000E+00  0.00000000000E+00  0.15832431225E+04  0.15832431225E+04  0.00000000000E+00 0. -1.
         -2   -1    0    0    0  501 -0.00000000000E+00 -0.00000000000E+00 -0.79092785851E+00  0.79092785851E+00  0.00000000000E+00 0. -1.
          2    1    1    2  502    0  0.82061778285E+01  0.24624616665E+02  0.13295587351E+04  0.13298120706E+04  0.00000000000E+00 0. -1.
         -2    1    1    2    0  502 -0.82061778285E+01 -0.24624616665E+02  0.25289345951E+03  0.25422197970E+03  0.00000000000E+00 0. -1.
</event>
<event>
 4    1  0.5978476E+003  0.2278793E+02  0.7546771E-02  0.1495178E+00
          2   -1    0    0  501    0  0.00000000000E+00  0.00000000000E+00  0.78259862624E+01  0.78259862624E+01  0.00000000000E+00 0.  1.
         -2   -1    0    0    0  501 -0.00000000000E+00 -0.00000000000E+00 -0.11484571354E+04  0.11484571354E+04  0.00000000000E+00 0.  1.
          2    1    1    2  502    0 -0.13940158699E+02 -0.18026689019E+02 -0.91241587453E+01  0.24546686423E+02  0.00000000000E+00 0.  1.
         -2    1    1    2    0  502  0.13940158699E+02  0.18026689019E+02 -0.11315069904E+04  0.11317364352E+04  0.00000000000E+00 0.  1.
</event>
<event>
 4    1  0.5978476E+003  0.2438211E+02  0.7546771E-02  0.1475836E+00
          2   -1    0    0  501    0  0.00000000000E+00  0.00000000000E+00  0.14743709910E+04  0.14743709910E+04  0.00000000000E+00 0.  1.
         -2   -1    0    0    0  501 -0.00000000000E+00 -0.00000000000E+00 -0.12953000573E+02  0.12953000573E+02  0.00000000000E+00 0.  1.
          2    1    1    2  502    0 -0.78767345949E+01  0.23074756985E+02  0.14627047486E+04  0.14629079496E+04  0.00000000000E+00 0.  1.
         -2    1    1    2    0  502  0.78767345949E+01 -0.23074756985E+02 -0.12867582200E+01  0.24416041950E+02  0.00000000000E+00 0.  1.
</event>
<event>
 4    1  0.5978476E+003  0.2157644E+02  0.7546771E-02  0.1511192E+00
          2   -1    0    0  501    0  0.00000000000E+00  0.00000000000E+00  0.81343131779E+02  0.81343131779E+02  0.00000000000E+00 0. -1.
         -2   -1    0    0    0  501 -0.00000000000E+00 -0.00000000000E+00 -0.46646703421E+02  0.46646703421E+02  0.00000000000E+00 0. -1.
          2    1    1    2  502    0  0.20481718602E+02 -0.67854363948E+01  0.77288859353E+02  0.80244069712E+02  0.00000000000E+00 0. -1.
         -2    1    1    2    0  502 -0.20481718602E+02  0.67854363948E+01 -0.42592430994E+02  0.47745765487E+02  0.00000000000E+00 0. -1.
</event>
<event>
 4    1  0.5978476E+003  0.4605536E+02  0.7546771E-02  0.1316245E+00
          2   -1    0    0  501    0  0.00000000000E+00  0.00000000000E+00  0.85460195546E+03  0.85460195546E+03  0.00000000000E+00 0.  1.
         -2   -1    0    0    0  501 -0.00000000000E+00 -0.00000000000E+00 -0.29606431639E+02  0.29606431639E+02  0.00000000000E+00 0.  1.
          2    1    1    2  502    0  0.21680493403E+02 -0.40633146796E+02  0.83566512451E+03  0.83693326899E+03  0.00000000000E+00 0.  1.
         -2    1    1    2    0  502 -0.21680493403E+02  0.40633146796E+02 -0.10669600698E+02  0.47275118104E+02  0.00000000000E+00 0.  1.
</event>
<event>
 4    1  0.5978476E+003  0.2115083E+02  0.7546771E-02  0.1517122E+00
          2   -1    0    0  501    0  0.00000000000E+00  0.00000000000E+00  0.13594837192E+04  0.13594837192E+04  0.00000000000E+00 0. -1.
         -2   -1    0    0    0  501 -0.00000000000E+00 -0.00000000000E+00 -0.16010390274E+02  0.16010390274E+02  0.00000000000E+00 0.  1.
          2    1    1    2  502    0 -0.20900832712E+02  0.32423775823E+01  0.13523793294E+04  0.13525447159E+04  0.00000000000E+00 0. -1.
         -2    1    1    2    0  502  0.20900832712E+02 -0.32423775823E+01 -0.89060005096E+01  0.22949393576E+02  0.00000000000E+00 0.  1.
</event>
<event>
 4    1  0.5978476E+003  0.2419156E+02  0.7546771E-02  0.1478054E+00
          2   -1    0    0  501    0  0.00000000000E+00  0.00000000000E+00  0.42291195211E+03  0.42291195211E+03  0.00000000000E+00 0.  1.
         -2   -1    0    0    0  501 -0.00000000000E+00 -0.00000000000E+00 -0.45210461184E+02  0.45210461184E+02  0.00000000000E+00 0. -1.
          2    1    1    2  502    0  0.68417176000E+01 -0.23203936433E+02  0.41930200784E+03  0.41999929231E+03  0.00000000000E+00 0.  1.
         -2    1    1    2    0  502 -0.68417176000E+01  0.23203936433E+02 -0.41600516911E+02  0.48123120982E+02  0.00000000000E+00 0. -1.
</event>
<event>
 4    1  0.5978476E+003  0.6022590E+02  0.7546771E-02  0.1259067E+00
          2   -1    0    0  501    0  0.00000000000E+00  0.00000000000E+00  0.12717335612E+03  0.12717335612E+03  0.00000000000E+00 0.  1.
         -2   -1    0    0    0  501 -0.00000000000E+00 -0.00000000000E+00 -0.89210080945E+02  0.89210080945E+02  0.00000000000E+00 0.  1.
          2    1    1    2  502    0 -0.35004619537E+02 -0.49008526009E+02  0.10821782158E+03  0.12384771260E+03  0.00000000000E+00 0.  1.
         -2    1    1    2    0  502  0.35004619537E+02  0.49008526009E+02 -0.70254546405E+02  0.92535724458E+02  0.00000000000E+00 0.  1.
</event>
<event>
 4    1  0.5978476E+003  0.2198984E+02  0.7546771E-02  0.1505588E+00
          2   -1    0    0  501    0  0.00000000000E+00  0.00000000000E+00  0.15142636517E+04  0.15142636517E+04  0.00000000000E+00 0. -1.
         -2   -1    0    0    0  501 -0.00000000000E+00 -0.00000000000E+00 -0.20683148272E+02  0.20683148272E+02  0.00000000000E+00 0.  1.
          2    1    1    2  502    0 -0.10236806843E+02  0.19461777545E+02  0.15083160023E+04  0.15084762894E+04  0.00000000000E+00 0. -1.
         -2    1    1    2    0  502  0.10236806843E+02 -0.19461777545E+02 -0.14735498889E+02  0.26470510518E+02  0.00000000000E+00 0.  1.
</event>
<event>
 4    1  0.5978476E+003  0.3116716E+02  0.7546771E-02  0.1409718E+00
          2   -1    0    0  501    0  0.00000000000E+00  0.00000000000E+00  0.16468778556E+03  0.16468778556E+03  0.00000000000E+00 0.  1.
         -2   -1    0    0    0  501 -0.00000000000E+00 -0.00000000000E+00 -0.84927133120E+01  0.84927133120E+01  0.00000000000E+00 0.  1.
          2    1    1    2  502    0  0.18604195466E+02 -0.25005512581E+02  0.12595595383E+03  0.12975474579E+03  0.00000000000E+00 0.  1.
         -2    1    1    2    0  502 -0.18604195466E+02  0.25005512581E+02  0.30239118411E+02  0.43425753081E+02  0.00000000000E+00 0.  1.
</event>
<event>
 4    1  0.5978476E+003  0.3752676E+02  0.7546771E-02  0.1363622E+00
          2   -1    0    0  501    0  0.00000000000E+00  0.00000000000E+00  0.87381078113E+02  0.87381078113E+02  0.00000000000E+00 0.  1.
         -2   -1    0    0    0  501 -0.00000000000E+00 -0.00000000000E+00 -0.81646982611E+03  0.81646982611E+03  0.00000000000E+00 0. -1.
          2    1    1    2  502    0  0.60769588618E+01  0.37031451167E+02  0.82898574934E+02  0.90996876488E+02  0.00000000000E+00 0.  1.
         -2    1    1    2    0  502 -0.60769588618E+01 -0.37031451167E+02 -0.81198732293E+03  0.81285402774E+03  0.00000000000E+00 0. -1.
</event>
<event>
 4    1  0.5978476E+003  0.3552713E+02  0.7546771E-02  0.1376895E+00
          2   -1    0    0  501    0  0.00000000000E+00  0.00000000000E+00  0.68435379281E+03  0.68435379281E+03  0.00000000000E+00 0.  1.
         -2   -1    0    0    0  501 -0.00000000000E+00 -0.00000000000E+00 -0.14644053179E+03  0.14644053179E+03  0.00000000000E+00 0. -1.
          2    1    1    2  502    0 -0.32642221550E+02  0.14023642448E+02  0.68172966006E+03  0.68265474918E+03  0.00000000000E+00 0.  1.
         -2    1    1    2    0  502  0.32642221550E+02 -0.14023642448E+02 -0.14381639903E+03  0.14813957542E+03  0.00000000000E+00 0. -1.
</event>
<event>
 4    1  0.5978476E+003  0.3300978E+02  0.7546771E-02  0.1395122E+00
          2   -1    0    0  501    0  0.00000000000E+00  0.00000000000E+00  0.17403771182E+04  0.17403771182E+04  0.00000000000E+00 0. -1.
         -2   -1    0    0    0  501 -0.00000000000E+00 -0.00000000000E+00 -0.47500916147E+02  0.47500916147E+02  0.00000000000E+00 0.  1.
          2    1    1    2  502    0 -0.31582607703E+02  0.96012649865E+01  0.17344661864E+04  0.17347802735E+04  0.00000000000E+00 0. -1.
         -2    1    1    2    0  502  0.31582607703E+02 -0.96012649865E+01 -0.41589984428E+02  0.53097760813E+02  0.00000000000E+00 0.  1.
</event>
<event>
 4    1  0.5978476E+003  0.4040378E+02  0.7546771E-02  0.1346136E+00
          2   -1    0    0  501    0  0.00000000000E+00  0.00000000000E+00  0.19209625284E+03  0.19209625284E+03  0.00000000000E+00 0.  1.
         -2   -1    0    0    0  501 -0.00000000000E+00 -0.00000000000E+00 -0.10599588744E+02  0.10599588744E+02  0.00000000000E+00 0.  1.
          2    1    1    2  502    0  0.75151856354E+01 -0.39698712688E+02  0.13587435621E+03  0.14175438786E+03  0.00000000000E+00 0.  1.
         -2    1    1    2    0  502 -0.75151856354E+01  0.39698712688E+02  0.45622307888E+02  0.60941453718E+02  0.00000000000E+00 0.  1.
</event>
<event>
 4    1  0.5978476E+003  0.3941438E+02  0.7546771E-02  0.1351952E+00
          2   -1    0    0  501    0  0.00000000000E+00  0.00000000000E+00  0.38917128546E+03  0.38917128546E+03  0.00000000000E+00 0.  1.
         -2   -1    0    0    0  501 -0.00000000000E+00 -0.00000000000E+00 -0.20998442213E+03  0.20998442213E+03  0.00000000000E+00 0.  1.
          2    1    1    2  502    0  0.21925281609E+02  0.32753244676E+02  0.38631013960E+03  0.38831561515E+03  0.00000000000E+00 0.  1.
         -2    1    1    2    0  502 -0.21925281609E+02 -0.32753244676E+02 -0.20712327627E+03  0.21084009245E+03  0.00000000000E+00 0.  1.
</event>
<event>
 4    1  0.5978476E+003  0.2417272E+02  0.7546771E-02  0.1478275E+00
          2   -1    0    0  501    0  0.00000000000E+00  0.00000000000E+00  0.89488291898E+03  0.89488291898E+03  0.00000000000E+00 0. -1.
         -2   -1    0    0    0  501 -0.00000000000E+00 -0.00000000000E+00 -0.17740478200E+01  0.17740478200E+01  0.00000000000E+00 0.  1.
          2    1    1    2  502    0 -0.21826992506E+02  0.10387627000E+02  0.80295140064E+03  0.80331517612E+03  0.00000000000E+00 0. -1.
         -2    1    1    2    0  502  0.21826992506E+02 -0.10387627000E+02  0.90157470517E+02  0.93341790675E+02  0.00000000000E+00 0.  1.
</event>
<event>
 4    1  0.5978476E+003  0.2669156E+02  0.7546771E-02  0.1450731E+00
          2   -1    0    0  501    0  0.00000000000E+00  0.00000000000E+00  0.13667256185E+04  0.13667256185E+04  0.00000000000E+00 0. -1.
         -2   -1    0    0    0  501 -0.00000000000E+00 -0.00000000000E+00 -0.53081340415E+00  0.53081340415E+00  0.00000000000E+00 0.  1.
          2    1    1    2  502    0 -0.26433602246E+02 -0.37018949794E+01  0.77473969343E+03  0.77519934980E+03  0.00000000000E+00 0. -1.
         -2    1    1    2    0  502  0.26433602246E+02  0.37018949794E+01  0.59145511168E+03  0.59205708212E+03  0.00000000000E+00 0.  1.
</event>
<event>
 4    1  0.5978476E+003  0.3363853E+02  0.7546771E-02  0.1390396E+00
          2   -1    0    0  501    0  0.00000000000E+00  0.00000000000E+00  0.22072004090E+04  0.22072004090E+04  0.00000000000E+00 0.  1.
         -2   -1    0    0    0  501 -0.00000000000E+00 -0.00000000000E+00 -0.74531717864E+00  0.74531717864E+00  0.00000000000E+00 0.  1.
          2    1    1    2  502    0  0.23205879948E+02 -0.24352368052E+02  0.17200255511E+04  0.17203544540E+04  0.00000000000E+00 0.  1.
         -2    1    1    2    0  502 -0.23205879948E+02  0.24352368052E+02  0.48642954067E+03  0.48759127220E+03  0.00000000000E+00 0.  1.
</event>
<event>
 4    1  0.5978476E+003  0.3225399E+02  0.7546771E-02  0.1400970E+00
          2   -1    0    0  501    0  0.00000000000E+00  0.00000000000E+00  0.12740516915E+04  0.12740516915E+04  0.00000000000E+00 0.  1.
         -2   -1    0    0    0  501 -0.00000000000E+00 -0.00000000000E+00 -0.13549090572E+01  0.13549090572E+01  0.00000000000E+00 0.  1.
          2    1    1    2  502    0 -0.89334441941E+01 -0.30992154992E+02  0.10383259055E+04  0.10388267450E+04  0.00000000000E+00 0.  1.
         -2    1    1    2    0  502  0.89334441941E+01  0.30992154992E+02  0.23437087694E+03  0.23657985555E+03  0.00000000000E+00 0.  1.
</event>
<event>
 4    1  0.5978476E+003  0.2596076E+02  0.7546771E-02  0.1458336E+00
          2   -1    0    0  501    0  0.00000000000E+00  0.00000000000E+00  0.97521714318E+03  0.97521714318E+03  0.00000000000E+00 0.  1.
         -2   -1    0    0    0  501 -0.00000000000E+00 -0.00000000000E+00 -0.21726320666E+01  0.21726320666E+01  0.00000000000E+00 0. -1.
          2    1    1    2  502    0  0.25945236356E+02  0.89766459301E+00  0.89007653395E+03  0.89045505074E+03  0.00000000000E+00 0.  1.
         -2    1    1    2    0  502 -0.25945236356E+02 -0.89766459301E+00  0.82967977161E+02  0.86934724509E+02  0.00000000000E+00 0. -1.
</event>
<event>
 4    1  0.5978476E+003  0.2141220E+02  0.7546771E-02  0.1513460E+00
          2   -1    0    0  501    0  0.00000000000E+00  0.00000000000E+00  0.15851603797E+04  0.15851603797E+04  0.00000000000E+00 0. -1.
         -2   -1    0    0    0  501 -0.00000000000E+00 -0.00000000000E+00 -0.20276321955E+01  0.20276321955E+01  0.00000000000E+00 0. -1.
          2    1    1    2  502    0 -0.12211811314E+02 -0.17588455886E+02  0.15263820852E+04  0.15265322637E+04  0.00000000000E+00 0. -1.
         -2    1    1    2    0  502  0.12211811314E+02  0.17588455886E+02  0.56750662256E+02  0.60655748141E+02  0.00000000000E+00 0. -1.
</event>
<event>
 4    1  0.5978476E+003  0.2498626E+02  0.7546771E-02  0.1468957E+00
          2   -1    0    0  501    0  0.00000000000E+00  0.00000000000E+00  0.67715354323E+03  0.67715354323E+03  0.00000000000E+00 0. -1.
         -2   -1    0    0    0  501 -0.00000000000E+00 -0.00000000000E+00 -0.78221796567E+02  0.78221796567E+02  0.00000000000E+00 0. -1.
          2    1    1    2  502    0 -0.18094736811E+02  0.17230597999E+02  0.67492112450E+03  0.67538347426E+03  0.00000000000E+00 0. -1.
         -2    1    1    2    0  502  0.18094736811E+02 -0.17230597999E+02 -0.75989377838E+02  0.79991865536E+02  0.00000000000E+00 0. -1.
</event>
<event>
 4    1  0.5978476E+003  0.3052230E+02  0.7546771E-02  0.1415111E+00
          2   -1    0    0  501    0  0.00000000000E+00  0.00000000000E+00  0.13115024084E+04  0.13115024084E+04  0.00000000000E+00 0.  1.
         -2   -1    0    0    0  501 -0.00000000000E+00 -0.00000000000E+00 -0.13495515316E+01  0.13495515316E+01  0.00000000000E+00 0.  1.
          2    1    1    2  502    0  0.75808356730E+01  0.29565890143E+02  0.11068426583E+04  0.11072634199E+04  0.00000000000E+00 0.  1.
         -2    1    1    2    0  502 -0.75808356730E+01 -0.29565890143E+02  0.20331019859E+03  0.20558854001E+03  0.00000000000E+00 0.  1.
</event>
<event>
 4    1  0.5978476E+003  0.2292142E+02  0.7546771E-02  0.1493487E+00
          2   -1    0    0  501    0  0.00000000000E+00  0.00000000000E+00  0.51801456924E+02  0.51801456924E+02  0.00000000000E+00 0.  1.
         -2   -1    0    0    0  501 -0.00000000000E+00 -0.00000000000E+00 -0.10671329582E+02  0.10671329582E+02  0.00000000000E+00 0.  1.
          2    1    1    2  502    0  0.17603296786E+02 -0.14680448160E+02  0.27519251695E+02  0.35814812994E+02  0.00000000000E+00 0.  1.
         -2    1    1    2    0  502 -0.17603296786E+02  0.14680448160E+02  0.13610875647E+02  0.26657973512E+02  0.00000000000E+00 0.  1.
</event>
<event>
 4    1  0.5978476E+003  0.8206130E+02  0.7546771E-02  0.1199141E+00
          2   -1    0    0  501    0  0.00000000000E+00  0.00000000000E+00  0.18595077412E+02  0.18595077412E+02  0.00000000000E+00 0.  1.
         -2   -1    0    0    0  501 -0.00000000000E+00 -0.00000000000E+00 -0.53350165619E+03  0.53350165619E+03  0.00000000000E+00 0. -1.
          2    1    1    2  502    0 -0.61295620345E+02 -0.54561017856E+02 -0.10100470409E+03  0.13013841858E+03  0.00000000000E+00 0.  1.
         -2    1    1    2    0  502  0.61295620345E+02  0.54561017856E+02 -0.41390187469E+03  0.42195831502E+03  0.00000000000E+00 0. -1.
</event>
<event>
 4    1  0.5978476E+003  0.2423581E+02  0.7546771E-02  0.1477537E+00
          2   -1    0    0  501    0  0.00000000000E+00  0.00000000000E+00  0.82750431356E+03  0.82750431356E+03  0.00000000000E+00 0. -1.
         -2   -1    0    0    0  501 -0.00000000000E+00 -0.00000000000E+00 -0.24273604216E+01  0.24273604216E+01  0.00000000000E+00 0.  1.
          2    1    1    2  502    0  0.11162242478E+02  0.21512298675E+02  0.76159790689E+03  0.76198342923E+03  0.00000000000E+00 0. -1.
         -2    1    1    2    0  502 -0.11162242478E+02 -0.21512298675E+02  0.63479046255E+02  0.67948244752E+02  0.00000000000E+00 0.  1.
</event>
<event>
 4    1  0.5978476E+003  0.2107083E+02  0.7546771E-02  0.1518256E+00
          2   -1    0    0  501    0  0.00000000000E+00  0.00000000000E+00  0.17253847599E+04  0.17253847599E+04  0.00000000000E+00 0. -1.
         -2   -1    0    0    0  501 -0.00000000000E+00 -0.00000000000E+00 -0.26719759737E+00  0.26719759737E+00  0.00000000000E+00 0. -1.
          2    1    1    2  502    0 -0.21066231992E+02 -0.43974904504E+00  0.69668109879E+03  0.69699966493E+03  0.00000000000E+00 0. -1.
         -2    1    1    2    0  502  0.21066231992E+02  0.43974904504E+00  0.10284364635E+04  0.10286522926E+04  0.00000000000E+00 0. -1.
</event>
<event>
 4    1  0.5978476E+003  0.2467129E+02  0.7546771E-02  0.1472514E+00
          2   -1    0    0  501    0  0.00000000000E+00  0.00000000000E+00  0.95449630240E+03  0.95449630240E+03  0.00000000000E+00 0.  1.
         -2   -1    0    0    0  501 -0.00000000000E+00 -0.00000000000E+00 -0.12447201557E+01  0.12447201557E+01  0.00000000000E+00 0.  1.
          2    1    1    2  502    0  0.17786386207E+02  0.17097274906E+02  0.81034380864E+03  0.81071928591E+03  0.00000000000E+00 0.  1.
         -2    1    1    2    0  502 -0.17786386207E+02 -0.17097274906E+02  0.14290777361E+03  0.14502173665E+03  0.00000000000E+00 0.  1.
</event>
<event>
 4    1  0.5978476E+003  0.2738030E+02  0.7546771E-02  0.1443825E+00
          2   -1    0    0  501    0  0.00000000000E+00  0.00000000000E+00  0.51154000810E+01  0.51154000810E+01  0.00000000000E+00 0.  1.
         -2   -1    0    0    0  501 -0.00000000000E+00 -0.00000000000E+00 -0.16033640190E+03  0.16033640190E+03  0.00000000000E+00 0. -1.
          2    1    1    2  502    0 -0.27124926422E+02  0.37308780828E+01 -0.53356031905E+02  0.59971219975E+02  0.00000000000E+00 0.  1.
         -2    1    1    2    0  502  0.27124926422E+02 -0.37308780828E+01 -0.10186496992E+03  0.10548058201E+03  0.00000000000E+00 0. -1.
</event>
<event>
 4    1  0.5978476E+003  0.2501443E+02  0.7546771E-02  0.1468642E+00
          2   -1    0    0  501    0  0.00000000000E+00  0.00000000000E+00  0.11046004637E+04  0.11046004637E+04  0.00000000000E+00 0. -1.
         -2   -1    0    0    0  501 -0.00000000000E+00 -0.00000000000E+00 -0.17876361906E+01  0.17876361906E+01  0.00000000000E+00 0. -1.
          2    1    1    2  502    0 -0.30104940666E+01 -0.24832610566E+02  0.10086267544E+04  0.10089368916E+04  0.00000000000E+00 0. -1.
         -2    1    1    2    0  502  0.30104940666E+01  0.24832610566E+02  0.94186073176E+02  0.97451208317E+02  0.00000000000E+00 0. -1.
</event>
<event>
 4    1  0.5978476E+003  0.2208943E+02  0.7546771E-02  0.1504260E+00
          2   -1    0    0  501    0  0.00000000000E+00  0.00000000000E+00  0.15810246771E+03  0.15810246771E+03  0.00000000000E+00 0.  1.
         -2   -1    0    0    0  501 -0.00000000000E+00 -0.00000000000E+00 -0.10917855107E+02  0.10917855107E+02  0.00000000000E+00 0. -1.
          2    1    1    2  502    0 -0.33866469560E+01  0.21828276149E+02  0.14516803618E+03  0.14683903346E+03  0.00000000000E+00 0.  1.
         -2    1    1    2    0  502  0.33866469560E+01 -0.21828276149E+02  0.20165764215E+01  0.22181289361E+02  0.00000000000E+00 0. -1.
</event>
<event>
 4    1  0.5978476E+003  0.2137310E+02  0.7546771E-02  0.1514004E+00
          2   -1    0    0  501    0  0.00000000000E+00  0.00000000000E+00  0.16593384359E+03  0.16593384359E+03  0.00000000000E+00 0.  1.
         -2   -1    0    0    0  501 -0.00000000000E+00 -0.00000000000E+00 -0.32229788421E+03  0.32229788421E+03  0.00000000000E+00 0.  1.
          2    1    1    2  502    0  0.21222158027E+02  0.25356157536E+01  0.16488902970E+03  0.16626846199E+03  0.00000000000E+00 0.  1.
         -2    1    1    2    0  502 -0.21222158027E+02 -0.25356157536E+01 -0.32125307032E+03  0.32196326581E+03  0.00000000000E+00 0.  1.
</event>
<event>
 4    1  0.5978476E+003  0.3687347E+02  0.7546771E-02  0.1367850E+00
          2   -1    0    0  501    0  0.00000000000E+00  0.00000000000E+00  0.10613090038E+04  0.10613090038E+04  0.00000000000E+00 0.  1.
         -2   -1    0    0    0  501 -0.00000000000E+00 -0.00000000000E+00 -0.18833507875E+01  0.18833507875E+01  0.00000000000E+00 0. -1.
          2    1    1    2  502    0  0.24661487543E+02 -0.27412836055E+02  0.83032161449E+03  0.83113996176E+03  0.00000000000E+00 0.  1.
         -2    1    1    2    0  502 -0.24661487543E+02  0.27412836055E+02  0.22910403848E+03  0.23205239278E+03  0.00000000000E+00 0. -1.
</event>
<event>
 4    1  0.5978476E+003  0.2045332E+02  0.7546771E-02  0.1527215E+00
          2   -1    0    0  501    0  0.00000000000E+00  0.00000000000E+00  0.59137027007E+03  0.59137027007E+03  0.00000000000E+00 0.  1.
         -2   -1    0    0    0  501 -0.00000000000E+00 -0.00000000000E+00 -0.65461176131E+02  0.65461176131E+02  0.00000000000E+00 0. -1.
          2    1    1    2  502    0  0.19305865487E+02  0.67543998978E+01  0.58959094037E+03  0.58994560371E+03  0.00000000000E+00 0.  1.
         -2    1    1    2    0  502 -0.19305865487E+02 -0.67543998978E+01 -0.63681846438E+02  0.66885842492E+02  0.00000000000E+00 0. -1.
</event>
<event>
 4    1  0.5978476E+003  0.3762535E+02  0.7546771E-02  0.1362993E+00
          2   -1    0    0  501    0  0.00000000000E+00  0.00000000000E+00  0.20333314754E+03  0.20333314754E+03  0.00000000000E+00 0.  1.
         -2   -1    0    0    0  501 -0.00000000000E+00 -0.00000000000E+00 -0.17284745177E+03  0.17284745177E+03  0.00000000000E+00 0.  1.
          2    1    1    2  502    0 -0.32615741847E+01  0.37483720756E+02  0.19950606937E+03  0.20302300092E+03  0.00000000000E+00 0.  1.
         -2    1    1    2    0  502  0.32615741847E+01 -0.37483720756E+02 -0.16902037360E+03  0.17315759838E+03  0.00000000000E+00 0.  1.
</event>
<event>
 4    1  0.5978476E+003  0.2306162E+02  0.7546771E-02  0.1491726E+00
          2   -1    0    0  501    0  0.00000000000E+00  0.00000000000E+00  0.45165778769E+02  0.45165778769E+02  0.00000000000E+00 0. -1.
         -2   -1    0    0    0  501 -0.00000000000E+00 -0.00000000000E+00 -0.11669415571E+03  0.11669415571E+03  0.00000000000E+00 0. -1.
          2    1    1    2  502    0  0.21696544053E+02 -0.78165460482E+01  0.40974024957E+02  0.47018178794E+02  0.00000000000E+00 0. -1.
         -2    1    1    2    0  502 -0.21696544053E+02  0.78165460482E+01 -0.11250240190E+03  0.11484175569E+03  0.00000000000E+00 0. -1.
</event>
<event>
 4    1  0.5978476E+003  0.2448912E+02  0.7546771E-02  0.1474600E+00
          2   -1    0    0  501    0  0.00000000000E+00  0.00000000000E+00  0.52748825235E+02  0.52748825235E+02  0.00000000000E+00 0.  1.
         -2   -1    0    0    0  501 -0.00000000000E+00 -0.00000000000E+00 -0.50725574805E+03  0.50725574805E+03  0.00000000000E+00 0.  1.
          2    1    1    2  502    0  0.10746589617E+02 -0.22005180747E+02  0.49593148520E+02  0.55310013092E+02  0.00000000000E+00 0.  1.
         -2    1    1    2    0  502 -0.10746589617E+02  0.22005180747E+02 -0.50410007134E+03  0.50469456020E+03  0.00000000000E+00 0.  1.
</event>
<event>
 4    1  0.5978476E+003  0.2713967E+02  0.7546771E-02  0.1446210E+00
          2   -1    0    0  501    0  0.00000000000E+00  0.00000000000E+00  0.17713861990E+03  0.17713861990E+03  0.00000000000E+00 0. -1.
         -2   -1    0    0    0  501 -0.00000000000E+00 -0.00000000000E+00 -0.22357711117E+03  0.22357711117E+03  0.00000000000E+00 0. -1.
          2    1    1    2  502    0 -0.20150822053E+02 -0.18179830730E+02  0.17526673762E+03  0.17735555021E+03  0.00000000000E+00 0. -1.
         -2    1    1    2    0  502  0.20150822053E+02  0.18179830730E+02 -0.22170522890E+03  0.22336018086E+03  0.00000000000E+00 0. -1.
</event>
<event>
 4    1  0.5978476E+003  0.5362979E+02  0.7546771E-02  0.1283158E+00
          2   -1    0    0  501    0  0.00000000000E+00  0.00000000000E+00  0.16694571037E+04  0.16694571037E+04  0.00000000000E+00 0.  1.
         -2   -1    0    0    0  501 -0.00000000000E+00 -0.00000000000E+00 -0.11564302602E+03  0.11564302602E+03  0.00000000000E+00 0. -1.
          2    1    1    2  502    0  0.39004945739E+02 -0.36807183115E+02  0.16627837108E+04  0.16636483472E+04  0.00000000000E+00 0.  1.
         -2    1    1    2    0  502 -0.39004945739E+02  0.36807183115E+02 -0.10896963311E+03  0.12145178245E+03  0.00000000000E+00 0. -1.
</event>
<event>
 4    1  0.5978476E+003  0.2353083E+02  0.7546771E-02  0.1485938E+00
          2   -1    0    0  501    0  0.00000000000E+00  0.00000000000E+00  0.93361568476E+03  0.93361568476E+03  0.00000000000E+00 0.  1.
         -2   -1    0    0    0  501 -0.00000000000E+00 -0.00000000000E+00 -0.50778944143E+01  0.50778944143E+01  0.00000000000E+00 0. -1.
          2    1    1    2  502    0  0.15022788349E+02 -0.18111208108E+02  0.90535635503E+03  0.90566209461E+03  0.00000000000E+00 0.  1.
         -2    1    1    2    0  502 -0.15022788349E+02  0.18111208108E+02  0.23181435316E+02  0.33031484560E+02  0.00000000000E+00 0. -1.
</event>
<event>
 4    1  0.5978476E+003  0.2088053E+02  0.7546771E-02  0.1520977E+00
          2   -1    0    0  501    0  0.00000000000E+00  0.00000000000E+00  0.88147439345E+03  0.88147439345E+03  0.00000000000E+00 0. -1.
         -2   -1    0    0    0  501 -0.00000000000E+00 -0.00000000000E+00 -0.10461743721E+01  0.10461743721E+01  0.00000000000E+00 0. -1.
          2    1    1    2  502    0  0.29301346272E+01 -0.20673917356E+02  0.76060946774E+03  0.76089602375E+03  0.00000000000E+00 0. -1.
         -2    1    1    2    0  502 -0.29301346272E+01  0.20673917356E+02  0.11981875134E+03  0.12162454407E+03  0.00000000000E+00 0. -1.
</event>
<event>
 4    1  0.5978476E+003  0.3339432E+02  0.7546771E-02  0.1392217E+00
          2   -1    0    0  501    0  0.00000000000E+00  0.00000000000E+00  0.23505060981E+03  0.23505060981E+03  0.00000000000E+00 0.  1.
         -2   -1    0    0    0  501 -0.00000000000E+00 -0.00000000000E+00 -0.14486716517E+02  0.14486716517E+02  0.00000000000E+00 0.  1.
          2    1    1    2  502    0 -0.11031328926E+02 -0.31519680963E+02  0.21259971340E+03  0.21520645586E+03  0.00000000000E+00 0.  1.
         -2    1    1    2    0  502  0.11031328926E+02  0.31519680963E+02  0.79641798971E+01  0.34330870471E+02  0.00000000000E+00 0.  1.
</event>
<event>
 4    1  0.5978476E+003  0.2231932E+02  0.7546771E-02  0.1501227E+00
          2   -1    0    0  501    0  0.00000000000E+00  0.00000000000E+00  0.30036124009E+03  0.30036124009E+03  0.00000000000E+00 0. -1.
         -2   -1    0    0    0  501 -0.00000000000E+00 -0.00000000000E+00 -0.17098329381E+01  0.17098329381E+01  0.00000000000E+00 0. -1.
          2    1    1    2  502    0  0.76532724149E+01  0.20966150688E+02  0.17549300888E+03  0.17690660875E+03  0.00000000000E+00 0. -1.
         -2    1    1    2    0  502 -0.76532724149E+01 -0.20966150688E+02  0.12315839827E+03  0.12516446428E+03  0.00000000000E+00 0. -1.
</event>
<event>
 4    1  0.5978476E+003  0.2046896E+02  0.7546771E-02  0.1526983E+00
          2   -1    0    0  501    0  0.00000000000E+00  0.00000000000E+00  0.15093264077E+04  0.15093264077E+04  0.00000000000E+00 0.  1.
         -2   -1    0    0    0  501 -0.00000000000E+00 -0.00000000000E+00 -0.21071587714E+03  0.21071587714E+03  0.00000000000E+00 0. -1.
          2    1    1    2  502    0 -0.38322798184E+01  0.20107012574E+02  0.15087597336E+04  0.15088985758E+04  0.00000000000E+00 0.  1.
         -2    1    1    2    0  502  0.38322798184E+01 -0.20107012574E+02 -0.21014920305E+03  0.21114370904E+03  0.00000000000E+00 0. -1.
</event>
<event>
 4    1  0.5978476E+003  0.2369647E+02  0.7546771E-02  0.1483933E+00
          2   -1    0    0  501    0  0.00000000000E+00  0.00000000000E+00  0.43182228765E+03  0.43182228765E+03  0.00000000000E+00 0. -1.
         -2   -1    0    0    0  501 -0.00000000000E+00 -0.00000000000E+00 -0.77847800576E+01  0.77847800576E+01  0.00000000000E+00 0. -1.
          2    1    1    2  502    0 -0.22542628488E+02  0.73042763482E+01  0.41262627555E+03  0.41330614056E+03  0.00000000000E+00 0. -1.
         -2    1    1    2    0  502  0.22542628488E+02 -0.73042763482E+01  0.11411232047E+02  0.26300927150E+02  0.00000000000E+00 0. -1.
</event>
<event>
 4    1  0.5978476E+003  0.3121754E+02  0.7546771E-02  0.1409303E+00
          2   -1    0    0  501    0  0.00000000000E+00  0.00000000000E+00  0.19797526165E+03  0.19797526165E+03  0.00000000000E+00 0.  1.
         -2   -1    0    0    0  501 -0.00000000000E+00 -0.00000000000E+00 -0.22572328710E+03  0.22572328710E+03  0.00000000000E+00 0. -1.
          2    1    1    2  502    0 -0.31213122954E+02 -0.52494604007E+00  0.19565255532E+03  0.19812737573E+03  0.00000000000E+00 0.  1.
         -2    1    1    2    0  502  0.31213122954E+02  0.52494604007E+00 -0.22340058076E+03  0.22557117302E+03  0.00000000000E+00 0. -1.
</event>
<event>
 4    1  0.5978476E+003  0.2116164E+02  0.7546771E-02  0.1516969E+00
          2   -1    0    0  501    0  0.00000000000E+00  0.00000000000E+00  0.36459163056E+03  0.36459163056E+03  0.00000000000E+00 0. -1.
         -2   -1    0    0    0  501 -0.00000000000E+00 -0.00000000000E+00 -0.48473608883E+03  0.48473608883E+03  0.00000000000E+00 0.  1.
          2    1    1    2  502    0  0.20818699557E+02  0.37943228688E+01  0.36405326484E+03  0.36466778686E+03  0.00000000000E+00 0. -1.
         -2    1    1    2    0  502 -0.20818699557E+02 -0.37943228688E+01 -0.48419772311E+03  0.48465993253E+03  0.00000000000E+00 0.  1.
</event>
<event>
 4    1  0.5978476E+003  0.2211566E+02  0.7546771E-02  0.1503912E+00
          2   -1    0    0  501    0  0.00000000000E+00  0.00000000000E+00  0.10313394063E+02  0.10313394063E+02  0.00000000000E+00 0.  1.
         -2   -1    0    0    0  501 -0.00000000000E+00 -0.00000000000E+00 -0.85112817509E+02  0.85112817509E+02  0.00000000000E+00 0.  1.
          2    1    1    2  502    0 -0.20640730873E+02 -0.79412085314E+01 -0.56495188682E+01  0.22825854362E+02  0.00000000000E+00 0.  1.
         -2    1    1    2    0  502  0.20640730873E+02  0.79412085314E+01 -0.69149904577E+02  0.72600357210E+02  0.00000000000E+00 0.  1.
</event>
<event>
 4    1  0.5978476E+003  0.2789903E+02  0.7546771E-02  0.1438780E+00
          2   -1    0    0  501    0  0.00000000000E+00  0.00000000000E+00  0.19273807280E+04  0.19273807280E+04  0.00000000000E+00 0. -1.
         -2   -1    0    0    0  501 -0.00000000000E+00 -0.00000000000E+00 -0.98776343007E+00  0.98776343007E+00  0.00000000000E+00 0.  1.
          2    1    1    2  502    0 -0.17988878072E+02  0.21325016710E+02  0.17045255020E+04  0.17047538072E+04  0.00000000000E+00 0. -1.
         -2    1    1    2    0  502  0.17988878072E+02 -0.21325016710E+02  0.22186746252E+03  0.22361468422E+03  0.00000000000E+00 0.  1.
</event>
<event>
 4    1  0.5978476E+003  0.2644033E+02  0.7546771E-02  0.1453313E+00
          2   -1    0    0  501    0  0.00000000000E+00  0.00000000000E+00  0.83336015722E+02  0.83336015722E+02  0.00000000000E+00 0. -1.
         -2   -1    0    0    0  501 -0.00000000000E+00 -0.00000000000E+00 -0.56782500776E+02  0.56782500776E+02  0.00000000000E+00 0. -1.
          2    1    1    2  502    0  0.18519588862E+02  0.18871038650E+02  0.77954161676E+02  0.82316113817E+02  0.00000000000E+00 0. -1.
         -2    1    1    2    0  502 -0.18519588862E+02 -0.18871038650E+02 -0.51400646730E+02  0.57802402680E+02  0.00000000000E+00 0. -1.
</event>
<event>
 4    1  0.5978476E+003  0.2822342E+02  0.7546771E-02  0.1435691E+00
          2   -1    0    0  501    0  0.00000000000E+00  0.00000000000E+00  0.57796779117E+03  0.57796779117E+03  0.00000000000E+00 0.  1.
         -2   -1    0    0    0  501 -0.00000000000E+00 -0.00000000000E+00 -0.21536847317E+01  0.21536847317E+01  0.00000000000E+00 0.  1.
          2    1    1    2  502    0  0.17408371920E+02  0.22215085747E+02  0.46196004253E+03  0.46282139356E+03  0.00000000000E+00 0.  1.
         -2    1    1    2    0  502 -0.17408371920E+02 -0.22215085747E+02  0.11385406391E+03  0.11730008234E+03  0.00000000000E+00 0.  1.
</event>
<event>
 4    1  0.5978476E+003  0.3333886E+02  0.7546771E-02  0.1392633E+00
          2   -1    0    0  501    0  0.00000000000E+00  0.00000000000E+00  0.11670447575E+03  0.11670447575E+03  0.00000000000E+00 0. -1.
         -2   -1    0    0    0  501 -0.00000000000E+00 -0.00000000000E+00 -0.77557552223E+02  0.77557552223E+02  0.00000000000E+00 0.  1.
          2    1    1    2  502    0  0.21382625839E+02 -0.25578560784E+02  0.11054548030E+03  0.11546333910E+03  0.00000000000E+00 0. -1.
         -2    1    1    2    0  502 -0.21382625839E+02  0.25578560784E+02 -0.71398556775E+02  0.78798688880E+02  0.00000000000E+00 0.  1.
</event>
<event>
 4    1  0.5978476E+003  0.8364694E+02  0.7546771E-02  0.1195625E+00
          2   -1    0    0  501    0  0.00000000000E+00  0.00000000000E+00  0.38188761213E+02  0.38188761213E+02  0.00000000000E+00 0.  1.
         -2   -1    0    0    0  501 -0.00000000000E+00 -0.00000000000E+00 -0.27337785680E+03  0.27337785680E+03  0.00000000000E+00 0. -1.
          2    1    1    2  502    0 -0.21556037692E+01  0.83619156717E+02 -0.28130292659E+02  0.88250344831E+02  0.00000000000E+00 0.  1.
         -2    1    1    2    0  502  0.21556037692E+01 -0.83619156717E+02 -0.20705880293E+03  0.22331627318E+03  0.00000000000E+00 0. -1.
</event>
<event>
 4    1  0.5978476E+003  0.2201854E+02  0.7546771E-02  0.1505204E+00
          2   -1    0    0  501    0  0.00000000000E+00  0.00000000000E+00  0.15081681868E+04  0.15081681868E+04  0.00000000000E+00 0. -1.
         -2   -1    0    0    0  501 -0.00000000000E+00 -0.00000000000E+00 -0.11020231529E+01  0.11020231529E+01  0.00000000000E+00 0.  1.
          2    1    1    2  502    0 -0.17833307186E+02  0.12914698347E+02  0.13886381371E+04  0.13888126915E+04  0.00000000000E+00 0. -1.
         -2    1    1    2    0  502  0.17833307186E+02 -0.12914698347E+02  0.11842802654E+03  0.12045751844E+03  0.00000000000E+00 0.  1.
</event>
<event>
 4    1  0.5978476E+003  0.2265125E+02  0.7546771E-02  0.1496924E+00
          2   -1    0    0  501    0  0.00000000000E+00  0.00000000000E+00  0.33983966875E+03  0.33983966875E+03  0.00000000000E+00 0.  1.
         -2   -1    0    0    0  501 -0.00000000000E+00 -0.00000000000E+00 -0.21464863781E+03  0.21464863781E+03  0.00000000000E+00 0.  1.
          2    1    1    2  502    0  0.37174847906E+01 -0.22344115348E+02  0.33886292581E+03  0.33961914209E+03  0.00000000000E+00 0.  1.
         -2    1    1    2    0  502 -0.37174847906E+01  0.22344115348E+02 -0.21367189487E+03  0.21486916447E+03  0.00000000000E+00 0.  1.
</event>
<event>
 4    1  0.5978476E+003  0.2482886E+02  0.7546771E-02  0.1470727E+00
          2   -1    0    0  501    0  0.00000000000E+00  0.00000000000E+00  0.63987950099E+03  0.63987950099E+03  0.00000000000E+00 0.  1.
         -2   -1    0    0    0  501 -0.00000000000E+00 -0.00000000000E+00 -0.24586854521E+01  0.24586854521E+01  0.00000000000E+00 0.  1.
          2    1    1    2  502    0  0.27844302412E+01 -0.24672240061E+02  0.56917218674E+03  0.56971348118E+03  0.00000000000E+00 0.  1.
         -2    1    1    2    0  502 -0.27844302412E+01  0.24672240061E+02  0.68248628793E+02  0.72624705256E+02  0.00000000000E+00 0.  1.
</event>
<event>
 4    1  0.5978476E+003  0.2194085E+02  0.7546771E-02  0.1506244E+00
          2   -1    0    0  501    0  0.00000000000E+00  0.00000000000E+00  0.24831387172E+03  0.24831387172E+03  0.00000000000E+00 0.  1.
         -2   -1    0    0    0  501 -0.00000000000E+00 -0.00000000000E+00 -0.11802728261E+02  0.11802728261E+02  0.00000000000E+00 0.  1.
          2    1    1    2  502    0 -0.59988695512E+01 -0.21104845843E+02  0.23715355254E+03  0.23816634614E+03  0.00000000000E+00 0.  1.
         -2    1    1    2    0  502  0.59988695512E+01  0.21104845843E+02 -0.64240908273E+00  0.21950253834E+02  0.00000000000E+00 0.  1.
</event>
<event>
 4    1  0.5978476E+003  0.4075942E+02  0.7546771E-02  0.1344092E+00
          2   -1    0    0  501    0  0.00000000000E+00  0.00000000000E+00  0.44604392740E+02  0.44604392740E+02  0.00000000000E+00 0.  1.
         -2   -1    0    0    0  501 -0.00000000000E+00 -0.00000000000E+00 -0.39468106458E+02  0.39468106458E+02  0.00000000000E+00 0. -1.
          2    1    1    2  502    0 -0.26537019474E+02  0.30937311402E+02  0.12542692070E+02  0.42645630066E+02  0.00000000000E+00 0.  1.
         -2    1    1    2    0  502  0.26537019474E+02 -0.30937311402E+02 -0.74064057892E+01  0.41426869132E+02  0.00000000000E+00 0. -1.
</event>
<event>
 4    1  0.5978476E+003  0.2939248E+02  0.7546771E-02  0.1424950E+00
          2   -1    0    0  501    0  0.00000000000E+00  0.00000000000E+00  0.42875830702E+03  0.42875830702E+03  0.00000000000E+00 0. -1.
         -2   -1    0    0    0  501 -0.00000000000E+00 -0.00000000000E+00 -0.83781027765E+01  0.83781027765E+01  0.00000000000E+00 0. -1.
          2    1    1    2  502    0 -0.22434283032E+02 -0.18990018322E+02  0.40067081656E+03  0.40174745935E+03  0.00000000000E+00 0. -1.
         -2    1    1    2    0  502  0.22434283032E+02  0.18990018322E+02  0.19709387689E+02  0.35388950452E+02  0.00000000000E+00 0. -1.
</event>
<event>
 4    1  0.5982960E+003  0.2252756E+02  0.7546771E-02  0.1498517E+00
          2   -1    0    0  501    0  0.00000000000E+00  0.00000000000E+00  0.12257293885E+04  0.12257293885E+04  0.00000000000E+00 0. -1.
         -2   -1    0    0    0  501 -0.00000000000E+00 -0.00000000000E+00 -0.12622759626E+03  0.12622759626E+03  0.00000000000E+00 0.  1.
          2    1    1    2  502    0  0.14888856663E+02 -0.16905998047E+02  0.12246198593E+04  0.12248270452E+04  0.00000000000E+00 0. -1.
         -2    1    1    2    0  502 -0.14888856663E+02  0.16905998047E+02 -0.12511806708E+03  0.12712993956E+03  0.00000000000E+00 0.  1.
</event>
<event>
 4    1  0.5978476E+003  0.9368328E+02  0.7546771E-02  0.1175228E+00
          2   -1    0    0  501    0  0.00000000000E+00  0.00000000000E+00  0.82016117127E+02  0.82016117127E+02  0.00000000000E+00 0.  1.
         -2   -1    0    0    0  501 -0.00000000000E+00 -0.00000000000E+00 -0.15088881742E+03  0.15088881742E+03  0.00000000000E+00 0. -1.
          2    1    1    2  502    0  0.93364770976E+02  0.77186150933E+01  0.28361800271E+02  0.97882323189E+02  0.00000000000E+00 0.  1.
         -2    1    1    2    0  502 -0.93364770976E+02 -0.77186150933E+01 -0.97234500569E+02  0.13502261136E+03  0.00000000000E+00 0. -1.
</event>
<event>
 4    1  0.5978476E+003  0.2813549E+02  0.7546771E-02  0.1436524E+00
          2   -1    0    0  501    0  0.00000000000E+00  0.00000000000E+00  0.26355462277E+02  0.26355462277E+02  0.00000000000E+00 0.  1.
         -2   -1    0    0    0  501 -0.00000000000E+00 -0.00000000000E+00 -0.31007242099E+03  0.31007242099E+03  0.00000000000E+00 0. -1.
          2    1    1    2  502    0 -0.28042928193E+02  0.22803185281E+01  0.18000811576E+02  0.33401121113E+02  0.00000000000E+00 0.  1.
         -2    1    1    2    0  502  0.28042928193E+02 -0.22803185281E+01 -0.30171777029E+03  0.30302676216E+03  0.00000000000E+00 0. -1.
</event>
<event>
 4    1  0.5978476E+003  0.2546013E+02  0.7546771E-02  0.1463721E+00
          2   -1    0    0  501    0  0.00000000000E+00  0.00000000000E+00  0.22139471635E+03  0.22139471635E+03  0.00000000000E+00 0. -1.
         -2   -1    0    0    0  501 -0.00000000000E+00 -0.00000000000E+00 -0.18736544711E+03  0.18736544711E+03  0.00000000000E+00 0.  1.
          2    1    1    2  502    0  0.24465473584E+02 -0.70469019917E+01  0.21979154582E+03  0.22126125246E+03  0.00000000000E+00 0. -1.
         -2    1    1    2    0  502 -0.24465473584E+02  0.70469019917E+01 -0.18576227658E+03  0.18749891100E+03  0.00000000000E+00 0.  1.
</event>
<event>
 4    1  0.5978476E+003  0.2359453E+02  0.7546771E-02  0.1485165E+00
          2   -1    0    0  501    0  0.00000000000E+00  0.00000000000E+00  0.13163718492E+03  0.13163718492E+03  0.00000000000E+00 0.  1.
         -2   -1    0    0    0  501 -0.00000000000E+00 -0.00000000000E+00 -0.46400670789E+01  0.46400670789E+01  0.00000000000E+00 0. -1.
          2    1    1    2  502    0  0.53806507768E+01 -0.22972822446E+02  0.83777917051E+02  0.87037011434E+02  0.00000000000E+00 0.  1.
         -2    1    1    2    0  502 -0.53806507768E+01  0.22972822446E+02  0.43219200788E+02  0.49240240563E+02  0.00000000000E+00 0. -1.
</event>
<event>
 4    1  0.5978476E+003  0.2648255E+02  0.7546771E-02  0.1452876E+00
          2   -1    0    0  501    0  0.00000000000E+00  0.00000000000E+00  0.10282907168E+03  0.10282907168E+03  0.00000000000E+00 0. -1.
         -2   -1    0    0    0  501 -0.00000000000E+00 -0.00000000000E+00 -0.28083353971E+02  0.28083353971E+02  0.00000000000E+00 0. -1.
          2    1    1    2  502    0 -0.16881805749E+02 -0.20404168820E+02  0.94328818413E+02  0.97975769728E+02  0.00000000000E+00 0. -1.
         -2    1    1    2    0  502  0.16881805749E+02  0.20404168820E+02 -0.19583100701E+02  0.32936655927E+02  0.00000000000E+00 0. -1.
</event>
<event>
 4    1  0.5978476E+003  0.2462249E+02  0.7546771E-02  0.1473071E+00
          2   -1    0    0  501    0  0.00000000000E+00  0.00000000000E+00  0.11642026227E+04  0.11642026227E+04  0.00000000000E+00 0. -1.
         -2   -1    0    0    0  501 -0.00000000000E+00 -0.00000000000E+00 -0.62707891833E+01  0.62707891833E+01  0.00000000000E+00 0.  1.
          2    1    1    2  502    0 -0.24318950471E+02  0.38543226096E+01  0.11393755329E+04  0.11396415542E+04  0.00000000000E+00 0. -1.
         -2    1    1    2    0  502  0.24318950471E+02 -0.38543226096E+01  0.18556300655E+02  0.30831857693E+02  0.00000000000E+00 0.  1.
</event>
<event>
 4    1  0.5978476E+003  0.2535399E+02  0.7546771E-02  0.1464882E+00
          2   -1    0    0  501    0  0.00000000000E+00  0.00000000000E+00  0.46782236529E+01  0.46782236529E+01  0.00000000000E+00 0. -1.
         -2   -1    0    0    0  501 -0.00000000000E+00 -0.00000000000E+00 -0.15318607252E+03  0.15318607252E+03  0.00000000000E+00 0.  1.
          2    1    1    2  502    0 -0.13324551168E+02 -0.21570374872E+02 -0.48921714510E+02  0.55101351041E+02  0.00000000000E+00 0. -1.
         -2    1    1    2    0  502  0.13324551168E+02  0.21570374872E+02 -0.99586134353E+02  0.10276294513E+03  0.00000000000E+00 0.  1.
</event>
<event>
 4    1  0.5978476E+003  0.2236198E+02  0.7546771E-02  0.1500669E+00
          2   -1    0    0  501    0  0.00000000000E+00  0.00000000000E+00  0.66877552539E+00  0.66877552539E+00  0.00000000000E+00 0.  1.
         -2   -1    0    0    0  501 -0.00000000000E+00 -0.00000000000E+00 -0.12342160338E+04  0.12342160338E+04  0.00000000000E+00 0.  1.
          2    1    1    2  502    0 -0.21599311553E+02  0.57903223700E+01 -0.22912373139E+03  0.23021238538E+03  0.00000000000E+00 0.  1.
         -2    1    1    2    0  502  0.21599311553E+02 -0.57903223700E+01 -0.10044235269E+04  0.10046724240E+04  0.00000000000E+00 0.  1.
</event>
<event>
 4    1  0.5978476E+003  0.2756383E+02  0.7546771E-02  0.1442025E+00
          2   -1    0    0  501    0  0.00000000000E+00  0.00000000000E+00  0.14433051882E+04  0.14433051882E+04  0.00000000000E+00 0.  1.
         -2   -1    0    0    0  501 -0.00000000000E+00 -0.00000000000E+00 -0.11559460455E+01  0.11559460455E+01  0.00000000000E+00 0.  1.
          2    1    1    2  502    0  0.63778342839E+01  0.26815812866E+02  0.12540642336E+04  0.12543671179E+04  0.00000000000E+00 0.  1.
         -2    1    1    2    0  502 -0.63778342839E+01 -0.26815812866E+02  0.18808500855E+03  0.19009401629E+03  0.00000000000E+00 0.  1.
</event>
<event>
 4    1  0.5978476E+003  0.3848782E+02  0.7546771E-02  0.1357582E+00
          2   -1    0    0  501    0  0.00000000000E+00  0.00000000000E+00  0.27745542152E+04  0.27745542152E+04  0.00000000000E+00 0. -1.
         -2   -1    0    0    0  501 -0.00000000000E+00 -0.00000000000E+00 -0.48861883428E+01  0.48861883428E+01  0.00000000000E+00 0.  1.
          2    1    1    2  502    0 -0.15945444600E+02 -0.35029351397E+02  0.26964342662E+04  0.26967089322E+04  0.00000000000E+00 0. -1.
         -2    1    1    2    0  502  0.15945444600E+02  0.35029351397E+02  0.73233760645E+02  0.82731471406E+02  0.00000000000E+00 0.  1.
</event>
<event>
 4    1  0.5978476E+003  0.2145445E+02  0.7546771E-02  0.1512874E+00
          2   -1    0    0  501    0  0.00000000000E+00  0.00000000000E+00  0.14700116290E+03  0.14700116290E+03  0.00000000000E+00 0.  1.
         -2   -1    0    0    0  501 -0.00000000000E+00 -0.00000000000E+00 -0.33952601408E+01  0.33952601408E+01  0.00000000000E+00 0. -1.
          2    1    1    2  502    0 -0.55921209870E+01 -0.20712826210E+02  0.50832589191E+02  0.55174678165E+02  0.00000000000E+00 0. -1.
         -2    1    1    2    0  502  0.55921209870E+01  0.20712826210E+02  0.92773313567E+02  0.95221744875E+02  0.00000000000E+00 0.  1.
</event>
<event>
 4    1  0.5978476E+003  0.2568824E+02  0.7546771E-02  0.1461249E+00
          2   -1    0    0  501    0  0.00000000000E+00  0.00000000000E+00  0.17248315333E+04  0.17248315333E+04  0.00000000000E+00 0. -1.
         -2   -1    0    0    0  501 -0.00000000000E+00 -0.00000000000E+00 -0.99954659124E+01  0.99954659124E+01  0.00000000000E+00 0. -1.
          2    1    1    2  502    0 -0.22486988762E+02  0.12418577936E+02  0.17080693016E+04  0.17082624578E+04  0.00000000000E+00 0. -1.
         -2    1    1    2    0  502  0.22486988762E+02 -0.12418577936E+02  0.67667658275E+01  0.26564541429E+02  0.00000000000E+00 0. -1.
</event>
<event>
 4    1  0.5978476E+003  0.4140558E+02  0.7546771E-02  0.1340440E+00
          2   -1    0    0  501    0  0.00000000000E+00  0.00000000000E+00  0.16929850218E+03  0.16929850218E+03  0.00000000000E+00 0. -1.
         -2   -1    0    0    0  501 -0.00000000000E+00 -0.00000000000E+00 -0.16089488176E+02  0.16089488176E+02  0.00000000000E+00 0.  1.
          2    1    1    2  502    0 -0.12548297088E+02 -0.39458358702E+02  0.13303424587E+03  0.13932886422E+03  0.00000000000E+00 0. -1.
         -2    1    1    2    0  502  0.12548297088E+02  0.39458358702E+02  0.20174768141E+02  0.46059126140E+02  0.00000000000E+00 0.  1.
</event>
<event>
 4    1  0.5978476E+003  0.2236012E+02  0.7546771E-02  0.1500693E+00
          2   -1    0    0  501    0  0.00000000000E+00  0.00000000000E+00  0.11133963387E+04  0.11133963387E+04  0.00000000000E+00 0.  1.
         -2   -1    0    0    0  501 -0.00000000000E+00 -0.00000000000E+00 -0.38309925526E+01  0.38309925526E+01  0.00000000000E+00 0. -1.
          2    1    1    2  502    0  0.82812951021E+01 -0.20770053405E+02  0.10796369793E+04  0.10798685022E+04  0.00000000000E+00 0.  1.
         -2    1    1    2    0  502 -0.82812951021E+01  0.20770053405E+02  0.29928366903E+02  0.37358829110E+02  0.00000000000E+00 0. -1.
</event>
<event>
 4    1  0.5978476E+003  0.2285796E+02  0.7546771E-02  0.1494289E+00
          2   -1    0    0  501    0  0.00000000000E+00  0.00000000000E+00  0.12661699139E+04  0.12661699139E+04  0.00000000000E+00 0. -1.
         -2   -1    0    0    0  501 -0.00000000000E+00 -0.00000000000E+00 -0.42898461642E+00  0.42898461642E+00  0.00000000000E+00 0. -1.
          2    1    1    2  502    0  0.76128238241E+00 -0.22845283163E+02  0.75644443085E+03  0.75678970889E+03  0.00000000000E+00 0. -1.
         -2    1    1    2    0  502 -0.76128238241E+00  0.22845283163E+02  0.50929649840E+03  0.50980918960E+03  0.00000000000E+00 0. -1.
</event>
<event>
 4    1  0.5978476E+003  0.2585003E+02  0.7546771E-02  0.1459515E+00
          2   -1    0    0  501    0  0.00000000000E+00  0.00000000000E+00  0.22598547204E+01  0.22598547204E+01  0.00000000000E+00 0.  1.
         -2   -1    0    0    0  501 -0.00000000000E+00 -0.00000000000E+00 -0.88655622760E+03  0.88655622760E+03  0.00000000000E+00 0. -1.
          2    1    1    2  502    0  0.19133073785E+02  0.17382452614E+02 -0.79344164475E+02  0.83448910164E+02  0.00000000000E+00 0.  1.
         -2    1    1    2    0  502 -0.19133073785E+02 -0.17382452614E+02 -0.80495220841E+03  0.80536717216E+03  0.00000000000E+00 0. -1.
</event>
<event>
 4    1  0.5978476E+003  0.4683885E+02  0.7546771E-02  0.1312492E+00
          2   -1    0    0  501    0  0.00000000000E+00  0.00000000000E+00  0.18404592533E+03  0.18404592533E+03  0.00000000000E+00 0.  1.
         -2   -1    0    0    0  501 -0.00000000000E+00 -0.00000000000E+00 -0.39244770337E+02  0.39244770337E+02  0.00000000000E+00 0.  1.
          2    1    1    2  502    0  0.23477216913E+02 -0.40530208494E+02  0.16555979517E+03  0.17205790679E+03  0.00000000000E+00 0.  1.
         -2    1    1    2    0  502 -0.23477216913E+02  0.40530208494E+02 -0.20758640170E+02  0.51232788878E+02  0.00000000000E+00 0.  1.
</event>
<event>
 4    1  0.5978476E+003  0.3204596E+02  0.7546771E-02  0.1402612E+00
          2   -1    0    0  501    0  0.00000000000E+00  0.00000000000E+00  0.53070290776E+03  0.53070290776E+03  0.00000000000E+00 0. -1.
         -2   -1    0    0    0  501 -0.00000000000E+00 -0.00000000000E+00 -0.21626777985E+01  0.21626777985E+01  0.00000000000E+00 0. -1.
          2    1    1    2  502    0  0.17903659712E+02 -0.26578230109E+02  0.35070566465E+03  0.35216673120E+03  0.00000000000E+00 0. -1.
         -2    1    1    2    0  502 -0.17903659712E+02  0.26578230109E+02  0.17783456531E+03  0.18069885436E+03  0.00000000000E+00 0. -1.
</event>
<event>
 4    1  0.5978476E+003  0.2864195E+02  0.7546771E-02  0.1431777E+00
          2   -1    0    0  501    0  0.00000000000E+00  0.00000000000E+00  0.23139442960E+04  0.23139442960E+04  0.00000000000E+00 0. -1.
         -2   -1    0    0    0  501 -0.00000000000E+00 -0.00000000000E+00 -0.87747156979E+00  0.87747156979E+00  0.00000000000E+00 0. -1.
          2    1    1    2  502    0 -0.21711527294E+02  0.18680764892E+02  0.20500401815E+04  0.20502402560E+04  0.00000000000E+00 0. -1.
         -2    1    1    2    0  502  0.21711527294E+02 -0.18680764892E+02  0.26302664287E+03  0.26458151155E+03  0.00000000000E+00 0. -1.
</event>
<event>
 4    1  0.5978476E+003  0.5184325E+02  0.7546771E-02  0.1290373E+00
          2   -1    0    0  501    0  0.00000000000E+00  0.00000000000E+00  0.55322152993E+03  0.55322152993E+03  0.00000000000E+00 0.  1.
         -2   -1    0    0    0  501 -0.00000000000E+00 -0.00000000000E+00 -0.60315678423E+02  0.60315678423E+02  0.00000000000E+00 0. -1.
          2    1    1    2  502    0  0.51812711511E+02 -0.17790449226E+01  0.54060737908E+03  0.54308752554E+03  0.00000000000E+00 0.  1.
         -2    1    1    2    0  502 -0.51812711511E+02  0.17790449226E+01 -0.47701527579E+02  0.70449682812E+02  0.00000000000E+00 0. -1.
</event>
<event>
 4    1  0.5978476E+003  0.3390887E+02  0.7546771E-02  0.1388401E+00
          2   -1    0    0  501    0  0.00000000000E+00  0.00000000000E+00  0.34243945030E+03  0.34243945030E+03  0.00000000000E+00 0. -1.
         -2   -1    0    0    0  501 -0.00000000000E+00 -0.00000000000E+00 -0.76825170180E+01  0.76825170180E+01  0.00000000000E+00 0. -1.
          2    1    1    2  502    0  0.31961843418E+02  0.11324826892E+02  0.29872576536E+03  0.30064413187E+03  0.00000000000E+00 0. -1.
         -2    1    1    2    0  502 -0.31961843418E+02 -0.11324826892E+02  0.36031167929E+02  0.49477835453E+02  0.00000000000E+00 0. -1.
</event>
<event>
 4    1  0.5978476E+003  0.2100005E+02  0.7546771E-02  0.1519264E+00
          2   -1    0    0  501    0  0.00000000000E+00  0.00000000000E+00  0.22790971466E+01  0.22790971466E+01  0.00000000000E+00 0. -1.
         -2   -1    0    0    0  501 -0.00000000000E+00 -0.00000000000E+00 -0.20964803492E+03  0.20964803492E+03  0.00000000000E+00 0.  1.
          2    1    1    2  502    0 -0.60415248167E+01 -0.20112241785E+02 -0.74274894217E+02  0.77186541590E+02  0.00000000000E+00 0. -1.
         -2    1    1    2    0  502  0.60415248167E+01  0.20112241785E+02 -0.13309404356E+03  0.13474059048E+03  0.00000000000E+00 0.  1.
</event>
<event>
 4    1  0.5978476E+003  0.2011385E+02  0.7546771E-02  0.1532302E+00
          2   -1    0    0  501    0  0.00000000000E+00  0.00000000000E+00  0.14437689964E+02  0.14437689964E+02  0.00000000000E+00 0. -1.
         -2   -1    0    0    0  501 -0.00000000000E+00 -0.00000000000E+00 -0.14748222751E+03  0.14748222751E+03  0.00000000000E+00 0. -1.
          2    1    1    2  502    0  0.89820333188E+00  0.20093786314E+02  0.63417044562E+01  0.21089908323E+02  0.00000000000E+00 0. -1.
         -2    1    1    2    0  502 -0.89820333188E+00 -0.20093786314E+02 -0.13938624201E+03  0.14083000915E+03  0.00000000000E+00 0. -1.
</event>
<event>
 4    1  0.5978476E+003  0.2141505E+02  0.7546771E-02  0.1513421E+00
          2   -1    0    0  501    0  0.00000000000E+00  0.00000000000E+00  0.54604752398E+03  0.54604752398E+03  0.00000000000E+00 0.  1.
         -2   -1    0    0    0  501 -0.00000000000E+00 -0.00000000000E+00 -0.16636060791E+03  0.16636060791E+03  0.00000000000E+00 0.  1.
          2    1    1    2  502    0  0.21289646965E+02 -0.23141844663E+01  0.54514724847E+03  0.54556771077E+03  0.00000000000E+00 0.  1.
         -2    1    1    2    0  502 -0.21289646965E+02  0.23141844663E+01 -0.16546033241E+03  0.16684042112E+03  0.00000000000E+00 0.  1.
</event>
<event>
 4    1  0.5978476E+003  0.2243167E+02  0.7546771E-02  0.1499761E+00
          2   -1    0    0  501    0  0.00000000000E+00  0.00000000000E+00  0.17117168607E+03  0.17117168607E+03  0.00000000000E+00 0. -1.
         -2   -1    0    0    0  501 -0.00000000000E+00 -0.00000000000E+00 -0.34473816985E+01  0.34473816985E+01  0.00000000000E+00 0. -1.
          2    1    1    2  502    0 -0.93942950898E+01 -0.20369756227E+02  0.11737002514E+03  0.11949436200E+03  0.00000000000E+00 0. -1.
         -2    1    1    2    0  502  0.93942950898E+01  0.20369756227E+02  0.50354279239E+02  0.55124705774E+02  0.00000000000E+00 0. -1.
</event>
<event>
 4    1  0.5978476E+003  0.2728904E+02  0.7546771E-02  0.1444726E+00
          2   -1    0    0  501    0  0.00000000000E+00  0.00000000000E+00  0.12851158604E+04  0.12851158604E+04  0.00000000000E+00 0.  1.
         -2   -1    0    0    0  501 -0.00000000000E+00 -0.00000000000E+00 -0.29445185278E+01  0.29445185278E+01  0.00000000000E+00 0. -1.
          2    1    1    2  502    0  0.16411244560E+02 -0.21802813293E+02  0.12182755582E+04  0.12185811533E+04  0.00000000000E+00 0.  1.
         -2    1    1    2    0  502 -0.16411244560E+02  0.21802813293E+02  0.63895783763E+02  0.69479225659E+02  0.00000000000E+00 0. -1.
</event>
<event>
 4    1  0.5978476E+003  0.2271716E+02  0.7546771E-02  0.1496081E+00
          2   -1    0    0  501    0  0.00000000000E+00  0.00000000000E+00  0.18010794867E+03  0.18010794867E+03  0.00000000000E+00 0. -1.
         -2   -1    0    0    0  501 -0.00000000000E+00 -0.00000000000E+00 -0.29457000971E+02  0.29457000971E+02  0.00000000000E+00 0. -1.
          2    1    1    2  502    0 -0.44525230583E+01  0.22276539218E+02  0.17488141467E+03  0.17635072543E+03  0.00000000000E+00 0. -1.
         -2    1    1    2    0  502  0.44525230583E+01 -0.22276539218E+02 -0.24230466966E+02  0.33214224220E+02  0.00000000000E+00 0. -1.
</event>
<event>
 4    1  0.5978476E+003  0.2710094E+02  0.7546771E-02  0.1446597E+00
          2   -1    0    0  501    0  0.00000000000E+00  0.00000000000E+00  0.12797299580E+04  0.12797299580E+04  0.00000000000E+00 0. -1.
         -2   -1    0    0    0  501 -0.00000000000E+00 -0.00000000000E+00 -0.68629694738E+00  0.68629694738E+00  0.00000000000E+00 0. -1.
          2    1    1    2  502    0 -0.60700272155E+01 -0.26412419592E+02  0.89858519251E+03  0.89899377602E+03  0.00000000000E+00 0. -1.
         -2    1    1    2    0  502  0.60700272155E+01  0.26412419592E+02  0.38045846854E+03  0.38142247892E+03  0.00000000000E+00 0. -1.
</event>
<event>
 4    1  0.5978476E+003  0.2077705E+02  0.7546771E-02  0.1522472E+00
          2   -1    0    0  501    0  0.00000000000E+00  0.00000000000E+00  0.23511583230E+03  0.23511583230E+03  0.00000000000E+00 0. -1.
         -2   -1    0    0    0  501 -0.00000000000E+00 -0.00000000000E+00 -0.12553541578E+03  0.12553541578E+03  0.00000000000E+00 0.  1.
          2    1    1    2  502    0 -0.20083196796E+02 -0.53245573588E+01  0.23379227200E+03  0.23471368122E+03  0.00000000000E+00 0. -1.
         -2    1    1    2    0  502  0.20083196796E+02  0.53245573588E+01 -0.12421185548E+03  0.12593756686E+03  0.00000000000E+00 0.  1.
</event>
<event>
 4    1  0.5978476E+003  0.2204928E+02  0.7546771E-02  0.1504794E+00
          2   -1    0    0  501    0  0.00000000000E+00  0.00000000000E+00  0.11117341622E+04  0.11117341622E+04  0.00000000000E+00 0. -1.
         -2   -1    0    0    0  501 -0.00000000000E+00 -0.00000000000E+00 -0.18088159647E+01  0.18088159647E+01  0.00000000000E+00 0. -1.
          2    1    1    2  502    0 -0.14321067589E+02  0.16765369946E+02  0.10397808701E+04  0.10400146289E+04  0.00000000000E+00 0. -1.
         -2    1    1    2    0  502  0.14321067589E+02 -0.16765369946E+02  0.70144476213E+02  0.73528349291E+02  0.00000000000E+00 0. -1.
</event>
<event>
 4    1  0.5978476E+003  0.2170151E+02  0.7546771E-02  0.1509480E+00
          2   -1    0    0  501    0  0.00000000000E+00  0.00000000000E+00  0.15496405664E+03  0.15496405664E+03  0.00000000000E+00 0. -1.
         -2   -1    0    0    0  501 -0.00000000000E+00 -0.00000000000E+00 -0.33178514975E+03  0.33178514975E+03  0.00000000000E+00 0.  1.
          2    1    1    2  502    0 -0.35370440152E+01 -0.21411329336E+02  0.15384684523E+03  0.15536990536E+03  0.00000000000E+00 0. -1.
         -2    1    1    2    0  502  0.35370440152E+01  0.21411329336E+02 -0.33066793834E+03  0.33137930103E+03  0.00000000000E+00 0.  1.
</event>
<event>
 4    1  0.5978476E+003  0.3333850E+02  0.7546771E-02  0.1392636E+00
          2   -1    0    0  501    0  0.00000000000E+00  0.00000000000E+00  0.72751249843E+03  0.72751249843E+03  0.00000000000E+00 0.  1.
         -2   -1    0    0    0  501 -0.00000000000E+00 -0.00000000000E+00 -0.25294299166E+02  0.25294299166E+02  0.00000000000E+00 0. -1.
          2    1    1    2  502    0  0.30936348233E+02 -0.12425692264E+02  0.71596829569E+03  0.71674406584E+03  0.00000000000E+00 0.  1.
         -2    1    1    2    0  502 -0.30936348233E+02  0.12425692264E+02 -0.13750096430E+02  0.36062731761E+02  0.00000000000E+00 0. -1.
</event>
<event>
 4    1  0.5978476E+003  0.2129352E+02  0.7546771E-02  0.1515115E+00
          2   -1    0    0  501    0  0.00000000000E+00  0.00000000000E+00  0.79964153589E+03  0.79964153589E+03  0.00000000000E+00 0.  1.
         -2   -1    0    0    0  501 -0.00000000000E+00 -0.00000000000E+00 -0.16848916098E+01  0.16848916098E+01  0.00000000000E+00 0.  1.
          2    1    1    2  502    0  0.19474643731E+02  0.86111705066E+01  0.72533247471E+03  0.72564496338E+03  0.00000000000E+00 0.  1.
         -2    1    1    2    0  502 -0.19474643731E+02 -0.86111705066E+01  0.72624169565E+02  0.75681464118E+02  0.00000000000E+00 0.  1.
</event>
<event>
 4    1  0.5978476E+003  0.4487380E+02  0.7546771E-02  0.1322072E+00
          2   -1    0    0  501    0  0.00000000000E+00  0.00000000000E+00  0.61555956067E+02  0.61555956067E+02  0.00000000000E+00 0. -1.
         -2   -1    0    0    0  501 -0.00000000000E+00 -0.00000000000E+00 -0.23142180547E+03  0.23142180547E+03  0.00000000000E+00 0. -1.
          2    1    1    2  502    0 -0.96681246417E+01 -0.43819914111E+02  0.50808210718E+02  0.67787401359E+02  0.00000000000E+00 0. -1.
         -2    1    1    2    0  502  0.96681246417E+01  0.43819914111E+02 -0.22067406012E+03  0.22519036017E+03  0.00000000000E+00 0. -1.
</event>
<event>
 4    1  0.5978476E+003  0.2835779E+02  0.7546771E-02  0.1434426E+00
          2   -1    0    0  501    0  0.00000000000E+00  0.00000000000E+00  0.78829493555E+01  0.78829493555E+01  0.00000000000E+00 0.  1.
         -2   -1    0    0    0  501 -0.00000000000E+00 -0.00000000000E+00 -0.85994618743E+03  0.85994618743E+03  0.00000000000E+00 0.  1.
          2    1    1    2  502    0  0.12572334157E+02 -0.25418506403E+02 -0.18666322389E+02  0.33949899049E+02  0.00000000000E+00 0.  1.
         -2    1    1    2    0  502 -0.12572334157E+02  0.25418506403E+02 -0.83339691568E+03  0.83387923773E+03  0.00000000000E+00 0.  1.
</event>
<event>
 4    1  0.5978476E+003  0.2162888E+02  0.7546771E-02  0.1510472E+00
          2   -1    0    0  501    0  0.00000000000E+00  0.00000000000E+00  0.32901411474E+03  0.32901411474E+03  0.00000000000E+00 0.  1.
         -2   -1    0    0    0  501 -0.00000000000E+00 -0.00000000000E+00 -0.60425833834E+02  0.60425833834E+02  0.00000000000E+00 0. -1.
          2    1    1    2  502    0 -0.17653333480E+02 -0.12496731506E+02  0.32670954927E+03  0.32742470595E+03  0.00000000000E+00 0.  1.
         -2    1    1    2    0  502  0.17653333480E+02  0.12496731506E+02 -0.58121268366E+02  0.62015242624E+02  0.00000000000E+00 0. -1.
</event>
<event>
 4    1  0.5978476E+003  0.2092500E+02  0.7546771E-02  0.1520338E+00
          2   -1    0    0  501    0  0.00000000000E+00  0.00000000000E+00  0.62709635202E+01  0.62709635202E+01  0.00000000000E+00 0.  1.
         -2   -1    0    0    0  501 -0.00000000000E+00 -0.00000000000E+00 -0.35150608092E+03  0.35150608092E+03  0.00000000000E+00 0.  1.
          2    1    1    2  502    0  0.14177917954E+02  0.15389686184E+02 -0.12478731453E+02  0.24363385172E+02  0.00000000000E+00 0.  1.
         -2    1    1    2    0  502 -0.14177917954E+02 -0.15389686184E+02 -0.33275638594E+03  0.33341365927E+03  0.00000000000E+00 0.  1.
</event>
<event>
 4    1  0.5978476E+003  0.2159017E+02  0.7546771E-02  0.1511003E+00
          2   -1    0    0  501    0  0.00000000000E+00  0.00000000000E+00  0.31084291281E+03  0.31084291281E+03  0.00000000000E+00 0. -1.
         -2   -1    0    0    0  501 -0.00000000000E+00 -0.00000000000E+00 -0.26047928776E+01  0.26047928776E+01  0.00000000000E+00 0. -1.
          2    1    1    2  502    0 -0.18574012441E+02 -0.11006430673E+02  0.25620605821E+03  0.25711413753E+03  0.00000000000E+00 0. -1.
         -2    1    1    2    0  502  0.18574012441E+02  0.11006430673E+02  0.52032061725E+02  0.56333568160E+02  0.00000000000E+00 0. -1.
</event>
<event>
 4    1  0.5978476E+003  0.6756395E+02  0.7546771E-02  0.1236094E+00
          2   -1    0    0  501    0  0.00000000000E+00  0.00000000000E+00  0.26211455546E+03  0.26211455546E+03  0.00000000000E+00 0.  1.
         -2   -1    0    0    0  501 -0.00000000000E+00 -0.00000000000E+00 -0.25200907438E+02  0.25200907438E+02  0.00000000000E+00 0. -1.
          2    1    1    2  502    0 -0.48094188042E+02 -0.47453524494E+02  0.19830374909E+03  0.20949764870E+03  0.00000000000E+00 0.  1.
         -2    1    1    2    0  502  0.48094188042E+02  0.47453524494E+02  0.38609898937E+02  0.77817814196E+02  0.00000000000E+00 0. -1.
</event>
<event>
 4    1  0.5978476E+003  0.2696814E+02  0.7546771E-02  0.1447928E+00
          2   -1    0    0  501    0  0.00000000000E+00  0.00000000000E+00  0.37338638570E+03  0.37338638570E+03  0.00000000000E+00 0.  1.
         -2   -1    0    0    0  501 -0.00000000000E+00 -0.00000000000E+00 -0.23876259442E+02  0.23876259442E+02  0.00000000000E+00 0. -1.
          2    1    1    2  502    0 -0.87181196780E+01 -0.25520086776E+02  0.36511199312E+03  0.36610660737E+03  0.00000000000E+00 0.  1.
         -2    1    1    2    0  502  0.87181196780E+01  0.25520086776E+02 -0.15601866865E+02  0.31156037769E+02  0.00000000000E+00 0. -1.
</event>
<event>
 4    1  0.5978476E+003  0.3292786E+02  0.7546771E-02  0.1395747E+00
          2   -1    0    0  501    0  0.00000000000E+00  0.00000000000E+00  0.13308307085E+04  0.13308307085E+04  0.00000000000E+00 0.  1.
         -2   -1    0    0    0  501 -0.00000000000E+00 -0.00000000000E+00 -0.10632907919E+03  0.10632907919E+03  0.00000000000E+00 0.  1.
          2    1    1    2  502    0 -0.31899657097E+02  0.81642992589E+01  0.13280724720E+04  0.13284806114E+04  0.00000000000E+00 0.  1.
         -2    1    1    2    0  502  0.31899657097E+02 -0.81642992589E+01 -0.10357084270E+03  0.10867917630E+03  0.00000000000E+00 0.  1.
</event>
<event>
 4    1  0.5978476E+003  0.2053211E+02  0.7546771E-02  0.1526051E+00
          2   -1    0    0  501    0  0.00000000000E+00  0.00000000000E+00  0.43592663203E+02  0.43592663203E+02  0.00000000000E+00 0.  1.
         -2   -1    0    0    0  501 -0.00000000000E+00 -0.00000000000E+00 -0.26394524966E+02  0.26394524966E+02  0.00000000000E+00 0. -1.
          2    1    1    2  502    0  0.14352204809E+02 -0.14682707691E+02  0.36453903921E+02  0.41838436862E+02  0.00000000000E+00 0.  1.
         -2    1    1    2    0  502 -0.14352204809E+02  0.14682707691E+02 -0.19255765685E+02  0.28148751306E+02  0.00000000000E+00 0. -1.
</event>
<event>
 4    1  0.5978476E+003  0.2395623E+02  0.7546771E-02  0.1480827E+00
          2   -1    0    0  501    0  0.00000000000E+00  0.00000000000E+00  0.12163692493E+04  0.12163692493E+04  0.00000000000E+00 0. -1.
         -2   -1    0    0    0  501 -0.00000000000E+00 -0.00000000000E+00 -0.20956207004E+02  0.20956207004E+02  0.00000000000E+00 0.  1.
          2    1    1    2  502    0 -0.23678668447E+02  0.36361856235E+01  0.12093652139E+04  0.12096024644E+04  0.00000000000E+00 0. -1.
         -2    1    1    2    0  502  0.23678668447E+02 -0.36361856235E+01 -0.13952171661E+02  0.27722991891E+02  0.00000000000E+00 0.  1.
</event>
<event>
 4    1  0.5978476E+003  0.2101710E+02  0.7546771E-02  0.1519021E+00
          2   -1    0    0  501    0  0.00000000000E+00  0.00000000000E+00  0.64873082796E+03  0.64873082796E+03  0.00000000000E+00 0.  1.
         -2   -1    0    0    0  501 -0.00000000000E+00 -0.00000000000E+00 -0.24483064727E+01  0.24483064727E+01  0.00000000000E+00 0.  1.
          2    1    1    2  502    0 -0.18860953335E+02  0.92726878389E+01  0.59977572668E+03  0.60014384994E+03  0.00000000000E+00 0.  1.
         -2    1    1    2    0  502  0.18860953335E+02 -0.92726878389E+01  0.46506794803E+02  0.51035284493E+02  0.00000000000E+00 0.  1.
</event>
<event>
 4    1  0.5978476E+003  0.3097909E+02  0.7546771E-02  0.1411275E+00
          2   -1    0    0  501    0  0.00000000000E+00  0.00000000000E+00  0.10565930110E+04  0.10565930110E+04  0.00000000000E+00 0.  1.
         -2   -1    0    0    0  501 -0.00000000000E+00 -0.00000000000E+00 -0.67260707149E+01  0.67260707149E+01  0.00000000000E+00 0. -1.
          2    1    1    2  502    0  0.59160502997E+01  0.30408954600E+02  0.10193934786E+04  0.10198640931E+04  0.00000000000E+00 0.  1.
         -2    1    1    2    0  502 -0.59160502997E+01 -0.30408954600E+02  0.30473461764E+02  0.43454988700E+02  0.00000000000E+00 0. -1.
</event>
<event>
 4    1  0.5978476E+003  0.2249687E+02  0.7546771E-02  0.1498914E+00
          2   -1    0    0  501    0  0.00000000000E+00  0.00000000000E+00  0.21763361652E+02  0.21763361652E+02  0.00000000000E+00 0.  1.
         -2   -1    0    0    0  501 -0.00000000000E+00 -0.00000000000E+00 -0.28134455554E+02  0.28134455554E+02  0.00000000000E+00 0.  1.
          2    1    1    2  502    0  0.21753834698E+02  0.57341079228E+01  0.72043965889E+01  0.23622291336E+02  0.00000000000E+00 0.  1.
         -2    1    1    2    0  502 -0.21753834698E+02 -0.57341079228E+01 -0.13575490490E+02  0.26275525871E+02  0.00000000000E+00 0.  1.
</event>
<event>
 4    1  0.5978476E+003  0.2736034E+02  0.7546771E-02  0.1444022E+00
          2   -1    0    0  501    0  0.00000000000E+00  0.00000000000E+00  0.13395855339E+04  0.13395855339E+04  0.00000000000E+00 0. -1.
         -2   -1    0    0    0  501 -0.00000000000E+00 -0.00000000000E+00 -0.14613469073E+01  0.14613469073E+01  0.00000000000E+00 0.  1.
          2    1    1    2  502    0 -0.27998635283E+01 -0.27216704227E+02  0.11960094078E+04  0.11963223193E+04  0.00000000000E+00 0. -1.
         -2    1    1    2    0  502  0.27998635283E+01  0.27216704227E+02  0.14211477924E+03  0.14472456150E+03  0.00000000000E+00 0.  1.
</event>
<event>
 4    1  0.5978476E+003  0.2759886E+02  0.7546771E-02  0.1441683E+00
          2   -1    0    0  501    0  0.00000000000E+00  0.00000000000E+00  0.59835219472E+02  0.59835219472E+02  0.00000000000E+00 0.  1.
         -2   -1    0    0    0  501 -0.00000000000E+00 -0.00000000000E+00 -0.38372606044E+03  0.38372606044E+03  0.00000000000E+00 0.  1.
          2    1    1    2  502    0 -0.27419200365E+02 -0.31439744196E+01  0.56125463901E+02  0.62544103015E+02  0.00000000000E+00 0.  1.
         -2    1    1    2    0  502  0.27419200365E+02  0.31439744196E+01 -0.38001630487E+03  0.38101717689E+03  0.00000000000E+00 0.  1.
</event>
<event>
 4    1  0.5978476E+003  0.9295530E+02  0.7546771E-02  0.1176609E+00
          2   -1    0    0  501    0  0.00000000000E+00  0.00000000000E+00  0.25407574819E+03  0.25407574819E+03  0.00000000000E+00 0.  1.
         -2   -1    0    0    0  501 -0.00000000000E+00 -0.00000000000E+00 -0.35384008017E+02  0.35384008017E+02  0.00000000000E+00 0. -1.
          2    1    1    2  502    0  0.83586878498E+02 -0.40668431066E+02  0.13788336081E+03  0.16629043488E+03  0.00000000000E+00 0.  1.
         -2    1    1    2    0  502 -0.83586878498E+02  0.40668431066E+02  0.80808379364E+02  0.12316932133E+03  0.00000000000E+00 0. -1.
</event>
<event>
 4    1  0.5978476E+003  0.2060206E+02  0.7546771E-02  0.1525023E+00
          2   -1    0    0  501    0  0.00000000000E+00  0.00000000000E+00  0.29418216214E+03  0.29418216214E+03  0.00000000000E+00 0. -1.
         -2   -1    0    0    0  501 -0.00000000000E+00 -0.00000000000E+00 -0.16572632766E+02  0.16572632766E+02  0.00000000000E+00 0. -1.
          2    1    1    2  502    0 -0.13333984114E+02  0.15705092996E+02  0.28726467687E+03  0.28800249939E+03  0.00000000000E+00 0. -1.
         -2    1    1    2    0  502  0.13333984114E+02 -0.15705092996E+02 -0.96551474904E+01  0.22752295520E+02  0.00000000000E+00 0. -1.
</event>
<event>
 4    1  0.5978476E+003  0.2031397E+02  0.7546771E-02  0.1529289E+00
          2   -1    0    0  501    0  0.00000000000E+00  0.00000000000E+00  0.44196447818E+03  0.44196447818E+03  0.00000000000E+00 0.  1.
         -2   -1    0    0    0  501 -0.00000000000E+00 -0.00000000000E+00 -0.12175735071E+02  0.12175735071E+02  0.00000000000E+00 0.  1.
          2    1    1    2  502    0 -0.19153433135E+02  0.67678108826E+01  0.43308447792E+03  0.43356063276E+03  0.00000000000E+00 0.  1.
         -2    1    1    2    0  502  0.19153433135E+02 -0.67678108826E+01 -0.32957348152E+01  0.20579580486E+02  0.00000000000E+00 0.  1.
</event>
<event>
 4    1  0.5978476E+003  0.2812961E+02  0.7546771E-02  0.1436579E+00
          2   -1    0    0  501    0  0.00000000000E+00  0.00000000000E+00  0.40693788331E+02  0.40693788331E+02  0.00000000000E+00 0.  1.
         -2   -1    0    0    0  501 -0.00000000000E+00 -0.00000000000E+00 -0.23010261540E+02  0.23010261540E+02  0.00000000000E+00 0.  1.
          2    1    1    2  502    0  0.25686571527E+02 -0.11466243425E+02  0.21380273695E+02  0.35332574182E+02  0.00000000000E+00 0.  1.
         -2    1    1    2    0  502 -0.25686571527E+02  0.11466243425E+02 -0.36967469033E+01  0.28371475689E+02  0.00000000000E+00 0.  1.
</event>
<event>
 4    1  0.5978476E+003  0.3835335E+02  0.7546771E-02  0.1358415E+00
          2   -1    0    0  501    0  0.00000000000E+00  0.00000000000E+00  0.54446957502E+03  0.54446957502E+03  0.00000000000E+00 0. -1.
         -2   -1    0    0    0  501 -0.00000000000E+00 -0.00000000000E+00 -0.30721700744E+02  0.30721700744E+02  0.00000000000E+00 0. -1.
          2    1    1    2  502    0 -0.38274417389E+02  0.24594041526E+01  0.53153300030E+03  0.53291491826E+03  0.00000000000E+00 0. -1.
         -2    1    1    2    0  502  0.38274417389E+02 -0.24594041526E+01 -0.17785126032E+02  0.42276357497E+02  0.00000000000E+00 0. -1.
</event>
<event>
 4    1  0.5978476E+003  0.5439478E+02  0.7546771E-02  0.1280166E+00
          2   -1    0    0  501    0  0.00000000000E+00  0.00000000000E+00  0.25120477748E+03  0.25120477748E+03  0.00000000000E+00 0. -1.
         -2   -1    0    0    0  501 -0.00000000000E+00 -0.00000000000E+00 -0.35887508932E+03  0.35887508932E+03  0.00000000000E+00 0.  1.
          2    1    1    2  502    0 -0.33376903342E+02  0.42950842519E+02  0.24615725677E+03  0.25209559221E+03  0.00000000000E+00 0. -1.
         -2    1    1    2    0  502  0.33376903342E+02 -0.42950842519E+02 -0.35382756861E+03  0.35798427459E+03  0.00000000000E+00 0.  1.
</event>
<event>
 4    1  0.5978476E+003  0.3883186E+02  0.7546771E-02  0.1355470E+00
          2   -1    0    0  501    0  0.00000000000E+00  0.00000000000E+00  0.13800541575E+03  0.13800541575E+03  0.00000000000E+00 0.  1.
         -2   -1    0    0    0  501 -0.00000000000E+00 -0.00000000000E+00 -0.29763035107E+03  0.29763035107E+03  0.00000000000E+00 0. -1.
          2    1    1    2  502    0  0.38772823326E+02 -0.21403671743E+01  0.13396981304E+03  0.13948413460E+03  0.00000000000E+00 0.  1.
         -2    1    1    2    0  502 -0.38772823326E+02  0.21403671743E+01 -0.29359474836E+03  0.29615163221E+03  0.00000000000E+00 0. -1.
</event>
<event>
 4    1  0.5978476E+003  0.2449033E+02  0.7546771E-02  0.1474586E+00
          2   -1    0    0  501    0  0.00000000000E+00  0.00000000000E+00  0.15266293295E+04  0.15266293295E+04  0.00000000000E+00 0. -1.
         -2   -1    0    0    0  501 -0.00000000000E+00 -0.00000000000E+00 -0.10003958194E+01  0.10003958194E+01  0.00000000000E+00 0.  1.
          2    1    1    2  502    0  0.17154123958E+02 -0.17478913388E+02  0.13580410412E+04  0.13582618474E+04  0.00000000000E+00 0. -1.
         -2    1    1    2    0  502 -0.17154123958E+02  0.17478913388E+02  0.16758789250E+03  0.16936787799E+03  0.00000000000E+00 0.  1.
</event>
<event>
 4    1  0.5978476E+003  0.2769386E+02  0.7546771E-02  0.1440760E+00
          2   -1    0    0  501    0  0.00000000000E+00  0.00000000000E+00  0.19494959220E+04  0.19494959220E+04  0.00000000000E+00 0.  1.
         -2   -1    0    0    0  501 -0.00000000000E+00 -0.00000000000E+00 -0.14304283649E+01  0.14304283649E+01  0.00000000000E+00 0.  1.
          2    1    1    2  502    0 -0.27378719434E+02  0.41660132983E+01  0.18045930686E+04  0.18048055555E+04  0.00000000000E+00 0.  1.
         -2    1    1    2    0  502  0.27378719434E+02 -0.41660132983E+01  0.14347242500E+03  0.14612079483E+03  0.00000000000E+00 0.  1.
</event>
<event>
 4    1  0.5978476E+003  0.2568064E+02  0.7546771E-02  0.1461331E+00
          2   -1    0    0  501    0  0.00000000000E+00  0.00000000000E+00  0.19246566933E+02  0.19246566933E+02  0.00000000000E+00 0.  1.
         -2   -1    0    0    0  501 -0.00000000000E+00 -0.00000000000E+00 -0.51410125808E+02  0.51410125808E+02  0.00000000000E+00 0. -1.
          2    1    1    2  502    0  0.13597778046E+02 -0.21785217877E+02  0.43196987347E+01  0.26041410924E+02  0.00000000000E+00 0.  1.
         -2    1    1    2    0  502 -0.13597778046E+02  0.21785217877E+02 -0.36483257610E+02  0.44615281817E+02  0.00000000000E+00 0. -1.
</event>
<event>
 4    1  0.5978476E+003  0.2334233E+02  0.7546771E-02  0.1488244E+00
          2   -1    0    0  501    0  0.00000000000E+00  0.00000000000E+00  0.75916538180E+03  0.75916538180E+03  0.00000000000E+00 0.  1.
         -2   -1    0    0    0  501 -0.00000000000E+00 -0.00000000000E+00 -0.60200605933E+02  0.60200605933E+02  0.00000000000E+00 0.  1.
          2    1    1    2  502    0  0.19700720815E+02  0.12519822926E+02  0.75671592753E+03  0.75707586102E+03  0.00000000000E+00 0.  1.
         -2    1    1    2    0  502 -0.19700720815E+02 -0.12519822926E+02 -0.57751151664E+02  0.62290126708E+02  0.00000000000E+00 0.  1.
</event>
<event>
 4    1  0.5978476E+003  0.2958068E+02  0.7546771E-02  0.1423276E+00
          2   -1    0    0  501    0  0.00000000000E+00  0.00000000000E+00  0.53426410762E+01  0.53426410762E+01  0.00000000000E+00 0. -1.
         -2   -1    0    0    0  501 -0.00000000000E+00 -0.00000000000E+00 -0.18137079556E+03  0.18137079556E+03  0.00000000000E+00 0. -1.
          2    1    1    2  502    0  0.28541285819E+02 -0.77724994912E+01 -0.58939930751E+02  0.65946434183E+02  0.00000000000E+00 0. -1.
         -2    1    1    2    0  502 -0.28541285819E+02  0.77724994912E+01 -0.11708822373E+03  0.12076700245E+03  0.00000000000E+00 0. -1.
</event>
<event>
 4    1  0.5978476E+003  0.2761712E+02  0.7546771E-02  0.1441506E+00
          2   -1    0    0  501    0  0.00000000000E+00  0.00000000000E+00  0.40291707220E+03  0.40291707220E+03  0.00000000000E+00 0. -1.
         -2   -1    0    0    0  501 -0.00000000000E+00 -0.00000000000E+00 -0.19468562876E+01  0.19468562876E+01  0.00000000000E+00 0. -1.
          2    1    1    2  502    0  0.14605819078E+01 -0.27578466569E+02  0.23416722645E+03  0.23579015047E+03  0.00000000000E+00 0. -1.
         -2    1    1    2    0  502 -0.14605819078E+01  0.27578466569E+02  0.16680298946E+03  0.16907377801E+03  0.00000000000E+00 0. -1.
</event>
<event>
 4    1  0.5978476E+003  0.2711482E+02  0.7546771E-02  0.1446458E+00
          2   -1    0    0  501    0  0.00000000000E+00  0.00000000000E+00  0.39456258747E+03  0.39456258747E+03  0.00000000000E+00 0. -1.
         -2   -1    0    0    0  501 -0.00000000000E+00 -0.00000000000E+00 -0.71516215612E+01  0.71516215612E+01  0.00000000000E+00 0. -1.
          2    1    1    2  502    0  0.90370014467E+00  0.27099754901E+02  0.36642494206E+03  0.36742679754E+03  0.00000000000E+00 0. -1.
         -2    1    1    2    0  502 -0.90370014467E+00 -0.27099754901E+02  0.20986023853E+02  0.34287411491E+02  0.00000000000E+00 0. -1.
</event>
<event>
 4    1  0.5978476E+003  0.3069401E+02  0.7546771E-02  0.1413660E+00
          2   -1    0    0  501    0  0.00000000000E+00  0.00000000000E+00  0.14066451055E+04  0.14066451055E+04  0.00000000000E+00 0.  1.
         -2   -1    0    0    0  501 -0.00000000000E+00 -0.00000000000E+00 -0.20226484670E+01  0.20226484670E+01  0.00000000000E+00 0. -1.
          2    1    1    2  502    0 -0.41461016420E+01 -0.30412696564E+02  0.12783457319E+04  0.12787141715E+04  0.00000000000E+00 0.  1.
         -2    1    1    2    0  502  0.41461016420E+01  0.30412696564E+02  0.12627672513E+03  0.12995358241E+03  0.00000000000E+00 0. -1.
</event>
<event>
 4    1  0.5978476E+003  0.2303906E+02  0.7546771E-02  0.1492008E+00
          2   -1    0    0  501    0  0.00000000000E+00  0.00000000000E+00  0.20664622700E+03  0.20664622700E+03  0.00000000000E+00 0. -1.
         -2   -1    0    0    0  501 -0.00000000000E+00 -0.00000000000E+00 -0.76417099194E+02  0.76417099194E+02  0.00000000000E+00 0.  1.
          2    1    1    2  502    0  0.12384718629E+02  0.19427225778E+02  0.20424721976E+03  0.20554251418E+03  0.00000000000E+00 0. -1.
         -2    1    1    2    0  502 -0.12384718629E+02 -0.19427225778E+02 -0.74018091958E+02  0.77520812006E+02  0.00000000000E+00 0.  1.
</event>
<event>
 4    1  0.5978476E+003  0.2852303E+02  0.7546771E-02  0.1432881E+00
          2   -1    0    0  501    0  0.00000000000E+00  0.00000000000E+00  0.37431011185E+03  0.37431011185E+03  0.00000000000E+00 0.  1.
         -2   -1    0    0    0  501 -0.00000000000E+00 -0.00000000000E+00 -0.45434471817E+02  0.45434471817E+02  0.00000000000E+00 0.  1.
          2    1    1    2  502    0  0.26281578997E+02 -0.11083408700E+02  0.36922864458E+03  0.37032871253E+03  0.00000000000E+00 0.  1.
         -2    1    1    2    0  502 -0.26281578997E+02  0.11083408700E+02 -0.40353004556E+02  0.49415871132E+02  0.00000000000E+00 0.  1.
</event>
<event>
 4    1  0.5978476E+003  0.2044952E+02  0.7546771E-02  0.1527271E+00
          2   -1    0    0  501    0  0.00000000000E+00  0.00000000000E+00  0.54125314735E+02  0.54125314735E+02  0.00000000000E+00 0. -1.
         -2   -1    0    0    0  501 -0.00000000000E+00 -0.00000000000E+00 -0.96689066546E+01  0.96689066546E+01  0.00000000000E+00 0. -1.
          2    1    1    2  502    0  0.20117147718E+02  0.36719417198E+01  0.36525922031E+02  0.41860790348E+02  0.00000000000E+00 0. -1.
         -2    1    1    2    0  502 -0.20117147718E+02 -0.36719417198E+01  0.79304860495E+01  0.21933431042E+02  0.00000000000E+00 0. -1.
</event>
<event>
 4    1  0.5978476E+003  0.2200509E+02  0.7546771E-02  0.1505384E+00
          2   -1    0    0  501    0  0.00000000000E+00  0.00000000000E+00  0.15048167485E+04  0.15048167485E+04  0.00000000000E+00 0.  1.
         -2   -1    0    0    0  501 -0.00000000000E+00 -0.00000000000E+00 -0.16734657587E+01  0.16734657587E+01  0.00000000000E+00 0. -1.
          2    1    1    2  502    0  0.20840992701E+02  0.70623608882E+01  0.14285352884E+04  0.14287047610E+04  0.00000000000E+00 0.  1.
         -2    1    1    2    0  502 -0.20840992701E+02 -0.70623608882E+01  0.74607994351E+02  0.77785453262E+02  0.00000000000E+00 0. -1.
</event>
<event>
 4    1  0.5978476E+003  0.3196967E+02  0.7546771E-02  0.1403218E+00
          2   -1    0    0  501    0  0.00000000000E+00  0.00000000000E+00  0.19329263406E+04  0.19329263406E+04  0.00000000000E+00 0. -1.
         -2   -1    0    0    0  501 -0.00000000000E+00 -0.00000000000E+00 -0.54787506315E+02  0.54787506315E+02  0.00000000000E+00 0.  1.
          2    1    1    2  502    0  0.31312811532E+02  0.64472917510E+01  0.19281187775E+04  0.19283838000E+04  0.00000000000E+00 0. -1.
         -2    1    1    2    0  502 -0.31312811532E+02 -0.64472917510E+01 -0.49979943274E+02  0.59330046912E+02  0.00000000000E+00 0.  1.
</event>
<event>
 4    1  0.5978476E+003  0.2387677E+02  0.7546771E-02  0.1481772E+00
          2   -1    0    0  501    0  0.00000000000E+00  0.00000000000E+00  0.90024999263E+03  0.90024999263E+03  0.00000000000E+00 0.  1.
         -2   -1    0    0    0  501 -0.00000000000E+00 -0.00000000000E+00 -0.82609800371E+02  0.82609800371E+02  0.00000000000E+00 0. -1.
          2    1    1    2  502    0 -0.23641320627E+02 -0.33448595436E+01  0.89836277181E+03  0.89868001530E+03  0.00000000000E+00 0.  1.
         -2    1    1    2    0  502  0.23641320627E+02  0.33448595436E+01 -0.80722579545E+02  0.84179777706E+02  0.00000000000E+00 0. -1.
</event>
<event>
 4    1  0.5978476E+003  0.2479497E+02  0.7546771E-02  0.1471110E+00
          2   -1    0    0  501    0  0.00000000000E+00  0.00000000000E+00  0.10445321738E+04  0.10445321738E+04  0.00000000000E+00 0. -1.
         -2   -1    0    0    0  501 -0.00000000000E+00 -0.00000000000E+00 -0.66992696046E+01  0.66992696046E+01  0.00000000000E+00 0.  1.
          2    1    1    2  502    0  0.12405616102E+02  0.21468382238E+02  0.10209118446E+04  0.10212128990E+04  0.00000000000E+00 0. -1.
         -2    1    1    2    0  502 -0.12405616102E+02 -0.21468382238E+02  0.16921059580E+02  0.30018544337E+02  0.00000000000E+00 0.  1.
</event>
<event>
 4    1  0.5978476E+003  0.2023155E+02  0.7546771E-02  0.1530525E+00
          2   -1    0    0  501    0  0.00000000000E+00  0.00000000000E+00  0.55529652587E+03  0.55529652587E+03  0.00000000000E+00 0. -1.
         -2   -1    0    0    0  501 -0.00000000000E+00 -0.00000000000E+00 -0.20967999322E+01  0.20967999322E+01  0.00000000000E+00 0.  1.
          2    1    1    2  502    0 -0.13898087072E+02 -0.14702341125E+02  0.50102573138E+03  0.50143404269E+03  0.00000000000E+00 0. -1.
         -2    1    1    2    0  502  0.13898087072E+02  0.14702341125E+02  0.52173994554E+02  0.55959283114E+02  0.00000000000E+00 0.  1.
</event>
<event>
 4    1  0.5978476E+003  0.2169060E+02  0.7546771E-02  0.1509629E+00
          2   -1    0    0  501    0  0.00000000000E+00  0.00000000000E+00  0.12370861281E+02  0.12370861281E+02  0.00000000000E+00 0.  1.
         -2   -1    0    0    0  501 -0.00000000000E+00 -0.00000000000E+00 -0.74505781278E+02  0.74505781278E+02  0.00000000000E+00 0. -1.
          2    1    1    2  502    0 -0.95933006566E+00 -0.21669376867E+02 -0.67460377336E+00  0.21701089794E+02  0.00000000000E+00 0.  1.
         -2    1    1    2    0  502  0.95933006566E+00  0.21669376867E+02 -0.61460316223E+02  0.65175552765E+02  0.00000000000E+00 0. -1.
</event>
<event>
 4    1  0.5978476E+003  0.4314807E+02  0.7546771E-02  0.1330964E+00
          2   -1    0    0  501    0  0.00000000000E+00  0.00000000000E+00  0.47979072202E+02  0.47979072202E+02  0.00000000000E+00 0.  1.
         -2   -1    0    0    0  501 -0.00000000000E+00 -0.00000000000E+00 -0.98302874655E+02  0.98302874655E+02  0.00000000000E+00 0. -1.
          2    1    1    2  502    0 -0.34736631711E+02  0.25595359399E+02  0.31740922969E+02  0.53565307768E+02  0.00000000000E+00 0.  1.
         -2    1    1    2    0  502  0.34736631711E+02 -0.25595359399E+02 -0.82064725422E+02  0.92716639089E+02  0.00000000000E+00 0. -1.
</event>
<event>
 4    1  0.5978476E+003  0.2366817E+02  0.7546771E-02  0.1484274E+00
          2   -1    0    0  501    0  0.00000000000E+00  0.00000000000E+00  0.83407673587E+03  0.83407673587E+03  0.00000000000E+00 0.  1.
         -2   -1    0    0    0  501 -0.00000000000E+00 -0.00000000000E+00 -0.20554405848E+01  0.20554405848E+01  0.00000000000E+00 0. -1.
          2    1    1    2  502    0 -0.18245116189E+02  0.15076410751E+02  0.75904088705E+03  0.75940980415E+03  0.00000000000E+00 0.  1.
         -2    1    1    2    0  502  0.18245116189E+02 -0.15076410751E+02  0.72980408236E+02  0.76722372305E+02  0.00000000000E+00 0. -1.
</event>
<event>
 4    1  0.5978476E+003  0.2982561E+02  0.7546771E-02  0.1421118E+00
          2   -1    0    0  501    0  0.00000000000E+00  0.00000000000E+00  0.98060546389E+03  0.98060546389E+03  0.00000000000E+00 0. -1.
         -2   -1    0    0    0  501 -0.00000000000E+00 -0.00000000000E+00 -0.16245533712E+01  0.16245533712E+01  0.00000000000E+00 0. -1.
          2    1    1    2  502    0 -0.29708032397E+02 -0.26457404472E+01  0.81584867947E+03  0.81639367643E+03  0.00000000000E+00 0. -1.
         -2    1    1    2    0  502  0.29708032397E+02  0.26457404472E+01  0.16313223105E+03  0.16583634083E+03  0.00000000000E+00 0. -1.
</event>
<event>
 4    1  0.5978476E+003  0.2673817E+02  0.7546771E-02  0.1450256E+00
          2   -1    0    0  501    0  0.00000000000E+00  0.00000000000E+00  0.16798499864E+04  0.16798499864E+04  0.00000000000E+00 0. -1.
         -2   -1    0    0    0  501 -0.00000000000E+00 -0.00000000000E+00 -0.10396408501E+01  0.10396408501E+01  0.00000000000E+00 0. -1.
          2    1    1    2  502    0  0.22365224292E+02 -0.14653554118E+02  0.14853109444E+04  0.14855515916E+04  0.00000000000E+00 0. -1.
         -2    1    1    2    0  502 -0.22365224292E+02  0.14653554118E+02  0.19349940116E+03  0.19533803561E+03  0.00000000000E+00 0. -1.
</event>
<event>
 4    1  0.5978476E+003  0.4327551E+02  0.7546771E-02  0.1330291E+00
          2   -1    0    0  501    0  0.00000000000E+00  0.00000000000E+00  0.30461435505E+03  0.30461435505E+03  0.00000000000E+00 0. -1.
         -2   -1    0    0    0  501 -0.00000000000E+00 -0.00000000000E+00 -0.30327610036E+02  0.30327610036E+02  0.00000000000E+00 0. -1.
          2    1    1    2  502    0 -0.23551278326E+02  0.36305749635E+02  0.28667914140E+03  0.28992706027E+03  0.00000000000E+00 0. -1.
         -2    1    1    2    0  502  0.23551278326E+02 -0.36305749635E+02 -0.12392396380E+02  0.45014904814E+02  0.00000000000E+00 0. -1.
</event>
<event>
 4    1  0.5978476E+003  0.3929083E+02  0.7546771E-02  0.1352692E+00
          2   -1    0    0  501    0  0.00000000000E+00  0.00000000000E+00  0.97599637073E+02  0.97599637073E+02  0.00000000000E+00 0.  1.
         -2   -1    0    0    0  501 -0.00000000000E+00 -0.00000000000E+00 -0.17495006863E+02  0.17495006863E+02  0.00000000000E+00 0.  1.
          2    1    1    2  502    0 -0.39181401772E+02 -0.29303537636E+01  0.57872717578E+02  0.69950129792E+02  0.00000000000E+00 0.  1.
         -2    1    1    2    0  502  0.39181401772E+02  0.29303537636E+01  0.22231912632E+02  0.45144514144E+02  0.00000000000E+00 0.  1.
</event>
<event>
 4    1  0.5978476E+003  0.2559310E+02  0.7546771E-02  0.1462277E+00
          2   -1    0    0  501    0  0.00000000000E+00  0.00000000000E+00  0.90397129634E+03  0.90397129634E+03  0.00000000000E+00 0. -1.
         -2   -1    0    0    0  501 -0.00000000000E+00 -0.00000000000E+00 -0.31830424872E+01  0.31830424872E+01  0.00000000000E+00 0. -1.
          2    1    1    2  502    0  0.13945686556E+02  0.21459833711E+02  0.84901594578E+03  0.84940160279E+03  0.00000000000E+00 0. -1.
         -2    1    1    2    0  502 -0.13945686556E+02 -0.21459833711E+02  0.51772308074E+02  0.57752736037E+02  0.00000000000E+00 0. -1.
</event>
<event>
 4    1  0.5978476E+003  0.2145851E+02  0.7546771E-02  0.1512818E+00
          2   -1    0    0  501    0  0.00000000000E+00  0.00000000000E+00  0.60938637655E+01  0.60938637655E+01  0.00000000000E+00 0. -1.
         -2   -1    0    0    0  501 -0.00000000000E+00 -0.00000000000E+00 -0.24308977074E+03  0.24308977074E+03  0.00000000000E+00 0. -1.
          2    1    1    2  502    0  0.12889181843E+02  0.17156243716E+02 -0.15067385858E+02  0.26220103424E+02  0.00000000000E+00 0. -1.
         -2    1    1    2    0  502 -0.12889181843E+02 -0.17156243716E+02 -0.22192852112E+03  0.22296353108E+03  0.00000000000E+00 0. -1.
</event>
<event>
 4    1  0.5978476E+003  0.4206307E+02  0.7546771E-02  0.1336803E+00
          2   -1    0    0  501    0  0.00000000000E+00  0.00000000000E+00  0.84656768550E+03  0.84656768550E+03  0.00000000000E+00 0. -1.
         -2   -1    0    0    0  501 -0.00000000000E+00 -0.00000000000E+00 -0.40425257813E+01  0.40425257813E+01  0.00000000000E+00 0. -1.
          2    1    1    2  502    0  0.16649247427E+02  0.38627768058E+02  0.71684310187E+03  0.71807613427E+03  0.00000000000E+00 0. -1.
         -2    1    1    2    0  502 -0.16649247427E+02 -0.38627768058E+02  0.12568205785E+03  0.13253407702E+03  0.00000000000E+00 0. -1.
</event>
<event>
 4    1  0.5978476E+003  0.3072993E+02  0.7546771E-02  0.1413357E+00
          2   -1    0    0  501    0  0.00000000000E+00  0.00000000000E+00  0.12917111372E+04  0.12917111372E+04  0.00000000000E+00 0. -1.
         -2   -1    0    0    0  501 -0.00000000000E+00 -0.00000000000E+00 -0.16822616069E+01  0.16822616069E+01  0.00000000000E+00 0. -1.
          2    1    1    2  502    0 -0.18170008319E+02  0.24782640021E+02  0.11312966453E+04  0.11317139338E+04  0.00000000000E+00 0. -1.
         -2    1    1    2    0  502  0.18170008319E+02 -0.24782640021E+02  0.15873223035E+03  0.16167946500E+03  0.00000000000E+00 0. -1.
</event>
<event>
 4    1  0.5978476E+003  0.4140048E+02  0.7546771E-02  0.1340469E+00
          2   -1    0    0  501    0  0.00000000000E+00  0.00000000000E+00  0.37313342204E+02  0.37313342204E+02  0.00000000000E+00 0.  1.
         -2   -1    0    0    0  501 -0.00000000000E+00 -0.00000000000E+00 -0.74815703060E+02  0.74815703060E+02  0.00000000000E+00 0.  1.
          2    1    1    2  502    0 -0.21421650985E+02 -0.35427567190E+02  0.16082018249E+02  0.44414310294E+02  0.00000000000E+00 0.  1.
         -2    1    1    2    0  502  0.21421650985E+02  0.35427567190E+02 -0.53584379105E+02  0.67714734970E+02  0.00000000000E+00 0.  1.
</event>
<event>
 4    1  0.5978476E+003  0.2460526E+02  0.7546771E-02  0.1473268E+00
          2   -1    0    0  501    0  0.00000000000E+00  0.00000000000E+00  0.30710237053E+03  0.30710237053E+03  0.00000000000E+00 0. -1.
         -2   -1    0    0    0  501 -0.00000000000E+00 -0.00000000000E+00 -0.10336091850E+02  0.10336091850E+02  0.00000000000E+00 0.  1.
          2    1    1    2  502    0 -0.24379989415E+02  0.33219091386E+01  0.29116616095E+03  0.29220395659E+03  0.00000000000E+00 0. -1.
         -2    1    1    2    0  502  0.24379989415E+02 -0.33219091386E+01  0.56001177379E+01  0.25234505799E+02  0.00000000000E+00 0.  1.
</event>
<event>
 4    1  0.5978476E+003  0.3562537E+02  0.7546771E-02  0.1376219E+00
          2   -1    0    0  501    0  0.00000000000E+00  0.00000000000E+00  0.14011562035E+04  0.14011562035E+04  0.00000000000E+00 0. -1.
         -2   -1    0    0    0  501 -0.00000000000E+00 -0.00000000000E+00 -0.11844947737E+01  0.11844947737E+01  0.00000000000E+00 0. -1.
          2    1    1    2  502    0 -0.27702770273E+02  0.22399178710E+02  0.10400976662E+04  0.10407076064E+04  0.00000000000E+00 0. -1.
         -2    1    1    2    0  502  0.27702770273E+02 -0.22399178710E+02  0.35987404258E+03  0.36163309197E+03  0.00000000000E+00 0. -1.
</event>
<event>
 4    1  0.5978476E+003  0.2077538E+02  0.7546771E-02  0.1522496E+00
          2   -1    0    0  501    0  0.00000000000E+00  0.00000000000E+00  0.55703803112E+01  0.55703803112E+01  0.00000000000E+00 0. -1.
         -2   -1    0    0    0  501 -0.00000000000E+00 -0.00000000000E+00 -0.25172435446E+03  0.25172435446E+03  0.00000000000E+00 0. -1.
          2    1    1    2  502    0  0.96951188528E+01  0.18374463614E+02 -0.16045278503E+02  0.26250089617E+02  0.00000000000E+00 0. -1.
         -2    1    1    2    0  502 -0.96951188528E+01 -0.18374463614E+02 -0.23010869565E+03  0.23104464515E+03  0.00000000000E+00 0. -1.
</event>
<event>
 4    1  0.5978476E+003  0.5618334E+02  0.7546771E-02  0.1273382E+00
          2   -1    0    0  501    0  0.00000000000E+00  0.00000000000E+00  0.92145534376E+02  0.92145534376E+02  0.00000000000E+00 0. -1.
         -2   -1    0    0    0  501 -0.00000000000E+00 -0.00000000000E+00 -0.29555713763E+03  0.29555713763E+03  0.00000000000E+00 0. -1.
          2    1    1    2  502    0 -0.44919643300E+02  0.33746015711E+02  0.80565564091E+02  0.98221067231E+02  0.00000000000E+00 0. -1.
         -2    1    1    2    0  502  0.44919643300E+02 -0.33746015711E+02 -0.28397716735E+03  0.28948160478E+03  0.00000000000E+00 0. -1.
</event>
<event>
 4    1  0.5978476E+003  0.2484541E+02  0.7546771E-02  0.1470540E+00
          2   -1    0    0  501    0  0.00000000000E+00  0.00000000000E+00  0.15824371795E+03  0.15824371795E+03  0.00000000000E+00 0. -1.
         -2   -1    0    0    0  501 -0.00000000000E+00 -0.00000000000E+00 -0.14461371333E+03  0.14461371333E+03  0.00000000000E+00 0.  1.
          2    1    1    2  502    0  0.12831424170E+00 -0.24845079645E+02  0.15618738481E+03  0.15815117332E+03  0.00000000000E+00 0. -1.
         -2    1    1    2    0  502 -0.12831424170E+00  0.24845079645E+02 -0.14255738019E+03  0.14470625796E+03  0.00000000000E+00 0.  1.
</event>
<event>
 4    1  0.5978476E+003  0.2562646E+02  0.7546771E-02  0.1461916E+00
          2   -1    0    0  501    0  0.00000000000E+00  0.00000000000E+00  0.15077095756E+04  0.15077095756E+04  0.00000000000E+00 0. -1.
         -2   -1    0    0    0  501 -0.00000000000E+00 -0.00000000000E+00 -0.43677669462E+00  0.43677669462E+00  0.00000000000E+00 0. -1.
          2    1    1    2  502    0 -0.24016238711E+02  0.89406466761E+01  0.71402095604E+03  0.71448067892E+03  0.00000000000E+00 0. -1.
         -2    1    1    2    0  502  0.24016238711E+02 -0.89406466761E+01  0.79325184284E+03  0.79366567335E+03  0.00000000000E+00 0. -1.
</event>
<event>
 4    1  0.5978476E+003  0.3995467E+02  0.7546771E-02  0.1348752E+00
          2   -1    0    0  501    0  0.00000000000E+00  0.00000000000E+00  0.46184192385E+03  0.46184192385E+03  0.00000000000E+00 0. -1.
         -2   -1    0    0    0  501 -0.00000000000E+00 -0.00000000000E+00 -0.50917440691E+01  0.50917440691E+01  0.00000000000E+00 0. -1.
          2    1    1    2  502    0 -0.37688240509E+02  0.13265463734E+02  0.36068050710E+03  0.36288676499E+03  0.00000000000E+00 0. -1.
         -2    1    1    2    0  502  0.37688240509E+02 -0.13265463734E+02  0.96069672676E+02  0.10404690293E+03  0.00000000000E+00 0. -1.
</event>
<event>
 4    1  0.5978476E+003  0.2471348E+02  0.7546771E-02  0.1472034E+00
          2   -1    0    0  501    0  0.00000000000E+00  0.00000000000E+00  0.44458953142E+03  0.44458953142E+03  0.00000000000E+00 0.  1.
         -2   -1    0    0    0  501 -0.00000000000E+00 -0.00000000000E+00 -0.46611577497E+01  0.46611577497E+01  0.00000000000E+00 0.  1.
          2    1    1    2  502    0 -0.18706170398E+02 -0.16150401889E+02  0.40860620394E+03  0.40935288712E+03  0.00000000000E+00 0.  1.
         -2    1    1    2    0  502  0.18706170398E+02  0.16150401889E+02  0.31322169732E+02  0.39897802055E+02  0.00000000000E+00 0.  1.
</event>
<event>
 4    1  0.5978476E+003  0.3419442E+02  0.7546771E-02  0.1386317E+00
          2   -1    0    0  501    0  0.00000000000E+00  0.00000000000E+00  0.36941161229E+01  0.36941161229E+01  0.00000000000E+00 0.  1.
         -2   -1    0    0    0  501 -0.00000000000E+00 -0.00000000000E+00 -0.41036467742E+03  0.41036467742E+03  0.00000000000E+00 0. -1.
          2    1    1    2  502    0 -0.34070245413E+02  0.29114806178E+01 -0.10433101272E+03  0.10979170532E+03  0.00000000000E+00 0.  1.
         -2    1    1    2    0  502  0.34070245413E+02 -0.29114806178E+01 -0.30233954859E+03  0.30426708823E+03  0.00000000000E+00 0. -1.
</event>
<event>
 4    1  0.5978476E+003  0.2080856E+02  0.7546771E-02  0.1522016E+00
          2   -1    0    0  501    0  0.00000000000E+00  0.00000000000E+00  0.17714443917E+04  0.17714443917E+04  0.00000000000E+00 0. -1.
         -2   -1    0    0    0  501 -0.00000000000E+00 -0.00000000000E+00 -0.35674479584E+00  0.35674479584E+00  0.00000000000E+00 0. -1.
          2    1    1    2  502    0  0.78198086674E+01 -0.19283318148E+02  0.38846772396E+03  0.38902463717E+03  0.00000000000E+00 0. -1.
         -2    1    1    2    0  502 -0.78198086674E+01  0.19283318148E+02  0.13826199229E+04  0.13827764993E+04  0.00000000000E+00 0. -1.
</event>
<event>
 4    1  0.5978476E+003  0.2522686E+02  0.7546771E-02  0.1466281E+00
          2   -1    0    0  501    0  0.00000000000E+00  0.00000000000E+00  0.24188150450E+04  0.24188150450E+04  0.00000000000E+00 0. -1.
         -2   -1    0    0    0  501 -0.00000000000E+00 -0.00000000000E+00 -0.26897621754E+00  0.26897621754E+00  0.00000000000E+00 0. -1.
          2    1    1    2  502    0  0.76685211824E+01  0.24033066588E+02  0.13880237248E+04  0.13882529507E+04  0.00000000000E+00 0. -1.
         -2    1    1    2    0  502 -0.76685211824E+01 -0.24033066588E+02  0.10305223440E+04  0.10308310705E+04  0.00000000000E+00 0. -1.
</event>
<event>
 4    1  0.5978476E+003  0.3087897E+02  0.7546771E-02  0.1412109E+00
          2   -1    0    0  501    0  0.00000000000E+00  0.00000000000E+00  0.83693103110E+03  0.83693103110E+03  0.00000000000E+00 0.  1.
         -2   -1    0    0    0  501 -0.00000000000E+00 -0.00000000000E+00 -0.24012559034E+02  0.24012559034E+02  0.00000000000E+00 0.  1.
          2    1    1    2  502    0 -0.59628061142E+01  0.30297789200E+02  0.82659490390E+03  0.82717147330E+03  0.00000000000E+00 0.  1.
         -2    1    1    2    0  502  0.59628061142E+01 -0.30297789200E+02 -0.13676431841E+02  0.33772116828E+02  0.00000000000E+00 0.  1.
</event>
<event>
 4    1  0.5978476E+003  0.2208939E+02  0.7546771E-02  0.1504261E+00
          2   -1    0    0  501    0  0.00000000000E+00  0.00000000000E+00  0.10827193426E+04  0.10827193426E+04  0.00000000000E+00 0. -1.
         -2   -1    0    0    0  501 -0.00000000000E+00 -0.00000000000E+00 -0.60483227746E+00  0.60483227746E+00  0.00000000000E+00 0. -1.
          2    1    1    2  502    0  0.94187699353E+01 -0.19980691079E+02  0.81452762204E+03  0.81482709105E+03  0.00000000000E+00 0. -1.
         -2    1    1    2    0  502 -0.94187699353E+01  0.19980691079E+02  0.26758688830E+03  0.26849708385E+03  0.00000000000E+00 0. -1.
</event>
<event>
 4    1  0.5978476E+003  0.4282793E+02  0.7546771E-02  0.1332666E+00
          2   -1    0    0  501    0  0.00000000000E+00  0.00000000000E+00  0.41110331312E+03  0.41110331312E+03  0.00000000000E+00 0.  1.
         -2   -1    0    0    0  501 -0.00000000000E+00 -0.00000000000E+00 -0.31553829618E+02  0.31553829618E+02  0.00000000000E+00 0. -1.
          2    1    1    2  502    0  0.27891712269E+02 -0.32500524953E+02  0.39485921400E+03  0.39717506293E+03  0.00000000000E+00 0.  1.
         -2    1    1    2    0  502 -0.27891712269E+02  0.32500524953E+02 -0.15309730498E+02  0.45482079805E+02  0.00000000000E+00 0. -1.
</event>
<event>
 4    1  0.5978476E+003  0.3397744E+02  0.7546771E-02  0.1387898E+00
          2   -1    0    0  501    0  0.00000000000E+00  0.00000000000E+00  0.69003143142E+02  0.69003143142E+02  0.00000000000E+00 0. -1.
         -2   -1    0    0    0  501 -0.00000000000E+00 -0.00000000000E+00 -0.45663980562E+02  0.45663980562E+02  0.00000000000E+00 0.  1.
          2    1    1    2  502    0  0.65057370309E+01  0.33348791517E+02  0.57307029714E+02  0.66622534960E+02  0.00000000000E+00 0. -1.
         -2    1    1    2    0  502 -0.65057370309E+01 -0.33348791517E+02 -0.33967867134E+02  0.48044588744E+02  0.00000000000E+00 0.  1.
</event>
<event>
 4    1  0.6139093E+003  0.2557167E+02  0.7546771E-02  0.1462509E+00
          2   -1    0    0  501    0  0.00000000000E+00  0.00000000000E+00  0.93808406236E+03  0.93808406236E+03  0.00000000000E+00 0. -1.
         -2   -1    0    0    0  501 -0.00000000000E+00 -0.00000000000E+00 -0.93318920245E+02  0.93318920245E+02  0.00000000000E+00 0.  1.
          2    1    1    2  502    0  0.24399838540E+02  0.76523217497E+01  0.93615436898E+03  0.93650355723E+03  0.00000000000E+00 0. -1.
         -2    1    1    2    0  502 -0.24399838540E+02 -0.76523217497E+01 -0.91389226865E+02  0.94899425372E+02  0.00000000000E+00 0.  1.
</event>
<event>
 4    1  0.5978476E+003  0.2072656E+02  0.7546771E-02  0.1523205E+00
          2   -1    0    0  501    0  0.00000000000E+00  0.00000000000E+00  0.70541109782E+02  0.70541109782E+02  0.00000000000E+00 0.  1.
         -2   -1    0    0    0  501 -0.00000000000E+00 -0.00000000000E+00 -0.10589067108E+02  0.10589067108E+02  0.00000000000E+00 0. -1.
          2    1    1    2  502    0 -0.20611665675E+02 -0.21793776184E+01  0.56417648172E+02  0.60104421418E+02  0.00000000000E+00 0.  1.
         -2    1    1    2    0  502  0.20611665675E+02  0.21793776184E+01  0.35343945013E+01  0.21025755472E+02  0.00000000000E+00 0. -1.
</event>
<event>
 4    1  0.5978476E+003  0.4675257E+02  0.7546771E-02  0.1312901E+00
          2   -1    0    0  501    0  0.00000000000E+00  0.00000000000E+00  0.25605150827E+04  0.25605150827E+04  0.00000000000E+00 0. -1.
         -2   -1    0    0    0  501 -0.00000000000E+00 -0.00000000000E+00 -0.85536024110E+00  0.85536024110E+00  0.00000000000E+00 0.  1.
          2    1    1    2  502    0 -0.45997198524E+02 -0.83702158110E+01  0.13369708993E+04  0.13377880954E+04  0.00000000000E+00 0. -1.
         -2    1    1    2    0  502  0.45997198524E+02  0.83702158110E+01  0.12226888232E+04  0.12235823475E+04  0.00000000000E+00 0.  1.
</event>
<event>
 4    1  0.5978476E+003  0.2081481E+02  0.7546771E-02  0.1521925E+00
          2   -1    0    0  501    0  0.00000000000E+00  0.00000000000E+00  0.18703370016E+03  0.18703370016E+03  0.00000000000E+00 0. -1.
         -2   -1    0    0    0  501 -0.00000000000E+00 -0.00000000000E+00 -0.25193494920E+01  0.25193494920E+01  0.00000000000E+00 0. -1.
          2    1    1    2  502    0 -0.14810447375E+02  0.14625563976E+02  0.11915295440E+03  0.12095736031E+03  0.00000000000E+00 0. -1.
         -2    1    1    2    0  502  0.14810447375E+02 -0.14625563976E+02  0.65361396277E+02  0.68595689342E+02  0.00000000000E+00 0. -1.
</event>
<event>
 4    1  0.5978476E+003  0.2688906E+02  0.7546771E-02  0.1448726E+00
          2   -1    0    0  501    0  0.00000000000E+00  0.00000000000E+00  0.52899605037E+03  0.52899605037E+03  0.00000000000E+00 0.  1.
         -2   -1    0    0    0  501 -0.00000000000E+00 -0.00000000000E+00 -0.40258052070E+01  0.40258052070E+01  0.00000000000E+00 0.  1.
          2    1    1    2  502    0  0.24676115184E+02 -0.10682272961E+02  0.47908081180E+03  0.47983481100E+03  0.00000000000E+00 0.  1.
         -2    1    1    2    0  502 -0.24676115184E+02  0.10682272961E+02  0.45889433371E+02  0.53187044581E+02  0.00000000000E+00 0.  1.
</event>
<event>
 4    1  0.5978476E+003  0.3912101E+02  0.7546771E-02  0.1353715E+00
          2   -1    0    0  501    0  0.00000000000E+00  0.00000000000E+00  0.93063863958E+03  0.93063863958E+03  0.00000000000E+00 0. -1.
         -2   -1    0    0    0  501 -0.00000000000E+00 -0.00000000000E+00 -0.65575821662E+01  0.65575821662E+01  0.00000000000E+00 0. -1.
          2    1    1    2  502    0  0.64864485883E+00 -0.39115634028E+02  0.86764693559E+03  0.86852844421E+03  0.00000000000E+00 0. -1.
         -2    1    1    2    0  502 -0.64864485883E+00  0.39115634028E+02  0.56434121824E+02  0.68667777535E+02  0.00000000000E+00 0. -1.
</event>
<event>
 4    1  0.5978476E+003  0.2453520E+02  0.7546771E-02  0.1474071E+00
          2   -1    0    0  501    0  0.00000000000E+00  0.00000000000E+00  0.22325603316E+03  0.22325603316E+03  0.00000000000E+00 0. -1.
         -2   -1    0    0    0  501 -0.00000000000E+00 -0.00000000000E+00 -0.95286483372E+02  0.95286483372E+02  0.00000000000E+00 0. -1.
          2    1    1    2  502    0 -0.18291126107E+02 -0.16352695507E+02  0.22098639037E+03  0.22234423912E+03  0.00000000000E+00 0. -1.
         -2    1    1    2    0  502  0.18291126107E+02  0.16352695507E+02 -0.93016840580E+02  0.96198277407E+02  0.00000000000E+00 0. -1.
</event>
<event>
 4    1  0.5978476E+003  0.3173280E+02  0.7546771E-02  0.1405113E+00
          2   -1    0    0  501    0  0.00000000000E+00  0.00000000000E+00  0.22505504744E+03  0.22505504744E+03  0.00000000000E+00 0. -1.
         -2   -1    0    0    0  501 -0.00000000000E+00 -0.00000000000E+00 -0.68810436976E+02  0.68810436976E+02  0.00000000000E+00 0. -1.
          2    1    1    2  502    0 -0.31103490353E+02 -0.62883444387E+01  0.22019768232E+03  0.22247244703E+03  0.00000000000E+00 0. -1.
         -2    1    1    2    0  502  0.31103490353E+02  0.62883444387E+01 -0.63953071854E+02  0.71393037388E+02  0.00000000000E+00 0. -1.
</event>
<event>
 4    1  0.5978476E+003  0.2830182E+02  0.7546771E-02  0.1434952E+00
          2   -1    0    0  501    0  0.00000000000E+00  0.00000000000E+00  0.15364312673E+02  0.15364312673E+02  0.00000000000E+00 0. -1.
         -2   -1    0    0    0  501 -0.00000000000E+00 -0.00000000000E+00 -0.73473407628E+02  0.73473407628E+02  0.00000000000E+00 0. -1.
          2    1    1    2  502    0 -0.57218314552E+01 -0.27717387481E+02 -0.51158662024E+01  0.28760476543E+02  0.00000000000E+00 0. -1.
         -2    1    1    2    0  502  0.57218314552E+01  0.27717387481E+02 -0.52993228753E+02  0.60077243759E+02  0.00000000000E+00 0. -1.
</event>
<event>
 4    1  0.5978476E+003  0.2807039E+02  0.7546771E-02  0.1437142E+00
          2   -1    0    0  501    0  0.00000000000E+00  0.00000000000E+00  0.15631801255E+03  0.15631801255E+03  0.00000000000E+00 0. -1.
         -2   -1    0    0    0  501 -0.00000000000E+00 -0.00000000000E+00 -0.10649866342E+02  0.10649866342E+02  0.00000000000E+00 0.  1.
          2    1    1    2  502    0 -0.16102493152E+02  0.22992531723E+02  0.13342133891E+03  0.13634221825E+03  0.00000000000E+00 0. -1.
         -2    1    1    2    0  502  0.16102493152E+02 -0.22992531723E+02  0.12246807298E+02  0.30625660642E+02  0.00000000000E+00 0.  1.
</event>
<event>
 4    1  0.5978476E+003  0.2470759E+02  0.7546771E-02  0.1472101E+00
          2   -1    0    0  501    0  0.00000000000E+00  0.00000000000E+00  0.19173953879E+01  0.19173953879E+01  0.00000000000E+00 0. -1.
         -2   -1    0    0    0  501 -0.00000000000E+00 -0.00000000000E+00 -0.33676735392E+03  0.33676735392E+03  0.00000000000E+00 0. -1.
          2    1    1    2  502    0  0.20774181915E+02 -0.13375282706E+02 -0.12785801893E+03  0.13022341504E+03  0.00000000000E+00 0. -1.
         -2    1    1    2    0  502 -0.20774181915E+02  0.13375282706E+02 -0.20699193960E+03  0.20846133426E+03  0.00000000000E+00 0. -1.
</event>
<event>
 4    1  0.5978476E+003  0.5871765E+02  0.7546771E-02  0.1264253E+00
          2   -1    0    0  501    0  0.00000000000E+00  0.00000000000E+00  0.23092298037E+02  0.23092298037E+02  0.00000000000E+00 0.  1.
         -2   -1    0    0    0  501 -0.00000000000E+00 -0.00000000000E+00 -0.34966555584E+03  0.34966555584E+03  0.00000000000E+00 0. -1.
          2    1    1    2  502    0 -0.30802737949E+02 -0.49989539205E+02 -0.22202540499E+02  0.62775118476E+02  0.00000000000E+00 0.  1.
         -2    1    1    2    0  502  0.30802737949E+02  0.49989539205E+02 -0.30437071730E+03  0.30998273540E+03  0.00000000000E+00 0. -1.
</event>
<event>
 4    1  0.5978476E+003  0.2024613E+02  0.7546771E-02  0.1530306E+00
          2   -1    0    0  501    0  0.00000000000E+00  0.00000000000E+00  0.24021894217E+03  0.24021894217E+03  0.00000000000E+00 0.  1.
         -2   -1    0    0    0  501 -0.00000000000E+00 -0.00000000000E+00 -0.57074448854E+02  0.57074448854E+02  0.00000000000E+00 0.  1.
          2    1    1    2  502    0  0.16693241336E+02  0.11456068524E+02  0.23797999701E+03  0.23883966335E+03  0.00000000000E+00 0.  1.
         -2    1    1    2    0  502 -0.16693241336E+02 -0.11456068524E+02 -0.54835503700E+02  0.58453727668E+02  0.00000000000E+00 0.  1.
</event>
<event>
 4    1  0.5978476E+003  0.2165194E+02  0.7546771E-02  0.1510157E+00
          2   -1    0    0  501    0  0.00000000000E+00  0.00000000000E+00  0.79996311485E+03  0.79996311485E+03  0.00000000000E+00 0. -1.
         -2   -1    0    0    0  501 -0.00000000000E+00 -0.00000000000E+00 -0.71342554570E+01  0.71342554570E+01  0.00000000000E+00 0. -1.
          2    1    1    2  502    0 -0.10992605068E+02  0.18653928283E+02  0.78303348363E+03  0.78333277915E+03  0.00000000000E+00 0. -1.
         -2    1    1    2    0  502  0.10992605068E+02 -0.18653928283E+02  0.97953757666E+01  0.23764591160E+02  0.00000000000E+00 0. -1.
</event>
<event>
 4    1  0.5978476E+003  0.4297475E+02  0.7546771E-02  0.1331883E+00
          2   -1    0    0  501    0  0.00000000000E+00  0.00000000000E+00  0.88804952494E+03  0.88804952494E+03  0.00000000000E+00 0. -1.
         -2   -1    0    0    0  501 -0.00000000000E+00 -0.00000000000E+00 -0.56827153252E+01  0.56827153252E+01  0.00000000000E+00 0. -1.
          2    1    1    2  502    0  0.32712341415E+00  0.42973508599E+02  0.79700781086E+03  0.79816557181E+03  0.00000000000E+00 0. -1.
         -2    1    1    2    0  502 -0.32712341415E+00 -0.42973508599E+02  0.85358998747E+02  0.95566668447E+02  0.00000000000E+00 0. -1.
</event>
<event>
 4    1  0.5978476E+003  0.2833010E+02  0.7546771E-02  0.1434686E+00
          2   -1    0    0  501    0  0.00000000000E+00  0.00000000000E+00  0.21074636180E+04  0.21074636180E+04  0.00000000000E+00 0. -1.
         -2   -1    0    0    0  501 -0.00000000000E+00 -0.00000000000E+00 -0.98011032730E+00  0.98011032730E+00  0.00000000000E+00 0.  1.
          2    1    1    2  502    0  0.16883501215E+01  0.28279750001E+02  0.18775847036E+04  0.18777984221E+04  0.00000000000E+00 0. -1.
         -2    1    1    2    0  502 -0.16883501215E+01 -0.28279750001E+02  0.22889880402E+03  0.23064530619E+03  0.00000000000E+00 0.  1.
</event>
<event>
 4    1  0.5978476E+003  0.2236656E+02  0.7546771E-02  0.1500609E+00
          2   -1    0    0  501    0  0.00000000000E+00  0.00000000000E+00  0.43765195011E+02  0.43765195011E+02  0.00000000000E+00 0. -1.
         -2   -1    0    0    0  501 -0.00000000000E+00 -0.00000000000E+00 -0.90662516308E+02  0.90662516308E+02  0.00000000000E+00 0. -1.
          2    1    1    2  502    0  0.19664210865E+02 -0.10657480432E+02  0.39385376521E+02  0.45293166833E+02  0.00000000000E+00 0. -1.
         -2    1    1    2    0  502 -0.19664210865E+02  0.10657480432E+02 -0.86282697818E+02  0.89134544487E+02  0.00000000000E+00 0. -1.
</event>
<event>
 4    1  0.5978476E+003  0.3598116E+02  0.7546771E-02  0.1373794E+00
          2   -1    0    0  501    0  0.00000000000E+00  0.00000000000E+00  0.31686435608E+02  0.31686435608E+02  0.00000000000E+00 0. -1.
         -2   -1    0    0    0  501 -0.00000000000E+00 -0.00000000000E+00 -0.10473902219E+03  0.10473902219E+03  0.00000000000E+00 0.  1.
          2    1    1    2  502    0  0.35278849923E+02  0.70743579211E+01  0.16745480623E+02  0.39686961501E+02  0.00000000000E+00 0. -1.
         -2    1    1    2    0  502 -0.35278849923E+02 -0.70743579211E+01 -0.89798067202E+02  0.96738496293E+02  0.00000000000E+00 0.  1.
</event>
<event>
 4    1  0.5978476E+003  0.2218155E+02  0.7546771E-02  0.1503039E+00
          2   -1    0    0  501    0  0.00000000000E+00  0.00000000000E+00  0.12308255842E+04  0.12308255842E+04  0.00000000000E+00 0. -1.
         -2   -1    0    0    0  501 -0.00000000000E+00 -0.00000000000E+00 -0.40774495207E+00  0.40774495207E+00  0.00000000000E+00 0. -1.
          2    1    1    2  502    0  0.13937799264E+02 -0.17255698382E+02  0.70141728884E+03  0.70176793490E+03  0.00000000000E+00 0. -1.
         -2    1    1    2    0  502 -0.13937799264E+02  0.17255698382E+02  0.52900055044E+03  0.52946539428E+03  0.00000000000E+00 0. -1.
</event>
<event>
 4    1  0.5978476E+003  0.5568119E+02  0.7546771E-02  0.1275257E+00
          2   -1    0    0  501    0  0.00000000000E+00  0.00000000000E+00  0.93187233702E+02  0.93187233702E+02  0.00000000000E+00 0.  1.
         -2   -1    0    0    0  501 -0.00000000000E+00 -0.00000000000E+00 -0.11746614606E+03  0.11746614606E+03  0.00000000000E+00 0.  1.
          2    1    1    2  502    0 -0.44632185458E+02 -0.33292092450E+02  0.77032158044E+02  0.95049191324E+02  0.00000000000E+00 0.  1.
         -2    1    1    2    0  502  0.44632185458E+02  0.33292092450E+02 -0.10131107040E+03  0.11560418844E+03  0.00000000000E+00 0.  1.
</event>
<event>
 4    1  0.5978476E+003  0.3516482E+02  0.7546771E-02  0.1379408E+00
          2   -1    0    0  501    0  0.00000000000E+00  0.00000000000E+00  0.43988831344E+03  0.43988831344E+03  0.00000000000E+00 0.  1.
         -2   -1    0    0    0  501 -0.00000000000E+00 -0.00000000000E+00 -0.17487841299E+02  0.17487841299E+02  0.00000000000E+00 0. -1.
          2    1    1    2  502    0  0.34161094480E+02 -0.83417205711E+01  0.42070332057E+03  0.42217040235E+03  0.00000000000E+00 0.  1.
         -2    1    1    2    0  502 -0.34161094480E+02  0.83417205711E+01  0.16971515726E+01  0.35205752394E+02  0.00000000000E+00 0. -1.
</event>
<event>
 4    1  0.5978476E+003  0.2436078E+02  0.7546771E-02  0.1476083E+00
          2   -1    0    0  501    0  0.00000000000E+00  0.00000000000E+00  0.11236694066E+04  0.11236694066E+04  0.00000000000E+00 0. -1.
         -2   -1    0    0    0  501 -0.00000000000E+00 -0.00000000000E+00 -0.10817601209E+02  0.10817601209E+02  0.00000000000E+00 0. -1.
          2    1    1    2  502    0  0.24665612568E+01  0.24235586025E+02  0.11096492498E+04  0.11099166208E+04  0.00000000000E+00 0. -1.
         -2    1    1    2    0  502 -0.24665612568E+01 -0.24235586025E+02  0.32025555706E+01  0.24570386985E+02  0.00000000000E+00 0. -1.
</event>
<event>
 4    1  0.5978476E+003  0.2520312E+02  0.7546771E-02  0.1466544E+00
          2   -1    0    0  501    0  0.00000000000E+00  0.00000000000E+00  0.23756132106E+04  0.23756132106E+04  0.00000000000E+00 0.  1.
         -2   -1    0    0    0  501 -0.00000000000E+00 -0.00000000000E+00 -0.29890034737E+00  0.29890034737E+00  0.00000000000E+00 0. -1.
          2    1    1    2  502    0 -0.11531224770E+02 -0.22410448337E+02  0.15734157522E+04  0.15736175923E+04  0.00000000000E+00 0.  1.
         -2    1    1    2    0  502  0.11531224770E+02  0.22410448337E+02  0.80189855806E+03  0.80229451872E+03  0.00000000000E+00 0. -1.
</event>
<event>
 4    1  0.5978476E+003  0.2302944E+02  0.7546771E-02  0.1492129E+00
          2   -1    0    0  501    0  0.00000000000E+00  0.00000000000E+00  0.91313717691E+02  0.91313717691E+02  0.00000000000E+00 0. -1.
         -2   -1    0    0    0  501 -0.00000000000E+00 -0.00000000000E+00 -0.60128670391E+03  0.60128670391E+03  0.00000000000E+00 0. -1.
          2    1    1    2  502    0  0.11838378961E+02 -0.19753682275E+02  0.89637136757E+02  0.92548211576E+02  0.00000000000E+00 0. -1.
         -2    1    1    2    0  502 -0.11838378961E+02  0.19753682275E+02 -0.59961012298E+03  0.60005221003E+03  0.00000000000E+00 0. -1.
</event>
<event>
 4    1  0.5978476E+003  0.2370398E+02  0.7546771E-02  0.1483842E+00
          2   -1    0    0  501    0  0.00000000000E+00  0.00000000000E+00  0.99080618667E+01  0.99080618667E+01  0.00000000000E+00 0.  1.
         -2   -1    0    0    0  501 -0.00000000000E+00 -0.00000000000E+00 -0.70740939766E+02  0.70740939766E+02  0.00000000000E+00 0.  1.
          2    1    1    2  502    0  0.20636219212E+02  0.11662987577E+02 -0.12457177512E+02  0.26777977784E+02  0.00000000000E+00 0.  1.
         -2    1    1    2    0  502 -0.20636219212E+02 -0.11662987577E+02 -0.48375700388E+02  0.53871023850E+02  0.00000000000E+00 0.  1.
</event>
<event>
 4    1  0.5978476E+003  0.2304896E+02  0.7546771E-02  0.1491884E+00
          2   -1    0    0  501    0  0.00000000000E+00  0.00000000000E+00  0.79068920756E+03  0.79068920756E+03  0.00000000000E+00 0. -1.
         -2   -1    0    0    0  501 -0.00000000000E+00 -0.00000000000E+00 -0.72745539464E+00  0.72745539464E+00  0.00000000000E+00 0. -1.
          2    1    1    2  502    0 -0.20457931786E+02  0.10617321922E+02  0.50434691542E+03  0.50487331637E+03  0.00000000000E+00 0. -1.
         -2    1    1    2    0  502  0.20457931786E+02 -0.10617321922E+02  0.28561483675E+03  0.28654334658E+03  0.00000000000E+00 0. -1.
</event>
<event>
 4    1  0.5978476E+003  0.3764583E+02  0.7546771E-02  0.1362862E+00
          2   -1    0    0  501    0  0.00000000000E+00  0.00000000000E+00  0.43813081038E+03  0.43813081038E+03  0.00000000000E+00 0.  1.
         -2   -1    0    0    0  501 -0.00000000000E+00 -0.00000000000E+00 -0.17054102595E+02  0.17054102595E+02  0.00000000000E+00 0. -1.
          2    1    1    2  502    0 -0.30110179649E+02  0.22596142054E+02  0.41541315024E+03  0.41711544439E+03  0.00000000000E+00 0.  1.
         -2    1    1    2    0  502  0.30110179649E+02 -0.22596142054E+02  0.56635575413E+01  0.38069468584E+02  0.00000000000E+00 0. -1.
</event>
<event>
 4    1  0.5978476E+003  0.2396323E+02  0.7546771E-02  0.1480744E+00
          2   -1    0    0  501    0  0.00000000000E+00  0.00000000000E+00  0.67468050019E+02  0.67468050019E+02  0.00000000000E+00 0. -1.
         -2   -1    0    0    0  501 -0.00000000000E+00 -0.00000000000E+00 -0.13225173760E+03  0.13225173760E+03  0.00000000000E+00 0.  1.
          2    1    1    2  502    0  0.12609256852E+02  0.20377517884E+02  0.64201308653E+02  0.68527692404E+02  0.00000000000E+00 0. -1.
         -2    1    1    2    0  502 -0.12609256852E+02 -0.20377517884E+02 -0.12898499624E+03  0.13119209522E+03  0.00000000000E+00 0.  1.
</event>
<event>
 4    1  0.5978476E+003  0.2399730E+02  0.7546771E-02  0.1480341E+00
          2   -1    0    0  501    0  0.00000000000E+00  0.00000000000E+00  0.25968969302E+03  0.25968969302E+03  0.00000000000E+00 0. -1.
         -2   -1    0    0    0  501 -0.00000000000E+00 -0.00000000000E+00 -0.57732911207E+02  0.57732911207E+02  0.00000000000E+00 0. -1.
          2    1    1    2  502    0 -0.23985788476E+02  0.74332974280E+00  0.25661178026E+03  0.25773140351E+03  0.00000000000E+00 0. -1.
         -2    1    1    2    0  502  0.23985788476E+02 -0.74332974280E+00 -0.54654998446E+02  0.59691200717E+02  0.00000000000E+00 0. -1.
</event>
<event>
 4    1  0.5978476E+003  0.2496811E+02  0.7546771E-02  0.1469161E+00
          2   -1    0    0  501    0  0.00000000000E+00  0.00000000000E+00  0.71486104761E+03  0.71486104761E+03  0.00000000000E+00 0.  1.
         -2   -1    0    0    0  501 -0.00000000000E+00 -0.00000000000E+00 -0.42416144649E+01  0.42416144649E+01  0.00000000000E+00 0.  1.
          2    1    1    2  502    0 -0.15222206397E+02  0.19791178063E+02  0.67577510684E+03  0.67623620232E+03  0.00000000000E+00 0.  1.
         -2    1    1    2    0  502  0.15222206397E+02 -0.19791178063E+02  0.34844326304E+02  0.42866459759E+02  0.00000000000E+00 0.  1.
</event>
<event>
 4    1  0.5978476E+003  0.2004837E+02  0.7546771E-02  0.1533298E+00
          2   -1    0    0  501    0  0.00000000000E+00  0.00000000000E+00  0.16046722787E+02  0.16046722787E+02  0.00000000000E+00 0.  1.
         -2   -1    0    0    0  501 -0.00000000000E+00 -0.00000000000E+00 -0.25329339372E+02  0.25329339372E+02  0.00000000000E+00 0. -1.
          2    1    1    2  502    0  0.10134611013E+02  0.17298174132E+02 -0.24607008620E+01  0.20198817228E+02  0.00000000000E+00 0. -1.
         -2    1    1    2    0  502 -0.10134611013E+02 -0.17298174132E+02 -0.68219157236E+01  0.21177244930E+02  0.00000000000E+00 0.  1.
</event>
<event>
 4    1  0.5978476E+003  0.3945563E+02  0.7546771E-02  0.1351706E+00
          2   -1    0    0  501    0  0.00000000000E+00  0.00000000000E+00  0.80198679847E+03  0.80198679847E+03  0.00000000000E+00 0.  1.
         -2   -1    0    0    0  501 -0.00000000000E+00 -0.00000000000E+00 -0.50067063798E+01  0.50067063798E+01  0.00000000000E+00 0.  1.
          2    1    1    2  502    0 -0.81254684542E+01  0.38609893441E+02  0.71422397024E+03  0.71531295723E+03  0.00000000000E+00 0.  1.
         -2    1    1    2    0  502  0.81254684542E+01 -0.38609893441E+02  0.82756121854E+02  0.91680547629E+02  0.00000000000E+00 0.  1.
</event>
<event>
 4    1  0.5978476E+003  0.2976109E+02  0.7546771E-02  0.1421684E+00
          2   -1    0    0  501    0  0.00000000000E+00  0.00000000000E+00  0.71337579488E+02  0.71337579488E+02  0.00000000000E+00 0. -1.
         -2   -1    0    0    0  501 -0.00000000000E+00 -0.00000000000E+00 -0.19262518313E+02  0.19262518313E+02  0.00000000000E+00 0. -1.
          2    1    1    2  502    0 -0.29348743776E+02 -0.49369598919E+01  0.53044712642E+02  0.60823218210E+02  0.00000000000E+00 0. -1.
         -2    1    1    2    0  502  0.29348743776E+02  0.49369598919E+01 -0.96965146658E+00  0.29776879591E+02  0.00000000000E+00 0. -1.
</event>
<event>
 4    1  0.5978476E+003  0.2073943E+02  0.7546771E-02  0.1523018E+00
          2   -1    0    0  501    0  0.00000000000E+00  0.00000000000E+00  0.11290729323E+03  0.11290729323E+03  0.00000000000E+00 0. -1.
         -2   -1    0    0    0  501 -0.00000000000E+00 -0.00000000000E+00 -0.43829300323E+02  0.43829300323E+02  0.00000000000E+00 0. -1.
          2    1    1    2  502    0 -0.13655106309E+02  0.15609680470E+02  0.10942409734E+03  0.11137215599E+03  0.00000000000E+00 0. -1.
         -2    1    1    2    0  502  0.13655106309E+02 -0.15609680470E+02 -0.40346104428E+02  0.45364437561E+02  0.00000000000E+00 0. -1.
</event>
<event>
 4    1  0.5978476E+003  0.2014971E+02  0.7546771E-02  0.1531759E+00
          2   -1    0    0  501    0  0.00000000000E+00  0.00000000000E+00  0.73962061871E+03  0.73962061871E+03  0.00000000000E+00 0. -1.
         -2   -1    0    0    0  501 -0.00000000000E+00 -0.00000000000E+00 -0.37427768405E+03  0.37427768405E+03  0.00000000000E+00 0. -1.
          2    1    1    2  502    0 -0.55628811780E+01  0.19366602589E+02  0.73921203629E+03  0.73948660944E+03  0.00000000000E+00 0. -1.
         -2    1    1    2    0  502  0.55628811780E+01 -0.19366602589E+02 -0.37386910163E+03  0.37441169332E+03  0.00000000000E+00 0. -1.
</event>
<event>
 4    1  0.5978476E+003  0.2142333E+02  0.7546771E-02  0.1513306E+00
          2   -1    0    0  501    0  0.00000000000E+00  0.00000000000E+00  0.10418852884E+04  0.10418852884E+04  0.00000000000E+00 0.  1.
         -2   -1    0    0    0  501 -0.00000000000E+00 -0.00000000000E+00 -0.14040002303E+01  0.14040002303E+01  0.00000000000E+00 0.  1.
          2    1    1    2  502    0  0.20405953466E+02  0.65234912521E+01  0.95237147879E+03  0.95261240412E+03  0.00000000000E+00 0.  1.
         -2    1    1    2    0  502 -0.20405953466E+02 -0.65234912521E+01  0.88109809346E+02  0.90676884475E+02  0.00000000000E+00 0.  1.
</event>
<event>
 4    1  0.5978476E+003  0.3025503E+02  0.7546771E-02  0.1417393E+00
          2   -1    0    0  501    0  0.00000000000E+00  0.00000000000E+00  0.29914458549E+01  0.29914458549E+01  0.00000000000E+00 0.  1.
         -2   -1    0    0    0  501 -0.00000000000E+00 -0.00000000000E+00 -0.67637248741E+03  0.67637248741E+03  0.00000000000E+00 0. -1.
          2    1    1    2  502    0 -0.23184280066E+02  0.19438523367E+02 -0.85327202137E+02  0.90532306153E+02  0.00000000000E+00 0.  1.
         -2    1    1    2    0  502  0.23184280066E+02 -0.19438523367E+02 -0.58805383942E+03  0.58883162711E+03  0.00000000000E+00 0. -1.
</event>
<event>
 4    1  0.5978476E+003  0.2888346E+02  0.7546771E-02  0.1429554E+00
          2   -1    0    0  501    0  0.00000000000E+00  0.00000000000E+00  0.11554118758E+04  0.11554118758E+04  0.00000000000E+00 0.  1.
         -2   -1    0    0    0  501 -0.00000000000E+00 -0.00000000000E+00 -0.23710889099E+01  0.23710889099E+01  0.00000000000E+00 0.  1.
          2    1    1    2  502    0  0.27482945800E+02  0.88849327272E+01  0.10592900026E+04  0.10596837094E+04  0.00000000000E+00 0.  1.
         -2    1    1    2    0  502 -0.27482945800E+02 -0.88849327272E+01  0.93750784313E+02  0.98099255342E+02  0.00000000000E+00 0.  1.
</event>
<event>
 4    1  0.5978476E+003  0.4741819E+02  0.7546771E-02  0.1309772E+00
          2   -1    0    0  501    0  0.00000000000E+00  0.00000000000E+00  0.39927435071E+04  0.39927435071E+04  0.00000000000E+00 0.  1.
         -2   -1    0    0    0  501 -0.00000000000E+00 -0.00000000000E+00 -0.86828016350E+00  0.86828016350E+00  0.00000000000E+00 0. -1.
          2    1    1    2  502    0  0.46435889214E+02  0.96017302251E+01  0.31796700721E+04  0.31800236245E+04  0.00000000000E+00 0.  1.
         -2    1    1    2    0  502 -0.46435889214E+02 -0.96017302251E+01  0.81220515484E+03  0.81358816275E+03  0.00000000000E+00 0. -1.
</event>
<event>
 4    1  0.5978476E+003  0.2160242E+02  0.7546771E-02  0.1510835E+00
          2   -1    0    0  501    0  0.00000000000E+00  0.00000000000E+00  0.76192169556E+00  0.76192169556E+00  0.00000000000E+00 0. -1.
         -2   -1    0    0    0  501 -0.00000000000E+00 -0.00000000000E+00 -0.73893806615E+03  0.73893806615E+03  0.00000000000E+00 0. -1.
          2    1    1    2  502    0 -0.21546163250E+02 -0.15579539373E+01 -0.21608890416E+03  0.21716601684E+03  0.00000000000E+00 0. -1.
         -2    1    1    2    0  502  0.21546163250E+02  0.15579539373E+01 -0.52208724030E+03  0.52253397101E+03  0.00000000000E+00 0. -1.
</event>
<event>
 4    1  0.5978476E+003  0.2126080E+02  0.7546771E-02  0.1515574E+00
          2   -1    0    0  501    0  0.00000000000E+00  0.00000000000E+00  0.13546674980E+03  0.13546674980E+03  0.00000000000E+00 0. -1.
         -2   -1    0    0    0  501 -0.00000000000E+00 -0.00000000000E+00 -0.87614942610E+01  0.87614942610E+01  0.00000000000E+00 0.  1.
          2    1    1    2  502    0  0.22951188509E+01 -0.21136553108E+02  0.12009664072E+03  0.12196402977E+03  0.00000000000E+00 0. -1.
         -2    1    1    2    0  502 -0.22951188509E+01  0.21136553108E+02  0.66086148216E+01  0.22264214284E+02  0.00000000000E+00 0.  1.
</event>
<event>
 4    1  0.5978476E+003  0.3936087E+02  0.7546771E-02  0.1352272E+00
          2   -1    0    0  501    0  0.00000000000E+00  0.00000000000E+00  0.37707696310E+03  0.37707696310E+03  0.00000000000E+00 0. -1.
         -2   -1    0    0    0  501 -0.00000000000E+00 -0.00000000000E+00 -0.57934413871E+02  0.57934413871E+02  0.00000000000E+00 0. -1.
          2    1    1    2  502    0  0.62719401605E+01 -0.38857954981E+02  0.36922249995E+03  0.37131460026E+03  0.00000000000E+00 0. -1.
         -2    1    1    2    0  502 -0.62719401605E+01  0.38857954981E+02 -0.50079950722E+02  0.63696776708E+02  0.00000000000E+00 0. -1.
</event>
<event>
 4    1  0.5978476E+003  0.2178852E+02  0.7546771E-02  0.1508298E+00
          2   -1    0    0  501    0  0.00000000000E+00  0.00000000000E+00  0.67463644248E+02  0.67463644248E+02  0.00000000000E+00 0. -1.
         -2   -1    0    0    0  501 -0.00000000000E+00 -0.00000000000E+00 -0.16428169128E+02  0.16428169128E+02  0.00000000000E+00 0. -1.
          2    1    1    2  502    0  0.16989672827E+01  0.21722183102E+02  0.57232064449E+02  0.61239276038E+02  0.00000000000E+00 0. -1.
         -2    1    1    2    0  502 -0.16989672827E+01 -0.21722183102E+02 -0.61965893299E+01  0.22652537338E+02  0.00000000000E+00 0. -1.
</event>
<event>
 4    1  0.5978476E+003  0.2051691E+02  0.7546771E-02  0.1526275E+00
          2   -1    0    0  501    0  0.00000000000E+00  0.00000000000E+00  0.11879345952E+04  0.11879345952E+04  0.00000000000E+00 0.  1.
         -2   -1    0    0    0  501 -0.00000000000E+00 -0.00000000000E+00 -0.59853226134E+00  0.59853226134E+00  0.00000000000E+00 0. -1.
          2    1    1    2  502    0 -0.20334420340E+02  0.27303697926E+01  0.97324107142E+03  0.97345730604E+03  0.00000000000E+00 0.  1.
         -2    1    1    2    0  502  0.20334420340E+02 -0.27303697926E+01  0.21409499149E+03  0.21507582140E+03  0.00000000000E+00 0. -1.
</event>
<event>
 4    1  0.5978476E+003  0.2242434E+02  0.7546771E-02  0.1499856E+00
          2   -1    0    0  501    0  0.00000000000E+00  0.00000000000E+00  0.15967744371E+04  0.15967744371E+04  0.00000000000E+00 0. -1.
         -2   -1    0    0    0  501 -0.00000000000E+00 -0.00000000000E+00 -0.50912272360E+01  0.50912272360E+01  0.00000000000E+00 0.  1.
          2    1    1    2  502    0 -0.53469993158E+01  0.21777522551E+02  0.15716083077E+04  0.15717682793E+04  0.00000000000E+00 0. -1.
         -2    1    1    2    0  502  0.53469993158E+01 -0.21777522551E+02  0.20074902128E+02  0.30097385029E+02  0.00000000000E+00 0.  1.
</event>
<event>
 4    1  0.5978476E+003  0.8084718E+02  0.7546771E-02  0.1201894E+00
          2   -1    0    0  501    0  0.00000000000E+00  0.00000000000E+00  0.57445800455E+03  0.57445800455E+03  0.00000000000E+00 0.  1.
         -2   -1    0    0    0  501 -0.00000000000E+00 -0.00000000000E+00 -0.11390572524E+02  0.11390572524E+02  0.00000000000E+00 0.  1.
          2    1    1    2  502    0  0.79519787974E+02 -0.14590073417E+02  0.29120894450E+03  0.30222328878E+03  0.00000000000E+00 0.  1.
         -2    1    1    2    0  502 -0.79519787974E+02  0.14590073417E+02  0.27185848753E+03  0.28362528830E+03  0.00000000000E+00 0.  1.
</event>
<event>
 4    1  0.5978476E+003  0.2398324E+02  0.7546771E-02  0.1480507E+00
          2   -1    0    0  501    0  0.00000000000E+00  0.00000000000E+00  0.19440847449E+01  0.19440847449E+01  0.00000000000E+00 0. -1.
         -2   -1    0    0    0  501 -0.00000000000E+00 -0.00000000000E+00 -0.55897198267E+03  0.55897198267E+03  0.00000000000E+00 0.  1.
          2    1    1    2  502    0 -0.21472220764E+01  0.23886914920E+02 -0.47092738112E+03  0.47153769050E+03  0.00000000000E+00 0.  1.
         -2    1    1    2    0  502  0.21472220764E+01 -0.23886914920E+02 -0.86100516803E+02  0.89378376920E+02  0.00000000000E+00 0. -1.
</event>
<event>
 4    1  0.5978476E+003  0.4664880E+02  0.7546771E-02  0.1313395E+00
          2   -1    0    0  501    0  0.00000000000E+00  0.00000000000E+00  0.75602311566E+03  0.75602311566E+03  0.00000000000E+00 0.  1.
         -2   -1    0    0    0  501 -0.00000000000E+00 -0.00000000000E+00 -0.47385622326E+02  0.47385622326E+02  0.00000000000E+00 0.  1.
          2    1    1    2  502    0  0.39740738270E+02 -0.24429160847E+02  0.74363154323E+03  0.74509327085E+03  0.00000000000E+00 0.  1.
         -2    1    1    2    0  502 -0.39740738270E+02  0.24429160847E+02 -0.34994049904E+02  0.58315467130E+02  0.00000000000E+00 0.  1.
</event>
<event>
 4    1  0.5978476E+003  0.3448733E+02  0.7546771E-02  0.1384204E+00
          2   -1    0    0  501    0  0.00000000000E+00  0.00000000000E+00  0.90501434076E+03  0.90501434076E+03  0.00000000000E+00 0. -1.
         -2   -1    0    0    0  501 -0.00000000000E+00 -0.00000000000E+00 -0.89808353095E+01  0.89808353095E+01  0.00000000000E+00 0. -1.
          2    1    1    2  502    0 -0.14995820431E+02 -0.31056418646E+02  0.87025518354E+03  0.87093826431E+03  0.00000000000E+00 0. -1.
         -2    1    1    2    0  502  0.14995820431E+02  0.31056418646E+02  0.25778321916E+02  0.43056911760E+02  0.00000000000E+00 0. -1.
</event>
<event>
 4    1  0.5978476E+003  0.2178119E+02  0.7546771E-02  0.1508397E+00
          2   -1    0    0  501    0  0.00000000000E+00  0.00000000000E+00  0.73889141324E+02  0.73889141324E+02  0.00000000000E+00 0.  1.
         -2   -1    0    0    0  501 -0.00000000000E+00 -0.00000000000E+00 -0.73429776651E+01  0.73429776651E+01  0.00000000000E+00 0.  1.
          2    1    1    2  502    0 -0.23855781632E+01 -0.21650151450E+02  0.47667444111E+02  0.52408064923E+02  0.00000000000E+00 0.  1.
         -2    1    1    2    0  502  0.23855781632E+01  0.21650151450E+02  0.18878719548E+02  0.28824054066E+02  0.00000000000E+00 0.  1.
</event>
<event>
 4    1  0.5978476E+003  0.2277047E+02  0.7546771E-02  0.1495401E+00
          2   -1    0    0  501    0  0.00000000000E+00  0.00000000000E+00  0.98991011777E+02  0.98991011777E+02  0.00000000000E+00 0. -1.
         -2   -1    0    0    0  501 -0.00000000000E+00 -0.00000000000E+00 -0.10053888713E+03  0.10053888713E+03  0.00000000000E+00 0. -1.
          2    1    1    2  502    0 -0.17237270731E+02  0.14878533183E+02  0.96357518003E+02  0.99011441397E+02  0.00000000000E+00 0. -1.
         -2    1    1    2    0  502  0.17237270731E+02 -0.14878533183E+02 -0.97905393360E+02  0.10051845751E+03  0.00000000000E+00 0. -1.
</event>
<event>
 4    1  0.5978476E+003  0.2192314E+02  0.7546771E-02  0.1506482E+00
          2   -1    0    0  501    0  0.00000000000E+00  0.00000000000E+00  0.16084161207E+04  0.16084161207E+04  0.00000000000E+00 0.  1.
         -2   -1    0    0    0  501 -0.00000000000E+00 -0.00000000000E+00 -0.14818803700E+01  0.14818803700E+01  0.00000000000E+00 0.  1.
          2    1    1    2  502    0  0.16716194433E+02 -0.14184252332E+02  0.15226934175E+04  0.15228512298E+04  0.00000000000E+00 0.  1.
         -2    1    1    2    0  502 -0.16716194433E+02  0.14184252332E+02  0.84240822769E+02  0.87046771287E+02  0.00000000000E+00 0.  1.
</event>
<event>
 4    1  0.5978476E+003  0.2488431E+02  0.7546771E-02  0.1470102E+00
          2   -1    0    0  501    0  0.00000000000E+00  0.00000000000E+00  0.56509557556E+02  0.56509557556E+02  0.00000000000E+00 0. -1.
         -2   -1    0    0    0  501 -0.00000000000E+00 -0.00000000000E+00 -0.93231233896E+02  0.93231233896E+02  0.00000000000E+00 0.  1.
          2    1    1    2  502    0 -0.46425472305E+01  0.24447408837E+02  0.51972110004E+02  0.57622298305E+02  0.00000000000E+00 0. -1.
         -2    1    1    2    0  502  0.46425472305E+01 -0.24447408837E+02 -0.88693786344E+02  0.92118493147E+02  0.00000000000E+00 0.  1.
</event>
<event>
 4    1  0.5978476E+003  0.2348999E+02  0.7546771E-02  0.1486435E+00
          2   -1    0    0  501    0  0.00000000000E+00  0.00000000000E+00  0.19665813421E+01  0.19665813421E+01  0.00000000000E+00 0. -1.
         -2   -1    0    0    0  501 -0.00000000000E+00 -0.00000000000E+00 -0.52453520112E+03  0.52453520112E+03  0.00000000000E+00 0.  1.
          2    1    1    2  502    0 -0.13681343614E+02 -0.19094512656E+02 -0.81753372283E+02  0.85061116006E+02  0.00000000000E+00 0. -1.
         -2    1    1    2    0  502  0.13681343614E+02  0.19094512656E+02 -0.44081524750E+03  0.44144066646E+03  0.00000000000E+00 0.  1.
</event>
<event>
 4    1  0.5978476E+003  0.2390959E+02  0.7546771E-02  0.1481382E+00
          2   -1    0    0  501    0  0.00000000000E+00  0.00000000000E+00  0.45451659204E+03  0.45451659204E+03  0.00000000000E+00 0.  1.
         -2   -1    0    0    0  501 -0.00000000000E+00 -0.00000000000E+00 -0.18505925090E+03  0.18505925090E+03  0.00000000000E+00 0. -1.
          2    1    1    2  502    0  0.23397006016E+02  0.49243038274E+01  0.45342802368E+03  0.45405797132E+03  0.00000000000E+00 0.  1.
         -2    1    1    2    0  502 -0.23397006016E+02 -0.49243038274E+01 -0.18397068254E+03  0.18551787163E+03  0.00000000000E+00 0. -1.
</event>
<event>
 4    1  0.5978476E+003  0.3020626E+02  0.7546771E-02  0.1417812E+00
          2   -1    0    0  501    0  0.00000000000E+00  0.00000000000E+00  0.17855574667E+03  0.17855574667E+03  0.00000000000E+00 0. -1.
         -2   -1    0    0    0  501 -0.00000000000E+00 -0.00000000000E+00 -0.60006671125E+01  0.60006671125E+01  0.00000000000E+00 0. -1.
          2    1    1    2  502    0 -0.30087721333E+02 -0.26734320286E+01  0.12182915550E+03  0.12551797219E+03  0.00000000000E+00 0. -1.
         -2    1    1    2    0  502  0.30087721333E+02  0.26734320286E+01  0.50725924065E+02  0.59038441596E+02  0.00000000000E+00 0. -1.
</event>
<event>
 4    1  0.5978476E+003  0.2337235E+02  0.7546771E-02  0.1487875E+00
          2   -1    0    0  501    0  0.00000000000E+00  0.00000000000E+00  0.14319179590E+03  0.14319179590E+03  0.00000000000E+00 0. -1.
         -2   -1    0    0    0  501 -0.00000000000E+00 -0.00000000000E+00 -0.29633717955E+02  0.29633717955E+02  0.00000000000E+00 0.  1.
          2    1    1    2  502    0  0.11979580832E+01  0.23341623958E+02  0.13743801879E+03  0.13941117431E+03  0.00000000000E+00 0. -1.
         -2    1    1    2    0  502 -0.11979580832E+01 -0.23341623958E+02 -0.23879940846E+02  0.33414339547E+02  0.00000000000E+00 0.  1.
</event>
<event>
 4    1  0.5978476E+003  0.2564591E+02  0.7546771E-02  0.1461706E+00
          2   -1    0    0  501    0  0.00000000000E+00  0.00000000000E+00  0.11540726832E+01  0.11540726832E+01  0.00000000000E+00 0.  1.
         -2   -1    0    0    0  501 -0.00000000000E+00 -0.00000000000E+00 -0.91820593826E+03  0.91820593826E+03  0.00000000000E+00 0.  1.
          2    1    1    2  502    0  0.58608973835E+01  0.24967226127E+02 -0.17541117646E+03  0.17727603709E+03  0.00000000000E+00 0.  1.
         -2    1    1    2    0  502 -0.58608973835E+01 -0.24967226127E+02 -0.74164068911E+03  0.74208397385E+03  0.00000000000E+00 0.  1.
</event>
<event>
 4    1  0.5978476E+003  0.3482412E+02  0.7546771E-02  0.1381804E+00
          2   -1    0    0  501    0  0.00000000000E+00  0.00000000000E+00  0.11745036616E+04  0.11745036616E+04  0.00000000000E+00 0.  1.
         -2   -1    0    0    0  501 -0.00000000000E+00 -0.00000000000E+00 -0.20413359103E+01  0.20413359103E+01  0.00000000000E+00 0.  1.
          2    1    1    2  502    0  0.32990749842E+01 -0.34667493822E+02  0.99977686537E+03  0.10003831764E+04  0.00000000000E+00 0.  1.
         -2    1    1    2    0  502 -0.32990749842E+01  0.34667493822E+02  0.17268546032E+03  0.17616182115E+03  0.00000000000E+00 0.  1.
</event>
<event>
 4    1  0.5978476E+003  0.2429371E+02  0.7546771E-02  0.1476862E+00
          2   -1    0    0  501    0  0.00000000000E+00  0.00000000000E+00  0.21093627672E+03  0.21093627672E+03  0.00000000000E+00 0.  1.
         -2   -1    0    0    0  501 -0.00000000000E+00 -0.00000000000E+00 -0.19868210408E+02  0.19868210408E+02  0.00000000000E+00 0. -1.
          2    1    1    2  502    0 -0.15864135983E+02  0.18398739437E+02  0.20250236802E+03  0.20395439068E+03  0.00000000000E+00 0.  1.
         -2    1    1    2    0  502  0.15864135983E+02 -0.18398739437E+02 -0.11434301714E+02  0.26850096444E+02  0.00000000000E+00 0. -1.
</event>
<event>
 4    1  0.5978476E+003  0.3703593E+02  0.7546771E-02  0.1366789E+00
          2   -1    0    0  501    0  0.00000000000E+00  0.00000000000E+00  0.29063316616E+03  0.29063316616E+03  0.00000000000E+00 0.  1.
         -2   -1    0    0    0  501 -0.00000000000E+00 -0.00000000000E+00 -0.37053824497E+02  0.37053824497E+02  0.00000000000E+00 0. -1.
          2    1    1    2  502    0  0.27306941461E+02  0.25019809051E+02  0.27984349854E+03  0.28228362257E+03  0.00000000000E+00 0.  1.
         -2    1    1    2    0  502 -0.27306941461E+02 -0.25019809051E+02 -0.26264156878E+02  0.45403368084E+02  0.00000000000E+00 0. -1.
</event>
<event>
 4    1  0.5978476E+003  0.2364869E+02  0.7546771E-02  0.1484509E+00
          2   -1    0    0  501    0  0.00000000000E+00  0.00000000000E+00  0.38670891302E+03  0.38670891302E+03  0.00000000000E+00 0.  1.
         -2   -1    0    0    0  501 -0.00000000000E+00 -0.00000000000E+00 -0.14476411065E+01  0.14476411065E+01  0.00000000000E+00 0.  1.
          2    1    1    2  502    0 -0.20637458283E+02  0.11547956219E+02  0.18651571566E+03  0.18800896831E+03  0.00000000000E+00 0.  1.
         -2    1    1    2    0  502  0.20637458283E+02 -0.11547956219E+02  0.19874555625E+03  0.20014758581E+03  0.00000000000E+00 0.  1.
</event>
<event>
 4    1  0.5978476E+003  0.6070416E+02  0.7546771E-02  0.1257459E+00
          2   -1    0    0  501    0  0.00000000000E+00  0.00000000000E+00  0.54257604056E+03  0.54257604056E+03  0.00000000000E+00 0. -1.
         -2   -1    0    0    0  501 -0.00000000000E+00 -0.00000000000E+00 -0.11558914435E+03  0.11558914435E+03  0.00000000000E+00 0.  1.
          2    1    1    2  502    0 -0.43607551952E+02 -0.42230042602E+02  0.53276174894E+03  0.53620898558E+03  0.00000000000E+00 0. -1.
         -2    1    1    2    0  502  0.43607551952E+02  0.42230042602E+02 -0.10577485273E+03  0.12195619933E+03  0.00000000000E+00 0.  1.
</event>
<event>
 4    1  0.5978476E+003  0.3288872E+02  0.7546771E-02  0.1396046E+00
          2   -1    0    0  501    0  0.00000000000E+00  0.00000000000E+00  0.16814898515E+03  0.16814898515E+03  0.00000000000E+00 0. -1.
         -2   -1    0    0    0  501 -0.00000000000E+00 -0.00000000000E+00 -0.91821444023E+01  0.91821444023E+01  0.00000000000E+00 0. -1.
          2    1    1    2  502    0 -0.14581621781E+02  0.29479555356E+02  0.12800086601E+03  0.13215857738E+03  0.00000000000E+00 0. -1.
         -2    1    1    2    0  502  0.14581621781E+02 -0.29479555356E+02  0.30965974743E+02  0.45172552170E+02  0.00000000000E+00 0. -1.
</event>
<event>
 4    1  0.5978476E+003  0.3579972E+02  0.7546771E-02  0.1375026E+00
          2   -1    0    0  501    0  0.00000000000E+00  0.00000000000E+00  0.12603036977E+02  0.12603036977E+02  0.00000000000E+00 0. -1.
         -2   -1    0    0    0  501 -0.00000000000E+00 -0.00000000000E+00 -0.11047609518E+03  0.11047609518E+03  0.00000000000E+00 0. -1.
          2    1    1    2  502    0 -0.78501694083E+01 -0.34928421836E+02 -0.31583115421E+02  0.47740056466E+02  0.00000000000E+00 0. -1.
         -2    1    1    2    0  502  0.78501694083E+01  0.34928421836E+02 -0.66289942782E+02  0.75339075689E+02  0.00000000000E+00 0. -1.
</event>
<event>
 4    1  0.5978476E+003  0.2026672E+02  0.7546771E-02  0.1529997E+00
          2   -1    0    0  501    0  0.00000000000E+00  0.00000000000E+00  0.13156357493E+04  0.13156357493E+04  0.00000000000E+00 0.  1.
         -2   -1    0    0    0  501 -0.00000000000E+00 -0.00000000000E+00 -0.25675770640E+01  0.25675770640E+01  0.00000000000E+00 0. -1.
          2    1    1    2  502    0 -0.47962859455E+01  0.19691000078E+02  0.12742664617E+04  0.12744276187E+04  0.00000000000E+00 0.  1.
         -2    1    1    2    0  502  0.47962859455E+01 -0.19691000078E+02  0.38801710565E+02  0.43775707713E+02  0.00000000000E+00 0. -1.
</event>
<event>
 4    1  0.5978476E+003  0.2946185E+02  0.7546771E-02  0.1424331E+00
          2   -1    0    0  501    0  0.00000000000E+00  0.00000000000E+00  0.55614927625E+03  0.55614927625E+03  0.00000000000E+00 0. -1.
         -2   -1    0    0    0  501 -0.00000000000E+00 -0.00000000000E+00 -0.30964482603E+01  0.30964482603E+01  0.00000000000E+00 0.  1.
          2    1    1    2  502    0  0.29461223735E+02  0.19249914125E+00  0.47344923752E+03  0.47436502955E+03  0.00000000000E+00 0. -1.
         -2    1    1    2    0  502 -0.29461223735E+02 -0.19249914125E+00  0.79603590475E+02  0.84880694957E+02  0.00000000000E+00 0.  1.
</event>
<event>
 4    1  0.5978476E+003  0.4220446E+02  0.7546771E-02  0.1336030E+00
          2   -1    0    0  501    0  0.00000000000E+00  0.00000000000E+00  0.21638546855E+03  0.21638546855E+03  0.00000000000E+00 0.  1.
         -2   -1    0    0    0  501 -0.00000000000E+00 -0.00000000000E+00 -0.10516647737E+02  0.10516647737E+02  0.00000000000E+00 0.  1.
          2    1    1    2  502    0 -0.48812082523E+01  0.41921241733E+02  0.15581661911E+03  0.16143120979E+03  0.00000000000E+00 0.  1.
         -2    1    1    2    0  502  0.48812082523E+01 -0.41921241733E+02  0.50052201701E+02  0.65470906497E+02  0.00000000000E+00 0.  1.
</event>
<event>
 4    1  0.5978476E+003  0.3568813E+02  0.7546771E-02  0.1375789E+00
          2   -1    0    0  501    0  0.00000000000E+00  0.00000000000E+00  0.52715232365E+03  0.52715232365E+03  0.00000000000E+00 0.  1.
         -2   -1    0    0    0  501 -0.00000000000E+00 -0.00000000000E+00 -0.43598128968E+02  0.43598128968E+02  0.00000000000E+00 0.  1.
          2    1    1    2  502    0  0.34464521172E+02 -0.92649680953E+01  0.51913229671E+03  0.52035755433E+03  0.00000000000E+00 0.  1.
         -2    1    1    2    0  502 -0.34464521172E+02  0.92649680953E+01 -0.35578102036E+02  0.50392898288E+02  0.00000000000E+00 0.  1.
</event>
<event>
 4    1  0.5978476E+003  0.4629625E+02  0.7546771E-02  0.1315082E+00
          2   -1    0    0  501    0  0.00000000000E+00  0.00000000000E+00  0.12081149999E+04  0.12081149999E+04  0.00000000000E+00 0. -1.
         -2   -1    0    0    0  501 -0.00000000000E+00 -0.00000000000E+00 -0.18604623492E+02  0.18604623492E+02  0.00000000000E+00 0.  1.
          2    1    1    2  502    0 -0.52336554611E+01 -0.45999472614E+02  0.11781377063E+04  0.11790469870E+04  0.00000000000E+00 0. -1.
         -2    1    1    2    0  502  0.52336554611E+01  0.45999472614E+02  0.11372670086E+02  0.47672636335E+02  0.00000000000E+00 0.  1.
</event>
<event>
 4    1  0.5978476E+003  0.2293079E+02  0.7546771E-02  0.1493369E+00
          2   -1    0    0  501    0  0.00000000000E+00  0.00000000000E+00  0.11707016972E+02  0.11707016972E+02  0.00000000000E+00 0.  1.
         -2   -1    0    0    0  501 -0.00000000000E+00 -0.00000000000E+00 -0.60074495589E+02  0.60074495589E+02  0.00000000000E+00 0.  1.
          2    1    1    2  502    0  0.15866359277E+01 -0.22875829804E+02 -0.61544126135E+01  0.23742320809E+02  0.00000000000E+00 0.  1.
         -2    1    1    2    0  502 -0.15866359277E+01  0.22875829804E+02 -0.42213066003E+02  0.48039191752E+02  0.00000000000E+00 0.  1.
</event>
<event>
 4    1  0.5978476E+003  0.4994600E+02  0.7546771E-02  0.1298407E+00
          2   -1    0    0  501    0  0.00000000000E+00  0.00000000000E+00  0.21744291497E+04  0.21744291497E+04  0.00000000000E+00 0.  1.
         -2   -1    0    0    0  501 -0.00000000000E+00 -0.00000000000E+00 -0.13157297477E+01  0.13157297477E+01  0.00000000000E+00 0.  1.
          2    1    1    2  502    0 -0.45741503186E+02 -0.20057867237E+02  0.14758481152E+04  0.14766930156E+04  0.00000000000E+00 0.  1.
         -2    1    1    2    0  502  0.45741503186E+02  0.20057867237E+02  0.69726530466E+03  0.69905186377E+03  0.00000000000E+00 0.  1.
</event>
<event>
 4    1  0.5978476E+003  0.2472537E+02  0.7546771E-02  0.1471899E+00
          2   -1    0    0  501    0  0.00000000000E+00  0.00000000000E+00  0.10444879060E+02  0.10444879060E+02  0.00000000000E+00 0. -1.
         -2   -1    0    0    0  501 -0.00000000000E+00 -0.00000000000E+00 -0.14846775076E+03  0.14846775076E+03  0.00000000000E+00 0. -1.
          2    1    1    2  502    0  0.54013859688E+01  0.24128179850E+02 -0.71696319476E+01  0.25743885789E+02  0.00000000000E+00 0. -1.
         -2    1    1    2    0  502 -0.54013859688E+01 -0.24128179850E+02 -0.13085323975E+03  0.13316874403E+03  0.00000000000E+00 0. -1.
</event>
<event>
 4    1  0.5978476E+003  0.2189766E+02  0.7546771E-02  0.1506824E+00
          2   -1    0    0  501    0  0.00000000000E+00  0.00000000000E+00  0.11721792547E+03  0.11721792547E+03  0.00000000000E+00 0. -1.
         -2   -1    0    0    0  501 -0.00000000000E+00 -0.00000000000E+00 -0.56268580701E+01  0.56268580701E+01  0.00000000000E+00 0. -1.
          2    1    1    2  502    0 -0.82599483330E+01 -0.20280063549E+02  0.87888247502E+02  0.90575116743E+02  0.00000000000E+00 0. -1.
         -2    1    1    2    0  502  0.82599483330E+01  0.20280063549E+02  0.23702819895E+02  0.32269666794E+02  0.00000000000E+00 0. -1.
</event>
<event>
 4    1  0.5978476E+003  0.2218793E+02  0.7546771E-02  0.1502955E+00
          2   -1    0    0  501    0  0.00000000000E+00  0.00000000000E+00  0.61821580952E+03  0.61821580952E+03  0.00000000000E+00 0. -1.
         -2   -1    0    0    0  501 -0.00000000000E+00 -0.00000000000E+00 -0.47052261160E+01  0.47052261160E+01  0.00000000000E+00 0. -1.
          2    1    1    2  502    0  0.37844025128E+01 -0.21862814515E+02  0.59063853964E+03  0.59105514875E+03  0.00000000000E+00 0. -1.
         -2    1    1    2    0  502 -0.37844025128E+01  0.21862814515E+02  0.22872043767E+02  0.31865886885E+02  0.00000000000E+00 0. -1.
</event>
<event>
 4    1  0.5978476E+003  0.2236462E+02  0.7546771E-02  0.1500635E+00
          2   -1    0    0  501    0  0.00000000000E+00  0.00000000000E+00  0.11773305859E+04  0.11773305859E+04  0.00000000000E+00 0.  1.
         -2   -1    0    0    0  501 -0.00000000000E+00 -0.00000000000E+00 -0.64037934776E+02  0.64037934776E+02  0.00000000000E+00 0. -1.
          2    1    1    2  502    0 -0.18140286950E+02 -0.13080753820E+02  0.11752682944E+04  0.11754810675E+04  0.00000000000E+00 0.  1.
         -2    1    1    2    0  502  0.18140286950E+02  0.13080753820E+02 -0.61975643280E+02  0.65887453214E+02  0.00000000000E+00 0. -1.
</event>
<event>
 4    1  0.5978476E+003  0.2337181E+02  0.7546771E-02  0.1487881E+00
          2   -1    0    0  501    0  0.00000000000E+00  0.00000000000E+00  0.64608117619E+02  0.64608117619E+02  0.00000000000E+00 0. -1.
         -2   -1    0    0    0  501 -0.00000000000E+00 -0.00000000000E+00 -0.10202741754E+03  0.10202741754E+03  0.00000000000E+00 0.  1.
          2    1    1    2  502    0  0.23195531064E+02  0.28651160468E+01  0.61081334647E+02  0.65400084049E+02  0.00000000000E+00 0. -1.
         -2    1    1    2    0  502 -0.23195531064E+02 -0.28651160468E+01 -0.98500634570E+02  0.10123545111E+03  0.00000000000E+00 0.  1.
</event>
<event>
 4    1  0.5978476E+003  0.2092059E+02  0.7546771E-02  0.1520402E+00
          2   -1    0    0  501    0  0.00000000000E+00  0.00000000000E+00  0.14388429572E+04  0.14388429572E+04  0.00000000000E+00 0. -1.
         -2   -1    0    0    0  501 -0.00000000000E+00 -0.00000000000E+00 -0.34100172095E+00  0.34100172095E+00  0.00000000000E+00 0.  1.
          2    1    1    2  502    0 -0.65948036513E+01 -0.19853958066E+02  0.95570371702E+03  0.95593266803E+03  0.00000000000E+00 0. -1.
         -2    1    1    2    0  502  0.65948036513E+01  0.19853958066E+02  0.48279823847E+03  0.48325129090E+03  0.00000000000E+00 0.  1.
</event>
<event>
 4    1  0.5978476E+003  0.2328883E+02  0.7546771E-02  0.1488903E+00
          2   -1    0    0  501    0  0.00000000000E+00  0.00000000000E+00  0.37652722774E+03  0.37652722774E+03  0.00000000000E+00 0.  1.
         -2   -1    0    0    0  501 -0.00000000000E+00 -0.00000000000E+00 -0.42643958736E+01  0.42643958736E+01  0.00000000000E+00 0.  1.
          2    1    1    2  502    0 -0.38485480288E+01  0.22968633172E+02  0.34106895628E+03  0.34186313397E+03  0.00000000000E+00 0.  1.
         -2    1    1    2    0  502  0.38485480288E+01 -0.22968633172E+02  0.31193875592E+02  0.38928489646E+02  0.00000000000E+00 0.  1.
</event>
<event>
 4    1  0.5978476E+003  0.2036931E+02  0.7546771E-02  0.1528463E+00
          2   -1    0    0  501    0  0.00000000000E+00  0.00000000000E+00  0.87551534908E+03  0.87551534908E+03  0.00000000000E+00 0.  1.
         -2   -1    0    0    0  501 -0.00000000000E+00 -0.00000000000E+00 -0.23910809727E+03  0.23910809727E+03  0.00000000000E+00 0. -1.
          2    1    1    2  502    0  0.76610410092E+01  0.18873721404E+02  0.87496279061E+03  0.87519985938E+03  0.00000000000E+00 0.  1.
         -2    1    1    2    0  502 -0.76610410092E+01 -0.18873721404E+02 -0.23855553880E+03  0.23942358698E+03  0.00000000000E+00 0. -1.
</event>
<event>
 4    1  0.5978476E+003  0.3737105E+02  0.7546771E-02  0.1364620E+00
          2   -1    0    0  501    0  0.00000000000E+00  0.00000000000E+00  0.11215634990E+03  0.11215634990E+03  0.00000000000E+00 0.  1.
         -2   -1    0    0    0  501 -0.00000000000E+00 -0.00000000000E+00 -0.12629255570E+02  0.12629255570E+02  0.00000000000E+00 0.  1.
          2    1    1    2  502    0 -0.18395817381E+02 -0.32529821986E+02  0.57150703378E+02  0.68284685781E+02  0.00000000000E+00 0.  1.
         -2    1    1    2    0  502  0.18395817381E+02  0.32529821986E+02  0.42376390954E+02  0.56500919691E+02  0.00000000000E+00 0.  1.
</event>
<event>
 4    1  0.5978476E+003  0.3370919E+02  0.7546771E-02  0.1389872E+00
          2   -1    0    0  501    0  0.00000000000E+00  0.00000000000E+00  0.11748906275E+03  0.11748906275E+03  0.00000000000E+00 0.  1.
         -2   -1    0    0    0  501 -0.00000000000E+00 -0.00000000000E+00 -0.11944841473E+02  0.11944841473E+02  0.00000000000E+00 0.  1.
          2    1    1    2  502    0 -0.13928376801E+02  0.30697063060E+02  0.81004582544E+02  0.87738542009E+02  0.00000000000E+00 0.  1.
         -2    1    1    2    0  502  0.13928376801E+02 -0.30697063060E+02  0.24539638729E+02  0.41695362210E+02  0.00000000000E+00 0.  1.
</event>
<event>
 4    1  0.5978476E+003  0.2013113E+02  0.7546771E-02  0.1532040E+00
          2   -1    0    0  501    0  0.00000000000E+00  0.00000000000E+00  0.84514905978E+03  0.84514905978E+03  0.00000000000E+00 0.  1.
         -2   -1    0    0    0  501 -0.00000000000E+00 -0.00000000000E+00 -0.17318604776E+02  0.17318604776E+02  0.00000000000E+00 0.  1.
          2    1    1    2  502    0  0.35835845147E+01 -0.19809605783E+02  0.83913717043E+03  0.83937861145E+03  0.00000000000E+00 0.  1.
         -2    1    1    2    0  502 -0.35835845147E+01  0.19809605783E+02 -0.11306715432E+02  0.23089053102E+02  0.00000000000E+00 0.  1.
</event>
<event>
 4    1  0.5978476E+003  0.3027424E+02  0.7546771E-02  0.1417228E+00
          2   -1    0    0  501    0  0.00000000000E+00  0.00000000000E+00  0.14583056487E+03  0.14583056487E+03  0.00000000000E+00 0. -1.
         -2   -1    0    0    0  501 -0.00000000000E+00 -0.00000000000E+00 -0.46412318526E+02  0.46412318526E+02  0.00000000000E+00 0.  1.
          2    1    1    2  502    0  0.22808517091E+02  0.19907310465E+02  0.13908581875E+03  0.14234252506E+03  0.00000000000E+00 0. -1.
         -2    1    1    2    0  502 -0.22808517091E+02 -0.19907310465E+02 -0.39667572407E+02  0.49900358340E+02  0.00000000000E+00 0.  1.
</event>
<event>
 4    1  0.5978476E+003  0.2150921E+02  0.7546771E-02  0.1512117E+00
          2   -1    0    0  501    0  0.00000000000E+00  0.00000000000E+00  0.84740101312E+02  0.84740101312E+02  0.00000000000E+00 0. -1.
         -2   -1    0    0    0  501 -0.00000000000E+00 -0.00000000000E+00 -0.49899998548E+02  0.49899998548E+02  0.00000000000E+00 0. -1.
          2    1    1    2  502    0 -0.21414256619E+02  0.20188380381E+01  0.80950685624E+02  0.83759534362E+02  0.00000000000E+00 0. -1.
         -2    1    1    2    0  502  0.21414256619E+02 -0.20188380381E+01 -0.46110582861E+02  0.50880565497E+02  0.00000000000E+00 0. -1.
</event>
<event>
 4    1  0.5978476E+003  0.2752048E+02  0.7546771E-02  0.1442449E+00
          2   -1    0    0  501    0  0.00000000000E+00  0.00000000000E+00  0.21630415255E+04  0.21630415255E+04  0.00000000000E+00 0. -1.
         -2   -1    0    0    0  501 -0.00000000000E+00 -0.00000000000E+00 -0.87130404913E+00  0.87130404913E+00  0.00000000000E+00 0.  1.
          2    1    1    2  502    0 -0.23775318789E+02 -0.13860417485E+02  0.19178631545E+04  0.19180605977E+04  0.00000000000E+00 0. -1.
         -2    1    1    2    0  502  0.23775318789E+02  0.13860417485E+02  0.24430706693E+03  0.24585223185E+03  0.00000000000E+00 0.  1.
</event>
<event>
 4    1  0.5978476E+003  0.3152707E+02  0.7546771E-02  0.1406775E+00
          2   -1    0    0  501    0  0.00000000000E+00  0.00000000000E+00  0.16278603474E+01  0.16278603474E+01  0.00000000000E+00 0. -1.
         -2   -1    0    0    0  501 -0.00000000000E+00 -0.00000000000E+00 -0.61095887766E+03  0.61095887766E+03  0.00000000000E+00 0.  1.
          2    1    1    2  502    0  0.19479860798E+02 -0.24788936884E+02 -0.29714637582E+03  0.29881419818E+03  0.00000000000E+00 0. -1.
         -2    1    1    2    0  502 -0.19479860798E+02  0.24788936884E+02 -0.31218464149E+03  0.31377253983E+03  0.00000000000E+00 0.  1.
</event>
<event>
 4    1  0.5978476E+003  0.2240933E+02  0.7546771E-02  0.1500051E+00
          2   -1    0    0  501    0  0.00000000000E+00  0.00000000000E+00  0.68008761257E+03  0.68008761257E+03  0.00000000000E+00 0. -1.
         -2   -1    0    0    0  501 -0.00000000000E+00 -0.00000000000E+00 -0.48719214922E+02  0.48719214922E+02  0.00000000000E+00 0.  1.
          2    1    1    2  502    0 -0.69733646384E+01  0.21296720880E+02  0.67731556870E+03  0.67768617939E+03  0.00000000000E+00 0. -1.
         -2    1    1    2    0  502  0.69733646384E+01 -0.21296720880E+02 -0.45947171052E+02  0.51120648101E+02  0.00000000000E+00 0.  1.
</event>
<event>
 4    1  0.5978476E+003  0.2805948E+02  0.7546771E-02  0.1437246E+00
          2   -1    0    0  501    0  0.00000000000E+00  0.00000000000E+00  0.15768259016E+04  0.15768259016E+04  0.00000000000E+00 0.  1.
         -2   -1    0    0    0  501 -0.00000000000E+00 -0.00000000000E+00 -0.44867086432E+01  0.44867086432E+01  0.00000000000E+00 0.  1.
          2    1    1    2  502    0  0.65442832851E+01 -0.27285646803E+02  0.15315334267E+04  0.15317904462E+04  0.00000000000E+00 0.  1.
         -2    1    1    2    0  502 -0.65442832851E+01  0.27285646803E+02  0.40805766243E+02  0.49522163966E+02  0.00000000000E+00 0.  1.
</event>
<event>
 4    1  0.5978476E+003  0.2702852E+02  0.7546771E-02  0.1447322E+00
          2   -1    0    0  501    0  0.00000000000E+00  0.00000000000E+00  0.11322066102E+04  0.11322066102E+04  0.00000000000E+00 0.  1.
         -2   -1    0    0    0  501 -0.00000000000E+00 -0.00000000000E+00 -0.14700752836E+02  0.14700752836E+02  0.00000000000E+00 0. -1.
          2    1    1    2  502    0  0.18053561346E+02 -0.20114917189E+02  0.11194805633E+04  0.11198068015E+04  0.00000000000E+00 0.  1.
         -2    1    1    2    0  502 -0.18053561346E+02  0.20114917189E+02 -0.19747060028E+01  0.27100561519E+02  0.00000000000E+00 0. -1.
</event>
<event>
 4    1  0.5978476E+003  0.4165572E+02  0.7546771E-02  0.1339047E+00
          2   -1    0    0  501    0  0.00000000000E+00  0.00000000000E+00  0.94163073411E+03  0.94163073411E+03  0.00000000000E+00 0.  1.
         -2   -1    0    0    0  501 -0.00000000000E+00 -0.00000000000E+00 -0.57016970326E+02  0.57016970326E+02  0.00000000000E+00 0.  1.
          2    1    1    2  502    0 -0.10331195187E+02  0.40354248811E+02  0.93349551612E+03  0.93442446330E+03  0.00000000000E+00 0.  1.
         -2    1    1    2    0  502  0.10331195187E+02 -0.40354248811E+02 -0.48881752336E+02  0.64223241139E+02  0.00000000000E+00 0.  1.
</event>
<event>
 4    1  0.5978476E+003  0.2205974E+02  0.7546771E-02  0.1504655E+00
          2   -1    0    0  501    0  0.00000000000E+00  0.00000000000E+00  0.53244478681E+03  0.53244478681E+03  0.00000000000E+00 0.  1.
         -2   -1    0    0    0  501 -0.00000000000E+00 -0.00000000000E+00 -0.16176079149E+03  0.16176079149E+03  0.00000000000E+00 0.  1.
          2    1    1    2  502    0 -0.11467320859E+02  0.18844961169E+02  0.53146282253E+03  0.53192044870E+03  0.00000000000E+00 0.  1.
         -2    1    1    2    0  502  0.11467320859E+02 -0.18844961169E+02 -0.16077882721E+03  0.16228512960E+03  0.00000000000E+00 0.  1.
</event>
<event>
 4    1  0.5978476E+003  0.2195017E+02  0.7546771E-02  0.1506119E+00
          2   -1    0    0  501    0  0.00000000000E+00  0.00000000000E+00  0.12088575190E+03  0.12088575190E+03  0.00000000000E+00 0. -1.
         -2   -1    0    0    0  501 -0.00000000000E+00 -0.00000000000E+00 -0.39874379785E+01  0.39874379785E+01  0.00000000000E+00 0. -1.
          2    1    1    2  502    0 -0.13157770925E+02 -0.17569380973E+02  0.59765809522E+02  0.63669161070E+02  0.00000000000E+00 0. -1.
         -2    1    1    2    0  502  0.13157770925E+02  0.17569380973E+02  0.57132504402E+02  0.61204028811E+02  0.00000000000E+00 0. -1.
</event>
<event>
 4    1  0.5978476E+003  0.2015715E+02  0.7546771E-02  0.1531647E+00
          2   -1    0    0  501    0  0.00000000000E+00  0.00000000000E+00  0.71240928091E+03  0.71240928091E+03  0.00000000000E+00 0. -1.
         -2   -1    0    0    0  501 -0.00000000000E+00 -0.00000000000E+00 -0.68571116013E+00  0.68571116013E+00  0.00000000000E+00 0. -1.
          2    1    1    2  502    0 -0.18008578048E+02 -0.90554582111E+01  0.20960722322E+03  0.21057421075E+03  0.00000000000E+00 0. -1.
         -2    1    1    2    0  502  0.18008578048E+02  0.90554582111E+01  0.50211634653E+03  0.50252078132E+03  0.00000000000E+00 0. -1.
</event>
<event>
 4    1  0.5978476E+003  0.3228104E+02  0.7546771E-02  0.1400757E+00
          2   -1    0    0  501    0  0.00000000000E+00  0.00000000000E+00  0.22246900138E+04  0.22246900138E+04  0.00000000000E+00 0.  1.
         -2   -1    0    0    0  501 -0.00000000000E+00 -0.00000000000E+00 -0.24953110814E+01  0.24953110814E+01  0.00000000000E+00 0.  1.
          2    1    1    2  502    0  0.26600518845E+02  0.18288732145E+02  0.21147429242E+04  0.21149892909E+04  0.00000000000E+00 0.  1.
         -2    1    1    2    0  502 -0.26600518845E+02 -0.18288732145E+02  0.10745177855E+03  0.11219603398E+03  0.00000000000E+00 0.  1.
</event>
<event>
 4    1  0.5978476E+003  0.3763151E+02  0.7546771E-02  0.1362953E+00
          2   -1    0    0  501    0  0.00000000000E+00  0.00000000000E+00  0.17190094587E+04  0.17190094587E+04  0.00000000000E+00 0.  1.
         -2   -1    0    0    0  501 -0.00000000000E+00 -0.00000000000E+00 -0.13951360303E+03  0.13951360303E+03  0.00000000000E+00 0. -1.
          2    1    1    2  502    0  0.68859485310E+01  0.36996134889E+02  0.17162618246E+04  0.17166743375E+04  0.00000000000E+00 0.  1.
         -2    1    1    2    0  502 -0.68859485310E+01 -0.36996134889E+02 -0.13676596899E+03  0.14184872421E+03  0.00000000000E+00 0. -1.
</event>
<event>
 4    1  0.5978476E+003  0.2407157E+02  0.7546771E-02  0.1479464E+00
          2   -1    0    0  501    0  0.00000000000E+00  0.00000000000E+00  0.75239801495E+03  0.75239801495E+03  0.00000000000E+00 0.  1.
         -2   -1    0    0    0  501 -0.00000000000E+00 -0.00000000000E+00 -0.13992372573E+01  0.13992372573E+01  0.00000000000E+00 0.  1.
          2    1    1    2  502    0  0.22991526726E+02  0.71295350481E+01  0.62822131595E+03  0.62868232231E+03  0.00000000000E+00 0.  1.
         -2    1    1    2    0  502 -0.22991526726E+02 -0.71295350481E+01  0.12277746174E+03  0.12511492990E+03  0.00000000000E+00 0.  1.
</event>
<event>
 4    1  0.5978476E+003  0.2144667E+02  0.7546771E-02  0.1512982E+00
          2   -1    0    0  501    0  0.00000000000E+00  0.00000000000E+00  0.81962747924E+02  0.81962747924E+02  0.00000000000E+00 0. -1.
         -2   -1    0    0    0  501 -0.00000000000E+00 -0.00000000000E+00 -0.10108312221E+03  0.10108312221E+03  0.00000000000E+00 0. -1.
          2    1    1    2  502    0  0.21187693516E+02 -0.33228615813E+01  0.79385941473E+02  0.82231912717E+02  0.00000000000E+00 0. -1.
         -2    1    1    2    0  502 -0.21187693516E+02  0.33228615813E+01 -0.98506315755E+02  0.10081395741E+03  0.00000000000E+00 0. -1.
</event>
<event>
 4    1  0.5978476E+003  0.2346730E+02  0.7546771E-02  0.1486712E+00
          2   -1    0    0  501    0  0.00000000000E+00  0.00000000000E+00  0.10995966544E+04  0.10995966544E+04  0.00000000000E+00 0.  1.
         -2   -1    0    0    0  501 -0.00000000000E+00 -0.00000000000E+00 -0.66312439885E+00  0.66312439885E+00  0.00000000000E+00 0.  1.
          2    1    1    2  502    0  0.23235937032E+02  0.32871919542E+01  0.82162116268E+03  0.82195623324E+03  0.00000000000E+00 0.  1.
         -2    1    1    2    0  502 -0.23235937032E+02 -0.32871919542E+01  0.27731236735E+03  0.27830354559E+03  0.00000000000E+00 0.  1.
</event>
<event>
 4    1  0.5978476E+003  0.9636174E+02  0.7546771E-02  0.1170266E+00
          2   -1    0    0  501    0  0.00000000000E+00  0.00000000000E+00  0.12990425888E+04  0.12990425888E+04  0.00000000000E+00 0.  1.
         -2   -1    0    0    0  501 -0.00000000000E+00 -0.00000000000E+00 -0.72492240097E+01  0.72492240097E+01  0.00000000000E+00 0. -1.
          2    1    1    2  502    0  0.33948150800E+02 -0.90183748322E+02  0.72306843366E+03  0.72946113342E+03  0.00000000000E+00 0.  1.
         -2    1    1    2    0  502 -0.33948150800E+02  0.90183748322E+02  0.56872493112E+03  0.57683067939E+03  0.00000000000E+00 0. -1.
</event>
<event>
 4    1  0.5978476E+003  0.2018579E+02  0.7546771E-02  0.1531214E+00
          2   -1    0    0  501    0  0.00000000000E+00  0.00000000000E+00  0.56362861689E+03  0.56362861689E+03  0.00000000000E+00 0. -1.
         -2   -1    0    0    0  501 -0.00000000000E+00 -0.00000000000E+00 -0.15532660276E+02  0.15532660276E+02  0.00000000000E+00 0. -1.
          2    1    1    2  502    0  0.15062123499E+02 -0.13438697000E+02  0.55680937577E+03  0.55717514938E+03  0.00000000000E+00 0. -1.
         -2    1    1    2    0  502 -0.15062123499E+02  0.13438697000E+02 -0.87134191604E+01  0.21986127781E+02  0.00000000000E+00 0. -1.
</event>
<event>
 4    1  0.5978476E+003  0.2429717E+02  0.7546771E-02  0.1476822E+00
          2   -1    0    0  501    0  0.00000000000E+00  0.00000000000E+00  0.16613145618E+03  0.16613145618E+03  0.00000000000E+00 0. -1.
         -2   -1    0    0    0  501 -0.00000000000E+00 -0.00000000000E+00 -0.54801299255E+01  0.54801299255E+01  0.00000000000E+00 0. -1.
          2    1    1    2  502    0  0.18665243803E+02 -0.15555102580E+02  0.13120217628E+03  0.13343299293E+03  0.00000000000E+00 0. -1.
         -2    1    1    2    0  502 -0.18665243803E+02  0.15555102580E+02  0.29449149980E+02  0.38178593178E+02  0.00000000000E+00 0. -1.
</event>
<event>
 4    1  0.5978476E+003  0.3593357E+02  0.7546771E-02  0.1374116E+00
          2   -1    0    0  501    0  0.00000000000E+00  0.00000000000E+00  0.12833859869E+02  0.12833859869E+02  0.00000000000E+00 0. -1.
         -2   -1    0    0    0  501 -0.00000000000E+00 -0.00000000000E+00 -0.93522931544E+03  0.93522931544E+03  0.00000000000E+00 0.  1.
          2    1    1    2  502    0 -0.26413196229E+02 -0.24363176057E+02 -0.13389253826E+02  0.38347012930E+02  0.00000000000E+00 0. -1.
         -2    1    1    2    0  502  0.26413196229E+02  0.24363176057E+02 -0.90900620175E+03  0.90971616238E+03  0.00000000000E+00 0.  1.
</event>
<event>
 4    1  0.5978476E+003  0.2145368E+02  0.7546771E-02  0.1512885E+00
          2   -1    0    0  501    0  0.00000000000E+00  0.00000000000E+00  0.57697911829E+03  0.57697911829E+03  0.00000000000E+00 0.  1.
         -2   -1    0    0    0  501 -0.00000000000E+00 -0.00000000000E+00 -0.37868495660E+01  0.37868495660E+01  0.00000000000E+00 0.  1.
          2    1    1    2  502    0  0.83459439738E+01  0.19763745126E+02  0.54458765749E+03  0.54501007064E+03  0.00000000000E+00 0.  1.
         -2    1    1    2    0  502 -0.83459439738E+01 -0.19763745126E+02  0.28604611230E+02  0.35755897218E+02  0.00000000000E+00 0.  1.
</event>
<event>
 4    1  0.5978476E+003  0.3489161E+02  0.7546771E-02  0.1381327E+00
          2   -1    0    0  501    0  0.00000000000E+00  0.00000000000E+00  0.46337648768E+03  0.46337648768E+03  0.00000000000E+00 0. -1.
         -2   -1    0    0    0  501 -0.00000000000E+00 -0.00000000000E+00 -0.46104006482E+03  0.46104006482E+03  0.00000000000E+00 0.  1.
          2    1    1    2  502    0  0.16570222769E+01 -0.34852241488E+02  0.46205763244E+03  0.46337315433E+03  0.00000000000E+00 0. -1.
         -2    1    1    2    0  502 -0.16570222769E+01  0.34852241488E+02 -0.45972120957E+03  0.46104339817E+03  0.00000000000E+00 0.  1.
</event>
<event>
 4    1  0.5978476E+003  0.2002461E+02  0.7546771E-02  0.1533660E+00
          2   -1    0    0  501    0  0.00000000000E+00  0.00000000000E+00  0.82818303727E+03  0.82818303727E+03  0.00000000000E+00 0.  1.
         -2   -1    0    0    0  501 -0.00000000000E+00 -0.00000000000E+00 -0.66610062005E+02  0.66610062005E+02  0.00000000000E+00 0.  1.
          2    1    1    2  502    0 -0.90250156016E+01  0.17875513269E+02  0.82655405701E+03  0.82679658565E+03  0.00000000000E+00 0.  1.
         -2    1    1    2    0  502  0.90250156016E+01 -0.17875513269E+02 -0.64981081742E+02  0.67996513628E+02  0.00000000000E+00 0.  1.
</event>
<event>
 4    1  0.5978476E+003  0.2354939E+02  0.7546771E-02  0.1485712E+00
          2   -1    0    0  501    0  0.00000000000E+00  0.00000000000E+00  0.13021150946E+03  0.13021150946E+03  0.00000000000E+00 0. -1.
         -2   -1    0    0    0  501 -0.00000000000E+00 -0.00000000000E+00 -0.96178600673E+01  0.96178600673E+01  0.00000000000E+00 0.  1.
          2    1    1    2  502    0  0.23241334882E+02  0.37966198853E+01  0.11248407377E+03  0.11492276024E+03  0.00000000000E+00 0. -1.
         -2    1    1    2    0  502 -0.23241334882E+02 -0.37966198853E+01  0.81095756320E+01  0.24906609295E+02  0.00000000000E+00 0.  1.
</event>
<event>
 4    1  0.5978476E+003  0.2031800E+02  0.7546771E-02  0.1529229E+00
          2   -1    0    0  501    0  0.00000000000E+00  0.00000000000E+00  0.33987600183E+03  0.33987600183E+03  0.00000000000E+00 0. -1.
         -2   -1    0    0    0  501 -0.00000000000E+00 -0.00000000000E+00 -0.16313183989E+02  0.16313183989E+02  0.00000000000E+00 0.  1.
          2    1    1    2  502    0 -0.15651990748E+02 -0.12955169735E+02  0.33311761441E+03  0.33373667205E+03  0.00000000000E+00 0. -1.
         -2    1    1    2    0  502  0.15651990748E+02  0.12955169735E+02 -0.95547965706E+01  0.22452513774E+02  0.00000000000E+00 0.  1.
</event>
<event>
 4    1  0.5978476E+003  0.2671612E+02  0.7546771E-02  0.1450481E+00
          2   -1    0    0  501    0  0.00000000000E+00  0.00000000000E+00  0.10911441589E+04  0.10911441589E+04  0.00000000000E+00 0. -1.
         -2   -1    0    0    0  501 -0.00000000000E+00 -0.00000000000E+00 -0.63455141857E+01  0.63455141857E+01  0.00000000000E+00 0.  1.
          2    1    1    2  502    0  0.25005997118E+02 -0.94048513879E+01  0.10620912294E+04  0.10624271884E+04  0.00000000000E+00 0. -1.
         -2    1    1    2    0  502 -0.25005997118E+02  0.94048513879E+01  0.22707415343E+02  0.35062484696E+02  0.00000000000E+00 0.  1.
</event>
<event>
 4    1  0.5978476E+003  0.2539502E+02  0.7546771E-02  0.1464433E+00
          2   -1    0    0  501    0  0.00000000000E+00  0.00000000000E+00  0.67541927435E+03  0.67541927435E+03  0.00000000000E+00 0.  1.
         -2   -1    0    0    0  501 -0.00000000000E+00 -0.00000000000E+00 -0.40702722850E+01  0.40702722850E+01  0.00000000000E+00 0.  1.
          2    1    1    2  502    0  0.22670595967E+02  0.11443381468E+02  0.63291041886E+03  0.63341969120E+03  0.00000000000E+00 0.  1.
         -2    1    1    2    0  502 -0.22670595967E+02 -0.11443381468E+02  0.38438583211E+02  0.46069855439E+02  0.00000000000E+00 0.  1.
</event>
<event>
 4    1  0.5978476E+003  0.4078980E+02  0.7546771E-02  0.1343919E+00
          2   -1    0    0  501    0  0.00000000000E+00  0.00000000000E+00  0.35346367089E+03  0.35346367089E+03  0.00000000000E+00 0.  1.
         -2   -1    0    0    0  501 -0.00000000000E+00 -0.00000000000E+00 -0.89684426539E+01  0.89684426539E+01  0.00000000000E+00 0.  1.
          2    1    1    2  502    0 -0.23183126008E+02  0.33561149076E+02  0.29716089543E+03  0.29994733843E+03  0.00000000000E+00 0.  1.
         -2    1    1    2    0  502  0.23183126008E+02 -0.33561149076E+02  0.47334332806E+02  0.62484775113E+02  0.00000000000E+00 0.  1.
</event>
<event>
 4    1  0.5978476E+003  0.2718083E+02  0.7546771E-02  0.1445800E+00
          2   -1    0    0  501    0  0.00000000000E+00  0.00000000000E+00  0.46973508190E+02  0.46973508190E+02  0.00000000000E+00 0.  1.
         -2   -1    0    0    0  501 -0.00000000000E+00 -0.00000000000E+00 -0.51166716798E+02  0.51166716798E+02  0.00000000000E+00 0.  1.
          2    1    1    2  502    0  0.26978531382E+02  0.33100558993E+01  0.38741210525E+02  0.47325247158E+02  0.00000000000E+00 0.  1.
         -2    1    1    2    0  502 -0.26978531382E+02 -0.33100558993E+01 -0.42934419133E+02  0.50814977831E+02  0.00000000000E+00 0.  1.
</event>
<event>
 4    1  0.5978476E+003  0.4095670E+02  0.7546771E-02  0.1342969E+00
          2   -1    0    0  501    0  0.00000000000E+00  0.00000000000E+00  0.21498413775E+03  0.21498413775E+03  0.00000000000E+00 0.  1.
         -2   -1    0    0    0  501 -0.00000000000E+00 -0.00000000000E+00 -0.21217639599E+03  0.21217639599E+03  0.00000000000E+00 0. -1.
          2    1    1    2  502    0 -0.55109457399E+01 -0.40584239815E+02  0.21102020344E+03  0.21495808267E+03  0.00000000000E+00 0.  1.
         -2    1    1    2    0  502  0.55109457399E+01  0.40584239815E+02 -0.20821246168E+03  0.21220245108E+03  0.00000000000E+00 0. -1.
</event>
<event>
 4    1  0.5978476E+003  0.2034388E+02  0.7546771E-02  0.1528842E+00
          2   -1    0    0  501    0  0.00000000000E+00  0.00000000000E+00  0.50316021012E+03  0.50316021012E+03  0.00000000000E+00 0. -1.
         -2   -1    0    0    0  501 -0.00000000000E+00 -0.00000000000E+00 -0.82637169874E+00  0.82637169874E+00  0.00000000000E+00 0.  1.
          2    1    1    2  502    0 -0.71288560733E+01 -0.19053931596E+02  0.23402330086E+03  0.23490589231E+03  0.00000000000E+00 0. -1.
         -2    1    1    2    0  502  0.71288560733E+01  0.19053931596E+02  0.26831053756E+03  0.26908068950E+03  0.00000000000E+00 0.  1.
</event>
<event>
 4    1  0.5978476E+003  0.2410682E+02  0.7546771E-02  0.1479049E+00
          2   -1    0    0  501    0  0.00000000000E+00  0.00000000000E+00  0.75571533749E+03  0.75571533749E+03  0.00000000000E+00 0.  1.
         -2   -1    0    0    0  501 -0.00000000000E+00 -0.00000000000E+00 -0.50807761438E+01  0.50807761438E+01  0.00000000000E+00 0. -1.
          2    1    1    2  502    0  0.84379340265E+01 -0.22581852641E+02  0.72574768655E+03  0.72614794865E+03  0.00000000000E+00 0.  1.
         -2    1    1    2    0  502 -0.84379340265E+01  0.22581852641E+02  0.24886874791E+02  0.34648164976E+02  0.00000000000E+00 0. -1.
</event>
<event>
 4    1  0.5978476E+003  0.2551067E+02  0.7546771E-02  0.1463171E+00
          2   -1    0    0  501    0  0.00000000000E+00  0.00000000000E+00  0.58131898151E+02  0.58131898151E+02  0.00000000000E+00 0.  1.
         -2   -1    0    0    0  501 -0.00000000000E+00 -0.00000000000E+00 -0.77610921157E+02  0.77610921157E+02  0.00000000000E+00 0. -1.
          2    1    1    2  502    0 -0.40932773283E+01  0.25180141751E+02  0.53046241702E+02  0.58861687171E+02  0.00000000000E+00 0.  1.
         -2    1    1    2    0  502  0.40932773283E+01 -0.25180141751E+02 -0.72525264708E+02  0.76881132138E+02  0.00000000000E+00 0. -1.
</event>
<event>
 4    1  0.5978476E+003  0.4802295E+02  0.7546771E-02  0.1306980E+00
          2   -1    0    0  501    0  0.00000000000E+00  0.00000000000E+00  0.13107921414E+03  0.13107921414E+03  0.00000000000E+00 0. -1.
         -2   -1    0    0    0  501 -0.00000000000E+00 -0.00000000000E+00 -0.25909337156E+02  0.25909337156E+02  0.00000000000E+00 0. -1.
          2    1    1    2  502    0 -0.46058788706E+02  0.13593801086E+02  0.97053247282E+02  0.10828451530E+03  0.00000000000E+00 0. -1.
         -2    1    1    2    0  502  0.46058788706E+02 -0.13593801086E+02  0.81166297030E+01  0.48704036001E+02  0.00000000000E+00 0. -1.
</event>
<event>
 4    1  0.5978476E+003  0.2942607E+02  0.7546771E-02  0.1424650E+00
          2   -1    0    0  501    0  0.00000000000E+00  0.00000000000E+00  0.18039199478E+03  0.18039199478E+03  0.00000000000E+00 0. -1.
         -2   -1    0    0    0  501 -0.00000000000E+00 -0.00000000000E+00 -0.57302061915E+02  0.57302061915E+02  0.00000000000E+00 0. -1.
          2    1    1    2  502    0  0.29389624690E+02  0.14641854163E+01  0.17530536373E+03  0.17775788149E+03  0.00000000000E+00 0. -1.
         -2    1    1    2    0  502 -0.29389624690E+02 -0.14641854163E+01 -0.52215430864E+02  0.59936175209E+02  0.00000000000E+00 0. -1.
</event>
<event>
 4    1  0.5978476E+003  0.2423721E+02  0.7546771E-02  0.1477521E+00
          2   -1    0    0  501    0  0.00000000000E+00  0.00000000000E+00  0.20247732594E+02  0.20247732594E+02  0.00000000000E+00 0. -1.
         -2   -1    0    0    0  501 -0.00000000000E+00 -0.00000000000E+00 -0.14462900015E+03  0.14462900015E+03  0.00000000000E+00 0. -1.
          2    1    1    2  502    0  0.17694806719E+02 -0.16563102602E+02  0.11516769480E+02  0.26834279045E+02  0.00000000000E+00 0. -1.
         -2    1    1    2    0  502 -0.17694806719E+02  0.16563102602E+02 -0.13589803703E+03  0.13804245370E+03  0.00000000000E+00 0. -1.
</event>
<event>
 4    1  0.5978476E+003  0.2353052E+02  0.7546771E-02  0.1485942E+00
          2   -1    0    0  501    0  0.00000000000E+00  0.00000000000E+00  0.34152773854E+03  0.34152773854E+03  0.00000000000E+00 0.  1.
         -2   -1    0    0    0  501 -0.00000000000E+00 -0.00000000000E+00 -0.55400129751E+01  0.55400129751E+01  0.00000000000E+00 0.  1.
          2    1    1    2  502    0 -0.14759840640E+02  0.18325728792E+02  0.31394452483E+03  0.31482511003E+03  0.00000000000E+00 0.  1.
         -2    1    1    2    0  502  0.14759840640E+02 -0.18325728792E+02  0.22043200728E+02  0.32242641483E+02  0.00000000000E+00 0.  1.
</event>
<event>
 4    1  0.5978476E+003  0.2373715E+02  0.7546771E-02  0.1483443E+00
          2   -1    0    0  501    0  0.00000000000E+00  0.00000000000E+00  0.12441238892E+04  0.12441238892E+04  0.00000000000E+00 0. -1.
         -2   -1    0    0    0  501 -0.00000000000E+00 -0.00000000000E+00 -0.11375509534E+01  0.11375509534E+01  0.00000000000E+00 0. -1.
          2    1    1    2  502    0  0.56035016811E+01 -0.23066279836E+02  0.11045325982E+04  0.11047876325E+04  0.00000000000E+00 0. -1.
         -2    1    1    2    0  502 -0.56035016811E+01  0.23066279836E+02  0.13845374010E+03  0.14047380768E+03  0.00000000000E+00 0. -1.
</event>
<event>
 4    1  0.5978476E+003  0.3040568E+02  0.7546771E-02  0.1416103E+00
          2   -1    0    0  501    0  0.00000000000E+00  0.00000000000E+00  0.85878168899E+01  0.85878168899E+01  0.00000000000E+00 0. -1.
         -2   -1    0    0    0  501 -0.00000000000E+00 -0.00000000000E+00 -0.30757512428E+03  0.30757512428E+03  0.00000000000E+00 0. -1.
          2    1    1    2  502    0  0.24543157789E+02 -0.17948230522E+02 -0.22044890574E+02  0.37556394576E+02  0.00000000000E+00 0. -1.
         -2    1    1    2    0  502 -0.24543157789E+02  0.17948230522E+02 -0.27694241681E+03  0.27860654659E+03  0.00000000000E+00 0. -1.
</event>
<event>
 4    1  0.5978476E+003  0.2838657E+02  0.7546771E-02  0.1434156E+00
          2   -1    0    0  501    0  0.00000000000E+00  0.00000000000E+00  0.45960567691E+03  0.45960567691E+03  0.00000000000E+00 0. -1.
         -2   -1    0    0    0  501 -0.00000000000E+00 -0.00000000000E+00 -0.30895453266E+01  0.30895453266E+01  0.00000000000E+00 0. -1.
          2    1    1    2  502    0  0.27446370788E+02 -0.72452666808E+01  0.38040781986E+03  0.38146547232E+03  0.00000000000E+00 0. -1.
         -2    1    1    2    0  502 -0.27446370788E+02  0.72452666808E+01  0.76108311719E+02  0.81229749916E+02  0.00000000000E+00 0. -1.
</event>
<event>
 4    1  0.5978476E+003  0.2028440E+02  0.7546771E-02  0.1529732E+00
          2   -1    0    0  501    0  0.00000000000E+00  0.00000000000E+00  0.50067286106E+03  0.50067286106E+03  0.00000000000E+00 0.  1.
         -2   -1    0    0    0  501 -0.00000000000E+00 -0.00000000000E+00 -0.10044081470E+02  0.10044081470E+02  0.00000000000E+00 0.  1.
          2    1    1    2  502    0 -0.14250861134E+02 -0.14435025118E+02  0.49000322472E+03  0.49042289631E+03  0.00000000000E+00 0.  1.
         -2    1    1    2    0  502  0.14250861134E+02  0.14435025118E+02  0.62555487691E+00  0.20294046223E+02  0.00000000000E+00 0.  1.
</event>
<event>
 4    1  0.5978476E+003  0.5288785E+02  0.7546771E-02  0.1286115E+00
          2   -1    0    0  501    0  0.00000000000E+00  0.00000000000E+00  0.17784564436E+04  0.17784564436E+04  0.00000000000E+00 0.  1.
         -2   -1    0    0    0  501 -0.00000000000E+00 -0.00000000000E+00 -0.71185344294E+01  0.71185344294E+01  0.00000000000E+00 0.  1.
          2    1    1    2  502    0  0.24500046979E+02  0.46870806133E+02  0.16736813139E+04  0.16745167259E+04  0.00000000000E+00 0.  1.
         -2    1    1    2    0  502 -0.24500046979E+02 -0.46870806133E+02  0.97656595268E+02  0.11105825214E+03  0.00000000000E+00 0.  1.
</event>
<event>
 4    1  0.5978476E+003  0.2413576E+02  0.7546771E-02  0.1478708E+00
          2   -1    0    0  501    0  0.00000000000E+00  0.00000000000E+00  0.63971605019E+02  0.63971605019E+02  0.00000000000E+00 0. -1.
         -2   -1    0    0    0  501 -0.00000000000E+00 -0.00000000000E+00 -0.17580040860E+02  0.17580040860E+02  0.00000000000E+00 0. -1.
          2    1    1    2  502    0  0.55327793865E+00 -0.24129417211E+02  0.51505417974E+02  0.56880075353E+02  0.00000000000E+00 0. -1.
         -2    1    1    2    0  502 -0.55327793865E+00  0.24129417211E+02 -0.51138538146E+01  0.24671570526E+02  0.00000000000E+00 0. -1.
</event>
<event>
 4    1  0.5978476E+003  0.4605293E+02  0.7546771E-02  0.1316257E+00
          2   -1    0    0  501    0  0.00000000000E+00  0.00000000000E+00  0.39095166040E+02  0.39095166040E+02  0.00000000000E+00 0. -1.
         -2   -1    0    0    0  501 -0.00000000000E+00 -0.00000000000E+00 -0.11797503701E+03  0.11797503701E+03  0.00000000000E+00 0. -1.
          2    1    1    2  502    0  0.45247760536E+02 -0.85739548821E+01  0.18280194744E+02  0.49548340595E+02  0.00000000000E+00 0. -1.
         -2    1    1    2    0  502 -0.45247760536E+02  0.85739548821E+01 -0.97160065716E+02  0.10752186246E+03  0.00000000000E+00 0. -1.
</event>
<event>
 4    1  0.5978476E+003  0.2087998E+02  0.7546771E-02  0.1520985E+00
          2   -1    0    0  501    0  0.00000000000E+00  0.00000000000E+00  0.22826392516E+03  0.22826392516E+03  0.00000000000E+00 0. -1.
         -2   -1    0    0    0  501 -0.00000000000E+00 -0.00000000000E+00 -0.13044624400E+02  0.13044624400E+02  0.00000000000E+00 0.  1.
          2    1    1    2  502    0  0.18828122064E+02 -0.90263622813E+01  0.21908160702E+03  0.22007436000E+03  0.00000000000E+00 0. -1.
         -2    1    1    2    0  502 -0.18828122064E+02  0.90263622813E+01 -0.38623062591E+01  0.21234189557E+02  0.00000000000E+00 0.  1.
</event>
<event>
 4    1  0.5978476E+003  0.2380735E+02  0.7546771E-02  0.1482602E+00
          2   -1    0    0  501    0  0.00000000000E+00  0.00000000000E+00  0.71597312650E+01  0.71597312650E+01  0.00000000000E+00 0.  1.
         -2   -1    0    0    0  501 -0.00000000000E+00 -0.00000000000E+00 -0.11701374130E+03  0.11701374130E+03  0.00000000000E+00 0.  1.
          2    1    1    2  502    0 -0.30562122441E+01  0.23610365707E+02 -0.19615649368E+02  0.30847422943E+02  0.00000000000E+00 0.  1.
         -2    1    1    2    0  502  0.30562122441E+01 -0.23610365707E+02 -0.90238360665E+02  0.93326049619E+02  0.00000000000E+00 0.  1.
</event>
<event>
 4    1  0.5978476E+003  0.3490549E+02  0.7546771E-02  0.1381229E+00
          2   -1    0    0  501    0  0.00000000000E+00  0.00000000000E+00  0.83455670742E+02  0.83455670742E+02  0.00000000000E+00 0.  1.
         -2   -1    0    0    0  501 -0.00000000000E+00 -0.00000000000E+00 -0.15638846313E+03  0.15638846313E+03  0.00000000000E+00 0. -1.
          2    1    1    2  502    0 -0.33345115927E+02  0.10319696488E+02  0.77721033209E+02  0.85199482949E+02  0.00000000000E+00 0.  1.
         -2    1    1    2    0  502  0.33345115927E+02 -0.10319696488E+02 -0.15065382560E+03  0.15464465092E+03  0.00000000000E+00 0. -1.
</event>
<event>
 4    1  0.5978476E+003  0.2753095E+02  0.7546771E-02  0.1442346E+00
          2   -1    0    0  501    0  0.00000000000E+00  0.00000000000E+00  0.42423183775E+03  0.42423183775E+03  0.00000000000E+00 0.  1.
         -2   -1    0    0    0  501 -0.00000000000E+00 -0.00000000000E+00 -0.37637321286E+01  0.37637321286E+01  0.00000000000E+00 0. -1.
          2    1    1    2  502    0 -0.27249811379E+02  0.39244437951E+01  0.36533425589E+03  0.36637012980E+03  0.00000000000E+00 0.  1.
         -2    1    1    2    0  502  0.27249811379E+02 -0.39244437951E+01  0.55133849733E+02  0.61625440085E+02  0.00000000000E+00 0. -1.
</event>
<event>
 4    1  0.5978476E+003  0.2155278E+02  0.7546771E-02  0.1511517E+00
          2   -1    0    0  501    0  0.00000000000E+00  0.00000000000E+00  0.10815078020E+04  0.10815078020E+04  0.00000000000E+00 0.  1.
         -2   -1    0    0    0  501 -0.00000000000E+00 -0.00000000000E+00 -0.14934546599E+02  0.14934546599E+02  0.00000000000E+00 0. -1.
          2    1    1    2  502    0  0.17772021933E+02 -0.12193341241E+02  0.10735669431E+04  0.10737832666E+04  0.00000000000E+00 0.  1.
         -2    1    1    2    0  502 -0.17772021933E+02  0.12193341241E+02 -0.69936876113E+01  0.22659082078E+02  0.00000000000E+00 0. -1.
</event>
<event>
 4    1  0.5978476E+003  0.5124959E+02  0.7546771E-02  0.1292844E+00
          2   -1    0    0  501    0  0.00000000000E+00  0.00000000000E+00  0.18017340262E+02  0.18017340262E+02  0.00000000000E+00 0.  1.
         -2   -1    0    0    0  501 -0.00000000000E+00 -0.00000000000E+00 -0.50698395245E+03  0.50698395245E+03  0.00000000000E+00 0. -1.
          2    1    1    2  502    0  0.15288746024E+02 -0.48915995192E+02 -0.22913231807E+02  0.56138547652E+02  0.00000000000E+00 0.  1.
         -2    1    1    2    0  502 -0.15288746024E+02  0.48915995192E+02 -0.46605338038E+03  0.46886274506E+03  0.00000000000E+00 0. -1.
</event>
<event>
 4    1  0.5978476E+003  0.4073540E+02  0.7546771E-02  0.1344229E+00
          2   -1    0    0  501    0  0.00000000000E+00  0.00000000000E+00  0.80005719205E+03  0.80005719205E+03  0.00000000000E+00 0.  1.
         -2   -1    0    0    0  501 -0.00000000000E+00 -0.00000000000E+00 -0.17009657788E+02  0.17009657788E+02  0.00000000000E+00 0.  1.
          2    1    1    2  502    0  0.40330101271E+02 -0.57319774961E+01  0.77434057920E+03  0.77541131358E+03  0.00000000000E+00 0.  1.
         -2    1    1    2    0  502 -0.40330101271E+02  0.57319774961E+01  0.87069550640E+01  0.41655536259E+02  0.00000000000E+00 0.  1.
</event>
<event>
 4    1  0.5978476E+003  0.3918971E+02  0.7546771E-02  0.1353301E+00
          2   -1    0    0  501    0  0.00000000000E+00  0.00000000000E+00  0.10594560929E+04  0.10594560929E+04  0.00000000000E+00 0.  1.
         -2   -1    0    0    0  501 -0.00000000000E+00 -0.00000000000E+00 -0.15510016702E+01  0.15510016702E+01  0.00000000000E+00 0.  1.
          2    1    1    2  502    0 -0.36888006722E+02 -0.13232855387E+02  0.66456882244E+03  0.66572333087E+03  0.00000000000E+00 0.  1.
         -2    1    1    2    0  502  0.36888006722E+02  0.13232855387E+02  0.39333626876E+03  0.39528376367E+03  0.00000000000E+00 0.  1.
</event>
<event>
 4    1  0.5978476E+003  0.5025038E+02  0.7546771E-02  0.1297091E+00
          2   -1    0    0  501    0  0.00000000000E+00  0.00000000000E+00  0.14136245540E+04  0.14136245540E+04  0.00000000000E+00 0. -1.
         -2   -1    0    0    0  501 -0.00000000000E+00 -0.00000000000E+00 -0.19906144018E+01  0.19906144018E+01  0.00000000000E+00 0.  1.
          2    1    1    2  502    0  0.32010218499E+02  0.38735603943E+02  0.93260156988E+03  0.93395438285E+03  0.00000000000E+00 0. -1.
         -2    1    1    2    0  502 -0.32010218499E+02 -0.38735603943E+02  0.47903236975E+03  0.48166078558E+03  0.00000000000E+00 0.  1.
</event>
<event>
 4    1  0.5978476E+003  0.2232656E+02  0.7546771E-02  0.1501132E+00
          2   -1    0    0  501    0  0.00000000000E+00  0.00000000000E+00  0.55725606398E+03  0.55725606398E+03  0.00000000000E+00 0.  1.
         -2   -1    0    0    0  501 -0.00000000000E+00 -0.00000000000E+00 -0.11260352205E+02  0.11260352205E+02  0.00000000000E+00 0. -1.
          2    1    1    2  502    0 -0.19216595637E+02  0.11366513096E+02  0.54573178634E+03  0.54618829884E+03  0.00000000000E+00 0.  1.
         -2    1    1    2    0  502  0.19216595637E+02 -0.11366513096E+02  0.26392544217E+00  0.22328117352E+02  0.00000000000E+00 0. -1.
</event>
<event>
 4    1  0.5978476E+003  0.2355419E+02  0.7546771E-02  0.1485654E+00
          2   -1    0    0  501    0  0.00000000000E+00  0.00000000000E+00  0.96021170796E+03  0.96021170796E+03  0.00000000000E+00 0. -1.
         -2   -1    0    0    0  501 -0.00000000000E+00 -0.00000000000E+00 -0.25623911992E+01  0.25623911992E+01  0.00000000000E+00 0.  1.
          2    1    1    2  502    0 -0.19961429986E+02  0.12503650344E+02  0.90247581587E+03  0.90278314017E+03  0.00000000000E+00 0. -1.
         -2    1    1    2    0  502  0.19961429986E+02 -0.12503650344E+02  0.55173500894E+02  0.59990958985E+02  0.00000000000E+00 0.  1.
</event>
<event>
 4    1  0.5978476E+003  0.2337077E+02  0.7546771E-02  0.1487894E+00
          2   -1    0    0  501    0  0.00000000000E+00  0.00000000000E+00  0.13326186324E+02  0.13326186324E+02  0.00000000000E+00 0. -1.
         -2   -1    0    0    0  501 -0.00000000000E+00 -0.00000000000E+00 -0.70587589484E+02  0.70587589484E+02  0.00000000000E+00 0.  1.
          2    1    1    2  502    0 -0.14434665193E+02 -0.18380244043E+02 -0.14604673058E+01  0.23416359561E+02  0.00000000000E+00 0. -1.
         -2    1    1    2    0  502  0.14434665193E+02  0.18380244043E+02 -0.55800935854E+02  0.60497416247E+02  0.00000000000E+00 0.  1.
</event>
<event>
 4    1  0.5978476E+003  0.2310094E+02  0.7546771E-02  0.1491235E+00
          2   -1    0    0  501    0  0.00000000000E+00  0.00000000000E+00  0.10907950469E+03  0.10907950469E+03  0.00000000000E+00 0.  1.
         -2   -1    0    0    0  501 -0.00000000000E+00 -0.00000000000E+00 -0.15000580999E+02  0.15000580999E+02  0.00000000000E+00 0.  1.
          2    1    1    2  502    0  0.22495415388E+02  0.52544758471E+01  0.97967388887E+02  0.10065417287E+03  0.00000000000E+00 0.  1.
         -2    1    1    2    0  502 -0.22495415388E+02 -0.52544758471E+01 -0.38884651988E+01  0.23425912821E+02  0.00000000000E+00 0.  1.
</event>
<event>
 4    1  0.5978476E+003  0.3524477E+02  0.7546771E-02  0.1378851E+00
          2   -1    0    0  501    0  0.00000000000E+00  0.00000000000E+00  0.31969419554E+02  0.31969419554E+02  0.00000000000E+00 0. -1.
         -2   -1    0    0    0  501 -0.00000000000E+00 -0.00000000000E+00 -0.73165367818E+03  0.73165367818E+03  0.00000000000E+00 0.  1.
          2    1    1    2  502    0 -0.58944009145E+01  0.34748378245E+02  0.21692749398E+02  0.41385615004E+02  0.00000000000E+00 0. -1.
         -2    1    1    2    0  502  0.58944009145E+01 -0.34748378245E+02 -0.72137700802E+03  0.72223748273E+03  0.00000000000E+00 0.  1.
</event>
<event>
 4    1  0.5978476E+003  0.2072224E+02  0.7546771E-02  0.1523268E+00
          2   -1    0    0  501    0  0.00000000000E+00  0.00000000000E+00  0.23008433704E+02  0.23008433704E+02  0.00000000000E+00 0.  1.
         -2   -1    0    0    0  501 -0.00000000000E+00 -0.00000000000E+00 -0.55576263292E+03  0.55576263292E+03  0.00000000000E+00 0.  1.
          2    1    1    2  502    0 -0.13067873711E+02  0.16082352071E+02  0.18107974319E+02  0.27519267894E+02  0.00000000000E+00 0.  1.
         -2    1    1    2    0  502  0.13067873711E+02 -0.16082352071E+02 -0.55086217353E+03  0.55125179873E+03  0.00000000000E+00 0.  1.
</event>
<event>
 4    1  0.5978476E+003  0.2995988E+02  0.7546771E-02  0.1419946E+00
          2   -1    0    0  501    0  0.00000000000E+00  0.00000000000E+00  0.36919774772E+02  0.36919774772E+02  0.00000000000E+00 0.  1.
         -2   -1    0    0    0  501 -0.00000000000E+00 -0.00000000000E+00 -0.74175432968E+02  0.74175432968E+02  0.00000000000E+00 0.  1.
          2    1    1    2  502    0  0.73004558118E+01  0.29056798620E+02  0.26915659819E+02  0.40274643941E+02  0.00000000000E+00 0.  1.
         -2    1    1    2    0  502 -0.73004558118E+01 -0.29056798620E+02 -0.64171318014E+02  0.70820563799E+02  0.00000000000E+00 0.  1.
</event>
<event>
 4    1  0.5978476E+003  0.3437584E+02  0.7546771E-02  0.1385005E+00
          2   -1    0    0  501    0  0.00000000000E+00  0.00000000000E+00  0.86926287994E+02  0.86926287994E+02  0.00000000000E+00 0.  1.
         -2   -1    0    0    0  501 -0.00000000000E+00 -0.00000000000E+00 -0.58304576350E+02  0.58304576350E+02  0.00000000000E+00 0.  1.
          2    1    1    2  502    0  0.59335404588E+01 -0.33859879383E+02  0.77899781594E+02  0.85147368172E+02  0.00000000000E+00 0.  1.
         -2    1    1    2    0  502 -0.59335404588E+01  0.33859879383E+02 -0.49278069950E+02  0.60083496172E+02  0.00000000000E+00 0.  1.
</event>
<event>
 4    1  0.5978476E+003  0.2273658E+02  0.7546771E-02  0.1495833E+00
          2   -1    0    0  501    0  0.00000000000E+00  0.00000000000E+00  0.22756135894E+03  0.22756135894E+03  0.00000000000E+00 0.  1.
         -2   -1    0    0    0  501 -0.00000000000E+00 -0.00000000000E+00 -0.25643952715E+02  0.25643952715E+02  0.00000000000E+00 0. -1.
          2    1    1    2  502    0  0.12506652278E+02  0.18987774232E+02  0.22182371173E+03  0.22298589868E+03  0.00000000000E+00 0.  1.
         -2    1    1    2    0  502 -0.12506652278E+02 -0.18987774232E+02 -0.19906305511E+02  0.30219412976E+02  0.00000000000E+00 0. -1.
</event>
<event>
 4    1  0.5978476E+003  0.2393657E+02  0.7546771E-02  0.1481061E+00
          2   -1    0    0  501    0  0.00000000000E+00  0.00000000000E+00  0.76511885451E+02  0.76511885451E+02  0.00000000000E+00 0.  1.
         -2   -1    0    0    0  501 -0.00000000000E+00 -0.00000000000E+00 -0.98253863198E+02  0.98253863198E+02  0.00000000000E+00 0. -1.
          2    1    1    2  502    0  0.86190973044E+00  0.23921045379E+02  0.73115917005E+02  0.76934365662E+02  0.00000000000E+00 0.  1.
         -2    1    1    2    0  502 -0.86190973044E+00 -0.23921045379E+02 -0.94857894752E+02  0.97831382987E+02  0.00000000000E+00 0. -1.
</event>
<event>
 4    1  0.5978476E+003  0.2246649E+02  0.7546771E-02  0.1499308E+00
          2   -1    0    0  501    0  0.00000000000E+00  0.00000000000E+00  0.29194414632E+01  0.29194414632E+01  0.00000000000E+00 0. -1.
         -2   -1    0    0    0  501 -0.00000000000E+00 -0.00000000000E+00 -0.21224274700E+03  0.21224274700E+03  0.00000000000E+00 0.  1.
          2    1    1    2  502    0 -0.90830254188E+01 -0.20548523742E+02 -0.58337736228E+02  0.62514275545E+02  0.00000000000E+00 0. -1.
         -2    1    1    2    0  502  0.90830254188E+01  0.20548523742E+02 -0.15098556931E+03  0.15264791292E+03  0.00000000000E+00 0.  1.
</event>
<event>
 4    1  0.5978476E+003  0.2500400E+02  0.7546771E-02  0.1468759E+00
          2   -1    0    0  501    0  0.00000000000E+00  0.00000000000E+00  0.83066236157E+03  0.83066236157E+03  0.00000000000E+00 0. -1.
         -2   -1    0    0    0  501 -0.00000000000E+00 -0.00000000000E+00 -0.47734351389E+01  0.47734351389E+01  0.00000000000E+00 0. -1.
          2    1    1    2  502    0 -0.34313476149E+01  0.24767435615E+02  0.79631865662E+03  0.79671111633E+03  0.00000000000E+00 0. -1.
         -2    1    1    2    0  502  0.34313476149E+01 -0.24767435615E+02  0.29570269820E+02  0.38724680381E+02  0.00000000000E+00 0. -1.
</event>
<event>
 4    1  0.5978476E+003  0.3125866E+02  0.7546771E-02  0.1408965E+00
          2   -1    0    0  501    0  0.00000000000E+00  0.00000000000E+00  0.50055438788E+03  0.50055438788E+03  0.00000000000E+00 0.  1.
         -2   -1    0    0    0  501 -0.00000000000E+00 -0.00000000000E+00 -0.65011282552E+03  0.65011282552E+03  0.00000000000E+00 0. -1.
          2    1    1    2  502    0  0.20974221130E+02  0.23177276752E+02  0.49968998351E+03  0.50066673918E+03  0.00000000000E+00 0.  1.
         -2    1    1    2    0  502 -0.20974221130E+02 -0.23177276752E+02 -0.64924842115E+03  0.65000047421E+03  0.00000000000E+00 0. -1.
</event>
<event>
 4    1  0.5978476E+003  0.2024854E+02  0.7546771E-02  0.1530270E+00
          2   -1    0    0  501    0  0.00000000000E+00  0.00000000000E+00  0.91632670682E+03  0.91632670682E+03  0.00000000000E+00 0.  1.
         -2   -1    0    0    0  501 -0.00000000000E+00 -0.00000000000E+00 -0.10158946183E+02  0.10158946183E+02  0.00000000000E+00 0.  1.
          2    1    1    2  502    0  0.20212809324E+02  0.12023557855E+01  0.90601026141E+03  0.90623650175E+03  0.00000000000E+00 0.  1.
         -2    1    1    2    0  502 -0.20212809324E+02 -0.12023557855E+01  0.15749921889E+00  0.20249151247E+02  0.00000000000E+00 0.  1.
</event>
<event>
 4    1  0.5978476E+003  0.4328302E+02  0.7546771E-02  0.1330252E+00
          2   -1    0    0  501    0  0.00000000000E+00  0.00000000000E+00  0.16509934829E+03  0.16509934829E+03  0.00000000000E+00 0.  1.
         -2   -1    0    0    0  501 -0.00000000000E+00 -0.00000000000E+00 -0.11715361556E+03  0.11715361556E+03  0.00000000000E+00 0. -1.
          2    1    1    2  502    0 -0.81231092017E+01  0.42513938214E+02  0.15809072539E+03  0.16390880787E+03  0.00000000000E+00 0.  1.
         -2    1    1    2    0  502  0.81231092017E+01 -0.42513938214E+02 -0.11014499265E+03  0.11834415597E+03  0.00000000000E+00 0. -1.
</event>
<event>
 4    1  0.5978476E+003  0.2337778E+02  0.7546771E-02  0.1487808E+00
          2   -1    0    0  501    0  0.00000000000E+00  0.00000000000E+00  0.17582123474E+02  0.17582123474E+02  0.00000000000E+00 0.  1.
         -2   -1    0    0    0  501 -0.00000000000E+00 -0.00000000000E+00 -0.37070272916E+02  0.37070272916E+02  0.00000000000E+00 0. -1.
          2    1    1    2  502    0  0.15608790919E+02  0.17403621188E+02  0.12371153706E+01  0.23410485661E+02  0.00000000000E+00 0.  1.
         -2    1    1    2    0  502 -0.15608790919E+02 -0.17403621188E+02 -0.20725264812E+02  0.31241910729E+02  0.00000000000E+00 0. -1.
</event>
<event>
 4    1  0.5978476E+003  0.2588652E+02  0.7546771E-02  0.1459126E+00
          2   -1    0    0  501    0  0.00000000000E+00  0.00000000000E+00  0.10565974765E+04  0.10565974765E+04  0.00000000000E+00 0. -1.
         -2   -1    0    0    0  501 -0.00000000000E+00 -0.00000000000E+00 -0.27589082197E+02  0.27589082197E+02  0.00000000000E+00 0.  1.
          2    1    1    2  502    0  0.10314940493E+02  0.23742659363E+02  0.10503304403E+04  0.10506493924E+04  0.00000000000E+00 0. -1.
         -2    1    1    2    0  502 -0.10314940493E+02 -0.23742659363E+02 -0.21322046075E+02  0.33537166246E+02  0.00000000000E+00 0.  1.
</event>
<event>
 4    1  0.5978476E+003  0.2361309E+02  0.7546771E-02  0.1484940E+00
          2   -1    0    0  501    0  0.00000000000E+00  0.00000000000E+00  0.52119383753E+01  0.52119383753E+01  0.00000000000E+00 0. -1.
         -2   -1    0    0    0  501 -0.00000000000E+00 -0.00000000000E+00 -0.21495931924E+03  0.21495931924E+03  0.00000000000E+00 0. -1.
          2    1    1    2  502    0  0.84473446704E+01  0.22050406848E+02 -0.26851006138E+02  0.35756881922E+02  0.00000000000E+00 0. -1.
         -2    1    1    2    0  502 -0.84473446704E+01 -0.22050406848E+02 -0.18289637472E+03  0.18441437569E+03  0.00000000000E+00 0. -1.
</event>
<event>
 4    1  0.5978476E+003  0.3633836E+02  0.7546771E-02  0.1371391E+00
          2   -1    0    0  501    0  0.00000000000E+00  0.00000000000E+00  0.29385230516E+01  0.29385230516E+01  0.00000000000E+00 0. -1.
         -2   -1    0    0    0  501 -0.00000000000E+00 -0.00000000000E+00 -0.45709385599E+03  0.45709385599E+03  0.00000000000E+00 0. -1.
          2    1    1    2  502    0 -0.36067751083E+02 -0.44264447858E+01 -0.19717227216E+03  0.20049284524E+03  0.00000000000E+00 0. -1.
         -2    1    1    2    0  502  0.36067751083E+02  0.44264447858E+01 -0.25698306078E+03  0.25953953380E+03  0.00000000000E+00 0. -1.
</event>
<event>
 4    1  0.5978476E+003  0.2271413E+02  0.7546771E-02  0.1496119E+00
          2   -1    0    0  501    0  0.00000000000E+00  0.00000000000E+00  0.54354381181E+03  0.54354381181E+03  0.00000000000E+00 0. -1.
         -2   -1    0    0    0  501 -0.00000000000E+00 -0.00000000000E+00 -0.10757721173E+01  0.10757721173E+01  0.00000000000E+00 0. -1.
          2    1    1    2  502    0  0.21750295240E+02  0.65464797625E+01  0.36463948418E+03  0.36534625380E+03  0.00000000000E+00 0. -1.
         -2    1    1    2    0  502 -0.21750295240E+02 -0.65464797625E+01  0.17782855551E+03  0.17927333013E+03  0.00000000000E+00 0. -1.
</event>
<event>
 4    1  0.5978476E+003  0.2566652E+02  0.7546771E-02  0.1461483E+00
          2   -1    0    0  501    0  0.00000000000E+00  0.00000000000E+00  0.90329881240E+03  0.90329881240E+03  0.00000000000E+00 0.  1.
         -2   -1    0    0    0  501 -0.00000000000E+00 -0.00000000000E+00 -0.73583188443E+00  0.73583188443E+00  0.00000000000E+00 0.  1.
          2    1    1    2  502    0 -0.22885309879E+02  0.11620343049E+02  0.40867190456E+03  0.40947709992E+03  0.00000000000E+00 0.  1.
         -2    1    1    2    0  502  0.22885309879E+02 -0.11620343049E+02  0.49389107596E+03  0.49455754437E+03  0.00000000000E+00 0.  1.
</event>
<event>
 4    1  0.5978476E+003  0.2258131E+02  0.7546771E-02  0.1497824E+00
          2   -1    0    0  501    0  0.00000000000E+00  0.00000000000E+00  0.22514693657E+04  0.22514693657E+04  0.00000000000E+00 0. -1.
         -2   -1    0    0    0  501 -0.00000000000E+00 -0.00000000000E+00 -0.25539001011E+00  0.25539001011E+00  0.00000000000E+00 0. -1.
          2    1    1    2  502    0 -0.26410198235E+01 -0.22426333751E+02  0.15043971033E+04  0.15045665687E+04  0.00000000000E+00 0. -1.
         -2    1    1    2    0  502  0.26410198235E+01  0.22426333751E+02  0.74681687241E+03  0.74715818697E+03  0.00000000000E+00 0. -1.
</event>
<event>
 4    1  0.5978476E+003  0.2424200E+02  0.7546771E-02  0.1477465E+00
          2   -1    0    0  501    0  0.00000000000E+00  0.00000000000E+00  0.42491023252E+01  0.42491023252E+01  0.00000000000E+00 0.  1.
         -2   -1    0    0    0  501 -0.00000000000E+00 -0.00000000000E+00 -0.50308446166E+03  0.50308446166E+03  0.00000000000E+00 0.  1.
          2    1    1    2  502    0 -0.43030968755E+01 -0.23857033613E+02 -0.33415580096E+02  0.41282874036E+02  0.00000000000E+00 0.  1.
         -2    1    1    2    0  502  0.43030968755E+01  0.23857033613E+02 -0.46541977924E+03  0.46605068995E+03  0.00000000000E+00 0.  1.
</event>
<event>
 4    1  0.5978476E+003  0.2738747E+02  0.7546771E-02  0.1443754E+00
          2   -1    0    0  501    0  0.00000000000E+00  0.00000000000E+00  0.41305874003E+01  0.41305874003E+01  0.00000000000E+00 0.  1.
         -2   -1    0    0    0  501 -0.00000000000E+00 -0.00000000000E+00 -0.32357470969E+03  0.32357470969E+03  0.00000000000E+00 0.  1.
          2    1    1    2  502    0 -0.14824854724E+02  0.23028184992E+02 -0.51182796487E+02  0.58049567422E+02  0.00000000000E+00 0.  1.
         -2    1    1    2    0  502  0.14824854724E+02 -0.23028184992E+02 -0.26826132580E+03  0.26965572966E+03  0.00000000000E+00 0.  1.
</event>
<event>
 4    1  0.5978476E+003  0.2775913E+02  0.7546771E-02  0.1440128E+00
          2   -1    0    0  501    0  0.00000000000E+00  0.00000000000E+00  0.11965738610E+04  0.11965738610E+04  0.00000000000E+00 0. -1.
         -2   -1    0    0    0  501 -0.00000000000E+00 -0.00000000000E+00 -0.29986125806E+01  0.29986125806E+01  0.00000000000E+00 0.  1.
          2    1    1    2  502    0 -0.36260806731E+00  0.27756758099E+02  0.11282810926E+04  0.11286225202E+04  0.00000000000E+00 0. -1.
         -2    1    1    2    0  502  0.36260806731E+00 -0.27756758099E+02  0.65294155756E+02  0.70949953353E+02  0.00000000000E+00 0.  1.
</event>
<event>
 4    1  0.5978476E+003  0.2208911E+02  0.7546771E-02  0.1504264E+00
          2   -1    0    0  501    0  0.00000000000E+00  0.00000000000E+00  0.50553982071E+02  0.50553982071E+02  0.00000000000E+00 0. -1.
         -2   -1    0    0    0  501 -0.00000000000E+00 -0.00000000000E+00 -0.20131582639E+03  0.20131582639E+03  0.00000000000E+00 0.  1.
          2    1    1    2  502    0  0.20648018249E+02  0.78477974764E+01  0.47498072011E+02  0.52383159771E+02  0.00000000000E+00 0. -1.
         -2    1    1    2    0  502 -0.20648018249E+02 -0.78477974764E+01 -0.19825991633E+03  0.19948664869E+03  0.00000000000E+00 0.  1.
</event>
<event>
 4    1  0.5978476E+003  0.2217171E+02  0.7546771E-02  0.1503169E+00
          2   -1    0    0  501    0  0.00000000000E+00  0.00000000000E+00  0.13655436855E+03  0.13655436855E+03  0.00000000000E+00 0.  1.
         -2   -1    0    0    0  501 -0.00000000000E+00 -0.00000000000E+00 -0.24778565279E+03  0.24778565279E+03  0.00000000000E+00 0. -1.
          2    1    1    2  502    0 -0.20640509426E+02 -0.80965582647E+01  0.13515330303E+03  0.13695984888E+03  0.00000000000E+00 0.  1.
         -2    1    1    2    0  502  0.20640509426E+02  0.80965582647E+01 -0.24638458726E+03  0.24738017246E+03  0.00000000000E+00 0. -1.
</event>
<event>
 4    1  0.5978476E+003  0.2154466E+02  0.7546771E-02  0.1511629E+00
          2   -1    0    0  501    0  0.00000000000E+00  0.00000000000E+00  0.51031591759E+01  0.51031591759E+01  0.00000000000E+00 0.  1.
         -2   -1    0    0    0  501 -0.00000000000E+00 -0.00000000000E+00 -0.14686502432E+03  0.14686502432E+03  0.00000000000E+00 0.  1.
          2    1    1    2  502    0  0.81075394269E+01 -0.19960967897E+02 -0.23999894396E+02  0.32251625788E+02  0.00000000000E+00 0.  1.
         -2    1    1    2    0  502 -0.81075394269E+01  0.19960967897E+02 -0.11776197075E+03  0.11971655771E+03  0.00000000000E+00 0.  1.
</event>
<event>
 4    1  0.5978476E+003  0.2280270E+02  0.7546771E-02  0.1494991E+00
          2   -1    0    0  501    0  0.00000000000E+00  0.00000000000E+00  0.88302441891E+02  0.88302441891E+02  0.00000000000E+00 0. -1.
         -2   -1    0    0    0  501 -0.00000000000E+00 -0.00000000000E+00 -0.93331261869E+02  0.93331261869E+02  0.00000000000E+00 0.  1.
          2    1    1    2  502    0 -0.19836419326E+02  0.11246309886E+02  0.85390872476E+02  0.88383053353E+02  0.00000000000E+00 0. -1.
         -2    1    1    2    0  502  0.19836419326E+02 -0.11246309886E+02 -0.90419692454E+02  0.93250650407E+02  0.00000000000E+00 0.  1.
</event>
<event>
 4    1  0.5978476E+003  0.2115964E+02  0.7546771E-02  0.1516998E+00
          2   -1    0    0  501    0  0.00000000000E+00  0.00000000000E+00  0.14977575417E+04  0.14977575417E+04  0.00000000000E+00 0.  1.
         -2   -1    0    0    0  501 -0.00000000000E+00 -0.00000000000E+00 -0.44575618901E+02  0.44575618901E+02  0.00000000000E+00 0.  1.
          2    1    1    2  502    0 -0.44208966934E+01  0.20692661657E+02  0.14951673851E+04  0.14953171035E+04  0.00000000000E+00 0.  1.
         -2    1    1    2    0  502  0.44208966934E+01 -0.20692661657E+02 -0.41985462335E+02  0.47016057060E+02  0.00000000000E+00 0.  1.
</event>
<event>
 4    1  0.5978476E+003  0.2862734E+02  0.7546771E-02  0.1431912E+00
          2   -1    0    0  501    0  0.00000000000E+00  0.00000000000E+00  0.13560456533E+04  0.13560456533E+04  0.00000000000E+00 0. -1.
         -2   -1    0    0    0  501 -0.00000000000E+00 -0.00000000000E+00 -0.78665971772E+00  0.78665971772E+00  0.00000000000E+00 0. -1.
          2    1    1    2  502    0 -0.10543646313E+02 -0.26614962663E+02  0.10042240455E+04  0.10046320014E+04  0.00000000000E+00 0. -1.
         -2    1    1    2    0  502  0.10543646313E+02  0.26614962663E+02  0.35103494813E+03  0.35220031165E+03  0.00000000000E+00 0. -1.
</event>
<event>
 4    1  0.5978476E+003  0.3222713E+02  0.7546771E-02  0.1401181E+00
          2   -1    0    0  501    0  0.00000000000E+00  0.00000000000E+00  0.13974090589E+03  0.13974090589E+03  0.00000000000E+00 0.  1.
         -2   -1    0    0    0  501 -0.00000000000E+00 -0.00000000000E+00 -0.13382500005E+02  0.13382500005E+02  0.00000000000E+00 0.  1.
          2    1    1    2  502    0  0.23912973630E+02 -0.21604568278E+02  0.11423099614E+03  0.11868996654E+03  0.00000000000E+00 0.  1.
         -2    1    1    2    0  502 -0.23912973630E+02  0.21604568278E+02  0.12127409739E+02  0.34433439347E+02  0.00000000000E+00 0.  1.
</event>
<event>
 4    1  0.5978476E+003  0.2989214E+02  0.7546771E-02  0.1420536E+00
          2   -1    0    0  501    0  0.00000000000E+00  0.00000000000E+00  0.89586499466E+01  0.89586499466E+01  0.00000000000E+00 0.  1.
         -2   -1    0    0    0  501 -0.00000000000E+00 -0.00000000000E+00 -0.36409902321E+03  0.36409902321E+03  0.00000000000E+00 0.  1.
          2    1    1    2  502    0  0.82473419636E+01  0.28731891729E+02 -0.18630306690E+02  0.35222557817E+02  0.00000000000E+00 0.  1.
         -2    1    1    2    0  502 -0.82473419636E+01 -0.28731891729E+02 -0.33651006658E+03  0.33783511534E+03  0.00000000000E+00 0.  1.
</event>
<event>
 4    1  0.5978476E+003  0.3100493E+02  0.7546771E-02  0.1411060E+00
          2   -1    0    0  501    0  0.00000000000E+00  0.00000000000E+00  0.18132865657E+04  0.18132865657E+04  0.00000000000E+00 0.  1.
         -2   -1    0    0    0  501 -0.00000000000E+00 -0.00000000000E+00 -0.68891187887E+00  0.68891187887E+00  0.00000000000E+00 0. -1.
          2    1    1    2  502    0 -0.11497989902E+02 -0.28794133082E+02  0.13417091580E+04  0.13420673495E+04  0.00000000000E+00 0.  1.
         -2    1    1    2    0  502  0.11497989902E+02  0.28794133082E+02  0.47088849583E+03  0.47190812811E+03  0.00000000000E+00 0. -1.
</event>
<event>
 4    1  0.5978476E+003  0.2224652E+02  0.7546771E-02  0.1502183E+00
          2   -1    0    0  501    0  0.00000000000E+00  0.00000000000E+00  0.25030789588E+03  0.25030789588E+03  0.00000000000E+00 0. -1.
         -2   -1    0    0    0  501 -0.00000000000E+00 -0.00000000000E+00 -0.10609431611E+02  0.10609431611E+02  0.00000000000E+00 0. -1.
          2    1    1    2  502    0 -0.22211333665E+02  0.12506957479E+01  0.23752540313E+03  0.23856492767E+03  0.00000000000E+00 0. -1.
         -2    1    1    2    0  502  0.22211333665E+02 -0.12506957479E+01  0.21730611397E+01  0.22352399821E+02  0.00000000000E+00 0. -1.
</event>
<event>
 4    1  0.5978476E+003  0.2119757E+02  0.7546771E-02  0.1516463E+00
          2   -1    0    0  501    0  0.00000000000E+00  0.00000000000E+00  0.34413602362E+02  0.34413602362E+02  0.00000000000E+00 0. -1.
         -2   -1    0    0    0  501 -0.00000000000E+00 -0.00000000000E+00 -0.23775131989E+03  0.23775131989E+03  0.00000000000E+00 0.  1.
          2    1    1    2  502    0  0.21176280008E+02  0.94991735268E+00  0.30624111756E+02  0.37244776799E+02  0.00000000000E+00 0. -1.
         -2    1    1    2    0  502 -0.21176280008E+02 -0.94991735268E+00 -0.23396182929E+03  0.23492014546E+03  0.00000000000E+00 0.  1.
</event>
<event>
 4    1  0.5978476E+003  0.2137969E+02  0.7546771E-02  0.1513912E+00
          2   -1    0    0  501    0  0.00000000000E+00  0.00000000000E+00  0.88300144947E+03  0.88300144947E+03  0.00000000000E+00 0. -1.
         -2   -1    0    0    0  501 -0.00000000000E+00 -0.00000000000E+00 -0.67565232151E+00  0.67565232151E+00  0.00000000000E+00 0.  1.
          2    1    1    2  502    0 -0.14205596019E+02 -0.15977867766E+02  0.65482383002E+03  0.65517275552E+03  0.00000000000E+00 0. -1.
         -2    1    1    2    0  502  0.14205596019E+02  0.15977867766E+02  0.22750196713E+03  0.22850434627E+03  0.00000000000E+00 0.  1.
</event>
<event>
 4    1  0.5978476E+003  0.2401343E+02  0.7546771E-02  0.1480150E+00
          2   -1    0    0  501    0  0.00000000000E+00  0.00000000000E+00  0.10010274650E+03  0.10010274650E+03  0.00000000000E+00 0. -1.
         -2   -1    0    0    0  501 -0.00000000000E+00 -0.00000000000E+00 -0.25258085606E+02  0.25258085606E+02  0.00000000000E+00 0.  1.
          2    1    1    2  502    0  0.20004623164E+02  0.13283816355E+02  0.92493177381E+02  0.95559576113E+02  0.00000000000E+00 0. -1.
         -2    1    1    2    0  502 -0.20004623164E+02 -0.13283816355E+02 -0.17648516484E+02  0.29801255996E+02  0.00000000000E+00 0.  1.
</event>
<event>
 4    1  0.5978476E+003  0.2047726E+02  0.7546771E-02  0.1526861E+00
          2   -1    0    0  501    0  0.00000000000E+00  0.00000000000E+00  0.20024372769E+01  0.20024372769E+01  0.00000000000E+00 0.  1.
         -2   -1    0    0    0  501 -0.00000000000E+00 -0.00000000000E+00 -0.21479901101E+03  0.21479901101E+03  0.00000000000E+00 0.  1.
          2    1    1    2  502    0 -0.19596127557E+02 -0.59422294243E+01 -0.89218664444E+02  0.91538453072E+02  0.00000000000E+00 0.  1.
         -2    1    1    2    0  502  0.19596127557E+02  0.59422294243E+01 -0.12357790929E+03  0.12526299522E+03  0.00000000000E+00 0.  1.
</event>
<event>
 4    1  0.5978476E+003  0.2529196E+02  0.7546771E-02  0.1465564E+00
          2   -1    0    0  501    0  0.00000000000E+00  0.00000000000E+00  0.39139461323E+03  0.39139461323E+03  0.00000000000E+00 0. -1.
         -2   -1    0    0    0  501 -0.00000000000E+00 -0.00000000000E+00 -0.63368200894E+02  0.63368200894E+02  0.00000000000E+00 0.  1.
          2    1    1    2  502    0 -0.12377090566E+02  0.22056536859E+02  0.38844319035E+03  0.38926571300E+03  0.00000000000E+00 0. -1.
         -2    1    1    2    0  502  0.12377090566E+02 -0.22056536859E+02 -0.60416778017E+02  0.65497101119E+02  0.00000000000E+00 0.  1.
</event>
<event>
 4    1  0.5978476E+003  0.2964490E+02  0.7546771E-02  0.1422708E+00
          2   -1    0    0  501    0  0.00000000000E+00  0.00000000000E+00  0.67515613525E+02  0.67515613525E+02  0.00000000000E+00 0.  1.
         -2   -1    0    0    0  501 -0.00000000000E+00 -0.00000000000E+00 -0.36801480831E+02  0.36801480831E+02  0.00000000000E+00 0.  1.
          2    1    1    2  502    0  0.22690573868E+02 -0.19077685180E+02  0.57288895237E+02  0.64504555899E+02  0.00000000000E+00 0.  1.
         -2    1    1    2    0  502 -0.22690573868E+02  0.19077685180E+02 -0.26574762542E+02  0.39812538458E+02  0.00000000000E+00 0.  1.
</event>
<event>
 4    1  0.5978476E+003  0.2396163E+02  0.7546771E-02  0.1480763E+00
          2   -1    0    0  501    0  0.00000000000E+00  0.00000000000E+00  0.34174647007E+03  0.34174647007E+03  0.00000000000E+00 0. -1.
         -2   -1    0    0    0  501 -0.00000000000E+00 -0.00000000000E+00 -0.31292659415E+02  0.31292659415E+02  0.00000000000E+00 0. -1.
          2    1    1    2  502    0  0.23511644066E+02 -0.46219515376E+01  0.33667036136E+03  0.33752198752E+03  0.00000000000E+00 0. -1.
         -2    1    1    2    0  502 -0.23511644066E+02  0.46219515376E+01 -0.26216550702E+02  0.35517141966E+02  0.00000000000E+00 0. -1.
</event>
<event>
 4    1  0.5978476E+003  0.2219479E+02  0.7546771E-02  0.1502864E+00
          2   -1    0    0  501    0  0.00000000000E+00  0.00000000000E+00  0.47924606525E+01  0.47924606525E+01  0.00000000000E+00 0.  1.
         -2   -1    0    0    0  501 -0.00000000000E+00 -0.00000000000E+00 -0.11535550704E+03  0.11535550704E+03  0.00000000000E+00 0. -1.
          2    1    1    2  502    0 -0.22158058737E+02  0.12764347677E+01 -0.35453164687E+02  0.41827451979E+02  0.00000000000E+00 0.  1.
         -2    1    1    2    0  502  0.22158058737E+02 -0.12764347677E+01 -0.75109881703E+02  0.78320515717E+02  0.00000000000E+00 0. -1.
</event>
<event>
 4    1  0.5978476E+003  0.2238926E+02  0.7546771E-02  0.1500313E+00
          2   -1    0    0  501    0  0.00000000000E+00  0.00000000000E+00  0.77190891635E+03  0.77190891635E+03  0.00000000000E+00 0.  1.
         -2   -1    0    0    0  501 -0.00000000000E+00 -0.00000000000E+00 -0.65690277782E+00  0.65690277782E+00  0.00000000000E+00 0. -1.
          2    1    1    2  502    0  0.13824697439E+02 -0.17611271327E+02  0.42690320728E+03  0.42748991511E+03  0.00000000000E+00 0.  1.
         -2    1    1    2    0  502 -0.13824697439E+02  0.17611271327E+02  0.34434880629E+03  0.34507590401E+03  0.00000000000E+00 0. -1.
</event>
<event>
 4    1  0.5978476E+003  0.2678352E+02  0.7546771E-02  0.1449795E+00
          2   -1    0    0  501    0  0.00000000000E+00  0.00000000000E+00  0.76563644995E+03  0.76563644995E+03  0.00000000000E+00 0. -1.
         -2   -1    0    0    0  501 -0.00000000000E+00 -0.00000000000E+00 -0.17182025265E+02  0.17182025265E+02  0.00000000000E+00 0.  1.
          2    1    1    2  502    0 -0.52502809306E+01 -0.26263881542E+02  0.75481501515E+03  0.75529005291E+03  0.00000000000E+00 0. -1.
         -2    1    1    2    0  502  0.52502809306E+01  0.26263881542E+02 -0.63605904689E+01  0.27528422306E+02  0.00000000000E+00 0.  1.
</event>
<event>
 4    1  0.5978476E+003  0.2793400E+02  0.7546771E-02  0.1438445E+00
          2   -1    0    0  501    0  0.00000000000E+00  0.00000000000E+00  0.31590229928E+02  0.31590229928E+02  0.00000000000E+00 0. -1.
         -2   -1    0    0    0  501 -0.00000000000E+00 -0.00000000000E+00 -0.46063303996E+02  0.46063303996E+02  0.00000000000E+00 0. -1.
          2    1    1    2  502    0  0.22974104200E+02  0.15890209612E+02  0.19204494225E+02  0.33898684690E+02  0.00000000000E+00 0. -1.
         -2    1    1    2    0  502 -0.22974104200E+02 -0.15890209612E+02 -0.33677568293E+02  0.43754849233E+02  0.00000000000E+00 0. -1.
</event>
<event>
 4    1  0.5978476E+003  0.2673961E+02  0.7546771E-02  0.1450241E+00
          2   -1    0    0  501    0  0.00000000000E+00  0.00000000000E+00  0.42939542098E+02  0.42939542098E+02  0.00000000000E+00 0.  1.
         -2   -1    0    0    0  501 -0.00000000000E+00 -0.00000000000E+00 -0.21848658606E+03  0.21848658606E+03  0.00000000000E+00 0. -1.
          2    1    1    2  502    0  0.25896411817E+02 -0.66620168006E+01  0.37859835814E+02  0.46350553187E+02  0.00000000000E+00 0.  1.
         -2    1    1    2    0  502 -0.25896411817E+02  0.66620168006E+01 -0.21340687977E+03  0.21507557497E+03  0.00000000000E+00 0. -1.
</event>
<event>
 4    1  0.5978476E+003  0.2756351E+02  0.7546771E-02  0.1442028E+00
          2   -1    0    0  501    0  0.00000000000E+00  0.00000000000E+00  0.10680195959E+04  0.10680195959E+04  0.00000000000E+00 0. -1.
         -2   -1    0    0    0  501 -0.00000000000E+00 -0.00000000000E+00 -0.28296924368E+01  0.28296924368E+01  0.00000000000E+00 0. -1.
          2    1    1    2  502    0 -0.25641546707E+02 -0.10112273388E+02  0.99585595472E+03  0.99623733595E+03  0.00000000000E+00 0. -1.
         -2    1    1    2    0  502  0.25641546707E+02  0.10112273388E+02  0.69333948745E+02  0.74611952389E+02  0.00000000000E+00 0. -1.
</event>
<event>
 4    1  0.5978476E+003  0.3106322E+02  0.7546771E-02  0.1410577E+00
          2   -1    0    0  501    0  0.00000000000E+00  0.00000000000E+00  0.22286740024E+03  0.22286740024E+03  0.00000000000E+00 0. -1.
         -2   -1    0    0    0  501 -0.00000000000E+00 -0.00000000000E+00 -0.10385160051E+02  0.10385160051E+02  0.00000000000E+00 0.  1.
          2    1    1    2  502    0  0.22097497240E+02  0.21831725399E+02  0.19529800082E+03  0.19775295887E+03  0.00000000000E+00 0. -1.
         -2    1    1    2    0  502 -0.22097497240E+02 -0.21831725399E+02  0.17184239366E+02  0.35499601417E+02  0.00000000000E+00 0.  1.
</event>
<event>
 4    1  0.5978476E+003  0.2028089E+02  0.7546771E-02  0.1529784E+00
          2   -1    0    0  501    0  0.00000000000E+00  0.00000000000E+00  0.74998549102E+02  0.74998549102E+02  0.00000000000E+00 0. -1.
         -2   -1    0    0    0  501 -0.00000000000E+00 -0.00000000000E+00 -0.21534468944E+02  0.21534468944E+02  0.00000000000E+00 0. -1.
          2    1    1    2  502    0 -0.31108464338E+01  0.20040885780E+02  0.68401572105E+02  0.71344863409E+02  0.00000000000E+00 0. -1.
         -2    1    1    2    0  502  0.31108464338E+01 -0.20040885780E+02 -0.14937491946E+02  0.25188154637E+02  0.00000000000E+00 0. -1.
</event>
<event>
 4    1  0.5978476E+003  0.2338510E+02  0.7546771E-02  0.1487718E+00
          2   -1    0    0  501    0  0.00000000000E+00  0.00000000000E+00  0.10048898854E+04  0.10048898854E+04  0.00000000000E+00 0. -1.
         -2   -1    0    0    0  501 -0.00000000000E+00 -0.00000000000E+00 -0.33131756401E+01  0.33131756401E+01  0.00000000000E+00 0. -1.
          2    1    1    2  502    0  0.29348747296E+01 -0.23200207434E+02  0.96163368888E+03  0.96191798752E+03  0.00000000000E+00 0. -1.
         -2    1    1    2    0  502 -0.29348747296E+01  0.23200207434E+02  0.39943020911E+02  0.46285073556E+02  0.00000000000E+00 0. -1.
</event>
<event>
 4    1  0.5978476E+003  0.2920731E+02  0.7546771E-02  0.1426612E+00
          2   -1    0    0  501    0  0.00000000000E+00  0.00000000000E+00  0.50295829583E+03  0.50295829583E+03  0.00000000000E+00 0. -1.
         -2   -1    0    0    0  501 -0.00000000000E+00 -0.00000000000E+00 -0.23784005764E+02  0.23784005764E+02  0.00000000000E+00 0.  1.
          2    1    1    2  502    0 -0.16802948027E+02  0.23889910284E+02  0.49339378782E+03  0.49425752066E+03  0.00000000000E+00 0. -1.
         -2    1    1    2    0  502  0.16802948027E+02 -0.23889910284E+02 -0.14219497751E+02  0.32484780930E+02  0.00000000000E+00 0.  1.
</event>
<event>
 4    1  0.5978476E+003  0.2733928E+02  0.7546771E-02  0.1444229E+00
          2   -1    0    0  501    0  0.00000000000E+00  0.00000000000E+00  0.26816553373E+03  0.26816553373E+03  0.00000000000E+00 0.  1.
         -2   -1    0    0    0  501 -0.00000000000E+00 -0.00000000000E+00 -0.33486822452E+02  0.33486822452E+02  0.00000000000E+00 0. -1.
          2    1    1    2  502    0  0.26762660168E+02  0.55853577641E+01  0.26175230440E+03  0.26317618635E+03  0.00000000000E+00 0.  1.
         -2    1    1    2    0  502 -0.26762660168E+02 -0.55853577641E+01 -0.27073593123E+02  0.38476169835E+02  0.00000000000E+00 0. -1.
</event>
<event>
 4    1  0.5978476E+003  0.6894592E+02  0.7546771E-02  0.1232134E+00
          2   -1    0    0  501    0  0.00000000000E+00  0.00000000000E+00  0.30880266793E+02  0.30880266793E+02  0.00000000000E+00 0. -1.
         -2   -1    0    0    0  501 -0.00000000000E+00 -0.00000000000E+00 -0.30501714955E+03  0.30501714955E+03  0.00000000000E+00 0. -1.
          2    1    1    2  502    0  0.31535858482E+02  0.61310924392E+02 -0.18867272822E+02  0.71480863200E+02  0.00000000000E+00 0. -1.
         -2    1    1    2    0  502 -0.31535858482E+02 -0.61310924392E+02 -0.25526960994E+03  0.26441655315E+03  0.00000000000E+00 0. -1.
</event>
<event>
 4    1  0.5978476E+003  0.2265481E+02  0.7546771E-02  0.1496879E+00
          2   -1    0    0  501    0  0.00000000000E+00  0.00000000000E+00  0.11309110779E+04  0.11309110779E+04  0.00000000000E+00 0. -1.
         -2   -1    0    0    0  501 -0.00000000000E+00 -0.00000000000E+00 -0.23207954424E+01  0.23207954424E+01  0.00000000000E+00 0. -1.
          2    1    1    2  502    0 -0.10697548905E+01 -0.22629537073E+02  0.10724997527E+04  0.10727389990E+04  0.00000000000E+00 0. -1.
         -2    1    1    2    0  502  0.10697548905E+01  0.22629537073E+02  0.56090529726E+02  0.60492874362E+02  0.00000000000E+00 0. -1.
</event>
<event>
 4    1  0.5978476E+003  0.2383689E+02  0.7546771E-02  0.1482248E+00
          2   -1    0    0  501    0  0.00000000000E+00  0.00000000000E+00  0.19353376494E+03  0.19353376494E+03  0.00000000000E+00 0.  1.
         -2   -1    0    0    0  501 -0.00000000000E+00 -0.00000000000E+00 -0.18221972034E+02  0.18221972034E+02  0.00000000000E+00 0. -1.
          2    1    1    2  502    0  0.36062701669E+01  0.23562512442E+02  0.18462990544E+03  0.18616229253E+03  0.00000000000E+00 0.  1.
         -2    1    1    2    0  502 -0.36062701669E+01 -0.23562512442E+02 -0.93181125370E+01  0.25593444441E+02  0.00000000000E+00 0. -1.
</event>
<event>
 4    1  0.5978476E+003  0.3832996E+02  0.7546771E-02  0.1358560E+00
          2   -1    0    0  501    0  0.00000000000E+00  0.00000000000E+00  0.11328290972E+04  0.11328290972E+04  0.00000000000E+00 0. -1.
         -2   -1    0    0    0  501 -0.00000000000E+00 -0.00000000000E+00 -0.13082505598E+03  0.13082505598E+03  0.00000000000E+00 0.  1.
          2    1    1    2  502    0  0.17044003488E+02 -0.34332021495E+02  0.11296895286E+04  0.11303396024E+04  0.00000000000E+00 0. -1.
         -2    1    1    2    0  502 -0.17044003488E+02  0.34332021495E+02 -0.12768548739E+03  0.13331455076E+03  0.00000000000E+00 0.  1.
</event>
<event>
 4    1  0.5978476E+003  0.3512550E+02  0.7546771E-02  0.1379683E+00
          2   -1    0    0  501    0  0.00000000000E+00  0.00000000000E+00  0.18344840151E+03  0.18344840151E+03  0.00000000000E+00 0. -1.
         -2   -1    0    0    0  501 -0.00000000000E+00 -0.00000000000E+00 -0.15286795000E+02  0.15286795000E+02  0.00000000000E+00 0.  1.
          2    1    1    2  502    0  0.11471186715E+02 -0.33199591968E+02  0.15844325546E+03  0.16229006819E+03  0.00000000000E+00 0. -1.
         -2    1    1    2    0  502 -0.11471186715E+02  0.33199591968E+02  0.97183510521E+01  0.36445128326E+02  0.00000000000E+00 0.  1.
</event>
<event>
 4    1  0.5978476E+003  0.2101358E+02  0.7546771E-02  0.1519071E+00
          2   -1    0    0  501    0  0.00000000000E+00  0.00000000000E+00  0.87997018770E+03  0.87997018770E+03  0.00000000000E+00 0.  1.
         -2   -1    0    0    0  501 -0.00000000000E+00 -0.00000000000E+00 -0.16084294815E+01  0.16084294815E+01  0.00000000000E+00 0. -1.
          2    1    1    2  502    0 -0.16487059794E+02 -0.13028722033E+02  0.80480158178E+03  0.80507587019E+03  0.00000000000E+00 0.  1.
         -2    1    1    2    0  502  0.16487059794E+02  0.13028722033E+02  0.73560176442E+02  0.76502746988E+02  0.00000000000E+00 0. -1.
</event>
<event>
 4    1  0.5978476E+003  0.5191704E+02  0.7546771E-02  0.1290068E+00
          2   -1    0    0  501    0  0.00000000000E+00  0.00000000000E+00  0.16215698797E+03  0.16215698797E+03  0.00000000000E+00 0. -1.
         -2   -1    0    0    0  501 -0.00000000000E+00 -0.00000000000E+00 -0.43268271695E+02  0.43268271695E+02  0.00000000000E+00 0.  1.
          2    1    1    2  502    0 -0.16381220364E+02  0.49264945681E+02  0.14004843515E+03  0.14936178709E+03  0.00000000000E+00 0. -1.
         -2    1    1    2    0  502  0.16381220364E+02 -0.49264945681E+02 -0.21159718883E+02  0.56063472571E+02  0.00000000000E+00 0.  1.
</event>
<event>
 4    1  0.5978476E+003  0.2309114E+02  0.7546771E-02  0.1491357E+00
          2   -1    0    0  501    0  0.00000000000E+00  0.00000000000E+00  0.15056068589E+04  0.15056068589E+04  0.00000000000E+00 0. -1.
         -2   -1    0    0    0  501 -0.00000000000E+00 -0.00000000000E+00 -0.10115907158E+02  0.10115907158E+02  0.00000000000E+00 0.  1.
          2    1    1    2  502    0 -0.20192385443E+02  0.11201272979E+02  0.14922228513E+04  0.14924015005E+04  0.00000000000E+00 0. -1.
         -2    1    1    2    0  502  0.20192385443E+02 -0.11201272979E+02  0.32681005043E+01  0.23321265556E+02  0.00000000000E+00 0.  1.
</event>
<event>
 4    1  0.5978476E+003  0.2218075E+02  0.7546771E-02  0.1503050E+00
          2   -1    0    0  501    0  0.00000000000E+00  0.00000000000E+00  0.68738313289E+03  0.68738313289E+03  0.00000000000E+00 0. -1.
         -2   -1    0    0    0  501 -0.00000000000E+00 -0.00000000000E+00 -0.15588289379E+01  0.15588289379E+01  0.00000000000E+00 0. -1.
          2    1    1    2  502    0 -0.19264267606E+02  0.10994258251E+02  0.59624459598E+03  0.59665702372E+03  0.00000000000E+00 0. -1.
         -2    1    1    2    0  502  0.19264267606E+02 -0.10994258251E+02  0.89579707966E+02  0.92284938100E+02  0.00000000000E+00 0. -1.
</event>
<event>
 4    1  0.5978476E+003  0.2137085E+02  0.7546771E-02  0.1514035E+00
          2   -1    0    0  501    0  0.00000000000E+00  0.00000000000E+00  0.37831272485E+02  0.37831272485E+02  0.00000000000E+00 0. -1.
         -2   -1    0    0    0  501 -0.00000000000E+00 -0.00000000000E+00 -0.45671648507E+02  0.45671648507E+02  0.00000000000E+00 0.  1.
          2    1    1    2  502    0 -0.11038895275E+01  0.21342320733E+02  0.31890551185E+02  0.38389067210E+02  0.00000000000E+00 0. -1.
         -2    1    1    2    0  502  0.11038895275E+01 -0.21342320733E+02 -0.39730927207E+02  0.45113853782E+02  0.00000000000E+00 0.  1.
</event>
<event>
 4    1  0.5978476E+003  0.2106863E+02  0.7546771E-02  0.1518287E+00
          2   -1    0    0  501    0  0.00000000000E+00  0.00000000000E+00  0.14865201281E+04  0.14865201281E+04  0.00000000000E+00 0.  1.
         -2   -1    0    0    0  501 -0.00000000000E+00 -0.00000000000E+00 -0.33995277783E+00  0.33995277783E+00  0.00000000000E+00 0. -1.
          2    1    1    2  502    0 -0.20159299482E+02 -0.61228874538E+01  0.10023528035E+04  0.10025742017E+04  0.00000000000E+00 0.  1.
         -2    1    1    2    0  502  0.20159299482E+02  0.61228874538E+01  0.48382737174E+03  0.48428587916E+03  0.00000000000E+00 0. -1.
</event>
<event>
 4    1  0.5978476E+003  0.2550931E+02  0.7546771E-02  0.1463186E+00
          2   -1    0    0  501    0  0.00000000000E+00  0.00000000000E+00  0.48362253298E+03  0.48362253298E+03  0.00000000000E+00 0.  1.
         -2   -1    0    0    0  501 -0.00000000000E+00 -0.00000000000E+00 -0.21891806735E+01  0.21891806735E+01  0.00000000000E+00 0.  1.
          2    1    1    2  502    0  0.14184647445E+02 -0.21201901570E+02  0.39150944673E+03  0.39233961275E+03  0.00000000000E+00 0.  1.
         -2    1    1    2    0  502 -0.14184647445E+02  0.21201901570E+02  0.89923905574E+02  0.93472100901E+02  0.00000000000E+00 0.  1.
</event>
<event>
 4    1  0.5978476E+003  0.2269353E+02  0.7546771E-02  0.1496383E+00
          2   -1    0    0  501    0  0.00000000000E+00  0.00000000000E+00  0.93024509075E+02  0.93024509075E+02  0.00000000000E+00 0. -1.
         -2   -1    0    0    0  501 -0.00000000000E+00 -0.00000000000E+00 -0.75705439731E+01  0.75705439731E+01  0.00000000000E+00 0. -1.
          2    1    1    2  502    0  0.18374014125E+02 -0.13318835730E+02  0.16653277728E+02  0.28148311483E+02  0.00000000000E+00 0. -1.
         -2    1    1    2    0  502 -0.18374014125E+02  0.13318835730E+02  0.68800687374E+02  0.72446741565E+02  0.00000000000E+00 0. -1.
</event>
<event>
 4    1  0.5978476E+003  0.2369521E+02  0.7546771E-02  0.1483948E+00
          2   -1    0    0  501    0  0.00000000000E+00  0.00000000000E+00  0.23541206002E+03  0.23541206002E+03  0.00000000000E+00 0.  1.
         -2   -1    0    0    0  501 -0.00000000000E+00 -0.00000000000E+00 -0.23846827144E+02  0.23846827144E+02  0.00000000000E+00 0.  1.
          2    1    1    2  502    0 -0.16029155896E+02  0.17450765161E+02  0.22875893122E+03  0.22998285078E+03  0.00000000000E+00 0.  1.
         -2    1    1    2    0  502  0.16029155896E+02 -0.17450765161E+02 -0.17193698341E+02  0.29276036380E+02  0.00000000000E+00 0.  1.
</event>
<event>
 4    1  0.5978476E+003  0.2259458E+02  0.7546771E-02  0.1497653E+00
          2   -1    0    0  501    0  0.00000000000E+00  0.00000000000E+00  0.56369222411E+02  0.56369222411E+02  0.00000000000E+00 0.  1.
         -2   -1    0    0    0  501 -0.00000000000E+00 -0.00000000000E+00 -0.36302829359E+02  0.36302829359E+02  0.00000000000E+00 0. -1.
          2    1    1    2  502    0  0.19270240202E+02  0.11797164606E+02  0.50175427201E+02  0.55028072336E+02  0.00000000000E+00 0.  1.
         -2    1    1    2    0  502 -0.19270240202E+02 -0.11797164606E+02 -0.30109034150E+02  0.37643979434E+02  0.00000000000E+00 0. -1.
</event>
<event>
 4    1  0.5978476E+003  0.2254372E+02  0.7546771E-02  0.1498309E+00
          2   -1    0    0  501    0  0.00000000000E+00  0.00000000000E+00  0.33996493407E+02  0.33996493407E+02  0.00000000000E+00 0. -1.
         -2   -1    0    0    0  501 -0.00000000000E+00 -0.00000000000E+00 -0.37603628267E+02  0.37603628267E+02  0.00000000000E+00 0. -1.
          2    1    1    2  502    0 -0.13426391140E+01  0.22503699818E+02  0.25983696047E+02  0.34400169267E+02  0.00000000000E+00 0. -1.
         -2    1    1    2    0  502  0.13426391140E+01 -0.22503699818E+02 -0.29590830907E+02  0.37199952407E+02  0.00000000000E+00 0. -1.
</event>
<event>
 4    1  0.8031000E+003  0.2985094E+02  0.7546771E-02  0.1420896E+00
          2   -1    0    0  501    0  0.00000000000E+00  0.00000000000E+00  0.14004694996E+04  0.14004694996E+04  0.00000000000E+00 0.  1.
         -2   -1    0    0    0  501 -0.00000000000E+00 -0.00000000000E+00 -0.58226748321E+03  0.58226748321E+03  0.00000000000E+00 0.  1.
          2    1    1    2  502    0  0.14917734605E+02 -0.25856142063E+02  0.13999276936E+04  0.14002459163E+04  0.00000000000E+00 0.  1.
         -2    1    1    2    0  502 -0.14917734605E+02  0.25856142063E+02 -0.58172567726E+03  0.58249106644E+03  0.00000000000E+00 0.  1.
</event>
<event>
 4    1  0.5978476E+003  0.3199630E+02  0.7546771E-02  0.1403007E+00
          2   -1    0    0  501    0  0.00000000000E+00  0.00000000000E+00  0.54270556502E+03  0.54270556502E+03  0.00000000000E+00 0.  1.
         -2   -1    0    0    0  501 -0.00000000000E+00 -0.00000000000E+00 -0.33636049581E+01  0.33636049581E+01  0.00000000000E+00 0. -1.
          2    1    1    2  502    0 -0.31463549467E+02 -0.58145078481E+01  0.45061096702E+03  0.45174551137E+03  0.00000000000E+00 0.  1.
         -2    1    1    2    0  502  0.31463549467E+02  0.58145078481E+01  0.88730993045E+02  0.94323658608E+02  0.00000000000E+00 0. -1.
</event>
<event>
 4    1  0.5978476E+003  0.2631936E+02  0.7546771E-02  0.1454568E+00
          2   -1    0    0  501    0  0.00000000000E+00  0.00000000000E+00  0.75658349236E+03  0.75658349236E+03  0.00000000000E+00 0. -1.
         -2   -1    0    0    0  501 -0.00000000000E+00 -0.00000000000E+00 -0.15689686325E+01  0.15689686325E+01  0.00000000000E+00 0. -1.
          2    1    1    2  502    0 -0.25900566634E+02  0.46763896418E+01  0.13287862629E+03  0.13546009485E+03  0.00000000000E+00 0. -1.
         -2    1    1    2    0  502  0.25900566634E+02 -0.46763896418E+01  0.62213589744E+03  0.62269236615E+03  0.00000000000E+00 0. -1.
</event>
<event>
 4    1  0.5978476E+003  0.4735080E+02  0.7546771E-02  0.1310086E+00
          2   -1    0    0  501    0  0.00000000000E+00  0.00000000000E+00  0.11111064259E+01  0.11111064259E+01  0.00000000000E+00 0.  1.
         -2   -1    0    0    0  501 -0.00000000000E+00 -0.00000000000E+00 -0.20424409078E+04  0.20424409078E+04  0.00000000000E+00 0.  1.
          2    1    1    2  502    0  0.36859399184E+02  0.29723400135E+02 -0.11326790044E+04  0.11336683037E+04  0.00000000000E+00 0.  1.
         -2    1    1    2    0  502 -0.36859399184E+02 -0.29723400135E+02 -0.90865079692E+03  0.90988371047E+03  0.00000000000E+00 0.  1.
</event>
<event>
 4    1  0.5978476E+003  0.2307205E+02  0.7546771E-02  0.1491595E+00
          2   -1    0    0  501    0  0.00000000000E+00  0.00000000000E+00  0.17208019512E+02  0.17208019512E+02  0.00000000000E+00 0.  1.
         -2   -1    0    0    0  501 -0.00000000000E+00 -0.00000000000E+00 -0.38396146722E+02  0.38396146722E+02  0.00000000000E+00 0. -1.
          2    1    1    2  502    0 -0.20814103000E+02 -0.99545238259E+01  0.16620937093E+01  0.23131839179E+02  0.00000000000E+00 0.  1.
         -2    1    1    2    0  502  0.20814103000E+02  0.99545238259E+01 -0.22850220919E+02  0.32472327055E+02  0.00000000000E+00 0. -1.
</event>
<event>
 4    1  0.5978476E+003  0.4506100E+02  0.7546771E-02  0.1321135E+00
          2   -1    0    0  501    0  0.00000000000E+00  0.00000000000E+00  0.24547357842E+04  0.24547357842E+04  0.00000000000E+00 0. -1.
         -2   -1    0    0    0  501 -0.00000000000E+00 -0.00000000000E+00 -0.96477127623E+00  0.96477127623E+00  0.00000000000E+00 0. -1.
          2    1    1    2  502    0  0.62240326366E+01 -0.44629079521E+02  0.16905868342E+04  0.16911872567E+04  0.00000000000E+00 0. -1.
         -2    1    1    2    0  502 -0.62240326366E+01  0.44629079521E+02  0.76318417873E+03  0.76451329876E+03  0.00000000000E+00 0. -1.
</event>
<event>
 4    1  0.5978476E+003  0.2141948E+02  0.7546771E-02  0.1513359E+00
          2   -1    0    0  501    0  0.00000000000E+00  0.00000000000E+00  0.77227375762E+02  0.77227375762E+02  0.00000000000E+00 0. -1.
         -2   -1    0    0    0  501 -0.00000000000E+00 -0.00000000000E+00 -0.14425400982E+03  0.14425400982E+03  0.00000000000E+00 0. -1.
          2    1    1    2  502    0  0.77766553467E+01  0.19957903926E+02  0.74923080350E+02  0.77924721794E+02  0.00000000000E+00 0. -1.
         -2    1    1    2    0  502 -0.77766553467E+01 -0.19957903926E+02 -0.14194971441E+03  0.14355666379E+03  0.00000000000E+00 0. -1.
</event>
<event>
 4    1  0.5978476E+003  0.2360387E+02  0.7546771E-02  0.1485051E+00
          2   -1    0    0  501    0  0.00000000000E+00  0.00000000000E+00  0.34025576229E+03  0.34025576229E+03  0.00000000000E+00 0.  1.
         -2   -1    0    0    0  501 -0.00000000000E+00 -0.00000000000E+00 -0.27220630494E+01  0.27220630494E+01  0.00000000000E+00 0. -1.
          2    1    1    2  502    0 -0.13184268742E+02 -0.19578496679E+02  0.27701733568E+03  0.27802112643E+03  0.00000000000E+00 0.  1.
         -2    1    1    2    0  502  0.13184268742E+02  0.19578496679E+02  0.60516363555E+02  0.64956698904E+02  0.00000000000E+00 0. -1.
</event>
<event>
 4    1  0.5978476E+003  0.2462313E+02  0.7546771E-02  0.1473064E+00
          2   -1    0    0  501    0  0.00000000000E+00  0.00000000000E+00  0.35208362094E+03  0.35208362094E+03  0.00000000000E+00 0.  1.
         -2   -1    0    0    0  501 -0.00000000000E+00 -0.00000000000E+00 -0.17263699152E+01  0.17263699152E+01  0.00000000000E+00 0.  1.
          2    1    1    2  502    0  0.24431739257E+02  0.30639916292E+01  0.16630699817E+03  0.16811994400E+03  0.00000000000E+00 0.  1.
         -2    1    1    2    0  502 -0.24431739257E+02 -0.30639916292E+01  0.18405025285E+03  0.18569004686E+03  0.00000000000E+00 0.  1.
</event>
<event>
 4    1  0.5978476E+003  0.2132717E+02  0.7546771E-02  0.1514645E+00
          2   -1    0    0  501    0  0.00000000000E+00  0.00000000000E+00  0.57246212675E+02  0.57246212675E+02  0.00000000000E+00 0.  1.
         -2   -1    0    0    0  501 -0.00000000000E+00 -0.00000000000E+00 -0.86118063545E+02  0.86118063545E+02  0.00000000000E+00 0. -1.
          2    1    1    2  502    0 -0.20871431912E+02  0.43853945107E+01  0.53859414236E+02  0.57928273381E+02  0.00000000000E+00 0.  1.
         -2    1    1    2    0  502  0.20871431912E+02 -0.43853945107E+01 -0.82731265106E+02  0.85436002839E+02  0.00000000000E+00 0. -1.
</event>
<event>
 4    1  0.5978476E+003  0.3553116E+02  0.7546771E-02  0.1376867E+00
          2   -1    0    0  501    0  0.00000000000E+00  0.00000000000E+00  0.47562935321E+02  0.47562935321E+02  0.00000000000E+00 0.  1.
         -2   -1    0    0    0  501 -0.00000000000E+00 -0.00000000000E+00 -0.11444282169E+03  0.11444282169E+03  0.00000000000E+00 0.  1.
          2    1    1    2  502    0 -0.35021502167E+02 -0.59964847856E+01  0.37550542457E+02  0.51696292736E+02  0.00000000000E+00 0.  1.
         -2    1    1    2    0  502  0.35021502167E+02  0.59964847856E+01 -0.10443042883E+03  0.11030946428E+03  0.00000000000E+00 0.  1.
</event>
<event>
 4    1  0.5978476E+003  0.2962892E+02  0.7546771E-02  0.1422849E+00
          2   -1    0    0  501    0  0.00000000000E+00  0.00000000000E+00  0.81658896432E+03  0.81658896432E+03  0.00000000000E+00 0.  1.
         -2   -1    0    0    0  501 -0.00000000000E+00 -0.00000000000E+00 -0.39154816589E+01  0.39154816589E+01  0.00000000000E+00 0.  1.
          2    1    1    2  502    0 -0.27014018849E+02  0.12170273457E+02  0.75575905115E+03  0.75633961695E+03  0.00000000000E+00 0.  1.
         -2    1    1    2    0  502  0.27014018849E+02 -0.12170273457E+02  0.56914431519E+02  0.64164829038E+02  0.00000000000E+00 0.  1.
</event>
<event>
 4    1  0.5978476E+003  0.2809361E+02  0.7546771E-02  0.1436921E+00
          2   -1    0    0  501    0  0.00000000000E+00  0.00000000000E+00  0.10330276099E+03  0.10330276099E+03  0.00000000000E+00 0.  1.
         -2   -1    0    0    0  501 -0.00000000000E+00 -0.00000000000E+00 -0.27193819602E+02  0.27193819602E+02  0.00000000000E+00 0. -1.
          2    1    1    2  502    0  0.18789040787E+02  0.20885945008E+02  0.93382848099E+02  0.97517214233E+02  0.00000000000E+00 0.  1.
         -2    1    1    2    0  502 -0.18789040787E+02 -0.20885945008E+02 -0.17273906710E+02  0.32979366361E+02  0.00000000000E+00 0. -1.
</event>
<event>
 4    1  0.5978476E+003  0.2694880E+02  0.7546771E-02  0.1448123E+00
          2   -1    0    0  501    0  0.00000000000E+00  0.00000000000E+00  0.71696444926E+02  0.71696444926E+02  0.00000000000E+00 0. -1.
         -2   -1    0    0    0  501 -0.00000000000E+00 -0.00000000000E+00 -0.18591345253E+02  0.18591345253E+02  0.00000000000E+00 0. -1.
          2    1    1    2  502    0  0.19210991389E+01  0.26880235375E+02  0.57009068680E+02  0.63057684603E+02  0.00000000000E+00 0. -1.
         -2    1    1    2    0  502 -0.19210991389E+01 -0.26880235375E+02 -0.39039690067E+01  0.27230105576E+02  0.00000000000E+00 0. -1.
</event>
<event>
 4    1  0.5978476E+003  0.2177116E+02  0.7546771E-02  0.1508533E+00
          2   -1    0    0  501    0  0.00000000000E+00  0.00000000000E+00  0.33258099319E+03  0.33258099319E+03  0.00000000000E+00 0. -1.
         -2   -1    0    0    0  501 -0.00000000000E+00 -0.00000000000E+00 -0.15217301520E+03  0.15217301520E+03  0.00000000000E+00 0. -1.
          2    1    1    2  502    0 -0.14274526702E+02 -0.16438414539E+02  0.33144333950E+03  0.33215759947E+03  0.00000000000E+00 0. -1.
         -2    1    1    2    0  502  0.14274526702E+02  0.16438414539E+02 -0.15103536152E+03  0.15259640892E+03  0.00000000000E+00 0. -1.
</event>
<event>
 4    1  0.5978476E+003  0.2874284E+02  0.7546771E-02  0.1430845E+00
          2   -1    0    0  501    0  0.00000000000E+00  0.00000000000E+00  0.43645978751E+03  0.43645978751E+03  0.00000000000E+00 0. -1.
         -2   -1    0    0    0  501 -0.00000000000E+00 -0.00000000000E+00 -0.26089668139E+01  0.26089668139E+01  0.00000000000E+00 0. -1.
          2    1    1    2  502    0  0.10636790000E+02 -0.26702233949E+02  0.33194234767E+03  0.33318444258E+03  0.00000000000E+00 0. -1.
         -2    1    1    2    0  502 -0.10636790000E+02  0.26702233949E+02  0.10190847302E+03  0.10588431174E+03  0.00000000000E+00 0. -1.
</event>
<event>
 4    1  0.5978476E+003  0.6614332E+02  0.7546771E-02  0.1240276E+00
          2   -1    0    0  501    0  0.00000000000E+00  0.00000000000E+00  0.83919790964E+03  0.83919790964E+03  0.00000000000E+00 0. -1.
         -2   -1    0    0    0  501 -0.00000000000E+00 -0.00000000000E+00 -0.23930195574E+03  0.23930195574E+03  0.00000000000E+00 0.  1.
          2    1    1    2  502    0 -0.62426324533E+02 -0.21860771324E+02  0.83329173406E+03  0.83591270679E+03  0.00000000000E+00 0. -1.
         -2    1    1    2    0  502  0.62426324533E+02  0.21860771324E+02 -0.23339578016E+03  0.24258715859E+03  0.00000000000E+00 0.  1.
</event>
<event>
 4    1  0.5978476E+003  0.2150699E+02  0.7546771E-02  0.1512148E+00
          2   -1    0    0  501    0  0.00000000000E+00  0.00000000000E+00  0.13340378375E+03  0.13340378375E+03  0.00000000000E+00 0. -1.
         -2   -1    0    0    0  501 -0.00000000000E+00 -0.00000000000E+00 -0.46375980005E+01  0.46375980005E+01  0.00000000000E+00 0. -1.
          2    1    1    2  502    0  0.21461477576E+02 -0.13984164021E+01  0.99055298696E+02  0.10136322207E+03  0.00000000000E+00 0. -1.
         -2    1    1    2    0  502 -0.21461477576E+02  0.13984164021E+01  0.29710887052E+02  0.36678159682E+02  0.00000000000E+00 0. -1.
</event>
<event>
 4    1  0.5978476E+003  0.2356649E+02  0.7546771E-02  0.1485505E+00
          2   -1    0    0  501    0  0.00000000000E+00  0.00000000000E+00  0.29752517959E+03  0.29752517959E+03  0.00000000000E+00 0.  1.
         -2   -1    0    0    0  501 -0.00000000000E+00 -0.00000000000E+00 -0.20686763066E+01  0.20686763066E+01  0.00000000000E+00 0.  1.
          2    1    1    2  502    0  0.31095241779E+01  0.23360444067E+02  0.19453901748E+03  0.19596124313E+03  0.00000000000E+00 0.  1.
         -2    1    1    2    0  502 -0.31095241779E+01 -0.23360444067E+02  0.10091748581E+03  0.10363261277E+03  0.00000000000E+00 0.  1.
</event>
<event>
 4    1  0.5978476E+003  0.5113580E+02  0.7546771E-02  0.1293322E+00
          2   -1    0    0  501    0  0.00000000000E+00  0.00000000000E+00  0.20687536451E+04  0.20687536451E+04  0.00000000000E+00 0. -1.
         -2   -1    0    0    0  501 -0.00000000000E+00 -0.00000000000E+00 -0.91743353868E+02  0.91743353868E+02  0.00000000000E+00 0.  1.
          2    1    1    2  502    0 -0.22987428446E+02 -0.45677658416E+02  0.20612863366E+04  0.20619205202E+04  0.00000000000E+00 0. -1.
         -2    1    1    2    0  502  0.22987428446E+02  0.45677658416E+02 -0.84276045341E+02  0.98576478752E+02  0.00000000000E+00 0.  1.
</event>
<event>
 4    1  0.5978476E+003  0.2398065E+02  0.7546771E-02  0.1480538E+00
          2   -1    0    0  501    0  0.00000000000E+00  0.00000000000E+00  0.76742717265E+02  0.76742717265E+02  0.00000000000E+00 0.  1.
         -2   -1    0    0    0  501 -0.00000000000E+00 -0.00000000000E+00 -0.29934238180E+02  0.29934238180E+02  0.00000000000E+00 0. -1.
          2    1    1    2  502    0 -0.93894872224E+01 -0.22066016974E+02  0.69586488512E+02  0.73602655922E+02  0.00000000000E+00 0.  1.
         -2    1    1    2    0  502  0.93894872224E+01  0.22066016974E+02 -0.22778009427E+02  0.33074299522E+02  0.00000000000E+00 0. -1.
</event>
<event>
 4    1  0.5978476E+003  0.2590465E+02  0.7546771E-02  0.1458933E+00
          2   -1    0    0  501    0  0.00000000000E+00  0.00000000000E+00  0.30330633520E+01  0.30330633520E+01  0.00000000000E+00 0.  1.
         -2   -1    0    0    0  501 -0.00000000000E+00 -0.00000000000E+00 -0.31314694149E+03  0.31314694149E+03  0.00000000000E+00 0. -1.
          2    1    1    2  502    0  0.24267087067E+02 -0.90641703292E+01 -0.69413874972E+02  0.74090058288E+02  0.00000000000E+00 0.  1.
         -2    1    1    2    0  502 -0.24267087067E+02  0.90641703292E+01 -0.24070000316E+03  0.24208994655E+03  0.00000000000E+00 0. -1.
</event>
<event>
 4    1  0.5978476E+003  0.2112157E+02  0.7546771E-02  0.1517536E+00
          2   -1    0    0  501    0  0.00000000000E+00  0.00000000000E+00  0.76591361785E+03  0.76591361785E+03  0.00000000000E+00 0.  1.
         -2   -1    0    0    0  501 -0.00000000000E+00 -0.00000000000E+00 -0.15184605108E+01  0.15184605108E+01  0.00000000000E+00 0. -1.
          2    1    1    2  502    0 -0.18613207206E+02 -0.99834437611E+01  0.68345950576E+03  0.68378579734E+03  0.00000000000E+00 0.  1.
         -2    1    1    2    0  502  0.18613207206E+02  0.99834437611E+01  0.80935651577E+02  0.83646281017E+02  0.00000000000E+00 0. -1.
</event>
<event>
 4    1  0.5978476E+003  0.7192392E+02  0.7546771E-02  0.1223950E+00
          2   -1    0    0  501    0  0.00000000000E+00  0.00000000000E+00  0.31491998803E+03  0.31491998803E+03  0.00000000000E+00 0.  1.
         -2   -1    0    0    0  501 -0.00000000000E+00 -0.00000000000E+00 -0.35450322263E+02  0.35450322263E+02  0.00000000000E+00 0. -1.
          2    1    1    2  502    0  0.70201297201E+02 -0.15646993449E+02  0.26806698263E+03  0.27754811783E+03  0.00000000000E+00 0.  1.
         -2    1    1    2    0  502 -0.70201297201E+02  0.15646993449E+02  0.11402683136E+02  0.72822192465E+02  0.00000000000E+00 0. -1.
</event>
<event>
 4    1  0.5978476E+003  0.2559005E+02  0.7546771E-02  0.1462310E+00
          2   -1    0    0  501    0  0.00000000000E+00  0.00000000000E+00  0.30506267365E+03  0.30506267365E+03  0.00000000000E+00 0.  1.
         -2   -1    0    0    0  501 -0.00000000000E+00 -0.00000000000E+00 -0.33832833710E+02  0.33832833710E+02  0.00000000000E+00 0.  1.
          2    1    1    2  502    0 -0.13020561545E+01  0.25556904243E+02  0.29959906813E+03  0.30068996047E+03  0.00000000000E+00 0.  1.
         -2    1    1    2    0  502  0.13020561545E+01 -0.25556904243E+02 -0.28369228191E+02  0.38205546886E+02  0.00000000000E+00 0.  1.
</event>
<event>
 4    1  0.5978476E+003  0.2187980E+02  0.7546771E-02  0.1507065E+00
          2   -1    0    0  501    0  0.00000000000E+00  0.00000000000E+00  0.33382643964E+03  0.33382643964E+03  0.00000000000E+00 0.  1.
         -2   -1    0    0    0  501 -0.00000000000E+00 -0.00000000000E+00 -0.31333014380E+01  0.31333014380E+01  0.00000000000E+00 0. -1.
          2    1    1    2  502    0  0.31646394530E+00 -0.21877514755E+02  0.28941891402E+03  0.29024478220E+03  0.00000000000E+00 0.  1.
         -2    1    1    2    0  502 -0.31646394530E+00  0.21877514755E+02  0.41274224186E+02  0.46714958882E+02  0.00000000000E+00 0. -1.
</event>
<event>
 4    1  0.5978476E+003  0.2024360E+02  0.7546771E-02  0.1530344E+00
          2   -1    0    0  501    0  0.00000000000E+00  0.00000000000E+00  0.40365806235E+01  0.40365806235E+01  0.00000000000E+00 0.  1.
         -2   -1    0    0    0  501 -0.00000000000E+00 -0.00000000000E+00 -0.11963179863E+03  0.11963179863E+03  0.00000000000E+00 0.  1.
          2    1    1    2  502    0 -0.17956356735E+02  0.93473339589E+01 -0.33739735715E+02  0.39346831707E+02  0.00000000000E+00 0.  1.
         -2    1    1    2    0  502  0.17956356735E+02 -0.93473339589E+01 -0.81855482289E+02  0.84321547543E+02  0.00000000000E+00 0.  1.
</event>
<event>
 4    1  0.5978476E+003  0.3275296E+02  0.7546771E-02  0.1397088E+00
          2   -1    0    0  501    0  0.00000000000E+00  0.00000000000E+00  0.51993498096E+01  0.51993498096E+01  0.00000000000E+00 0. -1.
         -2   -1    0    0    0  501 -0.00000000000E+00 -0.00000000000E+00 -0.22961128820E+03  0.22961128820E+03  0.00000000000E+00 0. -1.
          2    1    1    2  502    0 -0.24956155386E+02 -0.21211943753E+02 -0.74817251375E+02  0.81672378151E+02  0.00000000000E+00 0. -1.
         -2    1    1    2    0  502  0.24956155386E+02  0.21211943753E+02 -0.14959468701E+03  0.15313825985E+03  0.00000000000E+00 0. -1.
</event>
<event>
 4    1  0.5978476E+003  0.3085388E+02  0.7546771E-02  0.1412318E+00
          2   -1    0    0  501    0  0.00000000000E+00  0.00000000000E+00  0.35644588125E+03  0.35644588125E+03  0.00000000000E+00 0. -1.
         -2   -1    0    0    0  501 -0.00000000000E+00 -0.00000000000E+00 -0.46953812932E+01  0.46953812932E+01  0.00000000000E+00 0. -1.
          2    1    1    2  502    0 -0.99480462105E+01  0.29206135323E+02  0.29444923952E+03  0.29606133928E+03  0.00000000000E+00 0. -1.
         -2    1    1    2    0  502  0.99480462105E+01 -0.29206135323E+02  0.57301260433E+02  0.65079923257E+02  0.00000000000E+00 0. -1.
</event>
<event>
 4    1  0.5978476E+003  0.4393950E+02  0.7546771E-02  0.1326828E+00
          2   -1    0    0  501    0  0.00000000000E+00  0.00000000000E+00  0.21429514256E+04  0.21429514256E+04  0.00000000000E+00 0.  1.
         -2   -1    0    0    0  501 -0.00000000000E+00 -0.00000000000E+00 -0.17172706587E+02  0.17172706587E+02  0.00000000000E+00 0. -1.
          2    1    1    2  502    0  0.16578385086E+02 -0.40691974282E+02  0.21142377043E+04  0.21146942450E+04  0.00000000000E+00 0.  1.
         -2    1    1    2    0  502 -0.16578385086E+02  0.40691974282E+02  0.11541014645E+02  0.45429887102E+02  0.00000000000E+00 0. -1.
</event>
<event>
 4    1  0.5978476E+003  0.2582178E+02  0.7546771E-02  0.1459817E+00
          2   -1    0    0  501    0  0.00000000000E+00  0.00000000000E+00  0.44434835477E+03  0.44434835477E+03  0.00000000000E+00 0. -1.
         -2   -1    0    0    0  501 -0.00000000000E+00 -0.00000000000E+00 -0.26628760863E+01  0.26628760863E+01  0.00000000000E+00 0. -1.
          2    1    1    2  502    0  0.10503671489E+01  0.25800404199E+02  0.36850792919E+03  0.36941150226E+03  0.00000000000E+00 0. -1.
         -2    1    1    2    0  502 -0.10503671489E+01 -0.25800404199E+02  0.73177549497E+02  0.77599728597E+02  0.00000000000E+00 0. -1.
</event>
<event>
 4    1  0.5978476E+003  0.5903205E+02  0.7546771E-02  0.1263157E+00
          2   -1    0    0  501    0  0.00000000000E+00  0.00000000000E+00  0.19247266010E+04  0.19247266010E+04  0.00000000000E+00 0.  1.
         -2   -1    0    0    0  501 -0.00000000000E+00 -0.00000000000E+00 -0.19382522123E+01  0.19382522123E+01  0.00000000000E+00 0. -1.
          2    1    1    2  502    0 -0.46069360590E+02 -0.36910666293E+02  0.12086788299E+04  0.12101195383E+04  0.00000000000E+00 0.  1.
         -2    1    1    2    0  502  0.46069360590E+02  0.36910666293E+02  0.71410951890E+03  0.71654531486E+03  0.00000000000E+00 0. -1.
</event>
<event>
 4    1  0.5978476E+003  0.2334280E+02  0.7546771E-02  0.1488238E+00
          2   -1    0    0  501    0  0.00000000000E+00  0.00000000000E+00  0.57956048638E+03  0.57956048638E+03  0.00000000000E+00 0. -1.
         -2   -1    0    0    0  501 -0.00000000000E+00 -0.00000000000E+00 -0.12145876374E+01  0.12145876374E+01  0.00000000000E+00 0.  1.
          2    1    1    2  502    0 -0.18810065189E+02  0.13822720700E+02  0.42720136214E+03  0.42783862609E+03  0.00000000000E+00 0. -1.
         -2    1    1    2    0  502  0.18810065189E+02 -0.13822720700E+02  0.15114453661E+03  0.15293644793E+03  0.00000000000E+00 0.  1.
</event>
<event>
 4    1  0.5978476E+003  0.3833699E+02  0.7546771E-02  0.1358516E+00
          2   -1    0    0  501    0  0.00000000000E+00  0.00000000000E+00  0.38733554961E+02  0.38733554961E+02  0.00000000000E+00 0.  1.
         -2   -1    0    0    0  501 -0.00000000000E+00 -0.00000000000E+00 -0.50418924254E+03  0.50418924254E+03  0.00000000000E+00 0. -1.
          2    1    1    2  502    0 -0.38103892459E+02 -0.42211742387E+01  0.28318896236E+02  0.47662194835E+02  0.00000000000E+00 0.  1.
         -2    1    1    2    0  502  0.38103892459E+02  0.42211742387E+01 -0.49377458382E+03  0.49526060267E+03  0.00000000000E+00 0. -1.
</event>
<event>
 4    1  0.5978476E+003  0.4104002E+02  0.7546771E-02  0.1342497E+00
          2   -1    0    0  501    0  0.00000000000E+00  0.00000000000E+00  0.43596370325E+03  0.43596370325E+03  0.00000000000E+00 0.  1.
         -2   -1    0    0    0  501 -0.00000000000E+00 -0.00000000000E+00 -0.14253839223E+03  0.14253839223E+03  0.00000000000E+00 0.  1.
          2    1    1    2  502    0 -0.41039951897E+02  0.76496755122E-01  0.43201684893E+03  0.43396179701E+03  0.00000000000E+00 0.  1.
         -2    1    1    2    0  502  0.41039951897E+02 -0.76496755122E-01 -0.13859153791E+03  0.14454029848E+03  0.00000000000E+00 0.  1.
</event>
<event>
 4    1  0.5978476E+003  0.2805859E+02  0.7546771E-02  0.1437255E+00
          2   -1    0    0  501    0  0.00000000000E+00  0.00000000000E+00  0.23330581892E+03  0.23330581892E+03  0.00000000000E+00 0.  1.
         -2   -1    0    0    0  501 -0.00000000000E+00 -0.00000000000E+00 -0.57344360964E+01  0.57344360964E+01  0.00000000000E+00 0. -1.
          2    1    1    2  502    0  0.27128028344E+02  0.71662211214E+01  0.19045969016E+03  0.19251539737E+03  0.00000000000E+00 0.  1.
         -2    1    1    2    0  502 -0.27128028344E+02 -0.71662211214E+01  0.37111692660E+02  0.46524857648E+02  0.00000000000E+00 0. -1.
</event>
<event>
 4    1  0.5978476E+003  0.2393118E+02  0.7546771E-02  0.1481125E+00
          2   -1    0    0  501    0  0.00000000000E+00  0.00000000000E+00  0.30842387476E+02  0.30842387476E+02  0.00000000000E+00 0.  1.
         -2   -1    0    0    0  501 -0.00000000000E+00 -0.00000000000E+00 -0.27834939715E+03  0.27834939715E+03  0.00000000000E+00 0.  1.
          2    1    1    2  502    0  0.23606657273E+02  0.39277184195E+01  0.25596862657E+02  0.35041412892E+02  0.00000000000E+00 0.  1.
         -2    1    1    2    0  502 -0.23606657273E+02 -0.39277184195E+01 -0.27310387233E+03  0.27415037174E+03  0.00000000000E+00 0.  1.
</event>
<event>
 4    1  0.5978476E+003  0.2157143E+02  0.7546771E-02  0.1511260E+00
          2   -1    0    0  501    0  0.00000000000E+00  0.00000000000E+00  0.41549768500E+01  0.41549768500E+01  0.00000000000E+00 0. -1.
         -2   -1    0    0    0  501 -0.00000000000E+00 -0.00000000000E+00 -0.11632504515E+03  0.11632504515E+03  0.00000000000E+00 0. -1.
          2    1    1    2  502    0  0.15030426863E+02 -0.15472976507E+02 -0.44459468844E+02  0.49416304026E+02  0.00000000000E+00 0. -1.
         -2    1    1    2    0  502 -0.15030426863E+02  0.15472976507E+02 -0.67710599454E+02  0.71063717972E+02  0.00000000000E+00 0. -1.
</event>
<event>
 4    1  0.5978476E+003  0.2044201E+02  0.7546771E-02  0.1527383E+00
          2   -1    0    0  501    0  0.00000000000E+00  0.00000000000E+00  0.14660697342E+04  0.14660697342E+04  0.00000000000E+00 0.  1.
         -2   -1    0    0    0  501 -0.00000000000E+00 -0.00000000000E+00 -0.61298344213E+00  0.61298344213E+00  0.00000000000E+00 0.  1.
          2    1    1    2  502    0  0.76596907318E-01 -0.20441869119E+02  0.12691261778E+04  0.12692907985E+04  0.00000000000E+00 0.  1.
         -2    1    1    2    0  502 -0.76596907318E-01  0.20441869119E+02  0.19633057299E+03  0.19739191921E+03  0.00000000000E+00 0.  1.
</event>
<event>
 4    1  0.5978476E+003  0.3447136E+02  0.7546771E-02  0.1384318E+00
          2   -1    0    0  501    0  0.00000000000E+00  0.00000000000E+00  0.11290603143E+03  0.11290603143E+03  0.00000000000E+00 0. -1.
         -2   -1    0    0    0  501 -0.00000000000E+00 -0.00000000000E+00 -0.14228726002E+02  0.14228726002E+02  0.00000000000E+00 0. -1.
          2    1    1    2  502    0  0.16497889164E+02 -0.30267046116E+02  0.81772814671E+02  0.88741577891E+02  0.00000000000E+00 0. -1.
         -2    1    1    2    0  502 -0.16497889164E+02  0.30267046116E+02  0.16904490757E+02  0.38393179541E+02  0.00000000000E+00 0. -1.
</event>
<event>
 4    1  0.5978476E+003  0.2050531E+02  0.7546771E-02  0.1526446E+00
          2   -1    0    0  501    0  0.00000000000E+00  0.00000000000E+00  0.15128079378E+03  0.15128079378E+03  0.00000000000E+00 0.  1.
         -2   -1    0    0    0  501 -0.00000000000E+00 -0.00000000000E+00 -0.27411818836E+03  0.27411818836E+03  0.00000000000E+00 0. -1.
          2    1    1    2  502    0  0.27532433528E+01 -0.20319625604E+02  0.15019972743E+03  0.15159296043E+03  0.00000000000E+00 0.  1.
         -2    1    1    2    0  502 -0.27532433528E+01  0.20319625604E+02 -0.27303712200E+03  0.27380602171E+03  0.00000000000E+00 0. -1.
</event>
<event>
 4    1  0.5978476E+003  0.2165514E+02  0.7546771E-02  0.1510113E+00
          2   -1    0    0  501    0  0.00000000000E+00  0.00000000000E+00  0.19210631083E+02  0.19210631083E+02  0.00000000000E+00 0.  1.
         -2   -1    0    0    0  501 -0.00000000000E+00 -0.00000000000E+00 -0.11672104150E+03  0.11672104150E+03  0.00000000000E+00 0.  1.
          2    1    1    2  502    0 -0.17316215484E+02  0.13003600788E+02  0.11687134420E+02  0.24607601734E+02  0.00000000000E+00 0.  1.
         -2    1    1    2    0  502  0.17316215484E+02 -0.13003600788E+02 -0.10919754484E+03  0.11132407085E+03  0.00000000000E+00 0.  1.
</event>
<event>
 4    1  0.5978476E+003  0.3309424E+02  0.7546771E-02  0.1394480E+00
          2   -1    0    0  501    0  0.00000000000E+00  0.00000000000E+00  0.15065101878E+02  0.15065101878E+02  0.00000000000E+00 0. -1.
         -2   -1    0    0    0  501 -0.00000000000E+00 -0.00000000000E+00 -0.11489952385E+03  0.11489952385E+03  0.00000000000E+00 0. -1.
          2    1    1    2  502    0 -0.16755788547E+02 -0.28538958365E+02 -0.10535797620E+02  0.34730845452E+02  0.00000000000E+00 0. -1.
         -2    1    1    2    0  502  0.16755788547E+02  0.28538958365E+02 -0.89298624357E+02  0.95233780280E+02  0.00000000000E+00 0. -1.
</event>
<event>
 4    1  0.5978476E+003  0.2830621E+02  0.7546771E-02  0.1434910E+00
          2   -1    0    0  501    0  0.00000000000E+00  0.00000000000E+00  0.31315639419E+03  0.31315639419E+03  0.00000000000E+00 0. -1.
         -2   -1    0    0    0  501 -0.00000000000E+00 -0.00000000000E+00 -0.15336796157E+03  0.15336796157E+03  0.00000000000E+00 0. -1.
          2    1    1    2  502    0 -0.13370551716E+02  0.24949348741E+02  0.31120248370E+03  0.31248716376E+03  0.00000000000E+00 0. -1.
         -2    1    1    2    0  502  0.13370551716E+02 -0.24949348741E+02 -0.15141405108E+03  0.15403719200E+03  0.00000000000E+00 0. -1.
</event>
<event>
 4    1  0.5978476E+003  0.4244803E+02  0.7546771E-02  0.1334708E+00
          2   -1    0    0  501    0  0.00000000000E+00  0.00000000000E+00  0.23075313531E+04  0.23075313531E+04  0.00000000000E+00 0.  1.
         -2   -1    0    0    0  501 -0.00000000000E+00 -0.00000000000E+00 -0.88325857962E+01  0.88325857962E+01  0.00000000000E+00 0. -1.
          2    1    1    2  502    0 -0.42151870928E+01 -0.42238217907E+02  0.22551520604E+04  0.22555515180E+04  0.00000000000E+00 0.  1.
         -2    1    1    2    0  502  0.42151870928E+01  0.42238217907E+02  0.43546706958E+02  0.60812420944E+02  0.00000000000E+00 0. -1.
</event>
<event>
 4    1  0.7344049E+003  0.3179585E+02  0.7546771E-02  0.1404607E+00
          2   -1    0    0  501    0  0.00000000000E+00  0.00000000000E+00  0.91194628190E+03  0.91194628190E+03  0.00000000000E+00 0. -1.
         -2   -1    0    0    0  501 -0.00000000000E+00 -0.00000000000E+00 -0.24024855583E+03  0.24024855583E+03  0.00000000000E+00 0.  1.
          2    1    1    2  502    0 -0.15283285655E+02 -0.27881847366E+02  0.91061558636E+03  0.91117052320E+03  0.00000000000E+00 0. -1.
         -2    1    1    2    0  502  0.15283285655E+02  0.27881847366E+02 -0.23891786028E+03  0.24102431453E+03  0.00000000000E+00 0.  1.
</event>
<event>
 4    1  0.5978476E+003  0.2048545E+02  0.7546771E-02  0.1526740E+00
          2   -1    0    0  501    0  0.00000000000E+00  0.00000000000E+00  0.82998759225E+02  0.82998759225E+02  0.00000000000E+00 0. -1.
         -2   -1    0    0    0  501 -0.00000000000E+00 -0.00000000000E+00 -0.71172734323E+01  0.71172734323E+01  0.00000000000E+00 0. -1.
          2    1    1    2  502    0 -0.33950131362E+01  0.20202163410E+02  0.62188304726E+02  0.65475482169E+02  0.00000000000E+00 0. -1.
         -2    1    1    2    0  502  0.33950131362E+01 -0.20202163410E+02  0.13693181067E+02  0.24640550489E+02  0.00000000000E+00 0. -1.
</event>
<event>
 4    1  0.5978476E+003  0.2196874E+02  0.7546771E-02  0.1505870E+00
          2   -1    0    0  501    0  0.00000000000E+00  0.00000000000E+00  0.15331744789E+04  0.15331744789E+04  0.00000000000E+00 0. -1.
         -2   -1    0    0    0  501 -0.00000000000E+00 -0.00000000000E+00 -0.32530753609E+01  0.32530753609E+01  0.00000000000E+00 0. -1.
          2    1    1    2  502    0  0.11821213772E+02  0.18517137059E+02  0.14950603467E+04  0.14952217447E+04  0.00000000000E+00 0. -1.
         -2    1    1    2    0  502 -0.11821213772E+02 -0.18517137059E+02  0.34861056825E+02  0.41205809576E+02  0.00000000000E+00 0. -1.
</event>
<event>
 4    1  0.5978476E+003  0.4815489E+02  0.7546771E-02  0.1306377E+00
          2   -1    0    0  501    0  0.00000000000E+00  0.00000000000E+00  0.12018423230E+04  0.12018423230E+04  0.00000000000E+00 0. -1.
         -2   -1    0    0    0  501 -0.00000000000E+00 -0.00000000000E+00 -0.15986244757E+02  0.15986244757E+02  0.00000000000E+00 0.  1.
          2    1    1    2  502    0  0.96544864604E+01  0.47177163979E+02  0.11639148734E+04  0.11649106088E+04  0.00000000000E+00 0. -1.
         -2    1    1    2    0  502 -0.96544864604E+01 -0.47177163979E+02  0.21941204793E+02  0.52917958933E+02  0.00000000000E+00 0.  1.
</event>
<event>
 4    1  0.5978476E+003  0.2032068E+02  0.7546771E-02  0.1529189E+00
          2   -1    0    0  501    0  0.00000000000E+00  0.00000000000E+00  0.91639777314E+01  0.91639777314E+01  0.00000000000E+00 0.  1.
         -2   -1    0    0    0  501 -0.00000000000E+00 -0.00000000000E+00 -0.49347133766E+02  0.49347133766E+02  0.00000000000E+00 0. -1.
          2    1    1    2  502    0  0.26975944404E+01  0.20140832251E+02 -0.11468671026E+02  0.23333678549E+02  0.00000000000E+00 0.  1.
         -2    1    1    2    0  502 -0.26975944404E+01 -0.20140832251E+02 -0.28714485009E+02  0.35177432948E+02  0.00000000000E+00 0. -1.
</event>
<event>
 4    1  0.5978476E+003  0.2374605E+02  0.7546771E-02  0.1483337E+00
          2   -1    0    0  501    0  0.00000000000E+00  0.00000000000E+00  0.56776927309E+02  0.56776927309E+02  0.00000000000E+00 0.  1.
         -2   -1    0    0    0  501 -0.00000000000E+00 -0.00000000000E+00 -0.26987036655E+02  0.26987036655E+02  0.00000000000E+00 0. -1.
          2    1    1    2  502    0  0.86444950492E+01 -0.22116676160E+02  0.48190291174E+02  0.53723168396E+02  0.00000000000E+00 0.  1.
         -2    1    1    2    0  502 -0.86444950492E+01  0.22116676160E+02 -0.18400400521E+02  0.30040795568E+02  0.00000000000E+00 0. -1.
</event>
<event>
 4    1  0.5978476E+003  0.2498751E+02  0.7546771E-02  0.1468943E+00
          2   -1    0    0  501    0  0.00000000000E+00  0.00000000000E+00  0.16301466132E+03  0.16301466132E+03  0.00000000000E+00 0. -1.
         -2   -1    0    0    0  501 -0.00000000000E+00 -0.00000000000E+00 -0.18088694513E+03  0.18088694513E+03  0.00000000000E+00 0.  1.
          2    1    1    2  502    0  0.24244666426E+02  0.60474533909E+01  0.16118443977E+03  0.16310977643E+03  0.00000000000E+00 0. -1.
         -2    1    1    2    0  502 -0.24244666426E+02 -0.60474533909E+01 -0.17905672359E+03  0.18079183003E+03  0.00000000000E+00 0.  1.
</event>
<event>
 4    1  0.5978476E+003  0.2427282E+02  0.7546771E-02  0.1477105E+00
          2   -1    0    0  501    0  0.00000000000E+00  0.00000000000E+00  0.14469446078E+03  0.14469446078E+03  0.00000000000E+00 0. -1.
         -2   -1    0    0    0  501 -0.00000000000E+00 -0.00000000000E+00 -0.12351703505E+02  0.12351703505E+02  0.00000000000E+00 0.  1.
          2    1    1    2  502    0  0.19683126419E+02 -0.14203679680E+02  0.13046175808E+03  0.13270056633E+03  0.00000000000E+00 0. -1.
         -2    1    1    2    0  502 -0.19683126419E+02  0.14203679680E+02  0.18809991979E+01  0.24345597961E+02  0.00000000000E+00 0.  1.
</event>
<event>
 4    1  0.5978476E+003  0.2741656E+02  0.7546771E-02  0.1443468E+00
          2   -1    0    0  501    0  0.00000000000E+00  0.00000000000E+00  0.53257368652E+03  0.53257368652E+03  0.00000000000E+00 0.  1.
         -2   -1    0    0    0  501 -0.00000000000E+00 -0.00000000000E+00 -0.16408261196E+03  0.16408261196E+03  0.00000000000E+00 0.  1.
          2    1    1    2  502    0 -0.25805763422E+02 -0.92590813205E+01  0.53107234560E+03  0.53177956361E+03  0.00000000000E+00 0.  1.
         -2    1    1    2    0  502  0.25805763422E+02  0.92590813205E+01 -0.16258127103E+03  0.16487673488E+03  0.00000000000E+00 0.  1.
</event>
<event>
 4    1  0.5978476E+003  0.4812574E+02  0.7546771E-02  0.1306510E+00
          2   -1    0    0  501    0  0.00000000000E+00  0.00000000000E+00  0.49803657871E+03  0.49803657871E+03  0.00000000000E+00 0.  1.
         -2   -1    0    0    0  501 -0.00000000000E+00 -0.00000000000E+00 -0.23414072491E+02  0.23414072491E+02  0.00000000000E+00 0.  1.
          2    1    1    2  502    0 -0.33807252372E+02 -0.34251369020E+02  0.47071254710E+03  0.47316634347E+03  0.00000000000E+00 0.  1.
         -2    1    1    2    0  502  0.33807252372E+02  0.34251369020E+02  0.39099591140E+01  0.48284307730E+02  0.00000000000E+00 0.  1.
</event>
<event>
 4    1  0.5978476E+003  0.2133379E+02  0.7546771E-02  0.1514552E+00
          2   -1    0    0  501    0  0.00000000000E+00  0.00000000000E+00  0.35909446888E+02  0.35909446888E+02  0.00000000000E+00 0.  1.
         -2   -1    0    0    0  501 -0.00000000000E+00 -0.00000000000E+00 -0.14937725795E+02  0.14937725795E+02  0.00000000000E+00 0.  1.
          2    1    1    2  502    0  0.97054736147E+01  0.18998277304E+02  0.20382048502E+02  0.29505231057E+02  0.00000000000E+00 0.  1.
         -2    1    1    2    0  502 -0.97054736147E+01 -0.18998277304E+02  0.58967259217E+00  0.21341941626E+02  0.00000000000E+00 0.  1.
</event>
<event>
 4    1  0.5978476E+003  0.3137119E+02  0.7546771E-02  0.1408044E+00
          2   -1    0    0  501    0  0.00000000000E+00  0.00000000000E+00  0.44409597724E+03  0.44409597724E+03  0.00000000000E+00 0.  1.
         -2   -1    0    0    0  501 -0.00000000000E+00 -0.00000000000E+00 -0.77346397917E+01  0.77346397917E+01  0.00000000000E+00 0. -1.
          2    1    1    2  502    0  0.22765463078E+02  0.21584374939E+02  0.40900710903E+03  0.41020844310E+03  0.00000000000E+00 0.  1.
         -2    1    1    2    0  502 -0.22765463078E+02 -0.21584374939E+02  0.27354228415E+02  0.41622173932E+02  0.00000000000E+00 0. -1.
</event>
<event>
 4    1  0.8054238E+003  0.2118523E+02  0.7546771E-02  0.1516637E+00
          2   -1    0    0  501    0  0.00000000000E+00  0.00000000000E+00  0.13157128280E+04  0.13157128280E+04  0.00000000000E+00 0. -1.
         -2   -1    0    0    0  501 -0.00000000000E+00 -0.00000000000E+00 -0.49787006691E+03  0.49787006691E+03  0.00000000000E+00 0. -1.
          2    1    1    2  502    0 -0.18288929962E+02  0.10692482295E+02  0.13154021280E+04  0.13155727166E+04  0.00000000000E+00 0. -1.
         -2    1    1    2    0  502  0.18288929962E+02 -0.10692482295E+02 -0.49755936692E+03  0.49801017836E+03  0.00000000000E+00 0. -1.
</event>
<event>
 4    1  0.5978476E+003  0.2238884E+02  0.7546771E-02  0.1500318E+00
          2   -1    0    0  501    0  0.00000000000E+00  0.00000000000E+00  0.11347353535E+04  0.11347353535E+04  0.00000000000E+00 0. -1.
         -2   -1    0    0    0  501 -0.00000000000E+00 -0.00000000000E+00 -0.82774220502E+01  0.82774220502E+01  0.00000000000E+00 0. -1.
          2    1    1    2  502    0  0.21961338416E+02 -0.43542875253E+01  0.11192764596E+04  0.11195003588E+04  0.00000000000E+00 0. -1.
         -2    1    1    2    0  502 -0.21961338416E+02  0.43542875253E+01  0.71814718055E+01  0.23512416766E+02  0.00000000000E+00 0. -1.
</event>
<event>
 4    1  0.5978476E+003  0.2901302E+02  0.7546771E-02  0.1428371E+00
          2   -1    0    0  501    0  0.00000000000E+00  0.00000000000E+00  0.31461670385E+03  0.31461670385E+03  0.00000000000E+00 0. -1.
         -2   -1    0    0    0  501 -0.00000000000E+00 -0.00000000000E+00 -0.20920437489E+02  0.20920437489E+02  0.00000000000E+00 0. -1.
          2    1    1    2  502    0  0.21281181584E+02  0.19719700898E+02  0.30352196941E+03  0.30490546274E+03  0.00000000000E+00 0. -1.
         -2    1    1    2    0  502 -0.21281181584E+02 -0.19719700898E+02 -0.98257030541E+01  0.30631678596E+02  0.00000000000E+00 0. -1.
</event>
<event>
 4    1  0.5978476E+003  0.2121543E+02  0.7546771E-02  0.1516211E+00
          2   -1    0    0  501    0  0.00000000000E+00  0.00000000000E+00  0.14338644731E+02  0.14338644731E+02  0.00000000000E+00 0.  1.
         -2   -1    0    0    0  501 -0.00000000000E+00 -0.00000000000E+00 -0.17196452081E+03  0.17196452081E+03  0.00000000000E+00 0.  1.
          2    1    1    2  502    0 -0.15473264439E+02  0.14514570459E+02  0.54086877906E+01  0.21894030502E+02  0.00000000000E+00 0.  1.
         -2    1    1    2    0  502  0.15473264439E+02 -0.14514570459E+02 -0.16303456387E+03  0.16440913504E+03  0.00000000000E+00 0.  1.
</event>
<event>
 4    1  0.5978476E+003  0.2262876E+02  0.7546771E-02  0.1497213E+00
          2   -1    0    0  501    0  0.00000000000E+00  0.00000000000E+00  0.40994329973E+03  0.40994329973E+03  0.00000000000E+00 0.  1.
         -2   -1    0    0    0  501 -0.00000000000E+00 -0.00000000000E+00 -0.54815045580E+01  0.54815045580E+01  0.00000000000E+00 0.  1.
          2    1    1    2  502    0 -0.12863187380E+02 -0.18617175419E+02  0.38474904240E+03  0.38541391573E+03  0.00000000000E+00 0.  1.
         -2    1    1    2    0  502  0.12863187380E+02  0.18617175419E+02  0.19712752769E+02  0.30010888556E+02  0.00000000000E+00 0.  1.
</event>
<event>
 4    1  0.5978476E+003  0.2189141E+02  0.7546771E-02  0.1506908E+00
          2   -1    0    0  501    0  0.00000000000E+00  0.00000000000E+00  0.13978483489E+02  0.13978483489E+02  0.00000000000E+00 0.  1.
         -2   -1    0    0    0  501 -0.00000000000E+00 -0.00000000000E+00 -0.13197423893E+03  0.13197423893E+03  0.00000000000E+00 0.  1.
          2    1    1    2  502    0  0.96445734384E+00  0.21870154823E+02  0.37882818413E+01  0.22216771351E+02  0.00000000000E+00 0.  1.
         -2    1    1    2    0  502 -0.96445734384E+00 -0.21870154823E+02 -0.12178403728E+03  0.12373595107E+03  0.00000000000E+00 0.  1.
</event>
<event>
 4    1  0.5978476E+003  0.2616231E+02  0.7546771E-02  0.1456209E+00
          2   -1    0    0  501    0  0.00000000000E+00  0.00000000000E+00  0.89768430727E+03  0.89768430727E+03  0.00000000000E+00 0. -1.
         -2   -1    0    0    0  501 -0.00000000000E+00 -0.00000000000E+00 -0.98760660685E+00  0.98760660685E+00  0.00000000000E+00 0. -1.
          2    1    1    2  502    0  0.17050173483E+02  0.19843344084E+02  0.66288039609E+03  0.66339647741E+03  0.00000000000E+00 0. -1.
         -2    1    1    2    0  502 -0.17050173483E+02 -0.19843344084E+02  0.23381630458E+03  0.23527543647E+03  0.00000000000E+00 0. -1.
</event>
<event>
 4    1  0.5978476E+003  0.2167037E+02  0.7546771E-02  0.1509905E+00
          2   -1    0    0  501    0  0.00000000000E+00  0.00000000000E+00  0.37219990476E+03  0.37219990476E+03  0.00000000000E+00 0. -1.
         -2   -1    0    0    0  501 -0.00000000000E+00 -0.00000000000E+00 -0.32269500240E+01  0.32269500240E+01  0.00000000000E+00 0. -1.
          2    1    1    2  502    0 -0.98661184131E+01 -0.19294160583E+02  0.33097649596E+03  0.33168516066E+03  0.00000000000E+00 0. -1.
         -2    1    1    2    0  502  0.98661184131E+01  0.19294160583E+02  0.37996458773E+02  0.43741694119E+02  0.00000000000E+00 0. -1.
</event>
<event>
 4    1  0.5978476E+003  0.6132325E+02  0.7546771E-02  0.1255402E+00
          2   -1    0    0  501    0  0.00000000000E+00  0.00000000000E+00  0.21435328615E+03  0.21435328615E+03  0.00000000000E+00 0.  1.
         -2   -1    0    0    0  501 -0.00000000000E+00 -0.00000000000E+00 -0.60694384810E+02  0.60694384810E+02  0.00000000000E+00 0.  1.
          2    1    1    2  502    0 -0.59324228521E+02  0.15529867061E+02  0.19278666511E+03  0.20230481731E+03  0.00000000000E+00 0.  1.
         -2    1    1    2    0  502  0.59324228521E+02 -0.15529867061E+02 -0.39127763768E+02  0.72742853656E+02  0.00000000000E+00 0.  1.
</event>
<event>
 4    1  0.5978476E+003  0.2163917E+02  0.7546771E-02  0.1510332E+00
          2   -1    0    0  501    0  0.00000000000E+00  0.00000000000E+00  0.20736128232E+03  0.20736128232E+03  0.00000000000E+00 0.  1.
         -2   -1    0    0    0  501 -0.00000000000E+00 -0.00000000000E+00 -0.17847386370E+02  0.17847386370E+02  0.00000000000E+00 0. -1.
          2    1    1    2  502    0  0.20710798860E+02 -0.62702840898E+01  0.19999678429E+03  0.20116403103E+03  0.00000000000E+00 0.  1.
         -2    1    1    2    0  502 -0.20710798860E+02  0.62702840898E+01 -0.10482888347E+02  0.24044637658E+02  0.00000000000E+00 0. -1.
</event>
<event>
 4    1  0.5978476E+003  0.4540758E+02  0.7546771E-02  0.1319414E+00
          2   -1    0    0  501    0  0.00000000000E+00  0.00000000000E+00  0.14340335614E+02  0.14340335614E+02  0.00000000000E+00 0.  1.
         -2   -1    0    0    0  501 -0.00000000000E+00 -0.00000000000E+00 -0.38718845582E+03  0.38718845582E+03  0.00000000000E+00 0. -1.
          2    1    1    2  502    0  0.45334290104E+02  0.25788861856E+01 -0.27242178530E+02  0.52952665696E+02  0.00000000000E+00 0.  1.
         -2    1    1    2    0  502 -0.45334290104E+02 -0.25788861856E+01 -0.34560594168E+03  0.34857612574E+03  0.00000000000E+00 0. -1.
</event>
<event>
 4    1  0.5978476E+003  0.4072955E+02  0.7546771E-02  0.1344263E+00
          2   -1    0    0  501    0  0.00000000000E+00  0.00000000000E+00  0.60735882981E+03  0.60735882981E+03  0.00000000000E+00 0.  1.
         -2   -1    0    0    0  501 -0.00000000000E+00 -0.00000000000E+00 -0.15580632520E+03  0.15580632520E+03  0.00000000000E+00 0. -1.
          2    1    1    2  502    0 -0.22527487849E+02 -0.33932409425E+02  0.60399941789E+03  0.60537112000E+03  0.00000000000E+00 0.  1.
         -2    1    1    2    0  502  0.22527487849E+02  0.33932409425E+02 -0.15244691328E+03  0.15779403501E+03  0.00000000000E+00 0. -1.
</event>
<event>
 4    1  0.5978476E+003  0.2653902E+02  0.7546771E-02  0.1452294E+00
          2   -1    0    0  501    0  0.00000000000E+00  0.00000000000E+00  0.10469777958E+03  0.10469777958E+03  0.00000000000E+00 0. -1.
         -2   -1    0    0    0  501 -0.00000000000E+00 -0.00000000000E+00 -0.49298286859E+02  0.49298286859E+02  0.00000000000E+00 0.  1.
          2    1    1    2  502    0 -0.11872485283E+01 -0.26512452743E+02  0.99251658261E+02  0.10273855838E+03  0.00000000000E+00 0. -1.
         -2    1    1    2    0  502  0.11872485283E+01  0.26512452743E+02 -0.43852165544E+02  0.51257508059E+02  0.00000000000E+00 0.  1.
</event>
<event>
 4    1  0.5978476E+003  0.2664056E+02  0.7546771E-02  0.1451253E+00
          2   -1    0    0  501    0  0.00000000000E+00  0.00000000000E+00  0.38994752334E+03  0.38994752334E+03  0.00000000000E+00 0. -1.
         -2   -1    0    0    0  501 -0.00000000000E+00 -0.00000000000E+00 -0.10004489292E+03  0.10004489292E+03  0.00000000000E+00 0.  1.
          2    1    1    2  502    0  0.14829865961E+02  0.22131301411E+02  0.38770878273E+03  0.38862297878E+03  0.00000000000E+00 0. -1.
         -2    1    1    2    0  502 -0.14829865961E+02 -0.22131301411E+02 -0.97806152304E+02  0.10136943748E+03  0.00000000000E+00 0.  1.
</event>
<event>
 4    1  0.5978476E+003  0.5342275E+02  0.7546771E-02  0.1283978E+00
          2   -1    0    0  501    0  0.00000000000E+00  0.00000000000E+00  0.18299929960E+04  0.18299929960E+04  0.00000000000E+00 0. -1.
         -2   -1    0    0    0  501 -0.00000000000E+00 -0.00000000000E+00 -0.18262022454E+01  0.18262022454E+01  0.00000000000E+00 0. -1.
          2    1    1    2  502    0  0.52909938708E+02  0.73843706495E+01  0.12640605438E+04  0.12651889380E+04  0.00000000000E+00 0. -1.
         -2    1    1    2    0  502 -0.52909938708E+02 -0.73843706495E+01  0.56410624997E+03  0.56663026022E+03  0.00000000000E+00 0. -1.
</event>
<event>
 4    1  0.5978476E+003  0.2595733E+02  0.7546771E-02  0.1458373E+00
          2   -1    0    0  501    0  0.00000000000E+00  0.00000000000E+00  0.24928596733E+04  0.24928596733E+04  0.00000000000E+00 0. -1.
         -2   -1    0    0    0  501 -0.00000000000E+00 -0.00000000000E+00 -0.29588641980E+00  0.29588641980E+00  0.00000000000E+00 0. -1.
          2    1    1    2  502    0  0.24088821009E+02  0.96701557022E+01  0.16129614857E+04  0.16131703374E+04  0.00000000000E+00 0. -1.
         -2    1    1    2    0  502 -0.24088821009E+02 -0.96701557022E+01  0.87960230122E+03  0.87998522233E+03  0.00000000000E+00 0. -1.
</event>
<event>
 4    1  0.5978476E+003  0.2147073E+02  0.7546771E-02  0.1512649E+00
          2   -1    0    0  501    0  0.00000000000E+00  0.00000000000E+00  0.17055159257E+03  0.17055159257E+03  0.00000000000E+00 0. -1.
         -2   -1    0    0    0  501 -0.00000000000E+00 -0.00000000000E+00 -0.48368163926E+01  0.48368163926E+01  0.00000000000E+00 0.  1.
          2    1    1    2  502    0  0.55102716907E+01 -0.20751610964E+02  0.14110453923E+03  0.14272870575E+03  0.00000000000E+00 0. -1.
         -2    1    1    2    0  502 -0.55102716907E+01  0.20751610964E+02  0.24610236941E+02  0.32659703214E+02  0.00000000000E+00 0.  1.
</event>
<event>
 4    1  0.5978476E+003  0.2273641E+02  0.7546771E-02  0.1495835E+00
          2   -1    0    0  501    0  0.00000000000E+00  0.00000000000E+00  0.47094312600E+03  0.47094312600E+03  0.00000000000E+00 0.  1.
         -2   -1    0    0    0  501 -0.00000000000E+00 -0.00000000000E+00 -0.17858662053E+01  0.17858662053E+01  0.00000000000E+00 0.  1.
          2    1    1    2  502    0 -0.29379905177E+01 -0.22545792489E+02  0.38130594399E+03  0.38198320313E+03  0.00000000000E+00 0.  1.
         -2    1    1    2    0  502  0.29379905177E+01  0.22545792489E+02  0.87851315800E+02  0.90745789076E+02  0.00000000000E+00 0.  1.
</event>
<event>
 4    1  0.5978476E+003  0.2602517E+02  0.7546771E-02  0.1457654E+00
          2   -1    0    0  501    0  0.00000000000E+00  0.00000000000E+00  0.87955247913E+01  0.87955247913E+01  0.00000000000E+00 0.  1.
         -2   -1    0    0    0  501 -0.00000000000E+00 -0.00000000000E+00 -0.97341714169E+02  0.97341714169E+02  0.00000000000E+00 0. -1.
          2    1    1    2  502    0 -0.25836939629E+02  0.31244011967E+01 -0.20017238259E+02  0.32832897523E+02  0.00000000000E+00 0.  1.
         -2    1    1    2    0  502  0.25836939629E+02 -0.31244011967E+01 -0.68528951118E+02  0.73304341437E+02  0.00000000000E+00 0. -1.
</event>
<event>
 4    1  0.5978476E+003  0.2178205E+02  0.7546771E-02  0.1508386E+00
          2   -1    0    0  501    0  0.00000000000E+00  0.00000000000E+00  0.80046778624E+01  0.80046778624E+01  0.00000000000E+00 0. -1.
         -2   -1    0    0    0  501 -0.00000000000E+00 -0.00000000000E+00 -0.28382350727E+03  0.28382350727E+03  0.00000000000E+00 0. -1.
          2    1    1    2  502    0 -0.21803302837E+00  0.21780954960E+02 -0.81226135000E+01  0.23247244728E+02  0.00000000000E+00 0. -1.
         -2    1    1    2    0  502  0.21803302837E+00 -0.21780954960E+02 -0.26769621591E+03  0.26858094040E+03  0.00000000000E+00 0. -1.
</event>
<event>
 4    1  0.5978476E+003  0.6270861E+02  0.7546771E-02  0.1250897E+00
          2   -1    0    0  501    0  0.00000000000E+00  0.00000000000E+00  0.50149757872E+03  0.50149757872E+03  0.00000000000E+00 0. -1.
         -2   -1    0    0    0  501 -0.00000000000E+00 -0.00000000000E+00 -0.24744867083E+02  0.24744867083E+02  0.00000000000E+00 0. -1.
          2    1    1    2  502    0 -0.69371213210E+01 -0.62323720905E+02  0.45584822605E+03  0.46014125552E+03  0.00000000000E+00 0. -1.
         -2    1    1    2    0  502  0.69371213210E+01  0.62323720905E+02  0.20904485593E+02  0.66101190288E+02  0.00000000000E+00 0. -1.
</event>
<event>
 4    1  0.5978476E+003  0.2877067E+02  0.7546771E-02  0.1430589E+00
          2   -1    0    0  501    0  0.00000000000E+00  0.00000000000E+00  0.20374940730E+04  0.20374940730E+04  0.00000000000E+00 0.  1.
         -2   -1    0    0    0  501 -0.00000000000E+00 -0.00000000000E+00 -0.14347628400E+01  0.14347628400E+01  0.00000000000E+00 0.  1.
          2    1    1    2  502    0  0.76494165636E+01 -0.27735138501E+02  0.18811768214E+04  0.18813968175E+04  0.00000000000E+00 0.  1.
         -2    1    1    2    0  502 -0.76494165636E+01  0.27735138501E+02  0.15488248874E+03  0.15753201833E+03  0.00000000000E+00 0.  1.
</event>
<event>
 4    1  0.5978476E+003  0.4923885E+02  0.7546771E-02  0.1301507E+00
          2   -1    0    0  501    0  0.00000000000E+00  0.00000000000E+00  0.99640891382E+03  0.99640891382E+03  0.00000000000E+00 0. -1.
         -2   -1    0    0    0  501 -0.00000000000E+00 -0.00000000000E+00 -0.20221380928E+02  0.20221380928E+02  0.00000000000E+00 0. -1.
          2    1    1    2  502    0  0.44331806770E+02 -0.21427912126E+02  0.96484671389E+03  0.96610229573E+03  0.00000000000E+00 0. -1.
         -2    1    1    2    0  502 -0.44331806770E+02  0.21427912126E+02  0.11340819007E+02  0.50527999024E+02  0.00000000000E+00 0. -1.
</event>
<event>
 4    1  0.5978476E+003  0.2059741E+02  0.7546771E-02  0.1525091E+00
          2   -1    0    0  501    0  0.00000000000E+00  0.00000000000E+00  0.65713547015E+03  0.65713547015E+03  0.00000000000E+00 0.  1.
         -2   -1    0    0    0  501 -0.00000000000E+00 -0.00000000000E+00 -0.19351812851E+01  0.19351812851E+01  0.00000000000E+00 0.  1.
          2    1    1    2  502    0 -0.13856348014E+02 -0.15239914345E+02  0.59660727440E+03  0.59696272349E+03  0.00000000000E+00 0.  1.
         -2    1    1    2    0  502  0.13856348014E+02  0.15239914345E+02  0.58593014465E+02  0.62107927945E+02  0.00000000000E+00 0.  1.
</event>
<event>
 4    1  0.5978476E+003  0.2180229E+02  0.7546771E-02  0.1508111E+00
          2   -1    0    0  501    0  0.00000000000E+00  0.00000000000E+00  0.20482870138E+03  0.20482870138E+03  0.00000000000E+00 0.  1.
         -2   -1    0    0    0  501 -0.00000000000E+00 -0.00000000000E+00 -0.72246692638E+01  0.72246692638E+01  0.00000000000E+00 0. -1.
          2    1    1    2  502    0  0.12021169683E+02  0.18188774394E+02  0.18615572543E+03  0.18742810394E+03  0.00000000000E+00 0.  1.
         -2    1    1    2    0  502 -0.12021169683E+02 -0.18188774394E+02  0.11448306687E+02  0.24625266709E+02  0.00000000000E+00 0. -1.
</event>
<event>
 4    1  0.5978476E+003  0.2866853E+02  0.7546771E-02  0.1431531E+00
          2   -1    0    0  501    0  0.00000000000E+00  0.00000000000E+00  0.39454185760E+04  0.39454185760E+04  0.00000000000E+00 0.  1.
         -2   -1    0    0    0  501 -0.00000000000E+00 -0.00000000000E+00 -0.20870976060E+00  0.20870976060E+00  0.00000000000E+00 0.  1.
          2    1    1    2  502    0  0.10766506738E+02 -0.26570026458E+02  0.18866437779E+04  0.18868615818E+04  0.00000000000E+00 0.  1.
         -2    1    1    2    0  502 -0.10766506738E+02  0.26570026458E+02  0.20585660883E+04  0.20587657040E+04  0.00000000000E+00 0.  1.
</event>
<event>
 4    1  0.5978476E+003  0.2660253E+02  0.7546771E-02  0.1451642E+00
          2   -1    0    0  501    0  0.00000000000E+00  0.00000000000E+00  0.18280830160E+04  0.18280830160E+04  0.00000000000E+00 0. -1.
         -2   -1    0    0    0  501 -0.00000000000E+00 -0.00000000000E+00 -0.16230228453E+02  0.16230228453E+02  0.00000000000E+00 0.  1.
          2    1    1    2  502    0 -0.22472453949E+02  0.14236688701E+02  0.18170189912E+04  0.18172137213E+04  0.00000000000E+00 0. -1.
         -2    1    1    2    0  502  0.22472453949E+02 -0.14236688701E+02 -0.51662037050E+01  0.27099523103E+02  0.00000000000E+00 0.  1.
</event>
<event>
 4    1  0.5978476E+003  0.4833076E+02  0.7546771E-02  0.1305577E+00
          2   -1    0    0  501    0  0.00000000000E+00  0.00000000000E+00  0.42405399076E+03  0.42405399076E+03  0.00000000000E+00 0. -1.
         -2   -1    0    0    0  501 -0.00000000000E+00 -0.00000000000E+00 -0.17507221514E+02  0.17507221514E+02  0.00000000000E+00 0. -1.
          2    1    1    2  502    0 -0.27484289061E+02  0.39755205962E+02  0.38605034611E+03  0.38906391798E+03  0.00000000000E+00 0. -1.
         -2    1    1    2    0  502  0.27484289061E+02 -0.39755205962E+02  0.20496423134E+02  0.52497294288E+02  0.00000000000E+00 0. -1.
</event>
<event>
 4    1  0.5978476E+003  0.3476071E+02  0.7546771E-02  0.1382253E+00
          2   -1    0    0  501    0  0.00000000000E+00  0.00000000000E+00  0.94563193960E+02  0.94563193960E+02  0.00000000000E+00 0. -1.
         -2   -1    0    0    0  501 -0.00000000000E+00 -0.00000000000E+00 -0.83434550198E+02  0.83434550198E+02  0.00000000000E+00 0.  1.
          2    1    1    2  502    0  0.32810048624E+02  0.11480741474E+02  0.87465181589E+02  0.94119417263E+02  0.00000000000E+00 0. -1.
         -2    1    1    2    0  502 -0.32810048624E+02 -0.11480741474E+02 -0.76336537826E+02  0.83878326895E+02  0.00000000000E+00 0.  1.
</event>
<event>
 4    1  0.5978476E+003  0.2018489E+02  0.7546771E-02  0.1531228E+00
          2   -1    0    0  501    0  0.00000000000E+00  0.00000000000E+00  0.19004219676E+02  0.19004219676E+02  0.00000000000E+00 0.  1.
         -2   -1    0    0    0  501 -0.00000000000E+00 -0.00000000000E+00 -0.26990307627E+02  0.26990307627E+02  0.00000000000E+00 0. -1.
          2    1    1    2  502    0 -0.15679970746E+02  0.12710951115E+02  0.64366941274E+01  0.21186335033E+02  0.00000000000E+00 0.  1.
         -2    1    1    2    0  502  0.15679970746E+02 -0.12710951115E+02 -0.14422782078E+02  0.24808192271E+02  0.00000000000E+00 0. -1.
</event>
<event>
 4    1  0.5978476E+003  0.2463696E+02  0.7546771E-02  0.1472906E+00
          2   -1    0    0  501    0  0.00000000000E+00  0.00000000000E+00  0.98400525511E+03  0.98400525511E+03  0.00000000000E+00 0.  1.
         -2   -1    0    0    0  501 -0.00000000000E+00 -0.00000000000E+00 -0.11681301036E+01  0.11681301036E+01  0.00000000000E+00 0.  1.
          2    1    1    2  502    0  0.16391163894E+02 -0.18393191291E+02  0.82981422538E+03  0.83017987712E+03  0.00000000000E+00 0.  1.
         -2    1    1    2    0  502 -0.16391163894E+02  0.18393191291E+02  0.15302289963E+03  0.15499350809E+03  0.00000000000E+00 0.  1.
</event>
<event>
 4    1  0.5978476E+003  0.2529361E+02  0.7546771E-02  0.1465545E+00
          2   -1    0    0  501    0  0.00000000000E+00  0.00000000000E+00  0.97066636166E+02  0.97066636166E+02  0.00000000000E+00 0.  1.
         -2   -1    0    0    0  501 -0.00000000000E+00 -0.00000000000E+00 -0.23908211885E+02  0.23908211885E+02  0.00000000000E+00 0.  1.
          2    1    1    2  502    0 -0.20044799458E+02 -0.15426362883E+02  0.88058255503E+02  0.91618900994E+02  0.00000000000E+00 0.  1.
         -2    1    1    2    0  502  0.20044799458E+02  0.15426362883E+02 -0.14899831222E+02  0.29355947056E+02  0.00000000000E+00 0.  1.
</event>
<event>
 4    1  0.5978476E+003  0.2228721E+02  0.7546771E-02  0.1501648E+00
          2   -1    0    0  501    0  0.00000000000E+00  0.00000000000E+00  0.19462957844E+04  0.19462957844E+04  0.00000000000E+00 0. -1.
         -2   -1    0    0    0  501 -0.00000000000E+00 -0.00000000000E+00 -0.36720240528E+00  0.36720240528E+00  0.00000000000E+00 0.  1.
          2    1    1    2  502    0 -0.19456855009E+02 -0.10869703547E+02  0.15104869904E+04  0.15106514051E+04  0.00000000000E+00 0. -1.
         -2    1    1    2    0  502  0.19456855009E+02  0.10869703547E+02  0.43544159163E+03  0.43601158171E+03  0.00000000000E+00 0.  1.
</event>
<event>
 4    1  0.5978476E+003  0.2131077E+02  0.7546771E-02  0.1514874E+00
          2   -1    0    0  501    0  0.00000000000E+00  0.00000000000E+00  0.22623161013E+02  0.22623161013E+02  0.00000000000E+00 0. -1.
         -2   -1    0    0    0  501 -0.00000000000E+00 -0.00000000000E+00 -0.74366339647E+02  0.74366339647E+02  0.00000000000E+00 0.  1.
          2    1    1    2  502    0 -0.42076821181E+01 -0.20891254342E+02  0.15564019464E+02  0.26389160628E+02  0.00000000000E+00 0. -1.
         -2    1    1    2    0  502  0.42076821181E+01  0.20891254342E+02 -0.67307198098E+02  0.70600340032E+02  0.00000000000E+00 0.  1.
</event>
<event>
 4    1  0.5978476E+003  0.4077027E+02  0.7546771E-02  0.1344030E+00
          2   -1    0    0  501    0  0.00000000000E+00  0.00000000000E+00  0.16794760658E+03  0.16794760658E+03  0.00000000000E+00 0.  1.
         -2   -1    0    0    0  501 -0.00000000000E+00 -0.00000000000E+00 -0.67108211603E+03  0.67108211603E+03  0.00000000000E+00 0. -1.
          2    1    1    2  502    0  0.40184425607E+02  0.68867163823E+01  0.16484258061E+03  0.16980957366E+03  0.00000000000E+00 0.  1.
         -2    1    1    2    0  502 -0.40184425607E+02 -0.68867163823E+01 -0.66797709006E+03  0.66922014896E+03  0.00000000000E+00 0. -1.
</event>
<event>
 4    1  0.5978476E+003  0.4477490E+02  0.7546771E-02  0.1322569E+00
          2   -1    0    0  501    0  0.00000000000E+00  0.00000000000E+00  0.28024175986E+04  0.28024175986E+04  0.00000000000E+00 0.  1.
         -2   -1    0    0    0  501 -0.00000000000E+00 -0.00000000000E+00 -0.19856273927E+03  0.19856273927E+03  0.00000000000E+00 0. -1.
          2    1    1    2  502    0 -0.28348363670E+02 -0.34657786141E+02  0.27997121858E+04  0.28000701983E+04  0.00000000000E+00 0.  1.
         -2    1    1    2    0  502  0.28348363670E+02  0.34657786141E+02 -0.19585732647E+03  0.20091013960E+03  0.00000000000E+00 0. -1.
</event>
<event>
 4    1  0.5978476E+003  0.5153716E+02  0.7546771E-02  0.1291642E+00
          2   -1    0    0  501    0  0.00000000000E+00  0.00000000000E+00  0.14366110686E+04  0.14366110686E+04  0.00000000000E+00 0. -1.
         -2   -1    0    0    0  501 -0.00000000000E+00 -0.00000000000E+00 -0.33067931257E+01  0.33067931257E+01  0.00000000000E+00 0. -1.
          2    1    1    2  502    0  0.37827015460E+02 -0.35002797121E+02  0.11947033750E+04  0.11958144643E+04  0.00000000000E+00 0. -1.
         -2    1    1    2    0  502 -0.37827015460E+02  0.35002797121E+02  0.23860090050E+03  0.24410339740E+03  0.00000000000E+00 0. -1.
</event>
<event>
 4    1  0.5978476E+003  0.2557253E+02  0.7546771E-02  0.1462499E+00
          2   -1    0    0  501    0  0.00000000000E+00  0.00000000000E+00  0.20232835601E+04  0.20232835601E+04  0.00000000000E+00 0. -1.
         -2   -1    0    0    0  501 -0.00000000000E+00 -0.00000000000E+00 -0.60056503367E+00  0.60056503367E+00  0.00000000000E+00 0. -1.
          2    1    1    2  502    0 -0.99126009562E+01  0.23573181302E+02  0.16990274437E+04  0.16992198825E+04  0.00000000000E+00 0. -1.
         -2    1    1    2    0  502  0.99126009562E+01 -0.23573181302E+02  0.32365555141E+03  0.32466424271E+03  0.00000000000E+00 0. -1.
</event>
<event>
 4    1  0.5978476E+003  0.3075359E+02  0.7546771E-02  0.1413159E+00
          2   -1    0    0  501    0  0.00000000000E+00  0.00000000000E+00  0.22326657554E+01  0.22326657554E+01  0.00000000000E+00 0. -1.
         -2   -1    0    0    0  501 -0.00000000000E+00 -0.00000000000E+00 -0.85248833473E+03  0.85248833473E+03  0.00000000000E+00 0. -1.
          2    1    1    2  502    0 -0.20929778452E+02  0.22532813847E+02 -0.12200660617E+03  0.12582287262E+03  0.00000000000E+00 0. -1.
         -2    1    1    2    0  502  0.20929778452E+02 -0.22532813847E+02 -0.72824906281E+03  0.72889812787E+03  0.00000000000E+00 0. -1.
</event>
<event>
 4    1  0.5978476E+003  0.4543312E+02  0.7546771E-02  0.1319288E+00
          2   -1    0    0  501    0  0.00000000000E+00  0.00000000000E+00  0.11482341392E+04  0.11482341392E+04  0.00000000000E+00 0.  1.
         -2   -1    0    0    0  501 -0.00000000000E+00 -0.00000000000E+00 -0.30049529440E+01  0.30049529440E+01  0.00000000000E+00 0.  1.
          2    1    1    2  502    0 -0.42515612085E+02 -0.16018400377E+02  0.20776149474E+03  0.21267111962E+03  0.00000000000E+00 0.  1.
         -2    1    1    2    0  502  0.42515612085E+02  0.16018400377E+02  0.93746769151E+03  0.93856797253E+03  0.00000000000E+00 0.  1.
</event>
<event>
 4    1  0.5978476E+003  0.2455289E+02  0.7546771E-02  0.1473868E+00
          2   -1    0    0  501    0  0.00000000000E+00  0.00000000000E+00  0.78707641687E+03  0.78707641687E+03  0.00000000000E+00 0. -1.
         -2   -1    0    0    0  501 -0.00000000000E+00 -0.00000000000E+00 -0.10821052006E+02  0.10821052006E+02  0.00000000000E+00 0.  1.
          2    1    1    2  502    0 -0.24096850455E+02  0.47102009578E+01  0.77269826136E+03  0.77308825324E+03  0.00000000000E+00 0. -1.
         -2    1    1    2    0  502  0.24096850455E+02 -0.47102009578E+01  0.35571035034E+01  0.24809215632E+02  0.00000000000E+00 0.  1.
</event>
<event>
 4    1  0.5978476E+003  0.3562161E+02  0.7546771E-02  0.1376245E+00
          2   -1    0    0  501    0  0.00000000000E+00  0.00000000000E+00  0.39623007755E+03  0.39623007755E+03  0.00000000000E+00 0.  1.
         -2   -1    0    0    0  501 -0.00000000000E+00 -0.00000000000E+00 -0.22468586984E+02  0.22468586984E+02  0.00000000000E+00 0. -1.
          2    1    1    2  502    0 -0.10401226299E+01  0.35606417109E+02  0.38073764150E+03  0.38240037977E+03  0.00000000000E+00 0.  1.
         -2    1    1    2    0  502  0.10401226299E+01 -0.35606417109E+02 -0.69761509378E+01  0.36298284758E+02  0.00000000000E+00 0. -1.
</event>
<event>
 4    1  0.5978476E+003  0.2100188E+02  0.7546771E-02  0.1519238E+00
          2   -1    0    0  501    0  0.00000000000E+00  0.00000000000E+00  0.12198298545E+04  0.12198298545E+04  0.00000000000E+00 0. -1.
         -2   -1    0    0    0  501 -0.00000000000E+00 -0.00000000000E+00 -0.10309568812E+01  0.10309568812E+01  0.00000000000E+00 0. -1.
          2    1    1    2  502    0  0.20615978505E+02 -0.40075491686E+01  0.11012666000E+04  0.11014668417E+04  0.00000000000E+00 0. -1.
         -2    1    1    2    0  502 -0.20615978505E+02  0.40075491686E+01  0.11753229759E+03  0.11939396968E+03  0.00000000000E+00 0. -1.
</event>
<event>
 4    1  0.5978476E+003  0.2087206E+02  0.7546771E-02  0.1521099E+00
          2   -1    0    0  501    0  0.00000000000E+00  0.00000000000E+00  0.59176582137E+03  0.59176582137E+03  0.00000000000E+00 0. -1.
         -2   -1    0    0    0  501 -0.00000000000E+00 -0.00000000000E+00 -0.34930481867E+02  0.34930481867E+02  0.00000000000E+00 0. -1.
          2    1    1    2  502    0 -0.18792765925E+02  0.90815726028E+01  0.58844626557E+03  0.58881631302E+03  0.00000000000E+00 0. -1.
         -2    1    1    2    0  502  0.18792765925E+02 -0.90815726028E+01 -0.31610926068E+02  0.37879990218E+02  0.00000000000E+00 0. -1.
</event>
<event>
 4    1  0.5978476E+003  0.2370949E+02  0.7546771E-02  0.1483776E+00
          2   -1    0    0  501    0  0.00000000000E+00  0.00000000000E+00  0.11632027085E+04  0.11632027085E+04  0.00000000000E+00 0.  1.
         -2   -1    0    0    0  501 -0.00000000000E+00 -0.00000000000E+00 -0.76005563351E+00  0.76005563351E+00  0.00000000000E+00 0.  1.
          2    1    1    2  502    0 -0.20107636251E+02 -0.12562749809E+02  0.93242497471E+03  0.93272636566E+03  0.00000000000E+00 0.  1.
         -2    1    1    2    0  502  0.20107636251E+02  0.12562749809E+02  0.23001767812E+03  0.23123639845E+03  0.00000000000E+00 0.  1.
</event>
<event>
 4    1  0.5978476E+003  0.2699283E+02  0.7546771E-02  0.1447680E+00
          2   -1    0    0  501    0  0.00000000000E+00  0.00000000000E+00  0.10482417677E+04  0.10482417677E+04  0.00000000000E+00 0.  1.
         -2   -1    0    0    0  501 -0.00000000000E+00 -0.00000000000E+00 -0.16851227509E+02  0.16851227509E+02  0.00000000000E+00 0. -1.
          2    1    1    2  502    0 -0.10197082265E+02  0.24992650773E+02  0.10371428442E+04  0.10374940445E+04  0.00000000000E+00 0.  1.
         -2    1    1    2    0  502  0.10197082265E+02 -0.24992650773E+02 -0.57523040082E+01  0.27598950719E+02  0.00000000000E+00 0. -1.
</event>
<event>
 4    1  0.5978476E+003  0.3327797E+02  0.7546771E-02  0.1393091E+00
          2   -1    0    0  501    0  0.00000000000E+00  0.00000000000E+00  0.53326435844E+03  0.53326435844E+03  0.00000000000E+00 0.  1.
         -2   -1    0    0    0  501 -0.00000000000E+00 -0.00000000000E+00 -0.12661213530E+02  0.12661213530E+02  0.00000000000E+00 0. -1.
          2    1    1    2  502    0 -0.33221344279E+02 -0.19405648610E+01  0.50987680250E+03  0.51096162012E+03  0.00000000000E+00 0.  1.
         -2    1    1    2    0  502  0.33221344279E+02  0.19405648610E+01  0.10726342413E+02  0.34963951854E+02  0.00000000000E+00 0. -1.
</event>
<event>
 4    1  0.5978476E+003  0.3802238E+02  0.7546771E-02  0.1360481E+00
          2   -1    0    0  501    0  0.00000000000E+00  0.00000000000E+00  0.26604307729E+04  0.26604307729E+04  0.00000000000E+00 0.  1.
         -2   -1    0    0    0  501 -0.00000000000E+00 -0.00000000000E+00 -0.15379945104E+01  0.15379945104E+01  0.00000000000E+00 0.  1.
          2    1    1    2  502    0  0.35850143179E+02 -0.12667630897E+02  0.23997738378E+04  0.24000750351E+04  0.00000000000E+00 0.  1.
         -2    1    1    2    0  502 -0.35850143179E+02  0.12667630897E+02  0.25911894061E+03  0.26189373231E+03  0.00000000000E+00 0.  1.
</event>
<event>
 4    1  0.5978476E+003  0.2592218E+02  0.7546771E-02  0.1458746E+00
          2   -1    0    0  501    0  0.00000000000E+00  0.00000000000E+00  0.98453062317E+03  0.98453062317E+03  0.00000000000E+00 0.  1.
         -2   -1    0    0    0  501 -0.00000000000E+00 -0.00000000000E+00 -0.87383153878E+01  0.87383153878E+01  0.00000000000E+00 0.  1.
          2    1    1    2  502    0 -0.24607712538E+02  0.81498347286E+01  0.96474120913E+03  0.96508940514E+03  0.00000000000E+00 0.  1.
         -2    1    1    2    0  502  0.24607712538E+02 -0.81498347286E+01  0.11051098661E+02  0.28179533425E+02  0.00000000000E+00 0.  1.
</event>
<event>
 4    1  0.5978476E+003  0.4246953E+02  0.7546771E-02  0.1334592E+00
          2   -1    0    0  501    0  0.00000000000E+00  0.00000000000E+00  0.85458170996E+03  0.85458170996E+03  0.00000000000E+00 0. -1.
         -2   -1    0    0    0  501 -0.00000000000E+00 -0.00000000000E+00 -0.22003263463E+02  0.22003263463E+02  0.00000000000E+00 0. -1.
          2    1    1    2  502    0 -0.34347393413E+02  0.24978335182E+02  0.83303114800E+03  0.83411303443E+03  0.00000000000E+00 0. -1.
         -2    1    1    2    0  502  0.34347393413E+02 -0.24978335182E+02 -0.45270151150E+00  0.42471938988E+02  0.00000000000E+00 0. -1.
</event>
<event>
 4    1  0.5978476E+003  0.2113154E+02  0.7546771E-02  0.1517395E+00
          2   -1    0    0  501    0  0.00000000000E+00  0.00000000000E+00  0.23993756555E+02  0.23993756555E+02  0.00000000000E+00 0.  1.
         -2   -1    0    0    0  501 -0.00000000000E+00 -0.00000000000E+00 -0.90815679626E+02  0.90815679626E+02  0.00000000000E+00 0.  1.
          2    1    1    2  502    0  0.18442005913E+02  0.10316710728E+02  0.17774963590E+02  0.27613247418E+02  0.00000000000E+00 0.  1.
         -2    1    1    2    0  502 -0.18442005913E+02 -0.10316710728E+02 -0.84596886660E+02  0.87196188764E+02  0.00000000000E+00 0.  1.
</event>
<event>
 4    1  0.5978476E+003  0.3030056E+02  0.7546771E-02  0.1417002E+00
          2   -1    0    0  501    0  0.00000000000E+00  0.00000000000E+00  0.17521879947E+04  0.17521879947E+04  0.00000000000E+00 0.  1.
         -2   -1    0    0    0  501 -0.00000000000E+00 -0.00000000000E+00 -0.15762931996E+02  0.15762931996E+02  0.00000000000E+00 0. -1.
          2    1    1    2  502    0 -0.30299205984E+02 -0.28592845656E+00  0.17373713900E+04  0.17376355977E+04  0.00000000000E+00 0.  1.
         -2    1    1    2    0  502  0.30299205984E+02  0.28592845656E+00 -0.94632726066E+00  0.30315329020E+02  0.00000000000E+00 0. -1.
</event>
<event>
 4    1  0.5978476E+003  0.2066525E+02  0.7546771E-02  0.1524098E+00
          2   -1    0    0  501    0  0.00000000000E+00  0.00000000000E+00  0.10486899585E+04  0.10486899585E+04  0.00000000000E+00 0.  1.
         -2   -1    0    0    0  501 -0.00000000000E+00 -0.00000000000E+00 -0.80577748350E+00  0.80577748350E+00  0.00000000000E+00 0.  1.
          2    1    1    2  502    0  0.69770922179E+01 -0.19451803984E+02  0.89299278032E+03  0.89323186139E+03  0.00000000000E+00 0.  1.
         -2    1    1    2    0  502 -0.69770922179E+01  0.19451803984E+02  0.15489140070E+03  0.15626387460E+03  0.00000000000E+00 0.  1.
</event>
<event>
 4    1  0.5978476E+003  0.2563576E+02  0.7546771E-02  0.1461815E+00
          2   -1    0    0  501    0  0.00000000000E+00  0.00000000000E+00  0.36909486923E+03  0.36909486923E+03  0.00000000000E+00 0.  1.
         -2   -1    0    0    0  501 -0.00000000000E+00 -0.00000000000E+00 -0.19400705603E+01  0.19400705603E+01  0.00000000000E+00 0.  1.
          2    1    1    2  502    0  0.11465017824E+01 -0.25610095575E+02  0.13038055299E+03  0.13287693577E+03  0.00000000000E+00 0.  1.
         -2    1    1    2    0  502 -0.11465017824E+01  0.25610095575E+02  0.23677424568E+03  0.23815800402E+03  0.00000000000E+00 0.  1.
</event>
<event>
 4    1  0.5978476E+003  0.2152499E+02  0.7546771E-02  0.1511900E+00
          2   -1    0    0  501    0  0.00000000000E+00  0.00000000000E+00  0.99566001710E+02  0.99566001710E+02  0.00000000000E+00 0. -1.
         -2   -1    0    0    0  501 -0.00000000000E+00 -0.00000000000E+00 -0.13283614299E+02  0.13283614299E+02  0.00000000000E+00 0.  1.
          2    1    1    2  502    0 -0.21139918976E+02  0.40532692458E+01  0.88621308817E+02  0.91197925099E+02  0.00000000000E+00 0. -1.
         -2    1    1    2    0  502  0.21139918976E+02 -0.40532692458E+01 -0.23389214065E+01  0.21651690910E+02  0.00000000000E+00 0.  1.
</event>
<event>
 4    1  0.5978476E+003  0.2289571E+02  0.7546771E-02  0.1493812E+00
          2   -1    0    0  501    0  0.00000000000E+00  0.00000000000E+00  0.17174410140E+04  0.17174410140E+04  0.00000000000E+00 0.  1.
         -2   -1    0    0    0  501 -0.00000000000E+00 -0.00000000000E+00 -0.12135479600E+01  0.12135479600E+01  0.00000000000E+00 0. -1.
          2    1    1    2  502    0 -0.10435232661E+02  0.20379382912E+02  0.16015594160E+04  0.16017230648E+04  0.00000000000E+00 0.  1.
         -2    1    1    2    0  502  0.10435232661E+02 -0.20379382912E+02  0.11466805005E+03  0.11693149718E+03  0.00000000000E+00 0. -1.
</event>
<event>
 4    1  0.5978476E+003  0.2097699E+02  0.7546771E-02  0.1519594E+00
          2   -1    0    0  501    0  0.00000000000E+00  0.00000000000E+00  0.55867324173E+03  0.55867324173E+03  0.00000000000E+00 0.  1.
         -2   -1    0    0    0  501 -0.00000000000E+00 -0.00000000000E+00 -0.20990992367E+01  0.20990992367E+01  0.00000000000E+00 0.  1.
          2    1    1    2  502    0 -0.15435750628E+02 -0.14204638565E+02  0.49991131973E+03  0.50035123838E+03  0.00000000000E+00 0.  1.
         -2    1    1    2    0  502  0.15435750628E+02  0.14204638565E+02  0.56662822755E+02  0.60421102579E+02  0.00000000000E+00 0.  1.
</event>
<event>
 4    1  0.5978476E+003  0.2615375E+02  0.7546771E-02  0.1456299E+00
          2   -1    0    0  501    0  0.00000000000E+00  0.00000000000E+00  0.96470541888E+01  0.96470541888E+01  0.00000000000E+00 0. -1.
         -2   -1    0    0    0  501 -0.00000000000E+00 -0.00000000000E+00 -0.74768381334E+02  0.74768381334E+02  0.00000000000E+00 0. -1.
          2    1    1    2  502    0 -0.13140733242E+02 -0.22612808811E+02 -0.42155859908E+02  0.49609822787E+02  0.00000000000E+00 0. -1.
         -2    1    1    2    0  502  0.13140733242E+02  0.22612808811E+02 -0.22965467238E+02  0.34805612736E+02  0.00000000000E+00 0. -1.
</event>
<event>
 4    1  0.5978476E+003  0.2716384E+02  0.7546771E-02  0.1445969E+00
          2   -1    0    0  501    0  0.00000000000E+00  0.00000000000E+00  0.17219219607E+04  0.17219219607E+04  0.00000000000E+00 0.  1.
         -2   -1    0    0    0  501 -0.00000000000E+00 -0.00000000000E+00 -0.73799757557E+00  0.73799757557E+00  0.00000000000E+00 0.  1.
          2    1    1    2  502    0 -0.26697704189E+02 -0.50106616925E+01  0.14183659751E+04  0.14186260655E+04  0.00000000000E+00 0.  1.
         -2    1    1    2    0  502  0.26697704189E+02  0.50106616925E+01  0.30281798795E+03  0.30403389279E+03  0.00000000000E+00 0.  1.
</event>
<event>
 4    1  0.5978476E+003  0.2424559E+02  0.7546771E-02  0.1477423E+00
          2   -1    0    0  501    0  0.00000000000E+00  0.00000000000E+00  0.83215567978E+03  0.83215567978E+03  0.00000000000E+00 0.  1.
         -2   -1    0    0    0  501 -0.00000000000E+00 -0.00000000000E+00 -0.21541169337E+02  0.21541169337E+02  0.00000000000E+00 0. -1.
          2    1    1    2  502    0 -0.89721350850E+01 -0.22524414226E+02  0.82509835108E+03  0.82545450353E+03  0.00000000000E+00 0.  1.
         -2    1    1    2    0  502  0.89721350850E+01  0.22524414226E+02 -0.14483840642E+02  0.28242345581E+02  0.00000000000E+00 0. -1.
</event>
<event>
 4    1  0.5978476E+003  0.3109890E+02  0.7546771E-02  0.1410281E+00
          2   -1    0    0  501    0  0.00000000000E+00  0.00000000000E+00  0.91334135299E+02  0.91334135299E+02  0.00000000000E+00 0.  1.
         -2   -1    0    0    0  501 -0.00000000000E+00 -0.00000000000E+00 -0.18784995282E+02  0.18784995282E+02  0.00000000000E+00 0. -1.
          2    1    1    2  502    0  0.29844724164E+02 -0.87426708902E+01  0.72643181509E+02  0.79020083994E+02  0.00000000000E+00 0.  1.
         -2    1    1    2    0  502 -0.29844724164E+02  0.87426708902E+01 -0.94041491746E-01  0.31099046586E+02  0.00000000000E+00 0. -1.
</event>
<event>
 4    1  0.5978476E+003  0.2646132E+02  0.7546771E-02  0.1453096E+00
          2   -1    0    0  501    0  0.00000000000E+00  0.00000000000E+00  0.12123714875E+04  0.12123714875E+04  0.00000000000E+00 0. -1.
         -2   -1    0    0    0  501 -0.00000000000E+00 -0.00000000000E+00 -0.62987398780E+01  0.62987398780E+01  0.00000000000E+00 0. -1.
          2    1    1    2  502    0  0.17159882530E+02  0.20142989119E+02  0.11837642339E+04  0.11840599491E+04  0.00000000000E+00 0. -1.
         -2    1    1    2    0  502 -0.17159882530E+02 -0.20142989119E+02  0.22308513738E+02  0.34610278304E+02  0.00000000000E+00 0. -1.
</event>
<event>
 4    1  0.5978476E+003  0.3617000E+02  0.7546771E-02  0.1372519E+00
          2   -1    0    0  501    0  0.00000000000E+00  0.00000000000E+00  0.58147988942E+03  0.58147988942E+03  0.00000000000E+00 0. -1.
         -2   -1    0    0    0  501 -0.00000000000E+00 -0.00000000000E+00 -0.82281273501E+01  0.82281273501E+01  0.00000000000E+00 0.  1.
          2    1    1    2  502    0 -0.30894423099E+02 -0.18809658381E+02  0.53795507198E+03  0.53916966541E+03  0.00000000000E+00 0. -1.
         -2    1    1    2    0  502  0.30894423099E+02  0.18809658381E+02  0.35296690087E+02  0.50538351359E+02  0.00000000000E+00 0.  1.
</event>
<event>
 4    1  0.5978476E+003  0.2502842E+02  0.7546771E-02  0.1468486E+00
          2   -1    0    0  501    0  0.00000000000E+00  0.00000000000E+00  0.56026845119E+01  0.56026845119E+01  0.00000000000E+00 0. -1.
         -2   -1    0    0    0  501 -0.00000000000E+00 -0.00000000000E+00 -0.29216216878E+03  0.29216216878E+03  0.00000000000E+00 0.  1.
          2    1    1    2  502    0  0.21109245428E+02 -0.13446992135E+02 -0.26304161431E+02  0.36308824666E+02  0.00000000000E+00 0. -1.
         -2    1    1    2    0  502 -0.21109245428E+02  0.13446992135E+02 -0.26025532284E+03  0.26145602863E+03  0.00000000000E+00 0.  1.
</event>
<event>
 4    1  0.5978476E+003  0.2083448E+02  0.7546771E-02  0.1521641E+00
          2   -1    0    0  501    0  0.00000000000E+00  0.00000000000E+00  0.22177014536E+03  0.22177014536E+03  0.00000000000E+00 0.  1.
         -2   -1    0    0    0  501 -0.00000000000E+00 -0.00000000000E+00 -0.37338547812E+01  0.37338547812E+01  0.00000000000E+00 0. -1.
          2    1    1    2  502    0 -0.40057503203E+01  0.20445772494E+02  0.18679173065E+03  0.18795006328E+03  0.00000000000E+00 0.  1.
         -2    1    1    2    0  502  0.40057503203E+01 -0.20445772494E+02  0.31244559931E+02  0.37553936862E+02  0.00000000000E+00 0. -1.
</event>
<event>
 4    1  0.5978476E+003  0.2147258E+02  0.7546771E-02  0.1512623E+00
          2   -1    0    0  501    0  0.00000000000E+00  0.00000000000E+00  0.13191942171E+04  0.13191942171E+04  0.00000000000E+00 0.  1.
         -2   -1    0    0    0  501 -0.00000000000E+00 -0.00000000000E+00 -0.32092176911E+01  0.32092176911E+01  0.00000000000E+00 0. -1.
          2    1    1    2  502    0  0.38859351389E+01  0.21118027780E+02  0.12821514531E+04  0.12823312444E+04  0.00000000000E+00 0.  1.
         -2    1    1    2    0  502 -0.38859351389E+01 -0.21118027780E+02  0.33833546272E+02  0.40072190389E+02  0.00000000000E+00 0. -1.
</event>
<event>
 4    1  0.5978476E+003  0.2060355E+02  0.7546771E-02  0.1525001E+00
          2   -1    0    0  501    0  0.00000000000E+00  0.00000000000E+00  0.11377481459E+03  0.11377481459E+03  0.00000000000E+00 0. -1.
         -2   -1    0    0    0  501 -0.00000000000E+00 -0.00000000000E+00 -0.47410576127E+03  0.47410576127E+03  0.00000000000E+00 0. -1.
          2    1    1    2  502    0  0.20600946157E+02  0.32766655417E+00  0.11261590669E+03  0.11448514658E+03  0.00000000000E+00 0. -1.
         -2    1    1    2    0  502 -0.20600946157E+02 -0.32766655417E+00 -0.47294685337E+03  0.47339542928E+03  0.00000000000E+00 0. -1.
</event>
<event>
 4    1  0.5978476E+003  0.3440199E+02  0.7546771E-02  0.1384817E+00
          2   -1    0    0  501    0  0.00000000000E+00  0.00000000000E+00  0.30165733794E+02  0.30165733794E+02  0.00000000000E+00 0. -1.
         -2   -1    0    0    0  501 -0.00000000000E+00 -0.00000000000E+00 -0.85294352661E+02  0.85294352661E+02  0.00000000000E+00 0. -1.
          2    1    1    2  502    0  0.18279498063E+02 -0.29143724668E+02  0.14859472718E+02  0.37473999872E+02  0.00000000000E+00 0. -1.
         -2    1    1    2    0  502 -0.18279498063E+02  0.29143724668E+02 -0.69988091585E+02  0.77986086583E+02  0.00000000000E+00 0. -1.
</event>
<event>
 4    1  0.5978476E+003  0.3229133E+02  0.7546771E-02  0.1400676E+00
          2   -1    0    0  501    0  0.00000000000E+00  0.00000000000E+00  0.52409671257E+03  0.52409671257E+03  0.00000000000E+00 0.  1.
         -2   -1    0    0    0  501 -0.00000000000E+00 -0.00000000000E+00 -0.27012902004E+01  0.27012902004E+01  0.00000000000E+00 0.  1.
          2    1    1    2  502    0 -0.29868030496E+02  0.12273170677E+02  0.39589920164E+03  0.39721393206E+03  0.00000000000E+00 0.  1.
         -2    1    1    2    0  502  0.29868030496E+02 -0.12273170677E+02  0.12549622072E+03  0.12958407070E+03  0.00000000000E+00 0.  1.
</event>
<event>
 4    1  0.5978476E+003  0.2867646E+02  0.7546771E-02  0.1431458E+00
          2   -1    0    0  501    0  0.00000000000E+00  0.00000000000E+00  0.80752496249E+02  0.80752496249E+02  0.00000000000E+00 0.  1.
         -2   -1    0    0    0  501 -0.00000000000E+00 -0.00000000000E+00 -0.34561897065E+02  0.34561897065E+02  0.00000000000E+00 0.  1.
          2    1    1    2  502    0  0.28560082736E+02  0.25809485483E+01  0.71518968056E+02  0.77053892913E+02  0.00000000000E+00 0.  1.
         -2    1    1    2    0  502 -0.28560082736E+02 -0.25809485483E+01 -0.25328368871E+02  0.38260500401E+02  0.00000000000E+00 0.  1.
</event>
<event>
 4    1  0.5978476E+003  0.3522543E+02  0.7546771E-02  0.1378985E+00
          2   -1    0    0  501    0  0.00000000000E+00  0.00000000000E+00  0.22506749218E+03  0.22506749218E+03  0.00000000000E+00 0. -1.
         -2   -1    0    0    0  501 -0.00000000000E+00 -0.00000000000E+00 -0.21859478357E+02  0.21859478357E+02  0.00000000000E+00 0.  1.
          2    1    1    2  502    0  0.32258886540E+02 -0.14149033997E+02  0.20836896655E+03  0.21132547680E+03  0.00000000000E+00 0. -1.
         -2    1    1    2    0  502 -0.32258886540E+02  0.14149033997E+02 -0.51609527195E+01  0.35601493744E+02  0.00000000000E+00 0.  1.
</event>
<event>
 4    1  0.5978476E+003  0.2534151E+02  0.7546771E-02  0.1465019E+00
          2   -1    0    0  501    0  0.00000000000E+00  0.00000000000E+00  0.65818666623E+03  0.65818666623E+03  0.00000000000E+00 0.  1.
         -2   -1    0    0    0  501 -0.00000000000E+00 -0.00000000000E+00 -0.46121698513E+01  0.46121698513E+01  0.00000000000E+00 0.  1.
          2    1    1    2  502    0 -0.23828763792E+02  0.86245151180E+01  0.62105260381E+03  0.62156940798E+03  0.00000000000E+00 0.  1.
         -2    1    1    2    0  502  0.23828763792E+02 -0.86245151180E+01  0.32521892574E+02  0.41229428100E+02  0.00000000000E+00 0.  1.
</event>
<event>
 4    1  0.5978476E+003  0.3460485E+02  0.7546771E-02  0.1383363E+00
          2   -1    0    0  501    0  0.00000000000E+00  0.00000000000E+00  0.46511722950E+02  0.46511722950E+02  0.00000000000E+00 0. -1.
         -2   -1    0    0    0  501 -0.00000000000E+00 -0.00000000000E+00 -0.24335282384E+03  0.24335282384E+03  0.00000000000E+00 0. -1.
          2    1    1    2  502    0  0.33663274888E+02 -0.80174348599E+01  0.38630720588E+02  0.51863550892E+02  0.00000000000E+00 0. -1.
         -2    1    1    2    0  502 -0.33663274888E+02  0.80174348599E+01 -0.23547182148E+03  0.23800099590E+03  0.00000000000E+00 0. -1.
</event>
<event>
 4    1  0.5978476E+003  0.2377872E+02  0.7546771E-02  0.1482945E+00
          2   -1    0    0  501    0  0.00000000000E+00  0.00000000000E+00  0.18009911297E+03  0.18009911297E+03  0.00000000000E+00 0. -1.
         -2   -1    0    0    0  501 -0.00000000000E+00 -0.00000000000E+00 -0.33216624839E+01  0.33216624839E+01  0.00000000000E+00 0.  1.
          2    1    1    2  502    0 -0.23445929285E+02  0.39643491267E+01  0.10986343137E+03  0.11240730055E+03  0.00000000000E+00 0. -1.
         -2    1    1    2    0  502  0.23445929285E+02 -0.39643491267E+01  0.66914019116E+02  0.71013474906E+02  0.00000000000E+00 0.  1.
</event>
<event>
 4    1  0.5978476E+003  0.3942182E+02  0.7546771E-02  0.1351908E+00
          2   -1    0    0  501    0  0.00000000000E+00  0.00000000000E+00  0.22571242417E+02  0.22571242417E+02  0.00000000000E+00 0.  1.
         -2   -1    0    0    0  501 -0.00000000000E+00 -0.00000000000E+00 -0.15910123500E+04  0.15910123500E+04  0.00000000000E+00 0.  1.
          2    1    1    2  502    0  0.38742824365E+02 -0.72851585986E+01  0.49209231197E+01  0.39727766863E+02  0.00000000000E+00 0.  1.
         -2    1    1    2    0  502 -0.38742824365E+02  0.72851585986E+01 -0.15733620307E+04  0.15738558255E+04  0.00000000000E+00 0.  1.
</event>
<event>
 4    1  0.5978476E+003  0.3000958E+02  0.7546771E-02  0.1419513E+00
          2   -1    0    0  501    0  0.00000000000E+00  0.00000000000E+00  0.23376400186E+03  0.23376400186E+03  0.00000000000E+00 0. -1.
         -2   -1    0    0    0  501 -0.00000000000E+00 -0.00000000000E+00 -0.47111615427E+02  0.47111615427E+02  0.00000000000E+00 0. -1.
          2    1    1    2  502    0 -0.25203004545E+02  0.16290590243E+02  0.22789948816E+03  0.22986681246E+03  0.00000000000E+00 0. -1.
         -2    1    1    2    0  502  0.25203004545E+02 -0.16290590243E+02 -0.41247101727E+02  0.51008804823E+02  0.00000000000E+00 0. -1.
</event>
<event>
 4    1  0.5978476E+003  0.2067033E+02  0.7546771E-02  0.1524024E+00
          2   -1    0    0  501    0  0.00000000000E+00  0.00000000000E+00  0.78409987939E+00  0.78409987939E+00  0.00000000000E+00 0.  1.
         -2   -1    0    0    0  501 -0.00000000000E+00 -0.00000000000E+00 -0.16532602683E+04  0.16532602683E+04  0.00000000000E+00 0. -1.
          2    1    1    2  502    0  0.20430268893E+02 -0.31411204776E+01 -0.14908728536E+03  0.15051339203E+03  0.00000000000E+00 0.  1.
         -2    1    1    2    0  502 -0.20430268893E+02  0.31411204776E+01 -0.15033888831E+04  0.15035309761E+04  0.00000000000E+00 0. -1.
</event>
<event>
 4    1  0.5978476E+003  0.2787542E+02  0.7546771E-02  0.1439007E+00
          2   -1    0    0  501    0  0.00000000000E+00  0.00000000000E+00  0.44594170923E+01  0.44594170923E+01  0.00000000000E+00 0.  1.
         -2   -1    0    0    0  501 -0.00000000000E+00 -0.00000000000E+00 -0.77476928595E+03  0.77476928595E+03  0.00000000000E+00 0.  1.
          2    1    1    2  502    0 -0.20775304810E+02 -0.18585633402E+02 -0.42139712652E+02  0.50525186208E+02  0.00000000000E+00 0.  1.
         -2    1    1    2    0  502  0.20775304810E+02  0.18585633402E+02 -0.72817015621E+03  0.72870351684E+03  0.00000000000E+00 0.  1.
</event>
<event>
 4    1  0.5978476E+003  0.4413760E+02  0.7546771E-02  0.1325808E+00
          2   -1    0    0  501    0  0.00000000000E+00  0.00000000000E+00  0.23578946677E+04  0.23578946677E+04  0.00000000000E+00 0.  1.
         -2   -1    0    0    0  501 -0.00000000000E+00 -0.00000000000E+00 -0.54211564772E+01  0.54211564772E+01  0.00000000000E+00 0.  1.
          2    1    1    2  502    0  0.26137220605E+02 -0.35566462420E+02  0.22641287875E+04  0.22645589623E+04  0.00000000000E+00 0.  1.
         -2    1    1    2    0  502 -0.26137220605E+02  0.35566462420E+02  0.88344723757E+02  0.98756861867E+02  0.00000000000E+00 0.  1.
</event>
<event>
 4    1  0.5978476E+003  0.3462149E+02  0.7546771E-02  0.1383244E+00
          2   -1    0    0  501    0  0.00000000000E+00  0.00000000000E+00  0.74394204161E+02  0.74394204161E+02  0.00000000000E+00 0.  1.
         -2   -1    0    0    0  501 -0.00000000000E+00 -0.00000000000E+00 -0.30162486217E+03  0.30162486217E+03  0.00000000000E+00 0. -1.
          2    1    1    2  502    0  0.33576887692E+02  0.84403769799E+01  0.69303772966E+02  0.77470383360E+02  0.00000000000E+00 0.  1.
         -2    1    1    2    0  502 -0.33576887692E+02 -0.84403769799E+01 -0.29653443098E+03  0.29854868297E+03  0.00000000000E+00 0. -1.
</event>
<event>
 4    1  0.5978476E+003  0.4346433E+02  0.7546771E-02  0.1329299E+00
          2   -1    0    0  501    0  0.00000000000E+00  0.00000000000E+00  0.38103478201E+04  0.38103478201E+04  0.00000000000E+00 0.  1.
         -2   -1    0    0    0  501 -0.00000000000E+00 -0.00000000000E+00 -0.69773149289E+00  0.69773149289E+00  0.00000000000E+00 0. -1.
          2    1    1    2  502    0  0.30864926473E+02 -0.30602355244E+02  0.29299537431E+04  0.29302761107E+04  0.00000000000E+00 0.  1.
         -2    1    1    2    0  502 -0.30864926473E+02  0.30602355244E+02  0.87969634549E+03  0.88076944094E+03  0.00000000000E+00 0. -1.
</event>
<event>
 4    1  0.5978476E+003  0.2114210E+02  0.7546771E-02  0.1517246E+00
          2   -1    0    0  501    0  0.00000000000E+00  0.00000000000E+00  0.29117142535E+03  0.29117142535E+03  0.00000000000E+00 0. -1.
         -2   -1    0    0    0  501 -0.00000000000E+00 -0.00000000000E+00 -0.78075187687E+01  0.78075187687E+01  0.00000000000E+00 0.  1.
          2    1    1    2  502    0  0.21132371591E+02  0.64118758760E+00  0.27567131096E+03  0.27648084913E+03  0.00000000000E+00 0. -1.
         -2    1    1    2    0  502 -0.21132371591E+02 -0.64118758760E+00  0.76925956208E+01  0.22498094986E+02  0.00000000000E+00 0.  1.
</event>
<event>
 4    1  0.5978476E+003  0.2046176E+02  0.7546771E-02  0.1527090E+00
          2   -1    0    0  501    0  0.00000000000E+00  0.00000000000E+00  0.62479196102E+02  0.62479196102E+02  0.00000000000E+00 0. -1.
         -2   -1    0    0    0  501 -0.00000000000E+00 -0.00000000000E+00 -0.99200002302E+01  0.99200002302E+01  0.00000000000E+00 0. -1.
          2    1    1    2  502    0 -0.20190176807E+02  0.33227176716E+01  0.46899992371E+02  0.51169258120E+02  0.00000000000E+00 0. -1.
         -2    1    1    2    0  502  0.20190176807E+02 -0.33227176716E+01  0.56592035014E+01  0.21229938212E+02  0.00000000000E+00 0. -1.
</event>
<event>
 4    1  0.5978476E+003  0.3080988E+02  0.7546771E-02  0.1412686E+00
          2   -1    0    0  501    0  0.00000000000E+00  0.00000000000E+00  0.36442670154E+02  0.36442670154E+02  0.00000000000E+00 0.  1.
         -2   -1    0    0    0  501 -0.00000000000E+00 -0.00000000000E+00 -0.24470374593E+03  0.24470374593E+03  0.00000000000E+00 0. -1.
          2    1    1    2  502    0 -0.29887438568E+02  0.74826243227E+01  0.28750486525E+02  0.42140706287E+02  0.00000000000E+00 0.  1.
         -2    1    1    2    0  502  0.29887438568E+02 -0.74826243227E+01 -0.23701156231E+03  0.23900570980E+03  0.00000000000E+00 0. -1.
</event>
<event>
 4    1  0.5978476E+003  0.2777512E+02  0.7546771E-02  0.1439974E+00
          2   -1    0    0  501    0  0.00000000000E+00  0.00000000000E+00  0.55080554853E+01  0.55080554853E+01  0.00000000000E+00 0.  1.
         -2   -1    0    0    0  501 -0.00000000000E+00 -0.00000000000E+00 -0.29286259971E+03  0.29286259971E+03  0.00000000000E+00 0.  1.
          2    1    1    2  502    0 -0.26003846916E+02  0.97599718047E+01 -0.35916716174E+02  0.45403387592E+02  0.00000000000E+00 0.  1.
         -2    1    1    2    0  502  0.26003846916E+02 -0.97599718047E+01 -0.25143782805E+03  0.25296726761E+03  0.00000000000E+00 0.  1.
</event>
<event>
 4    1  0.5978476E+003  0.2325346E+02  0.7546771E-02  0.1489340E+00
          2   -1    0    0  501    0  0.00000000000E+00  0.00000000000E+00  0.98687363324E+03  0.98687363324E+03  0.00000000000E+00 0.  1.
         -2   -1    0    0    0  501 -0.00000000000E+00 -0.00000000000E+00 -0.93177344885E+02  0.93177344885E+02  0.00000000000E+00 0.  1.
          2    1    1    2  502    0 -0.12033487540E+02 -0.19897702189E+02  0.98528352241E+03  0.98555788410E+03  0.00000000000E+00 0.  1.
         -2    1    1    2    0  502  0.12033487540E+02  0.19897702189E+02 -0.91587234061E+02  0.94493094021E+02  0.00000000000E+00 0.  1.
</event>
<event>
 4    1  0.5978476E+003  0.2247366E+02  0.7546771E-02  0.1499215E+00
          2   -1    0    0  501    0  0.00000000000E+00  0.00000000000E+00  0.17992477870E+01  0.17992477870E+01  0.00000000000E+00 0.  1.
         -2   -1    0    0    0  501 -0.00000000000E+00 -0.00000000000E+00 -0.31402379746E+03  0.31402379746E+03  0.00000000000E+00 0.  1.
          2    1    1    2  502    0 -0.79877491727E+01  0.21006223027E+02 -0.10467838935E+03  0.10706367610E+03  0.00000000000E+00 0.  1.
         -2    1    1    2    0  502  0.79877491727E+01 -0.21006223027E+02 -0.20754616032E+03  0.20875936915E+03  0.00000000000E+00 0.  1.
</event>
<event>
 4    1  0.5978476E+003  0.2588054E+02  0.7546771E-02  0.1459189E+00
          2   -1    0    0  501    0  0.00000000000E+00  0.00000000000E+00  0.86786148416E+03  0.86786148416E+03  0.00000000000E+00 0.  1.
         -2   -1    0    0    0  501 -0.00000000000E+00 -0.00000000000E+00 -0.21001353166E+02  0.21001353166E+02  0.00000000000E+00 0. -1.
          2    1    1    2  502    0 -0.12680364793E+02 -0.22561270959E+02  0.85961877389E+03  0.86000827846E+03  0.00000000000E+00 0.  1.
         -2    1    1    2    0  502  0.12680364793E+02  0.22561270959E+02 -0.12758642897E+02  0.28854558863E+02  0.00000000000E+00 0. -1.
</event>
<event>
 4    1  0.8882526E+003  0.2798691E+02  0.7546771E-02  0.1437939E+00
          2   -1    0    0  501    0  0.00000000000E+00  0.00000000000E+00  0.11511445910E+04  0.11511445910E+04  0.00000000000E+00 0. -1.
         -2   -1    0    0    0  501 -0.00000000000E+00 -0.00000000000E+00 -0.20798722310E+03  0.20798722310E+03  0.00000000000E+00 0.  1.
          2    1    1    2  502    0 -0.41643439028E+01 -0.27675357200E+02  0.11500320896E+04  0.11503725806E+04  0.00000000000E+00 0. -1.
         -2    1    1    2    0  502  0.41643439028E+01  0.27675357200E+02 -0.20687472161E+03  0.20875923356E+03  0.00000000000E+00 0.  1.
</event>
<event>
 4    1  0.5978476E+003  0.3038706E+02  0.7546771E-02  0.1416262E+00
          2   -1    0    0  501    0  0.00000000000E+00  0.00000000000E+00  0.21262194949E+03  0.21262194949E+03  0.00000000000E+00 0.  1.
         -2   -1    0    0    0  501 -0.00000000000E+00 -0.00000000000E+00 -0.19868733290E+03  0.19868733290E+03  0.00000000000E+00 0. -1.
          2    1    1    2  502    0  0.83574266275E+01  0.29215185349E+02  0.21036199056E+03  0.21254538505E+03  0.00000000000E+00 0.  1.
         -2    1    1    2    0  502 -0.83574266275E+01 -0.29215185349E+02 -0.19642737398E+03  0.19876389733E+03  0.00000000000E+00 0. -1.
</event>
<event>
 4    1  0.5978476E+003  0.2002069E+02  0.7546771E-02  0.1533719E+00
          2   -1    0    0  501    0  0.00000000000E+00  0.00000000000E+00  0.61208958380E+02  0.61208958380E+02  0.00000000000E+00 0.  1.
         -2   -1    0    0    0  501 -0.00000000000E+00 -0.00000000000E+00 -0.30851623725E+02  0.30851623725E+02  0.00000000000E+00 0.  1.
          2    1    1    2  502    0  0.18456621086E+02 -0.77576640250E+01  0.56032759086E+02  0.59502086551E+02  0.00000000000E+00 0.  1.
         -2    1    1    2    0  502 -0.18456621086E+02  0.77576640250E+01 -0.25675424431E+02  0.32558495554E+02  0.00000000000E+00 0.  1.
</event>
<event>
 4    1  0.5978476E+003  0.2186618E+02  0.7546771E-02  0.1507248E+00
          2   -1    0    0  501    0  0.00000000000E+00  0.00000000000E+00  0.13821606521E+03  0.13821606521E+03  0.00000000000E+00 0. -1.
         -2   -1    0    0    0  501 -0.00000000000E+00 -0.00000000000E+00 -0.30744924156E+02  0.30744924156E+02  0.00000000000E+00 0. -1.
          2    1    1    2  502    0 -0.10345327604E+02  0.19264060297E+02  0.13332158194E+03  0.13510282762E+03  0.00000000000E+00 0. -1.
         -2    1    1    2    0  502  0.10345327604E+02 -0.19264060297E+02 -0.25850440885E+02  0.33858161738E+02  0.00000000000E+00 0. -1.
</event>
<event>
 4    1  0.5978476E+003  0.2720938E+02  0.7546771E-02  0.1445516E+00
          2   -1    0    0  501    0  0.00000000000E+00  0.00000000000E+00  0.49750910642E+02  0.49750910642E+02  0.00000000000E+00 0.  1.
         -2   -1    0    0    0  501 -0.00000000000E+00 -0.00000000000E+00 -0.18545888732E+03  0.18545888732E+03  0.00000000000E+00 0.  1.
          2    1    1    2  502    0  0.25627549327E+02 -0.91421531452E+01  0.44933980613E+02  0.52530113862E+02  0.00000000000E+00 0.  1.
         -2    1    1    2    0  502 -0.25627549327E+02  0.91421531452E+01 -0.18064195729E+03  0.18267968410E+03  0.00000000000E+00 0.  1.
</event>
<event>
 4    1  0.5978476E+003  0.2777318E+02  0.7546771E-02  0.1439992E+00
          2   -1    0    0  501    0  0.00000000000E+00  0.00000000000E+00  0.16132426571E+04  0.16132426571E+04  0.00000000000E+00 0.  1.
         -2   -1    0    0    0  501 -0.00000000000E+00 -0.00000000000E+00 -0.13532271669E+01  0.13532271669E+01  0.00000000000E+00 0.  1.
          2    1    1    2  502    0 -0.20342417315E+02 -0.18908604162E+02  0.14551397095E+04  0.14554047284E+04  0.00000000000E+00 0.  1.
         -2    1    1    2    0  502  0.20342417315E+02  0.18908604162E+02  0.15674972037E+03  0.15919115581E+03  0.00000000000E+00 0.  1.
</event>
<event>
 4    1  0.5978476E+003  0.2322217E+02  0.7546771E-02  0.1489727E+00
          2   -1    0    0  501    0  0.00000000000E+00  0.00000000000E+00  0.68754000131E+03  0.68754000131E+03  0.00000000000E+00 0.  1.
         -2   -1    0    0    0  501 -0.00000000000E+00 -0.00000000000E+00 -0.15753493345E+01  0.15753493345E+01  0.00000000000E+00 0.  1.
          2    1    1    2  502    0 -0.21562896212E+02 -0.86203703837E+01  0.58713564779E+03  0.58759470571E+03  0.00000000000E+00 0.  1.
         -2    1    1    2    0  502  0.21562896212E+02  0.86203703837E+01  0.98829004181E+02  0.10152064493E+03  0.00000000000E+00 0.  1.
</event>
<event>
 4    1  0.5978476E+003  0.3343420E+02  0.7546771E-02  0.1391918E+00
          2   -1    0    0  501    0  0.00000000000E+00  0.00000000000E+00  0.96075275607E+02  0.96075275607E+02  0.00000000000E+00 0. -1.
         -2   -1    0    0    0  501 -0.00000000000E+00 -0.00000000000E+00 -0.53618179490E+02  0.53618179490E+02  0.00000000000E+00 0.  1.
          2    1    1    2  502    0 -0.27668231008E+02  0.18770054384E+02  0.87458418112E+02  0.93631302711E+02  0.00000000000E+00 0. -1.
         -2    1    1    2    0  502  0.27668231008E+02 -0.18770054384E+02 -0.45001321996E+02  0.56062152386E+02  0.00000000000E+00 0.  1.
</event>
<event>
 4    1  0.5978476E+003  0.2444852E+02  0.7546771E-02  0.1475068E+00
          2   -1    0    0  501    0  0.00000000000E+00  0.00000000000E+00  0.31991929077E+03  0.31991929077E+03  0.00000000000E+00 0.  1.
         -2   -1    0    0    0  501 -0.00000000000E+00 -0.00000000000E+00 -0.27286139500E+01  0.27286139500E+01  0.00000000000E+00 0. -1.
          2    1    1    2  502    0  0.19981176879E+02  0.14088390856E+02  0.24917622826E+03  0.25037276792E+03  0.00000000000E+00 0.  1.
         -2    1    1    2    0  502 -0.19981176879E+02 -0.14088390856E+02  0.68014448555E+02  0.72275136795E+02  0.00000000000E+00 0. -1.
</event>
<event>
 4    1  0.5978476E+003  0.2220079E+02  0.7546771E-02  0.1502785E+00
          2   -1    0    0  501    0  0.00000000000E+00  0.00000000000E+00  0.36637984833E+03  0.36637984833E+03  0.00000000000E+00 0.  1.
         -2   -1    0    0    0  501 -0.00000000000E+00 -0.00000000000E+00 -0.62069908486E+01  0.62069908486E+01  0.00000000000E+00 0. -1.
          2    1    1    2  502    0 -0.14596407145E+01 -0.22152751266E+02  0.34496057750E+03  0.34567423243E+03  0.00000000000E+00 0.  1.
         -2    1    1    2    0  502  0.14596407145E+01  0.22152751266E+02  0.15212279986E+02  0.26912606750E+02  0.00000000000E+00 0. -1.
</event>
<event>
 4    1  0.5978476E+003  0.3491934E+02  0.7546771E-02  0.1381131E+00
          2   -1    0    0  501    0  0.00000000000E+00  0.00000000000E+00  0.27301073294E+01  0.27301073294E+01  0.00000000000E+00 0.  1.
         -2   -1    0    0    0  501 -0.00000000000E+00 -0.00000000000E+00 -0.44824002784E+03  0.44824002784E+03  0.00000000000E+00 0.  1.
          2    1    1    2  502    0  0.32241370711E+02  0.13410934024E+02 -0.23625143029E+03  0.23881812630E+03  0.00000000000E+00 0.  1.
         -2    1    1    2    0  502 -0.32241370711E+02 -0.13410934024E+02 -0.20925849023E+03  0.21215200887E+03  0.00000000000E+00 0.  1.
</event>
<event>
 4    1  0.5978476E+003  0.2190960E+02  0.7546771E-02  0.1506664E+00
          2   -1    0    0  501    0  0.00000000000E+00  0.00000000000E+00  0.13841499688E+04  0.13841499688E+04  0.00000000000E+00 0. -1.
         -2   -1    0    0    0  501 -0.00000000000E+00 -0.00000000000E+00 -0.18905622691E+02  0.18905622691E+02  0.00000000000E+00 0. -1.
          2    1    1    2  502    0 -0.21847967626E+02  0.16421984184E+01  0.13776857639E+04  0.13778599692E+04  0.00000000000E+00 0. -1.
         -2    1    1    2    0  502  0.21847967626E+02 -0.16421984184E+01 -0.12441417844E+02  0.25195622298E+02  0.00000000000E+00 0. -1.
</event>
<event>
 4    1  0.5978476E+003  0.2028820E+02  0.7546771E-02  0.1529675E+00
          2   -1    0    0  501    0  0.00000000000E+00  0.00000000000E+00  0.47132599500E+03  0.47132599500E+03  0.00000000000E+00 0.  1.
         -2   -1    0    0    0  501 -0.00000000000E+00 -0.00000000000E+00 -0.11808924876E+01  0.11808924876E+01  0.00000000000E+00 0.  1.
          2    1    1    2  502    0  0.14192151065E+02  0.14498072252E+02  0.35564759988E+03  0.35622580838E+03  0.00000000000E+00 0.  1.
         -2    1    1    2    0  502 -0.14192151065E+02 -0.14498072252E+02  0.11449750262E+03  0.11628107911E+03  0.00000000000E+00 0.  1.
</event>
<event>
 4    1  0.5978476E+003  0.2831322E+02  0.7546771E-02  0.1434845E+00
          2   -1    0    0  501    0  0.00000000000E+00  0.00000000000E+00  0.37011247231E+03  0.37011247231E+03  0.00000000000E+00 0.  1.
         -2   -1    0    0    0  501 -0.00000000000E+00 -0.00000000000E+00 -0.34306976967E+01  0.34306976967E+01  0.00000000000E+00 0.  1.
          2    1    1    2  502    0 -0.26788645192E+02  0.91655148010E+01  0.29674393995E+03  0.29809160349E+03  0.00000000000E+00 0.  1.
         -2    1    1    2    0  502  0.26788645192E+02 -0.91655148010E+01  0.69937834664E+02  0.75451566520E+02  0.00000000000E+00 0.  1.
</event>
<event>
 4    1  0.5978476E+003  0.2762809E+02  0.7546771E-02  0.1441399E+00
          2   -1    0    0  501    0  0.00000000000E+00  0.00000000000E+00  0.56351586949E+02  0.56351586949E+02  0.00000000000E+00 0. -1.
         -2   -1    0    0    0  501 -0.00000000000E+00 -0.00000000000E+00 -0.36354695777E+02  0.36354695777E+02  0.00000000000E+00 0.  1.
          2    1    1    2  502    0 -0.21192724694E+02 -0.17725122104E+02  0.46714306232E+02  0.54272810322E+02  0.00000000000E+00 0. -1.
         -2    1    1    2    0  502  0.21192724694E+02  0.17725122104E+02 -0.26717415060E+02  0.38433472404E+02  0.00000000000E+00 0.  1.
</event>
<event>
 4    1  0.5978476E+003  0.2395681E+02  0.7546771E-02  0.1480821E+00
          2   -1    0    0  501    0  0.00000000000E+00  0.00000000000E+00  0.19380299644E+02  0.19380299644E+02  0.00000000000E+00 0. -1.
         -2   -1    0    0    0  501 -0.00000000000E+00 -0.00000000000E+00 -0.18516559775E+03  0.18516559775E+03  0.00000000000E+00 0.  1.
          2    1    1    2  502    0  0.22270308970E+02  0.88296114129E+01  0.10845814011E+02  0.26297535643E+02  0.00000000000E+00 0. -1.
         -2    1    1    2    0  502 -0.22270308970E+02 -0.88296114129E+01 -0.17663111212E+03  0.17824836175E+03  0.00000000000E+00 0.  1.
</event>
<event>
 4    1  0.5978476E+003  0.3060041E+02  0.7546771E-02  0.1414449E+00
          2   -1    0    0  501    0  0.00000000000E+00  0.00000000000E+00  0.22984233013E+04  0.22984233013E+04  0.00000000000E+00 0.  1.
         -2   -1    0    0    0  501 -0.00000000000E+00 -0.00000000000E+00 -0.28804141611E+01  0.28804141611E+01  0.00000000000E+00 0. -1.
          2    1    1    2  502    0  0.69731220916E+01  0.29795309316E+02  0.22139489099E+04  0.22141603737E+04  0.00000000000E+00 0.  1.
         -2    1    1    2    0  502 -0.69731220916E+01 -0.29795309316E+02  0.81593977256E+02  0.87143341761E+02  0.00000000000E+00 0. -1.
</event>
<event>
 4    1  0.5978476E+003  0.3448392E+02  0.7546771E-02  0.1384228E+00
          2   -1    0    0  501    0  0.00000000000E+00  0.00000000000E+00  0.28455093117E+03  0.28455093117E+03  0.00000000000E+00 0.  1.
         -2   -1    0    0    0  501 -0.00000000000E+00 -0.00000000000E+00 -0.64454260031E+02  0.64454260031E+02  0.00000000000E+00 0.  1.
          2    1    1    2  502    0  0.21908513698E+02  0.26630022703E+02  0.27879903804E+03  0.28092355667E+03  0.00000000000E+00 0.  1.
         -2    1    1    2    0  502 -0.21908513698E+02 -0.26630022703E+02 -0.58702366896E+02  0.68081634534E+02  0.00000000000E+00 0.  1.
</event>
<event>
 4    1  0.5978476E+003  0.3564647E+02  0.7546771E-02  0.1376074E+00
          2   -1    0    0  501    0  0.00000000000E+00  0.00000000000E+00  0.11301957965E+04  0.11301957965E+04  0.00000000000E+00 0. -1.
         -2   -1    0    0    0  501 -0.00000000000E+00 -0.00000000000E+00 -0.10080258510E+02  0.10080258510E+02  0.00000000000E+00 0. -1.
          2    1    1    2  502    0  0.35054254744E+02  0.64707174263E+01  0.10974611394E+04  0.10980399006E+04  0.00000000000E+00 0. -1.
         -2    1    1    2    0  502 -0.35054254744E+02 -0.64707174263E+01  0.22654398622E+02  0.42236154377E+02  0.00000000000E+00 0. -1.
</event>
<event>
 4    1  0.5978476E+003  0.2395744E+02  0.7546771E-02  0.1480813E+00
          2   -1    0    0  501    0  0.00000000000E+00  0.00000000000E+00  0.23249407444E+04  0.23249407444E+04  0.00000000000E+00 0. -1.
         -2   -1    0    0    0  501 -0.00000000000E+00 -0.00000000000E+00 -0.31442119960E+00  0.31442119960E+00  0.00000000000E+00 0. -1.
          2    1    1    2  502    0 -0.63893570783E+01  0.23089719409E+02  0.17012029995E+04  0.17013716833E+04  0.00000000000E+00 0. -1.
         -2    1    1    2    0  502  0.63893570783E+01 -0.23089719409E+02  0.62342332363E+03  0.62388348229E+03  0.00000000000E+00 0. -1.
</event>
<event>
 4    1  0.5978476E+003  0.2038903E+02  0.7546771E-02  0.1528169E+00
          2   -1    0    0  501    0  0.00000000000E+00  0.00000000000E+00  0.16820522171E+03  0.16820522171E+03  0.00000000000E+00 0.  1.
         -2   -1    0    0    0  501 -0.00000000000E+00 -0.00000000000E+00 -0.21450215941E+03  0.21450215941E+03  0.00000000000E+00 0. -1.
          2    1    1    2  502    0 -0.19407979715E+02  0.62484211556E+01  0.16709965453E+03  0.16833896456E+03  0.00000000000E+00 0.  1.
         -2    1    1    2    0  502  0.19407979715E+02 -0.62484211556E+01 -0.21339659223E+03  0.21436841656E+03  0.00000000000E+00 0. -1.
</event>
<event>
 4    1  0.5978476E+003  0.2894511E+02  0.7546771E-02  0.1428990E+00
          2   -1    0    0  501    0  0.00000000000E+00  0.00000000000E+00  0.13367505318E+04  0.13367505318E+04  0.00000000000E+00 0.  1.
         -2   -1    0    0    0  501 -0.00000000000E+00 -0.00000000000E+00 -0.10039914714E+01  0.10039914714E+01  0.00000000000E+00 0. -1.
          2    1    1    2  502    0  0.28874026751E+02 -0.20273404978E+01  0.10778756155E+04  0.10782641894E+04  0.00000000000E+00 0.  1.
         -2    1    1    2    0  502 -0.28874026751E+02  0.20273404978E+01  0.25787092485E+03  0.25949033395E+03  0.00000000000E+00 0. -1.
</event>
<event>
 4    1  0.5978476E+003  0.4537436E+02  0.7546771E-02  0.1319578E+00
          2   -1    0    0  501    0  0.00000000000E+00  0.00000000000E+00  0.15535207012E+04  0.15535207012E+04  0.00000000000E+00 0. -1.
         -2   -1    0    0    0  501 -0.00000000000E+00 -0.00000000000E+00 -0.12542679352E+02  0.12542679352E+02  0.00000000000E+00 0.  1.
          2    1    1    2  502    0 -0.45258502179E+02 -0.32404340107E+01  0.15109982604E+04  0.15116793891E+04  0.00000000000E+00 0. -1.
         -2    1    1    2    0  502  0.45258502179E+02  0.32404340107E+01  0.29979761445E+02  0.54383991472E+02  0.00000000000E+00 0.  1.
</event>
<event>
 4    1  0.5978476E+003  0.3805427E+02  0.7546771E-02  0.1360281E+00
          2   -1    0    0  501    0  0.00000000000E+00  0.00000000000E+00  0.17710429970E+03  0.17710429970E+03  0.00000000000E+00 0.  1.
         -2   -1    0    0    0  501 -0.00000000000E+00 -0.00000000000E+00 -0.10502525564E+02  0.10502525564E+02  0.00000000000E+00 0.  1.
          2    1    1    2  502    0  0.77894023411E+01  0.37248526719E+02  0.12744379765E+03  0.13300394390E+03  0.00000000000E+00 0.  1.
         -2    1    1    2    0  502 -0.77894023411E+01 -0.37248526719E+02  0.39157976483E+02  0.54602881369E+02  0.00000000000E+00 0.  1.
</event>
<event>
 4    1  0.5978476E+003  0.3153039E+02  0.7546771E-02  0.1406748E+00
          2   -1    0    0  501    0  0.00000000000E+00  0.00000000000E+00  0.25146952124E+03  0.25146952124E+03  0.00000000000E+00 0.  1.
         -2   -1    0    0    0  501 -0.00000000000E+00 -0.00000000000E+00 -0.70313463202E+01  0.70313463202E+01  0.00000000000E+00 0.  1.
          2    1    1    2  502    0  0.31204530079E+02 -0.45213538387E+01  0.20773396481E+03  0.21011322060E+03  0.00000000000E+00 0.  1.
         -2    1    1    2    0  502 -0.31204530079E+02  0.45213538387E+01  0.36704210114E+02  0.48387646958E+02  0.00000000000E+00 0.  1.
</event>
<event>
 4    1  0.5978476E+003  0.4518607E+02  0.7546771E-02  0.1320512E+00
          2   -1    0    0  501    0  0.00000000000E+00  0.00000000000E+00  0.14549032796E+04  0.14549032796E+04  0.00000000000E+00 0.  1.
         -2   -1    0    0    0  501 -0.00000000000E+00 -0.00000000000E+00 -0.15663988493E+02  0.15663988493E+02  0.00000000000E+00 0.  1.
          2    1    1    2  502    0  0.20581412389E+01  0.45139168635E+02  0.14211924856E+04  0.14219106377E+04  0.00000000000E+00 0.  1.
         -2    1    1    2    0  502 -0.20581412389E+01 -0.45139168635E+02  0.18046805484E+02  0.48656630366E+02  0.00000000000E+00 0.  1.
</event>
<event>
 4    1  0.5978476E+003  0.5939548E+02  0.7546771E-02  0.1261901E+00
          2   -1    0    0  501    0  0.00000000000E+00  0.00000000000E+00  0.21838225435E+04  0.21838225435E+04  0.00000000000E+00 0. -1.
         -2   -1    0    0    0  501 -0.00000000000E+00 -0.00000000000E+00 -0.10918501860E+03  0.10918501860E+03  0.00000000000E+00 0. -1.
          2    1    1    2  502    0 -0.38121481037E+02  0.45547507650E+02  0.21753094533E+04  0.21761201806E+04  0.00000000000E+00 0. -1.
         -2    1    1    2    0  502  0.38121481037E+02 -0.45547507650E+02 -0.10067192844E+03  0.11688738147E+03  0.00000000000E+00 0. -1.
</event>
<event>
 4    1  0.5978476E+003  0.2123670E+02  0.7546771E-02  0.1515912E+00
          2   -1    0    0  501    0  0.00000000000E+00  0.00000000000E+00  0.51049706304E+03  0.51049706304E+03  0.00000000000E+00 0. -1.
         -2   -1    0    0    0  501 -0.00000000000E+00 -0.00000000000E+00 -0.89818313611E+00  0.89818313611E+00  0.00000000000E+00 0. -1.
          2    1    1    2  502    0 -0.18541394417E+02  0.10354419558E+02  0.28755084397E+03  0.28833398200E+03  0.00000000000E+00 0. -1.
         -2    1    1    2    0  502  0.18541394417E+02 -0.10354419558E+02  0.22204803593E+03  0.22306126417E+03  0.00000000000E+00 0. -1.
</event>
<event>
 4    1  0.5978476E+003  0.2069704E+02  0.7546771E-02  0.1523635E+00
          2   -1    0    0  501    0  0.00000000000E+00  0.00000000000E+00  0.10591023542E+04  0.10591023542E+04  0.00000000000E+00 0.  1.
         -2   -1    0    0    0  501 -0.00000000000E+00 -0.00000000000E+00 -0.50023207547E+00  0.50023207547E+00  0.00000000000E+00 0.  1.
          2    1    1    2  502    0 -0.15898200573E+01 -0.20635885123E+02  0.76111567996E+03  0.76139703543E+03  0.00000000000E+00 0.  1.
         -2    1    1    2    0  502  0.15898200573E+01  0.20635885123E+02  0.29748644220E+03  0.29820555088E+03  0.00000000000E+00 0.  1.
</event>
<event>
 4    1  0.5978476E+003  0.2499555E+02  0.7546771E-02  0.1468853E+00
          2   -1    0    0  501    0  0.00000000000E+00  0.00000000000E+00  0.10610398308E+04  0.10610398308E+04  0.00000000000E+00 0.  1.
         -2   -1    0    0    0  501 -0.00000000000E+00 -0.00000000000E+00 -0.71207558987E+02  0.71207558987E+02  0.00000000000E+00 0.  1.
          2    1    1    2  502    0 -0.18376929086E+02  0.16943015966E+02  0.10586942553E+04  0.10589892839E+04  0.00000000000E+00 0.  1.
         -2    1    1    2    0  502  0.18376929086E+02 -0.16943015966E+02 -0.68861983447E+02  0.73258105879E+02  0.00000000000E+00 0.  1.
</event>
<event>
 4    1  0.5978476E+003  0.2538124E+02  0.7546771E-02  0.1464583E+00
          2   -1    0    0  501    0  0.00000000000E+00  0.00000000000E+00  0.15187859657E+04  0.15187859657E+04  0.00000000000E+00 0.  1.
         -2   -1    0    0    0  501 -0.00000000000E+00 -0.00000000000E+00 -0.11266669218E+01  0.11266669218E+01  0.00000000000E+00 0. -1.
          2    1    1    2  502    0 -0.18373635928E+02  0.17510477773E+02  0.13589195936E+04  0.13591566022E+04  0.00000000000E+00 0.  1.
         -2    1    1    2    0  502  0.18373635928E+02 -0.17510477773E+02  0.15873970511E+03  0.16075603040E+03  0.00000000000E+00 0. -1.
</event>
<event>
 4    1  0.5978476E+003  0.3776614E+02  0.7546771E-02  0.1362098E+00
          2   -1    0    0  501    0  0.00000000000E+00  0.00000000000E+00  0.50013303862E+02  0.50013303862E+02  0.00000000000E+00 0.  1.
         -2   -1    0    0    0  501 -0.00000000000E+00 -0.00000000000E+00 -0.51256066341E+02  0.51256066341E+02  0.00000000000E+00 0.  1.
          2    1    1    2  502    0 -0.10548943093E+02  0.36262941938E+02  0.33103614669E+02  0.50220817024E+02  0.00000000000E+00 0.  1.
         -2    1    1    2    0  502  0.10548943093E+02 -0.36262941938E+02 -0.34346377148E+02  0.51048553178E+02  0.00000000000E+00 0.  1.
</event>
<event>
 4    1  0.5978476E+003  0.4953393E+02  0.7546771E-02  0.1300206E+00
          2   -1    0    0  501    0  0.00000000000E+00  0.00000000000E+00  0.11108876770E+02  0.11108876770E+02  0.00000000000E+00 0.  1.
         -2   -1    0    0    0  501 -0.00000000000E+00 -0.00000000000E+00 -0.32109110836E+03  0.32109110836E+03  0.00000000000E+00 0. -1.
          2    1    1    2  502    0 -0.44590173973E+02 -0.21571420302E+02 -0.62193546646E+02  0.79508785887E+02  0.00000000000E+00 0.  1.
         -2    1    1    2    0  502  0.44590173973E+02  0.21571420302E+02 -0.24778868494E+03  0.25269119924E+03  0.00000000000E+00 0. -1.
</event>
<event>
 4    1  0.5978476E+003  0.2050250E+02  0.7546771E-02  0.1526488E+00
          2   -1    0    0  501    0  0.00000000000E+00  0.00000000000E+00  0.95480514535E+03  0.95480514535E+03  0.00000000000E+00 0. -1.
         -2   -1    0    0    0  501 -0.00000000000E+00 -0.00000000000E+00 -0.44067562949E+00  0.44067562949E+00  0.00000000000E+00 0. -1.
          2    1    1    2  502    0  0.11429607398E+02 -0.17021068241E+02  0.49203094963E+03  0.49245792519E+03  0.00000000000E+00 0. -1.
         -2    1    1    2    0  502 -0.11429607398E+02  0.17021068241E+02  0.46233352009E+03  0.46278789579E+03  0.00000000000E+00 0. -1.
</event>
<event>
 4    1  0.5978476E+003  0.4798564E+02  0.7546771E-02  0.1307150E+00
          2   -1    0    0  501    0  0.00000000000E+00  0.00000000000E+00  0.28222660146E+02  0.28222660146E+02  0.00000000000E+00 0.  1.
         -2   -1    0    0    0  501 -0.00000000000E+00 -0.00000000000E+00 -0.21750357136E+03  0.21750357136E+03  0.00000000000E+00 0.  1.
          2    1    1    2  502    0 -0.40006430573E+02  0.26497308140E+02  0.24828423757E+01  0.48049831760E+02  0.00000000000E+00 0.  1.
         -2    1    1    2    0  502  0.40006430573E+02 -0.26497308140E+02 -0.19176375359E+03  0.19767639974E+03  0.00000000000E+00 0.  1.
</event>
<event>
 4    1  0.5978476E+003  0.3671839E+02  0.7546771E-02  0.1368869E+00
          2   -1    0    0  501    0  0.00000000000E+00  0.00000000000E+00  0.88555388464E+02  0.88555388464E+02  0.00000000000E+00 0. -1.
         -2   -1    0    0    0  501 -0.00000000000E+00 -0.00000000000E+00 -0.61636375249E+02  0.61636375249E+02  0.00000000000E+00 0.  1.
          2    1    1    2  502    0  0.32637317321E+02 -0.16823967933E+02  0.78623937883E+02  0.86775365094E+02  0.00000000000E+00 0. -1.
         -2    1    1    2    0  502 -0.32637317321E+02  0.16823967933E+02 -0.51704924668E+02  0.63416398619E+02  0.00000000000E+00 0.  1.
</event>
<event>
 4    1  0.5978476E+003  0.2248002E+02  0.7546771E-02  0.1499133E+00
          2   -1    0    0  501    0  0.00000000000E+00  0.00000000000E+00  0.26987489220E+02  0.26987489220E+02  0.00000000000E+00 0.  1.
         -2   -1    0    0    0  501 -0.00000000000E+00 -0.00000000000E+00 -0.18475697594E+03  0.18475697594E+03  0.00000000000E+00 0.  1.
          2    1    1    2  502    0  0.22158759754E+02  0.37869117975E+01  0.21479035149E+02  0.31091804157E+02  0.00000000000E+00 0.  1.
         -2    1    1    2    0  502 -0.22158759754E+02 -0.37869117975E+01 -0.17924852187E+03  0.18065266100E+03  0.00000000000E+00 0.  1.
</event>
<event>
 4    1  0.5978476E+003  0.2064700E+02  0.7546771E-02  0.1524365E+00
          2   -1    0    0  501    0  0.00000000000E+00  0.00000000000E+00  0.94955686082E+03  0.94955686082E+03  0.00000000000E+00 0. -1.
         -2   -1    0    0    0  501 -0.00000000000E+00 -0.00000000000E+00 -0.15027607240E+01  0.15027607240E+01  0.00000000000E+00 0. -1.
          2    1    1    2  502    0  0.97186417232E+01 -0.18216655616E+02  0.87223985846E+03  0.87248419426E+03  0.00000000000E+00 0. -1.
         -2    1    1    2    0  502 -0.97186417232E+01  0.18216655616E+02  0.75814241635E+02  0.78575427288E+02  0.00000000000E+00 0. -1.
</event>
<event>
 4    1  0.5978476E+003  0.2829253E+02  0.7546771E-02  0.1435039E+00
          2   -1    0    0  501    0  0.00000000000E+00  0.00000000000E+00  0.32003872730E+03  0.32003872730E+03  0.00000000000E+00 0. -1.
         -2   -1    0    0    0  501 -0.00000000000E+00 -0.00000000000E+00 -0.36366337897E+01  0.36366337897E+01  0.00000000000E+00 0. -1.
          2    1    1    2  502    0  0.27031834413E+02  0.83514668025E+01  0.24863239615E+03  0.25023695867E+03  0.00000000000E+00 0. -1.
         -2    1    1    2    0  502 -0.27031834413E+02 -0.83514668025E+01  0.67769697354E+02  0.73438402413E+02  0.00000000000E+00 0. -1.
</event>
<event>
 4    1  0.5978476E+003  0.2926738E+02  0.7546771E-02  0.1426072E+00
          2   -1    0    0  501    0  0.00000000000E+00  0.00000000000E+00  0.33802348820E+03  0.33802348820E+03  0.00000000000E+00 0.  1.
         -2   -1    0    0    0  501 -0.00000000000E+00 -0.00000000000E+00 -0.68498655499E+02  0.68498655499E+02  0.00000000000E+00 0.  1.
          2    1    1    2  502    0  0.27076938704E+02 -0.11109398000E+02  0.33422827290E+03  0.33550725438E+03  0.00000000000E+00 0.  1.
         -2    1    1    2    0  502 -0.27076938704E+02  0.11109398000E+02 -0.64703440193E+02  0.71014889328E+02  0.00000000000E+00 0.  1.
</event>
<event>
 4    1  0.5978476E+003  0.3318575E+02  0.7546771E-02  0.1393787E+00
          2   -1    0    0  501    0  0.00000000000E+00  0.00000000000E+00  0.88566309540E+03  0.88566309540E+03  0.00000000000E+00 0. -1.
         -2   -1    0    0    0  501 -0.00000000000E+00 -0.00000000000E+00 -0.15718226906E+02  0.15718226906E+02  0.00000000000E+00 0. -1.
          2    1    1    2  502    0  0.32633938421E+02 -0.60265856683E+01  0.86746878987E+03  0.86810333202E+03  0.00000000000E+00 0. -1.
         -2    1    1    2    0  502 -0.32633938421E+02  0.60265856683E+01  0.24760786212E+01  0.33277990279E+02  0.00000000000E+00 0. -1.
</event>
<event>
 4    1  0.5978476E+003  0.2195102E+02  0.7546771E-02  0.1506108E+00
          2   -1    0    0  501    0  0.00000000000E+00  0.00000000000E+00  0.66764561389E+01  0.66764561389E+01  0.00000000000E+00 0.  1.
         -2   -1    0    0    0  501 -0.00000000000E+00 -0.00000000000E+00 -0.14737086151E+03  0.14737086151E+03  0.00000000000E+00 0.  1.
          2    1    1    2  502    0  0.50127013289E+01 -0.21371013808E+02 -0.15326457346E+02  0.26772144116E+02  0.00000000000E+00 0.  1.
         -2    1    1    2    0  502 -0.50127013289E+01  0.21371013808E+02 -0.12536794802E+03  0.12727517353E+03  0.00000000000E+00 0.  1.
</event>
<event>
 4    1  0.5978476E+003  0.3019773E+02  0.7546771E-02  0.1417886E+00
          2   -1    0    0  501    0  0.00000000000E+00  0.00000000000E+00  0.12391960166E+03  0.12391960166E+03  0.00000000000E+00 0. -1.
         -2   -1    0    0    0  501 -0.00000000000E+00 -0.00000000000E+00 -0.29245558449E+02  0.29245558449E+02  0.00000000000E+00 0. -1.
          2    1    1    2  502    0  0.41719080039E+01  0.29908156277E+02  0.11358772771E+03  0.11753329109E+03  0.00000000000E+00 0. -1.
         -2    1    1    2    0  502 -0.41719080039E+01 -0.29908156277E+02 -0.18913684501E+02  0.35631869018E+02  0.00000000000E+00 0. -1.
</event>
<event>
 4    1  0.5978476E+003  0.2240135E+02  0.7546771E-02  0.1500155E+00
          2   -1    0    0  501    0  0.00000000000E+00  0.00000000000E+00  0.17123253816E+02  0.17123253816E+02  0.00000000000E+00 0.  1.
         -2   -1    0    0    0  501 -0.00000000000E+00 -0.00000000000E+00 -0.30421783846E+02  0.30421783846E+02  0.00000000000E+00 0.  1.
          2    1    1    2  502    0 -0.81074197656E+01  0.20882768516E+02 -0.20972632549E+01  0.22499306419E+02  0.00000000000E+00 0.  1.
         -2    1    1    2    0  502  0.81074197656E+01 -0.20882768516E+02 -0.11201266775E+02  0.25045731243E+02  0.00000000000E+00 0.  1.
</event>
<event>
 4    1  0.5978476E+003  0.3177331E+02  0.7546771E-02  0.1404788E+00
          2   -1    0    0  501    0  0.00000000000E+00  0.00000000000E+00  0.18034729451E+03  0.18034729451E+03  0.00000000000E+00 0.  1.
         -2   -1    0    0    0  501 -0.00000000000E+00 -0.00000000000E+00 -0.14233544109E+02  0.14233544109E+02  0.00000000000E+00 0. -1.
          2    1    1    2  502    0 -0.27839737314E+02 -0.15313139038E+02  0.15883853495E+03  0.16198525670E+03  0.00000000000E+00 0.  1.
         -2    1    1    2    0  502  0.27839737314E+02  0.15313139038E+02  0.72752154449E+01  0.32595581920E+02  0.00000000000E+00 0. -1.
</event>
<event>
 4    1  0.5978476E+003  0.2119469E+02  0.7546771E-02  0.1516503E+00
          2   -1    0    0  501    0  0.00000000000E+00  0.00000000000E+00  0.12314881113E+04  0.12314881113E+04  0.00000000000E+00 0.  1.
         -2   -1    0    0    0  501 -0.00000000000E+00 -0.00000000000E+00 -0.29043018406E+01  0.29043018406E+01  0.00000000000E+00 0. -1.
          2    1    1    2  502    0  0.61143076667E+01 -0.20293594496E+02  0.11914288412E+04  0.11916173456E+04  0.00000000000E+00 0.  1.
         -2    1    1    2    0  502 -0.61143076667E+01  0.20293594496E+02  0.37154968317E+02  0.42775067580E+02  0.00000000000E+00 0. -1.
</event>
<event>
 4    1  0.5978476E+003  0.1323490E+03  0.7546771E-02  0.1117221E+00
          2   -1    0    0  501    0  0.00000000000E+00  0.00000000000E+00  0.88847238363E+02  0.88847238363E+02  0.00000000000E+00 0. -1.
         -2   -1    0    0    0  501 -0.00000000000E+00 -0.00000000000E+00 -0.72220783445E+03  0.72220783445E+03  0.00000000000E+00 0.  1.
          2    1    1    2  502    0 -0.70443866386E+02 -0.11204433346E+03  0.29093950857E+02  0.13550914711E+03  0.00000000000E+00 0. -1.
         -2    1    1    2    0  502  0.70443866386E+02  0.11204433346E+03 -0.66245454695E+03  0.67554592571E+03  0.00000000000E+00 0.  1.
</event>
<event>
 4    1  0.5978476E+003  0.3139400E+02  0.7546771E-02  0.1407857E+00
          2   -1    0    0  501    0  0.00000000000E+00  0.00000000000E+00  0.18889222615E+04  0.18889222615E+04  0.00000000000E+00 0.  1.
         -2   -1    0    0    0  501 -0.00000000000E+00 -0.00000000000E+00 -0.44268982087E+01  0.44268982087E+01  0.00000000000E+00 0.  1.
          2    1    1    2  502    0  0.31301243475E+02  0.24114975172E+01  0.18313844914E+04  0.18316535531E+04  0.00000000000E+00 0.  1.
         -2    1    1    2    0  502 -0.31301243475E+02 -0.24114975172E+01  0.53110871827E+02  0.61695606566E+02  0.00000000000E+00 0.  1.
</event>
<event>
 4    1  0.5978476E+003  0.4013967E+02  0.7546771E-02  0.1347669E+00
          2   -1    0    0  501    0  0.00000000000E+00  0.00000000000E+00  0.18144274720E+02  0.18144274720E+02  0.00000000000E+00 0.  1.
         -2   -1    0    0    0  501 -0.00000000000E+00 -0.00000000000E+00 -0.90357426580E+02  0.90357426580E+02  0.00000000000E+00 0.  1.
          2    1    1    2  502    0  0.13847782935E+02 -0.37675345760E+02 -0.28981770229E+02  0.49508946423E+02  0.00000000000E+00 0.  1.
         -2    1    1    2    0  502 -0.13847782935E+02  0.37675345760E+02 -0.43231381630E+02  0.58992754877E+02  0.00000000000E+00 0.  1.
</event>
<event>
 4    1  0.5978476E+003  0.2301944E+02  0.7546771E-02  0.1492254E+00
          2   -1    0    0  501    0  0.00000000000E+00  0.00000000000E+00  0.25472966078E+02  0.25472966078E+02  0.00000000000E+00 0. -1.
         -2   -1    0    0    0  501 -0.00000000000E+00 -0.00000000000E+00 -0.58989246283E+03  0.58989246283E+03  0.00000000000E+00 0. -1.
          2    1    1    2  502    0 -0.18120422236E+02  0.14196648425E+02  0.19999144842E+02  0.30493611182E+02  0.00000000000E+00 0. -1.
         -2    1    1    2    0  502  0.18120422236E+02 -0.14196648425E+02 -0.58441864159E+03  0.58487181772E+03  0.00000000000E+00 0. -1.
</event>
<event>
 4    1  0.5978476E+003  0.2172631E+02  0.7546771E-02  0.1509143E+00
          2   -1    0    0  501    0  0.00000000000E+00  0.00000000000E+00  0.46407105864E+03  0.46407105864E+03  0.00000000000E+00 0.  1.
         -2   -1    0    0    0  501 -0.00000000000E+00 -0.00000000000E+00 -0.24693719545E+01  0.24693719545E+01  0.00000000000E+00 0. -1.
          2    1    1    2  502    0  0.48631509290E+01 -0.21175038261E+02  0.40968904335E+03  0.41026472518E+03  0.00000000000E+00 0.  1.
         -2    1    1    2    0  502 -0.48631509290E+01  0.21175038261E+02  0.51912643335E+02  0.56275705419E+02  0.00000000000E+00 0. -1.
</event>
<event>
 4    1  0.5978476E+003  0.2266239E+02  0.7546771E-02  0.1496782E+00
          2   -1    0    0  501    0  0.00000000000E+00  0.00000000000E+00  0.13652326794E+04  0.13652326794E+04  0.00000000000E+00 0.  1.
         -2   -1    0    0    0  501 -0.00000000000E+00 -0.00000000000E+00 -0.22930834875E+01  0.22930834875E+01  0.00000000000E+00 0.  1.
          2    1    1    2  502    0  0.19843727910E+02 -0.10945798256E+02  0.13066350263E+04  0.13068315408E+04  0.00000000000E+00 0.  1.
         -2    1    1    2    0  502 -0.19843727910E+02  0.10945798256E+02  0.56304569549E+02  0.60694222039E+02  0.00000000000E+00 0.  1.
</event>
<event>
 4    1  0.5978476E+003  0.2615033E+02  0.7546771E-02  0.1456335E+00
          2   -1    0    0  501    0  0.00000000000E+00  0.00000000000E+00  0.13564074974E+04  0.13564074974E+04  0.00000000000E+00 0. -1.
         -2   -1    0    0    0  501 -0.00000000000E+00 -0.00000000000E+00 -0.62802827150E+00  0.62802827150E+00  0.00000000000E+00 0. -1.
          2    1    1    2  502    0  0.25584219039E+02  0.54117918685E+01  0.97923214356E+03  0.97958125274E+03  0.00000000000E+00 0. -1.
         -2    1    1    2    0  502 -0.25584219039E+02 -0.54117918685E+01  0.37654732556E+03  0.37745427292E+03  0.00000000000E+00 0. -1.
</event>
<event>
 4    1  0.5978476E+003  0.2490631E+02  0.7546771E-02  0.1469854E+00
          2   -1    0    0  501    0  0.00000000000E+00  0.00000000000E+00  0.18081635987E+04  0.18081635987E+04  0.00000000000E+00 0. -1.
         -2   -1    0    0    0  501 -0.00000000000E+00 -0.00000000000E+00 -0.73279808366E+00  0.73279808366E+00  0.00000000000E+00 0. -1.
          2    1    1    2  502    0 -0.74422642426E+01  0.23768403952E+02  0.15633039602E+04  0.15635023493E+04  0.00000000000E+00 0. -1.
         -2    1    1    2    0  502  0.74422642426E+01 -0.23768403952E+02  0.24412684045E+03  0.24539404750E+03  0.00000000000E+00 0. -1.
</event>
<event>
 4    1  0.5978476E+003  0.4025954E+02  0.7546771E-02  0.1346972E+00
          2   -1    0    0  501    0  0.00000000000E+00  0.00000000000E+00  0.23266547622E+03  0.23266547622E+03  0.00000000000E+00 0.  1.
         -2   -1    0    0    0  501 -0.00000000000E+00 -0.00000000000E+00 -0.16529617668E+03  0.16529617668E+03  0.00000000000E+00 0.  1.
          2    1    1    2  502    0  0.37479724607E+02 -0.14700370008E+02  0.22842734912E+03  0.23194802103E+03  0.00000000000E+00 0.  1.
         -2    1    1    2    0  502 -0.37479724607E+02  0.14700370008E+02 -0.16105804958E+03  0.16601363188E+03  0.00000000000E+00 0.  1.
</event>
<event>
 4    1  0.5978476E+003  0.2548231E+02  0.7546771E-02  0.1463479E+00
          2   -1    0    0  501    0  0.00000000000E+00  0.00000000000E+00  0.22887361788E+03  0.22887361788E+03  0.00000000000E+00 0.  1.
         -2   -1    0    0    0  501 -0.00000000000E+00 -0.00000000000E+00 -0.55410381596E+01  0.55410381596E+01  0.00000000000E+00 0. -1.
          2    1    1    2  502    0  0.15443598474E+02 -0.20269273478E+02  0.19354175283E+03  0.19521208536E+03  0.00000000000E+00 0.  1.
         -2    1    1    2    0  502 -0.15443598474E+02  0.20269273478E+02  0.29790826885E+02  0.39202570676E+02  0.00000000000E+00 0. -1.
</event>
<event>
 4    1  0.5978476E+003  0.3679048E+02  0.7546771E-02  0.1368394E+00
          2   -1    0    0  501    0  0.00000000000E+00  0.00000000000E+00  0.26047123057E+04  0.26047123057E+04  0.00000000000E+00 0.  1.
         -2   -1    0    0    0  501 -0.00000000000E+00 -0.00000000000E+00 -0.64165324438E+01  0.64165324438E+01  0.00000000000E+00 0.  1.
          2    1    1    2  502    0  0.13804083324E+02 -0.34102589702E+02  0.25507299628E+04  0.25509952729E+04  0.00000000000E+00 0.  1.
         -2    1    1    2    0  502 -0.13804083324E+02  0.34102589702E+02  0.47565810408E+02  0.60133565175E+02  0.00000000000E+00 0.  1.
</event>
<event>
 4    1  0.5978476E+003  0.2109972E+02  0.7546771E-02  0.1517846E+00
          2   -1    0    0  501    0  0.00000000000E+00  0.00000000000E+00  0.37429047048E+03  0.37429047048E+03  0.00000000000E+00 0.  1.
         -2   -1    0    0    0  501 -0.00000000000E+00 -0.00000000000E+00 -0.58082040618E+01  0.58082040618E+01  0.00000000000E+00 0.  1.
          2    1    1    2  502    0 -0.26143539758E+01  0.20937131421E+02  0.35371706536E+03  0.35434582070E+03  0.00000000000E+00 0.  1.
         -2    1    1    2    0  502  0.26143539758E+01 -0.20937131421E+02  0.14765201059E+02  0.25752853845E+02  0.00000000000E+00 0.  1.
</event>
<event>
 4    1  0.5978476E+003  0.3295701E+02  0.7546771E-02  0.1395524E+00
          2   -1    0    0  501    0  0.00000000000E+00  0.00000000000E+00  0.48071971103E+02  0.48071971103E+02  0.00000000000E+00 0. -1.
         -2   -1    0    0    0  501 -0.00000000000E+00 -0.00000000000E+00 -0.15785511728E+03  0.15785511728E+03  0.00000000000E+00 0. -1.
          2    1    1    2  502    0  0.16935853326E+02 -0.28272626013E+02  0.40418708908E+02  0.52152052111E+02  0.00000000000E+00 0. -1.
         -2    1    1    2    0  502 -0.16935853326E+02  0.28272626013E+02 -0.15020185508E+03  0.15377503627E+03  0.00000000000E+00 0. -1.
</event>
<event>
 4    1  0.5978476E+003  0.2640249E+02  0.7546771E-02  0.1453704E+00
          2   -1    0    0  501    0  0.00000000000E+00  0.00000000000E+00  0.69591459052E+03  0.69591459052E+03  0.00000000000E+00 0. -1.
         -2   -1    0    0    0  501 -0.00000000000E+00 -0.00000000000E+00 -0.11614512244E+01  0.11614512244E+01  0.00000000000E+00 0. -1.
          2    1    1    2  502    0  0.12393736251E+02 -0.23312788258E+02  0.21811031937E+03  0.21970253119E+03  0.00000000000E+00 0. -1.
         -2    1    1    2    0  502 -0.12393736251E+02  0.23312788258E+02  0.47664281992E+03  0.47737351055E+03  0.00000000000E+00 0. -1.
</event>
<event>
 4    1  0.5978476E+003  0.2753872E+02  0.7546771E-02  0.1442270E+00
          2   -1    0    0  501    0  0.00000000000E+00  0.00000000000E+00  0.15769093536E+04  0.15769093536E+04  0.00000000000E+00 0. -1.
         -2   -1    0    0    0  501 -0.00000000000E+00 -0.00000000000E+00 -0.11660963715E+02  0.11660963715E+02  0.00000000000E+00 0. -1.
          2    1    1    2  502    0 -0.36551040804E+01 -0.27295075432E+02  0.15603576985E+04  0.15606006947E+04  0.00000000000E+00 0. -1.
         -2    1    1    2    0  502  0.36551040804E+01  0.27295075432E+02  0.48906913816E+01  0.27969622644E+02  0.00000000000E+00 0. -1.
</event>
<event>
 4    1  0.5978476E+003  0.2142501E+02  0.7546771E-02  0.1513283E+00
          2   -1    0    0  501    0  0.00000000000E+00  0.00000000000E+00  0.26322999720E+03  0.26322999720E+03  0.00000000000E+00 0.  1.
         -2   -1    0    0    0  501 -0.00000000000E+00 -0.00000000000E+00 -0.30183796194E+01  0.30183796194E+01  0.00000000000E+00 0.  1.
          2    1    1    2  502    0 -0.20837563337E+02 -0.49826698750E+01  0.21661189888E+03  0.21766889025E+03  0.00000000000E+00 0.  1.
         -2    1    1    2    0  502  0.20837563337E+02  0.49826698750E+01  0.43599718701E+02  0.48579486573E+02  0.00000000000E+00 0.  1.
</event>
<event>
 4    1  0.5978476E+003  0.2160393E+02  0.7546771E-02  0.1510814E+00
          2   -1    0    0  501    0  0.00000000000E+00  0.00000000000E+00  0.26268911458E+03  0.26268911458E+03  0.00000000000E+00 0. -1.
         -2   -1    0    0    0  501 -0.00000000000E+00 -0.00000000000E+00 -0.37860014351E+02  0.37860014351E+02  0.00000000000E+00 0. -1.
          2    1    1    2  502    0  0.80352760859E+01 -0.20054035207E+02  0.25912061468E+03  0.26001965876E+03  0.00000000000E+00 0. -1.
         -2    1    1    2    0  502 -0.80352760859E+01  0.20054035207E+02 -0.34291514445E+02  0.40529470176E+02  0.00000000000E+00 0. -1.
</event>
<event>
 4    1  0.5978476E+003  0.2144688E+02  0.7546771E-02  0.1512979E+00
          2   -1    0    0  501    0  0.00000000000E+00  0.00000000000E+00  0.86254725714E+03  0.86254725714E+03  0.00000000000E+00 0. -1.
         -2   -1    0    0    0  501 -0.00000000000E+00 -0.00000000000E+00 -0.22559809002E+01  0.22559809002E+01  0.00000000000E+00 0.  1.
          2    1    1    2  502    0 -0.19320331750E+02 -0.93109217463E+01  0.80800145199E+03  0.80828603533E+03  0.00000000000E+00 0. -1.
         -2    1    1    2    0  502  0.19320331750E+02  0.93109217463E+01  0.52289824246E+02  0.56517202712E+02  0.00000000000E+00 0.  1.
</event>
<event>
 4    1  0.5978476E+003  0.3947335E+02  0.7546771E-02  0.1351600E+00
          2   -1    0    0  501    0  0.00000000000E+00  0.00000000000E+00  0.24853503493E+04  0.24853503493E+04  0.00000000000E+00 0. -1.
         -2   -1    0    0    0  501 -0.00000000000E+00 -0.00000000000E+00 -0.93106233349E+02  0.93106233349E+02  0.00000000000E+00 0.  1.
          2    1    1    2  502    0 -0.34255276937E+02 -0.19614313128E+02  0.24810025014E+04  0.24813164968E+04  0.00000000000E+00 0. -1.
         -2    1    1    2    0  502  0.34255276937E+02  0.19614313128E+02 -0.88758385492E+02  0.97140085818E+02  0.00000000000E+00 0.  1.
</event>
<event>
 4    1  0.5978476E+003  0.2578175E+02  0.7546771E-02  0.1460245E+00
          2   -1    0    0  501    0  0.00000000000E+00  0.00000000000E+00  0.81959342210E+01  0.81959342210E+01  0.00000000000E+00 0. -1.
         -2   -1    0    0    0  501 -0.00000000000E+00 -0.00000000000E+00 -0.81580856754E+02  0.81580856754E+02  0.00000000000E+00 0. -1.
          2    1    1    2  502    0 -0.17785672304E+02 -0.18664616041E+02 -0.40135322320E+02  0.47702642789E+02  0.00000000000E+00 0. -1.
         -2    1    1    2    0  502  0.17785672304E+02  0.18664616041E+02 -0.33249600212E+02  0.42074148186E+02  0.00000000000E+00 0. -1.
</event>
<event>
 4    1  0.5978476E+003  0.2113300E+02  0.7546771E-02  0.1517374E+00
          2   -1    0    0  501    0  0.00000000000E+00  0.00000000000E+00  0.15797478724E+04  0.15797478724E+04  0.00000000000E+00 0. -1.
         -2   -1    0    0    0  501 -0.00000000000E+00 -0.00000000000E+00 -0.33496708637E+00  0.33496708637E+00  0.00000000000E+00 0.  1.
          2    1    1    2  502    0  0.37063013024E+01 -0.20805452352E+02  0.11017676795E+04  0.11019703368E+04  0.00000000000E+00 0. -1.
         -2    1    1    2    0  502 -0.37063013024E+01  0.20805452352E+02  0.47764522584E+03  0.47811250275E+03  0.00000000000E+00 0.  1.
</event>
<event>
 4    1  0.5978476E+003  0.3098329E+02  0.7546771E-02  0.1411240E+00
          2   -1    0    0  501    0  0.00000000000E+00  0.00000000000E+00  0.50698549710E+03  0.50698549710E+03  0.00000000000E+00 0. -1.
         -2   -1    0    0    0  501 -0.00000000000E+00 -0.00000000000E+00 -0.20116440241E+02  0.20116440241E+02  0.00000000000E+00 0.  1.
          2    1    1    2  502    0  0.16591098642E+02  0.26166770903E+02  0.49427555668E+03  0.49524568689E+03  0.00000000000E+00 0. -1.
         -2    1    1    2    0  502 -0.16591098642E+02 -0.26166770903E+02 -0.74064998135E+01  0.31856250456E+02  0.00000000000E+00 0.  1.
</event>
<event>
 4    1  0.5978476E+003  0.4071065E+02  0.7546771E-02  0.1344371E+00
          2   -1    0    0  501    0  0.00000000000E+00  0.00000000000E+00  0.23453825540E+03  0.23453825540E+03  0.00000000000E+00 0. -1.
         -2   -1    0    0    0  501 -0.00000000000E+00 -0.00000000000E+00 -0.12948262523E+02  0.12948262523E+02  0.00000000000E+00 0.  1.
          2    1    1    2  502    0 -0.98062268705E+01 -0.39511956630E+02  0.19419590256E+03  0.19841725070E+03  0.00000000000E+00 0. -1.
         -2    1    1    2    0  502  0.98062268705E+01  0.39511956630E+02  0.27394090320E+02  0.49069267231E+02  0.00000000000E+00 0.  1.
</event>
<event>
 4    1  0.5978476E+003  0.2106347E+02  0.7546771E-02  0.1518360E+00
          2   -1    0    0  501    0  0.00000000000E+00  0.00000000000E+00  0.78181232289E+03  0.78181232289E+03  0.00000000000E+00 0.  1.
         -2   -1    0    0    0  501 -0.00000000000E+00 -0.00000000000E+00 -0.32367840408E+01  0.32367840408E+01  0.00000000000E+00 0.  1.
          2    1    1    2  502    0 -0.43191313867E+01 -0.20615888626E+02  0.74574569048E+03  0.74604309837E+03  0.00000000000E+00 0.  1.
         -2    1    1    2    0  502  0.43191313867E+01  0.20615888626E+02  0.32829848374E+02  0.39006008563E+02  0.00000000000E+00 0.  1.
</event>
<event>
 4    1  0.5978476E+003  0.8557306E+02  0.7546771E-02  0.1191469E+00
          2   -1    0    0  501    0  0.00000000000E+00  0.00000000000E+00  0.52337822874E+03  0.52337822874E+03  0.00000000000E+00 0.  1.
         -2   -1    0    0    0  501 -0.00000000000E+00 -0.00000000000E+00 -0.37681082695E+02  0.37681082695E+02  0.00000000000E+00 0.  1.
          2    1    1    2  502    0  0.83300668138E+02 -0.19589483150E+02  0.46528069347E+03  0.47308442469E+03  0.00000000000E+00 0.  1.
         -2    1    1    2    0  502 -0.83300668138E+02  0.19589483150E+02  0.20416452568E+02  0.87974886744E+02  0.00000000000E+00 0.  1.
</event>
<event>
 4    1  0.5978476E+003  0.2347389E+02  0.7546771E-02  0.1486632E+00
          2   -1    0    0  501    0  0.00000000000E+00  0.00000000000E+00  0.26908974154E+03  0.26908974154E+03  0.00000000000E+00 0. -1.
         -2   -1    0    0    0  501 -0.00000000000E+00 -0.00000000000E+00 -0.42535897297E+01  0.42535897297E+01  0.00000000000E+00 0.  1.
          2    1    1    2  502    0 -0.20985139852E+02  0.10518911243E+02  0.23083946012E+03  0.23202991173E+03  0.00000000000E+00 0. -1.
         -2    1    1    2    0  502  0.20985139852E+02 -0.10518911243E+02  0.33996691693E+02  0.41313419544E+02  0.00000000000E+00 0.  1.
</event>
<event>
 4    1  0.5978476E+003  0.2173977E+02  0.7546771E-02  0.1508960E+00
          2   -1    0    0  501    0  0.00000000000E+00  0.00000000000E+00  0.28747217999E+03  0.28747217999E+03  0.00000000000E+00 0. -1.
         -2   -1    0    0    0  501 -0.00000000000E+00 -0.00000000000E+00 -0.23385642723E+01  0.23385642723E+01  0.00000000000E+00 0. -1.
          2    1    1    2  502    0  0.21402450314E+02 -0.38148066669E+01  0.22153487630E+03  0.22259900954E+03  0.00000000000E+00 0. -1.
         -2    1    1    2    0  502 -0.21402450314E+02  0.38148066669E+01  0.63598739422E+02  0.67211734730E+02  0.00000000000E+00 0. -1.
</event>
<event>
 4    1  0.5978476E+003  0.2377286E+02  0.7546771E-02  0.1483015E+00
          2   -1    0    0  501    0  0.00000000000E+00  0.00000000000E+00  0.60182135652E+03  0.60182135652E+03  0.00000000000E+00 0. -1.
         -2   -1    0    0    0  501 -0.00000000000E+00 -0.00000000000E+00 -0.93908125355E+00  0.93908125355E+00  0.00000000000E+00 0. -1.
          2    1    1    2  502    0  0.23482137852E+02 -0.37064192963E+01  0.29912294799E+03  0.30006613664E+03  0.00000000000E+00 0. -1.
         -2    1    1    2    0  502 -0.23482137852E+02  0.37064192963E+01  0.30175932727E+03  0.30269430113E+03  0.00000000000E+00 0. -1.
</event>
<event>
 4    1  0.5978476E+003  0.2289553E+02  0.7546771E-02  0.1493814E+00
          2   -1    0    0  501    0  0.00000000000E+00  0.00000000000E+00  0.15805195644E+03  0.15805195644E+03  0.00000000000E+00 0. -1.
         -2   -1    0    0    0  501 -0.00000000000E+00 -0.00000000000E+00 -0.80613781276E+02  0.80613781276E+02  0.00000000000E+00 0.  1.
          2    1    1    2  502    0  0.17473468357E+01  0.22828757950E+02  0.15557133803E+03  0.15724708782E+03  0.00000000000E+00 0. -1.
         -2    1    1    2    0  502 -0.17473468357E+01 -0.22828757950E+02 -0.78133162870E+02  0.81418649894E+02  0.00000000000E+00 0.  1.
</event>
<event>
 4    1  0.5978476E+003  0.5177909E+02  0.7546771E-02  0.1290638E+00
          2   -1    0    0  501    0  0.00000000000E+00  0.00000000000E+00  0.74639242873E+03  0.74639242873E+03  0.00000000000E+00 0.  1.
         -2   -1    0    0    0  501 -0.00000000000E+00 -0.00000000000E+00 -0.15778177694E+02  0.15778177694E+02  0.00000000000E+00 0.  1.
          2    1    1    2  502    0  0.14180348189E+02 -0.49799517112E+02  0.70021607614E+03  0.70212792813E+03  0.00000000000E+00 0.  1.
         -2    1    1    2    0  502 -0.14180348189E+02  0.49799517112E+02  0.30398174895E+02  0.60042678290E+02  0.00000000000E+00 0.  1.
</event>
<event>
 4    1  0.5978476E+003  0.9091551E+02  0.7546771E-02  0.1180555E+00
          2   -1    0    0  501    0  0.00000000000E+00  0.00000000000E+00  0.51542586393E+03  0.51542586393E+03  0.00000000000E+00 0.  1.
         -2   -1    0    0    0  501 -0.00000000000E+00 -0.00000000000E+00 -0.11803737037E+03  0.11803737037E+03  0.00000000000E+00 0.  1.
          2    1    1    2  502    0 -0.88945842899E+02 -0.18821975240E+02  0.49312527954E+03  0.50143610863E+03  0.00000000000E+00 0.  1.
         -2    1    1    2    0  502  0.88945842899E+02  0.18821975240E+02 -0.95736785979E+02  0.13202712566E+03  0.00000000000E+00 0.  1.
</event>
<event>
 4    1  0.5978476E+003  0.5400919E+02  0.7546771E-02  0.1281667E+00
          2   -1    0    0  501    0  0.00000000000E+00  0.00000000000E+00  0.49172676425E+03  0.49172676425E+03  0.00000000000E+00 0. -1.
         -2   -1    0    0    0  501 -0.00000000000E+00 -0.00000000000E+00 -0.24736991461E+02  0.24736991461E+02  0.00000000000E+00 0. -1.
          2    1    1    2  502    0 -0.15833219382E+02  0.51636243251E+02  0.45864457832E+03  0.46181364388E+03  0.00000000000E+00 0. -1.
         -2    1    1    2    0  502  0.15833219382E+02 -0.51636243251E+02  0.83451944769E+01  0.54650111838E+02  0.00000000000E+00 0. -1.
</event>
<event>
 4    1  0.5978476E+003  0.2234339E+02  0.7546771E-02  0.1500912E+00
          2   -1    0    0  501    0  0.00000000000E+00  0.00000000000E+00  0.24482202670E+03  0.24482202670E+03  0.00000000000E+00 0. -1.
         -2   -1    0    0    0  501 -0.00000000000E+00 -0.00000000000E+00 -0.44821202872E+01  0.44821202872E+01  0.00000000000E+00 0. -1.
          2    1    1    2  502    0  0.43912470186E+01 -0.21907627504E+02  0.21219741460E+03  0.21337049926E+03  0.00000000000E+00 0. -1.
         -2    1    1    2    0  502 -0.43912470186E+01  0.21907627504E+02  0.28142491812E+02  0.35933647722E+02  0.00000000000E+00 0. -1.
</event>
<event>
 4    1  0.5978476E+003  0.2998163E+02  0.7546771E-02  0.1419756E+00
          2   -1    0    0  501    0  0.00000000000E+00  0.00000000000E+00  0.23443553096E+04  0.23443553096E+04  0.00000000000E+00 0.  1.
         -2   -1    0    0    0  501 -0.00000000000E+00 -0.00000000000E+00 -0.77740322156E+00  0.77740322156E+00  0.00000000000E+00 0. -1.
          2    1    1    2  502    0  0.27255040826E+02 -0.12492424771E+02  0.20065212105E+04  0.20067451921E+04  0.00000000000E+00 0.  1.
         -2    1    1    2    0  502 -0.27255040826E+02  0.12492424771E+02  0.33705669583E+03  0.33838752065E+03  0.00000000000E+00 0. -1.
</event>
<event>
 4    1  0.5978476E+003  0.4234747E+02  0.7546771E-02  0.1335253E+00
          2   -1    0    0  501    0  0.00000000000E+00  0.00000000000E+00  0.10958577663E+04  0.10958577663E+04  0.00000000000E+00 0. -1.
         -2   -1    0    0    0  501 -0.00000000000E+00 -0.00000000000E+00 -0.17220293892E+02  0.17220293892E+02  0.00000000000E+00 0.  1.
          2    1    1    2  502    0  0.96208955152E+01  0.41240113415E+02  0.10687538500E+04  0.10695924927E+04  0.00000000000E+00 0. -1.
         -2    1    1    2    0  502 -0.96208955152E+01 -0.41240113415E+02  0.98836223804E+01  0.43485567449E+02  0.00000000000E+00 0.  1.
</event>
<event>
 4    1  0.5978476E+003  0.8560688E+02  0.7546771E-02  0.1191397E+00
          2   -1    0    0  501    0  0.00000000000E+00  0.00000000000E+00  0.10846713465E+04  0.10846713465E+04  0.00000000000E+00 0. -1.
         -2   -1    0    0    0  501 -0.00000000000E+00 -0.00000000000E+00 -0.67589846784E+01  0.67589846784E+01  0.00000000000E+00 0. -1.
          2    1    1    2  502    0  0.81197215504E+02  0.27120890494E+02  0.52839368844E+03  0.53528349544E+03  0.00000000000E+00 0. -1.
         -2    1    1    2    0  502 -0.81197215504E+02 -0.27120890494E+02  0.54951867336E+03  0.55614683572E+03  0.00000000000E+00 0. -1.
</event>
<event>
 4    1  0.5978476E+003  0.2245380E+02  0.7546771E-02  0.1499473E+00
          2   -1    0    0  501    0  0.00000000000E+00  0.00000000000E+00  0.57137901227E+03  0.57137901227E+03  0.00000000000E+00 0. -1.
         -2   -1    0    0    0  501 -0.00000000000E+00 -0.00000000000E+00 -0.11790204071E+02  0.11790204071E+02  0.00000000000E+00 0.  1.
          2    1    1    2  502    0 -0.14775624274E+01 -0.22405129561E+02  0.56025574761E+03  0.56070551607E+03  0.00000000000E+00 0. -1.
         -2    1    1    2    0  502  0.14775624274E+01  0.22405129561E+02 -0.66693941764E+00  0.22463700264E+02  0.00000000000E+00 0.  1.
</event>
<event>
 4    1  0.5978476E+003  0.2046289E+02  0.7546771E-02  0.1527073E+00
          2   -1    0    0  501    0  0.00000000000E+00  0.00000000000E+00  0.82154201021E+03  0.82154201021E+03  0.00000000000E+00 0. -1.
         -2   -1    0    0    0  501 -0.00000000000E+00 -0.00000000000E+00 -0.17744951740E+01  0.17744951740E+01  0.00000000000E+00 0.  1.
          2    1    1    2  502    0  0.19310661899E+02 -0.67696516974E+01  0.75742922489E+03  0.75770558964E+03  0.00000000000E+00 0. -1.
         -2    1    1    2    0  502 -0.19310661899E+02  0.67696516974E+01  0.62338290146E+02  0.65610915749E+02  0.00000000000E+00 0.  1.
</event>
<event>
 4    1  0.5978476E+003  0.2225863E+02  0.7546771E-02  0.1502023E+00
          2   -1    0    0  501    0  0.00000000000E+00  0.00000000000E+00  0.23359824061E+02  0.23359824061E+02  0.00000000000E+00 0. -1.
         -2   -1    0    0    0  501 -0.00000000000E+00 -0.00000000000E+00 -0.87190519891E+02  0.87190519891E+02  0.00000000000E+00 0.  1.
          2    1    1    2  502    0 -0.15463790749E+02 -0.16009925451E+02  0.16169195368E+02  0.27511623291E+02  0.00000000000E+00 0. -1.
         -2    1    1    2    0  502  0.15463790749E+02  0.16009925451E+02 -0.79999891198E+02  0.83038720660E+02  0.00000000000E+00 0.  1.
</event>
<event>
 4    1  0.5978476E+003  0.2038040E+02  0.7546771E-02  0.1528298E+00
          2   -1    0    0  501    0  0.00000000000E+00  0.00000000000E+00  0.75046221471E+03  0.75046221471E+03  0.00000000000E+00 0.  1.
         -2   -1    0    0    0  501 -0.00000000000E+00 -0.00000000000E+00 -0.34795572925E+01  0.34795572925E+01  0.00000000000E+00 0. -1.
          2    1    1    2  502    0  0.50355846606E+01 -0.19748504028E+02  0.71918325428E+03  0.71947196871E+03  0.00000000000E+00 0.  1.
         -2    1    1    2    0  502 -0.50355846606E+01  0.19748504028E+02  0.27799403141E+02  0.34469803295E+02  0.00000000000E+00 0. -1.
</event>
<event>
 4    1  0.5978476E+003  0.2891219E+02  0.7546771E-02  0.1429291E+00
          2   -1    0    0  501    0  0.00000000000E+00  0.00000000000E+00  0.38034413701E+03  0.38034413701E+03  0.00000000000E+00 0.  1.
         -2   -1    0    0    0  501 -0.00000000000E+00 -0.00000000000E+00 -0.83117144879E+01  0.83117144879E+01  0.00000000000E+00 0.  1.
          2    1    1    2  502    0  0.28863435510E+02  0.16783013644E+01  0.35268340491E+03  0.35386649842E+03  0.00000000000E+00 0.  1.
         -2    1    1    2    0  502 -0.28863435510E+02 -0.16783013644E+01  0.19349017609E+02  0.34789353075E+02  0.00000000000E+00 0.  1.
</event>
<event>
 4    1  0.5978476E+003  0.2187005E+02  0.7546771E-02  0.1507196E+00
          2   -1    0    0  501    0  0.00000000000E+00  0.00000000000E+00  0.25404697122E+03  0.25404697122E+03  0.00000000000E+00 0. -1.
         -2   -1    0    0    0  501 -0.00000000000E+00 -0.00000000000E+00 -0.54370495954E+01  0.54370495954E+01  0.00000000000E+00 0.  1.
          2    1    1    2  502    0  0.16797232463E+02 -0.14005435252E+02  0.22920552978E+03  0.23024655071E+03  0.00000000000E+00 0. -1.
         -2    1    1    2    0  502 -0.16797232463E+02  0.14005435252E+02  0.19404391848E+02  0.29237470103E+02  0.00000000000E+00 0.  1.
</event>
<event>
 4    1  0.5978476E+003  0.3349022E+02  0.7546771E-02  0.1391500E+00
          2   -1    0    0  501    0  0.00000000000E+00  0.00000000000E+00  0.34070865310E+03  0.34070865310E+03  0.00000000000E+00 0.  1.
         -2   -1    0    0    0  501 -0.00000000000E+00 -0.00000000000E+00 -0.46361243692E+01  0.46361243692E+01  0.00000000000E+00 0. -1.
          2    1    1    2  502    0 -0.33391128746E+02  0.25743521124E+01  0.26101286775E+03  0.26315263993E+03  0.00000000000E+00 0.  1.
         -2    1    1    2    0  502  0.33391128746E+02 -0.25743521124E+01  0.75059660980E+02  0.82192137544E+02  0.00000000000E+00 0. -1.
</event>
<event>
 4    1  0.5978476E+003  0.2752321E+02  0.7546771E-02  0.1442422E+00
          2   -1    0    0  501    0  0.00000000000E+00  0.00000000000E+00  0.38222823041E+03  0.38222823041E+03  0.00000000000E+00 0. -1.
         -2   -1    0    0    0  501 -0.00000000000E+00 -0.00000000000E+00 -0.57626935828E+02  0.57626935828E+02  0.00000000000E+00 0. -1.
          2    1    1    2  502    0 -0.53254861045E+01  0.27003079661E+02  0.37841333446E+03  0.37941293970E+03  0.00000000000E+00 0. -1.
         -2    1    1    2    0  502  0.53254861045E+01 -0.27003079661E+02 -0.53812039877E+02  0.60442226540E+02  0.00000000000E+00 0. -1.
</event>
<event>
 4    1  0.5978476E+003  0.2521474E+02  0.7546771E-02  0.1466415E+00
          2   -1    0    0  501    0  0.00000000000E+00  0.00000000000E+00  0.16276764571E+04  0.16276764571E+04  0.00000000000E+00 0. -1.
         -2   -1    0    0    0  501 -0.00000000000E+00 -0.00000000000E+00 -0.11229195453E+02  0.11229195453E+02  0.00000000000E+00 0. -1.
          2    1    1    2  502    0 -0.21085578585E+02  0.13826833375E+02  0.16132979735E+04  0.16134950060E+04  0.00000000000E+00 0. -1.
         -2    1    1    2    0  502  0.21085578585E+02 -0.13826833375E+02  0.31492881655E+01  0.25410646615E+02  0.00000000000E+00 0. -1.
</event>
<event>
 4    1  0.5978476E+003  0.2519236E+02  0.7546771E-02  0.1466663E+00
          2   -1    0    0  501    0  0.00000000000E+00  0.00000000000E+00  0.28332241928E+02  0.28332241928E+02  0.00000000000E+00 0. -1.
         -2   -1    0    0    0  501 -0.00000000000E+00 -0.00000000000E+00 -0.74288061636E+02  0.74288061636E+02  0.00000000000E+00 0. -1.
          2    1    1    2  502    0 -0.17300106115E+02 -0.18312872305E+02  0.19904148864E+02  0.32106543035E+02  0.00000000000E+00 0. -1.
         -2    1    1    2    0  502  0.17300106115E+02  0.18312872305E+02 -0.65859968572E+02  0.70513760529E+02  0.00000000000E+00 0. -1.
</event>
<event>
 4    1  0.5978476E+003  0.2205784E+02  0.7546771E-02  0.1504680E+00
          2   -1    0    0  501    0  0.00000000000E+00  0.00000000000E+00  0.29661886367E+01  0.29661886367E+01  0.00000000000E+00 0. -1.
         -2   -1    0    0    0  501 -0.00000000000E+00 -0.00000000000E+00 -0.18608080166E+03  0.18608080166E+03  0.00000000000E+00 0.  1.
          2    1    1    2  502    0  0.18827123302E+02 -0.11492947506E+02 -0.59019650382E+02  0.63006884905E+02  0.00000000000E+00 0. -1.
         -2    1    1    2    0  502 -0.18827123302E+02  0.11492947506E+02 -0.12409496264E+03  0.12604010539E+03  0.00000000000E+00 0.  1.
</event>
<event>
 4    1  0.5978476E+003  0.2418064E+02  0.7546771E-02  0.1478182E+00
          2   -1    0    0  501    0  0.00000000000E+00  0.00000000000E+00  0.18295836460E+04  0.18295836460E+04  0.00000000000E+00 0. -1.
         -2   -1    0    0    0  501 -0.00000000000E+00 -0.00000000000E+00 -0.40207636598E+00  0.40207636598E+00  0.00000000000E+00 0. -1.
          2    1    1    2  502    0 -0.14842285493E+02  0.19089518073E+02  0.13290424985E+04  0.13292624519E+04  0.00000000000E+00 0. -1.
         -2    1    1    2    0  502  0.14842285493E+02 -0.19089518073E+02  0.50013907114E+03  0.50072327050E+03  0.00000000000E+00 0. -1.
</event>
<event>
 4    1  0.5978476E+003  0.2255394E+02  0.7546771E-02  0.1498177E+00
          2   -1    0    0  501    0  0.00000000000E+00  0.00000000000E+00  0.14007538574E+04  0.14007538574E+04  0.00000000000E+00 0. -1.
         -2   -1    0    0    0  501 -0.00000000000E+00 -0.00000000000E+00 -0.12887914116E+01  0.12887914116E+01  0.00000000000E+00 0. -1.
          2    1    1    2  502    0 -0.10135965313E+02 -0.20148013523E+02  0.12938357310E+04  0.12940322944E+04  0.00000000000E+00 0. -1.
         -2    1    1    2    0  502  0.10135965313E+02  0.20148013523E+02  0.10562933507E+03  0.10801035445E+03  0.00000000000E+00 0. -1.
</event>
<event>
 4    1  0.5978476E+003  0.2551283E+02  0.7546771E-02  0.1463147E+00
          2   -1    0    0  501    0  0.00000000000E+00  0.00000000000E+00  0.48378778102E+03  0.48378778102E+03  0.00000000000E+00 0. -1.
         -2   -1    0    0    0  501 -0.00000000000E+00 -0.00000000000E+00 -0.26449702079E+01  0.26449702079E+01  0.00000000000E+00 0.  1.
          2    1    1    2  502    0 -0.23201922982E+02 -0.10610151303E+02  0.41105265041E+03  0.41184364260E+03  0.00000000000E+00 0. -1.
         -2    1    1    2    0  502  0.23201922982E+02  0.10610151303E+02  0.70090160398E+02  0.74589108624E+02  0.00000000000E+00 0.  1.
</event>
<event>
 4    1  0.5978476E+003  0.2143159E+02  0.7546771E-02  0.1513191E+00
          2   -1    0    0  501    0  0.00000000000E+00  0.00000000000E+00  0.12260336888E+02  0.12260336888E+02  0.00000000000E+00 0. -1.
         -2   -1    0    0    0  501 -0.00000000000E+00 -0.00000000000E+00 -0.53721578966E+02  0.53721578966E+02  0.00000000000E+00 0. -1.
          2    1    1    2  502    0 -0.13306843391E+02 -0.16800024742E+02 -0.25814174325E+01  0.21586491802E+02  0.00000000000E+00 0. -1.
         -2    1    1    2    0  502  0.13306843391E+02  0.16800024742E+02 -0.38879824645E+02  0.44395424053E+02  0.00000000000E+00 0. -1.
</event>
<event>
 4    1  0.5978476E+003  0.2937158E+02  0.7546771E-02  0.1425137E+00
          2   -1    0    0  501    0  0.00000000000E+00  0.00000000000E+00  0.81089532626E+03  0.81089532626E+03  0.00000000000E+00 0.  1.
         -2   -1    0    0    0  501 -0.00000000000E+00 -0.00000000000E+00 -0.59674666078E+01  0.59674666078E+01  0.00000000000E+00 0. -1.
          2    1    1    2  502    0 -0.28053992712E+02  0.86984576437E+01  0.77270223910E+03  0.77326026665E+03  0.00000000000E+00 0.  1.
         -2    1    1    2    0  502  0.28053992712E+02 -0.86984576437E+01  0.32225620554E+02  0.43602526217E+02  0.00000000000E+00 0. -1.
</event>
<event>
 4    1  0.5978476E+003  0.2358292E+02  0.7546771E-02  0.1485305E+00
          2   -1    0    0  501    0  0.00000000000E+00  0.00000000000E+00  0.12430326828E+04  0.12430326828E+04  0.00000000000E+00 0.  1.
         -2   -1    0    0    0  501 -0.00000000000E+00 -0.00000000000E+00 -0.62401831555E+00  0.62401831555E+00  0.00000000000E+00 0.  1.
          2    1    1    2  502    0 -0.51061989777E+01 -0.23023487354E+02  0.95200664437E+03  0.95229869534E+03  0.00000000000E+00 0.  1.
         -2    1    1    2    0  502  0.51061989777E+01  0.23023487354E+02  0.29040202010E+03  0.29135800576E+03  0.00000000000E+00 0.  1.
</event>
<event>
 4    1  0.5978476E+003  0.3567848E+02  0.7546771E-02  0.1375855E+00
          2   -1    0    0  501    0  0.00000000000E+00  0.00000000000E+00  0.36241562504E+02  0.36241562504E+02  0.00000000000E+00 0. -1.
         -2   -1    0    0    0  501 -0.00000000000E+00 -0.00000000000E+00 -0.26179412403E+03  0.26179412403E+03  0.00000000000E+00 0. -1.
          2    1    1    2  502    0 -0.34844340386E+02 -0.76698056895E+01  0.25885038024E+02  0.44079350831E+02  0.00000000000E+00 0. -1.
         -2    1    1    2    0  502  0.34844340386E+02  0.76698056895E+01 -0.25143759955E+03  0.25395633571E+03  0.00000000000E+00 0. -1.
</event>
<event>
 4    1  0.5978476E+003  0.2552632E+02  0.7546771E-02  0.1463001E+00
          2   -1    0    0  501    0  0.00000000000E+00  0.00000000000E+00  0.10174516599E+03  0.10174516599E+03  0.00000000000E+00 0. -1.
         -2   -1    0    0    0  501 -0.00000000000E+00 -0.00000000000E+00 -0.65618243954E+01  0.65618243954E+01  0.00000000000E+00 0.  1.
          2    1    1    2  502    0  0.21730733486E+02 -0.13392839832E+02  0.55985742776E+02  0.61530450436E+02  0.00000000000E+00 0. -1.
         -2    1    1    2    0  502 -0.21730733486E+02  0.13392839832E+02  0.39197598821E+02  0.46776539953E+02  0.00000000000E+00 0.  1.
</event>
<event>
 4    1  0.5978476E+003  0.2808116E+02  0.7546771E-02  0.1437040E+00
          2   -1    0    0  501    0  0.00000000000E+00  0.00000000000E+00  0.85371402974E+01  0.85371402974E+01  0.00000000000E+00 0. -1.
         -2   -1    0    0    0  501 -0.00000000000E+00 -0.00000000000E+00 -0.92737667187E+02  0.92737667187E+02  0.00000000000E+00 0. -1.
          2    1    1    2  502    0 -0.18126890552E+02  0.21446848568E+02 -0.38899623603E+02  0.47976371174E+02  0.00000000000E+00 0. -1.
         -2    1    1    2    0  502  0.18126890552E+02 -0.21446848568E+02 -0.45300903287E+02  0.53298436311E+02  0.00000000000E+00 0. -1.
</event>
<event>
 4    1  0.5978476E+003  0.3970791E+02  0.7546771E-02  0.1350206E+00
          2   -1    0    0  501    0  0.00000000000E+00  0.00000000000E+00  0.94323744035E+01  0.94323744035E+01  0.00000000000E+00 0.  1.
         -2   -1    0    0    0  501 -0.00000000000E+00 -0.00000000000E+00 -0.83446829930E+03  0.83446829930E+03  0.00000000000E+00 0. -1.
          2    1    1    2  502    0  0.39209504117E+02 -0.62715836265E+01 -0.35189469249E+02  0.53056731150E+02  0.00000000000E+00 0.  1.
         -2    1    1    2    0  502 -0.39209504117E+02  0.62715836265E+01 -0.78984645564E+03  0.79084394255E+03  0.00000000000E+00 0. -1.
</event>
<event>
 4    1  0.5978476E+003  0.2227239E+02  0.7546771E-02  0.1501843E+00
          2   -1    0    0  501    0  0.00000000000E+00  0.00000000000E+00  0.84735169335E+02  0.84735169335E+02  0.00000000000E+00 0. -1.
         -2   -1    0    0    0  501 -0.00000000000E+00 -0.00000000000E+00 -0.87186770221E+02  0.87186770221E+02  0.00000000000E+00 0.  1.
          2    1    1    2  502    0  0.21524235772E+02  0.57242266942E+01  0.81799062916E+02  0.84777038111E+02  0.00000000000E+00 0. -1.
         -2    1    1    2    0  502 -0.21524235772E+02 -0.57242266942E+01 -0.84250663802E+02  0.87144901445E+02  0.00000000000E+00 0.  1.
</event>
<event>
 4    1  0.5978476E+003  0.3018127E+02  0.7546771E-02  0.1418028E+00
          2   -1    0    0  501    0  0.00000000000E+00  0.00000000000E+00  0.68141024634E+03  0.68141024634E+03  0.00000000000E+00 0. -1.
         -2   -1    0    0    0  501 -0.00000000000E+00 -0.00000000000E+00 -0.25114068155E+01  0.25114068155E+01  0.00000000000E+00 0. -1.
          2    1    1    2  502    0  0.26668973218E+02 -0.14130642386E+02  0.57331380579E+03  0.57410768075E+03  0.00000000000E+00 0. -1.
         -2    1    1    2    0  502 -0.26668973218E+02  0.14130642386E+02  0.10558503373E+03  0.10981397240E+03  0.00000000000E+00 0. -1.
</event>
<event>
 4    1  0.5978476E+003  0.2438905E+02  0.7546771E-02  0.1475755E+00
          2   -1    0    0  501    0  0.00000000000E+00  0.00000000000E+00  0.11388770233E+04  0.11388770233E+04  0.00000000000E+00 0. -1.
         -2   -1    0    0    0  501 -0.00000000000E+00 -0.00000000000E+00 -0.14309802576E+04  0.14309802576E+04  0.00000000000E+00 0.  1.
          2    1    1    2  502    0 -0.24370257173E+02 -0.95728178850E+00  0.11386425097E+04  0.11389036793E+04  0.00000000000E+00 0. -1.
         -2    1    1    2    0  502  0.24370257173E+02  0.95728178850E+00 -0.14307457440E+04  0.14309536016E+04  0.00000000000E+00 0.  1.
</event>
<event>
 4    1  0.5978476E+003  0.4687260E+02  0.7546771E-02  0.1312333E+00
          2   -1    0    0  501    0  0.00000000000E+00  0.00000000000E+00  0.27936258430E+03  0.27936258430E+03  0.00000000000E+00 0.  1.
         -2   -1    0    0    0  501 -0.00000000000E+00 -0.00000000000E+00 -0.15002625782E+02  0.15002625782E+02  0.00000000000E+00 0.  1.
          2    1    1    2  502    0 -0.10451973562E+02 -0.45692420758E+02  0.23370324894E+03  0.23835739894E+03  0.00000000000E+00 0.  1.
         -2    1    1    2    0  502  0.10451973562E+02  0.45692420758E+02  0.30656709574E+02  0.56007811134E+02  0.00000000000E+00 0.  1.
</event>
<event>
 4    1  0.5978476E+003  0.2868780E+02  0.7546771E-02  0.1431353E+00
          2   -1    0    0  501    0  0.00000000000E+00  0.00000000000E+00  0.92352274937E+01  0.92352274937E+01  0.00000000000E+00 0.  1.
         -2   -1    0    0    0  501 -0.00000000000E+00 -0.00000000000E+00 -0.93053263666E+02  0.93053263666E+02  0.00000000000E+00 0.  1.
          2    1    1    2  502    0  0.23884435311E+02 -0.15890967046E+02 -0.52431844430E+02  0.59766942319E+02  0.00000000000E+00 0.  1.
         -2    1    1    2    0  502 -0.23884435311E+02  0.15890967046E+02 -0.31386191742E+02  0.42521548841E+02  0.00000000000E+00 0.  1.
</event>
<event>
 4    1  0.5978476E+003  0.3362221E+02  0.7546771E-02  0.1390517E+00
          2   -1    0    0  501    0  0.00000000000E+00  0.00000000000E+00  0.98109239991E+02  0.98109239991E+02  0.00000000000E+00 0.  1.
         -2   -1    0    0    0  501 -0.00000000000E+00 -0.00000000000E+00 -0.11574087513E+02  0.11574087513E+02  0.00000000000E+00 0.  1.
          2    1    1    2  502    0  0.25823849976E+02 -0.21530956865E+02  0.46932666798E+02  0.57733253363E+02  0.00000000000E+00 0.  1.
         -2    1    1    2    0  502 -0.25823849976E+02  0.21530956865E+02  0.39602485681E+02  0.51950074141E+02  0.00000000000E+00 0.  1.
</event>
<event>
 4    1  0.5978476E+003  0.2589219E+02  0.7546771E-02  0.1459065E+00
          2   -1    0    0  501    0  0.00000000000E+00  0.00000000000E+00  0.67128035172E+02  0.67128035172E+02  0.00000000000E+00 0.  1.
         -2   -1    0    0    0  501 -0.00000000000E+00 -0.00000000000E+00 -0.34108161093E+03  0.34108161093E+03  0.00000000000E+00 0. -1.
          2    1    1    2  502    0 -0.25512266686E+02 -0.44192356738E+01  0.64117712267E+02  0.69148292978E+02  0.00000000000E+00 0.  1.
         -2    1    1    2    0  502  0.25512266686E+02  0.44192356738E+01 -0.33807128803E+03  0.33906135313E+03  0.00000000000E+00 0. -1.
</event>
<event>
 4    1  0.5978476E+003  0.2209820E+02  0.7546771E-02  0.1504144E+00
          2   -1    0    0  501    0  0.00000000000E+00  0.00000000000E+00  0.38935775146E+03  0.38935775146E+03  0.00000000000E+00 0. -1.
         -2   -1    0    0    0  501 -0.00000000000E+00 -0.00000000000E+00 -0.49660748527E+01  0.49660748527E+01  0.00000000000E+00 0.  1.
          2    1    1    2  502    0 -0.20004712944E+02  0.93883803910E+01  0.36265227132E+03  0.36332492361E+03  0.00000000000E+00 0. -1.
         -2    1    1    2    0  502  0.20004712944E+02 -0.93883803910E+01  0.21739405294E+02  0.30998902704E+02  0.00000000000E+00 0.  1.
</event>
<event>
 4    1  0.5978476E+003  0.2395480E+02  0.7546771E-02  0.1480844E+00
          2   -1    0    0  501    0  0.00000000000E+00  0.00000000000E+00  0.38538068016E+03  0.38538068016E+03  0.00000000000E+00 0. -1.
         -2   -1    0    0    0  501 -0.00000000000E+00 -0.00000000000E+00 -0.83832688037E+01  0.83832688037E+01  0.00000000000E+00 0.  1.
          2    1    1    2  502    0 -0.84264876468E+01 -0.22423802675E+02  0.36704190065E+03  0.36782276908E+03  0.00000000000E+00 0. -1.
         -2    1    1    2    0  502  0.84264876468E+01  0.22423802675E+02  0.99555107093E+01  0.25941179887E+02  0.00000000000E+00 0.  1.
</event>
<event>
 4    1  0.5978476E+003  0.3642710E+02  0.7546771E-02  0.1370799E+00
          2   -1    0    0  501    0  0.00000000000E+00  0.00000000000E+00  0.55291136899E+02  0.55291136899E+02  0.00000000000E+00 0. -1.
         -2   -1    0    0    0  501 -0.00000000000E+00 -0.00000000000E+00 -0.43999510737E+02  0.43999510737E+02  0.00000000000E+00 0.  1.
          2    1    1    2  502    0  0.28764416948E+02  0.22350438762E+02  0.39117269781E+02  0.53451796886E+02  0.00000000000E+00 0. -1.
         -2    1    1    2    0  502 -0.28764416948E+02 -0.22350438762E+02 -0.27825643620E+02  0.45838850750E+02  0.00000000000E+00 0.  1.
</event>
<event>
 4    1  0.5978476E+003  0.2007333E+02  0.7546771E-02  0.1532918E+00
          2   -1    0    0  501    0  0.00000000000E+00  0.00000000000E+00  0.36309682642E+02  0.36309682642E+02  0.00000000000E+00 0.  1.
         -2   -1    0    0    0  501 -0.00000000000E+00 -0.00000000000E+00 -0.12431141162E+02  0.12431141162E+02  0.00000000000E+00 0.  1.
          2    1    1    2  502    0 -0.19165468302E+02 -0.59684983678E+01  0.39562873374E+01  0.20459480871E+02  0.00000000000E+00 0.  1.
         -2    1    1    2    0  502  0.19165468302E+02  0.59684983678E+01  0.19922254142E+02  0.28281342933E+02  0.00000000000E+00 0.  1.
</event>
<event>
 4    1  0.5978476E+003  0.3642675E+02  0.7546771E-02  0.1370801E+00
          2   -1    0    0  501    0  0.00000000000E+00  0.00000000000E+00  0.29428835004E+03  0.29428835004E+03  0.00000000000E+00 0.  1.
         -2   -1    0    0    0  501 -0.00000000000E+00 -0.00000000000E+00 -0.26073232183E+02  0.26073232183E+02  0.00000000000E+00 0.  1.
          2    1    1    2  502    0  0.57932199838E+01 -0.35963126244E+02  0.27978131194E+03  0.28214267731E+03  0.00000000000E+00 0.  1.
         -2    1    1    2    0  502 -0.57932199838E+01  0.35963126244E+02 -0.11566194087E+02  0.38218904912E+02  0.00000000000E+00 0.  1.
</event>
<event>
 4    1  0.5978476E+003  0.3679853E+02  0.7546771E-02  0.1368342E+00
          2   -1    0    0  501    0  0.00000000000E+00  0.00000000000E+00  0.46431966505E+03  0.46431966505E+03  0.00000000000E+00 0. -1.
         -2   -1    0    0    0  501 -0.00000000000E+00 -0.00000000000E+00 -0.17895986971E+02  0.17895986971E+02  0.00000000000E+00 0. -1.
          2    1    1    2  502    0 -0.35254229148E+02  0.10548510536E+02  0.44380076960E+03  0.44532376407E+03  0.00000000000E+00 0. -1.
         -2    1    1    2    0  502  0.35254229148E+02 -0.10548510536E+02  0.26229084741E+01  0.36891887946E+02  0.00000000000E+00 0. -1.
</event>
<event>
 4    1  0.5978476E+003  0.2280402E+02  0.7546771E-02  0.1494974E+00
          2   -1    0    0  501    0  0.00000000000E+00  0.00000000000E+00  0.57475484127E+02  0.57475484127E+02  0.00000000000E+00 0.  1.
         -2   -1    0    0    0  501 -0.00000000000E+00 -0.00000000000E+00 -0.13485850443E+02  0.13485850443E+02  0.00000000000E+00 0.  1.
          2    1    1    2  502    0 -0.38786128290E+01 -0.22471740114E+02  0.16407083980E+01  0.22862953993E+02  0.00000000000E+00 0.  1.
         -2    1    1    2    0  502  0.38786128290E+01  0.22471740114E+02  0.42348925287E+02  0.48098380577E+02  0.00000000000E+00 0.  1.
</event>
<event>
 4    1  0.5978476E+003  0.2520055E+02  0.7546771E-02  0.1466572E+00
          2   -1    0    0  501    0  0.00000000000E+00  0.00000000000E+00  0.91760322789E+01  0.91760322789E+01  0.00000000000E+00 0.  1.
         -2   -1    0    0    0  501 -0.00000000000E+00 -0.00000000000E+00 -0.11623263013E+03  0.11623263013E+03  0.00000000000E+00 0.  1.
          2    1    1    2  502    0 -0.15819030452E+02 -0.19616981643E+02 -0.13645122990E+02  0.28657583196E+02  0.00000000000E+00 0.  1.
         -2    1    1    2    0  502  0.15819030452E+02  0.19616981643E+02 -0.93411474865E+02  0.96751079217E+02  0.00000000000E+00 0.  1.
</event>
<event>
 4    1  0.5978476E+003  0.2447022E+02  0.7546771E-02  0.1474818E+00
          2   -1    0    0  501    0  0.00000000000E+00  0.00000000000E+00  0.98735088731E+02  0.98735088731E+02  0.00000000000E+00 0.  1.
         -2   -1    0    0    0  501 -0.00000000000E+00 -0.00000000000E+00 -0.66226526883E+01  0.66226526883E+01  0.00000000000E+00 0.  1.
          2    1    1    2  502    0 -0.23790015871E+02  0.57294739572E+01  0.61347595472E+02  0.66047855356E+02  0.00000000000E+00 0.  1.
         -2    1    1    2    0  502  0.23790015871E+02 -0.57294739572E+01  0.30764840571E+02  0.39309886064E+02  0.00000000000E+00 0.  1.
</event>
<event>
 4    1  0.5978476E+003  0.2378791E+02  0.7546771E-02  0.1482834E+00
          2   -1    0    0  501    0  0.00000000000E+00  0.00000000000E+00  0.23547738635E+02  0.23547738635E+02  0.00000000000E+00 0. -1.
         -2   -1    0    0    0  501 -0.00000000000E+00 -0.00000000000E+00 -0.41448411792E+02  0.41448411792E+02  0.00000000000E+00 0. -1.
          2    1    1    2  502    0  0.23135994298E+02 -0.55308601910E+01  0.12116598564E+02  0.26696003584E+02  0.00000000000E+00 0. -1.
         -2    1    1    2    0  502 -0.23135994298E+02  0.55308601910E+01 -0.30017271721E+02  0.38300146843E+02  0.00000000000E+00 0. -1.
</event>
<event>
 4    1  0.5978476E+003  0.2625602E+02  0.7546771E-02  0.1455228E+00
          2   -1    0    0  501    0  0.00000000000E+00  0.00000000000E+00  0.39517442146E+02  0.39517442146E+02  0.00000000000E+00 0. -1.
         -2   -1    0    0    0  501 -0.00000000000E+00 -0.00000000000E+00 -0.33129679868E+02  0.33129679868E+02  0.00000000000E+00 0.  1.
          2    1    1    2  502    0 -0.26021178663E+02  0.35038365587E+01  0.28186901226E+02  0.38521163149E+02  0.00000000000E+00 0. -1.
         -2    1    1    2    0  502  0.26021178663E+02 -0.35038365587E+01 -0.21799138948E+02  0.34125958865E+02  0.00000000000E+00 0.  1.
</event>
<event>
 4    1  0.5978476E+003  0.4648291E+02  0.7546771E-02  0.1314187E+00
          2   -1    0    0  501    0  0.00000000000E+00  0.00000000000E+00  0.41721349329E+02  0.41721349329E+02  0.00000000000E+00 0.  1.
         -2   -1    0    0    0  501 -0.00000000000E+00 -0.00000000000E+00 -0.58928146302E+03  0.58928146302E+03  0.00000000000E+00 0. -1.
          2    1    1    2  502    0 -0.33215283337E+02  0.32517773969E+02  0.27538963618E+02  0.54028281374E+02  0.00000000000E+00 0.  1.
         -2    1    1    2    0  502  0.33215283337E+02 -0.32517773969E+02 -0.57509907731E+03  0.57697453097E+03  0.00000000000E+00 0. -1.
</event>
<event>
 4    1  0.5978476E+003  0.2420008E+02  0.7546771E-02  0.1477955E+00
          2   -1    0    0  501    0  0.00000000000E+00  0.00000000000E+00  0.73445988507E+03  0.73445988507E+03  0.00000000000E+00 0. -1.
         -2   -1    0    0    0  501 -0.00000000000E+00 -0.00000000000E+00 -0.97923712262E+01  0.97923712262E+01  0.00000000000E+00 0. -1.
          2    1    1    2  502    0  0.24082755884E+02  0.23800524504E+01  0.71898734421E+03  0.71939449880E+03  0.00000000000E+00 0. -1.
         -2    1    1    2    0  502 -0.24082755884E+02 -0.23800524504E+01  0.56801696425E+01  0.24857757497E+02  0.00000000000E+00 0. -1.
</event>
<event>
 4    1  0.5978476E+003  0.4132028E+02  0.7546771E-02  0.1340918E+00
          2   -1    0    0  501    0  0.00000000000E+00  0.00000000000E+00  0.14634729839E+04  0.14634729839E+04  0.00000000000E+00 0. -1.
         -2   -1    0    0    0  501 -0.00000000000E+00 -0.00000000000E+00 -0.93942644950E+01  0.93942644950E+01  0.00000000000E+00 0. -1.
          2    1    1    2  502    0 -0.31319544307E+02  0.26952769558E+02  0.14162295652E+04  0.14168322226E+04  0.00000000000E+00 0. -1.
         -2    1    1    2    0  502  0.31319544307E+02 -0.26952769558E+02  0.37849154213E+02  0.56035025806E+02  0.00000000000E+00 0. -1.
</event>
<event>
 4    1  0.5978476E+003  0.2180118E+02  0.7546771E-02  0.1508126E+00
          2   -1    0    0  501    0  0.00000000000E+00  0.00000000000E+00  0.24821353951E+02  0.24821353951E+02  0.00000000000E+00 0. -1.
         -2   -1    0    0    0  501 -0.00000000000E+00 -0.00000000000E+00 -0.90116447890E+02  0.90116447890E+02  0.00000000000E+00 0.  1.
          2    1    1    2  502    0  0.18677802075E+02  0.11244169273E+02  0.18351491785E+02  0.28496822344E+02  0.00000000000E+00 0. -1.
         -2    1    1    2    0  502 -0.18677802075E+02 -0.11244169273E+02 -0.83646585724E+02  0.86440979497E+02  0.00000000000E+00 0.  1.
</event>
<event>
 4    1  0.5978476E+003  0.2418369E+02  0.7546771E-02  0.1478146E+00
          2   -1    0    0  501    0  0.00000000000E+00  0.00000000000E+00  0.18385745519E+04  0.18385745519E+04  0.00000000000E+00 0.  1.
         -2   -1    0    0    0  501 -0.00000000000E+00 -0.00000000000E+00 -0.31812425215E+00  0.31812425215E+00  0.00000000000E+00 0. -1.
          2    1    1    2  502    0 -0.20668752056E+02 -0.12555994783E+02  0.91107795917E+03  0.91139886877E+03  0.00000000000E+00 0.  1.
         -2    1    1    2    0  502  0.20668752056E+02  0.12555994783E+02  0.92717846850E+03  0.92749380740E+03  0.00000000000E+00 0. -1.
</event>
<event>
 4    1  0.5978476E+003  0.2194831E+02  0.7546771E-02  0.1506144E+00
          2   -1    0    0  501    0  0.00000000000E+00  0.00000000000E+00  0.15657150377E+02  0.15657150377E+02  0.00000000000E+00 0. -1.
         -2   -1    0    0    0  501 -0.00000000000E+00 -0.00000000000E+00 -0.10061522997E+03  0.10061522997E+03  0.00000000000E+00 0. -1.
          2    1    1    2  502    0 -0.19319993129E+02  0.10414711218E+02  0.59595460469E+01  0.22743010648E+02  0.00000000000E+00 0. -1.
         -2    1    1    2    0  502  0.19319993129E+02 -0.10414711218E+02 -0.90917625635E+02  0.93529369694E+02  0.00000000000E+00 0. -1.
</event>
<event>
 4    1  0.5978476E+003  0.2995832E+02  0.7546771E-02  0.1419959E+00
          2   -1    0    0  501    0  0.00000000000E+00  0.00000000000E+00  0.64849177840E+02  0.64849177840E+02  0.00000000000E+00 0. -1.
         -2   -1    0    0    0  501 -0.00000000000E+00 -0.00000000000E+00 -0.10147090677E+03  0.10147090677E+03  0.00000000000E+00 0. -1.
          2    1    1    2  502    0  0.24420454591E+02 -0.17353444805E+02  0.58970190357E+02  0.66143661826E+02  0.00000000000E+00 0. -1.
         -2    1    1    2    0  502 -0.24420454591E+02  0.17353444805E+02 -0.95591919290E+02  0.10017642279E+03  0.00000000000E+00 0. -1.
</event>
<event>
 4    1  0.5978476E+003  0.2023899E+02  0.7546771E-02  0.1530413E+00
          2   -1    0    0  501    0  0.00000000000E+00  0.00000000000E+00  0.19203297237E+03  0.19203297237E+03  0.00000000000E+00 0. -1.
         -2   -1    0    0    0  501 -0.00000000000E+00 -0.00000000000E+00 -0.20412204084E+02  0.20412204084E+02  0.00000000000E+00 0. -1.
          2    1    1    2  502    0  0.19763652412E+02  0.43605795615E+01  0.18632979469E+03  0.18742574263E+03  0.00000000000E+00 0. -1.
         -2    1    1    2    0  502 -0.19763652412E+02 -0.43605795615E+01 -0.14709026408E+02  0.25019433820E+02  0.00000000000E+00 0. -1.
</event>
<event>
 4    1  0.5978476E+003  0.2830314E+02  0.7546771E-02  0.1434939E+00
          2   -1    0    0  501    0  0.00000000000E+00  0.00000000000E+00  0.52301413814E+02  0.52301413814E+02  0.00000000000E+00 0.  1.
         -2   -1    0    0    0  501 -0.00000000000E+00 -0.00000000000E+00 -0.66267075584E+03  0.66267075584E+03  0.00000000000E+00 0.  1.
          2    1    1    2  502    0 -0.21053924462E+02  0.18915598746E+02  0.48145958754E+02  0.55848911856E+02  0.00000000000E+00 0.  1.
         -2    1    1    2    0  502  0.21053924462E+02 -0.18915598746E+02 -0.65851530078E+03  0.65912325780E+03  0.00000000000E+00 0.  1.
</event>
