<event>
 4    1  0.6688462E+003  0.3690515E+02  0.7546771E-02  0.1367643E+00
          2   -1    0    0  502    0  0.00000000000E+00  0.00000000000E+00  0.91912887347E+03  0.91912887347E+03  0.00000000000E+00 0.  1.
          2   -1    0    0  501    0 -0.00000000000E+00 -0.00000000000E+00 -0.25409155346E+01  0.25409155346E+01  0.00000000000E+00 0. -1.
          2    1    1    2  501    0 -0.22706591879E+02  0.29092968934E+02  0.75581409624E+03  0.75671456853E+03  0.00000000000E+00 0.  1.
          2    1    1    2  502    0  0.22706591879E+02 -0.29092968934E+02  0.16077386170E+03  0.16495522047E+03  0.00000000000E+00 0. -1.
</event>
<event>
 4    1  0.6688462E+003  0.3799215E+02  0.7546771E-02  0.1360671E+00
          2   -1    0    0  502    0  0.00000000000E+00  0.00000000000E+00  0.15332760014E+03  0.15332760014E+03  0.00000000000E+00 0.  1.
          2   -1    0    0  501    0 -0.00000000000E+00 -0.00000000000E+00 -0.39941349836E+03  0.39941349836E+03  0.00000000000E+00 0. -1.
          2    1    1    2  501    0 -0.18624300364E+02  0.33114030177E+02  0.15005126461E+03  0.15478625769E+03  0.00000000000E+00 0.  1.
          2    1    1    2  502    0  0.18624300364E+02 -0.33114030177E+02 -0.39613716282E+03  0.39795484081E+03  0.00000000000E+00 0. -1.
</event>
<event>
 4    1  0.6688462E+003  0.2550399E+02  0.7546771E-02  0.1463243E+00
          2   -1    0    0  502    0  0.00000000000E+00  0.00000000000E+00  0.23398320019E+02  0.23398320019E+02  0.00000000000E+00 0. -1.
          2   -1    0    0  501    0 -0.00000000000E+00 -0.00000000000E+00 -0.15610525013E+04  0.15610525013E+04  0.00000000000E+00 0.  1.
          2    1    1    2  501    0  0.15646228081E+02  0.20140734030E+02  0.16312674242E+02  0.30274691763E+02  0.00000000000E+00 0. -1.
          2    1    1    2  502    0 -0.15646228081E+02 -0.20140734030E+02 -0.15539668555E+04  0.15541761295E+04  0.00000000000E+00 0.  1.
</event>
<event>
 4    1  0.1002748E+004  0.3053613E+02  0.7546771E-02  0.1414994E+00
          2   -1    0    0  501    0  0.00000000000E+00  0.00000000000E+00  0.17930388926E+04  0.17930388926E+04  0.00000000000E+00 0. -1.
          2   -1    0    0  502    0 -0.00000000000E+00 -0.00000000000E+00 -0.46684107029E+03  0.46684107029E+03  0.00000000000E+00 0.  1.
          2    1    1    2  501    0  0.21436611513E+02  0.21746884416E+02 -0.46621154145E+03  0.46721050575E+03  0.00000000000E+00 0.  1.
          2    1    1    2  502    0 -0.21436611513E+02 -0.21746884416E+02  0.17924093638E+04  0.17926694571E+04  0.00000000000E+00 0. -1.
</event>
<event>
 4    1  0.6688462E+003  0.3176125E+02  0.7546771E-02  0.1404884E+00
          2   -1    0    0  501    0  0.00000000000E+00  0.00000000000E+00  0.71401549314E+01  0.71401549314E+01  0.00000000000E+00 0. -1.
          2   -1    0    0  502    0 -0.00000000000E+00 -0.00000000000E+00 -0.20560851801E+04  0.20560851801E+04  0.00000000000E+00 0. -1.
          2    1    1    2  501    0  0.29297470858E+02 -0.12265213299E+02 -0.20200112305E+04  0.20202609110E+04  0.00000000000E+00 0. -1.
          2    1    1    2  502    0 -0.29297470858E+02  0.12265213299E+02 -0.28933794647E+02  0.42964423989E+02  0.00000000000E+00 0. -1.
</event>
<event>
 4    1  0.6688462E+003  0.2200778E+02  0.7546771E-02  0.1505348E+00
          2   -1    0    0  502    0  0.00000000000E+00  0.00000000000E+00  0.98740327170E+03  0.98740327170E+03  0.00000000000E+00 0. -1.
          2   -1    0    0  501    0 -0.00000000000E+00 -0.00000000000E+00 -0.17346763600E+02  0.17346763600E+02  0.00000000000E+00 0.  1.
          2    1    1    2  501    0 -0.20823306869E+02  0.71226461031E+01  0.98024940935E+03  0.98049642871E+03  0.00000000000E+00 0. -1.
          2    1    1    2  502    0  0.20823306869E+02 -0.71226461031E+01 -0.10192901249E+02  0.24253606584E+02  0.00000000000E+00 0.  1.
</event>
<event>
 4    1  0.6688462E+003  0.2560896E+02  0.7546771E-02  0.1462105E+00
          2   -1    0    0  502    0  0.00000000000E+00  0.00000000000E+00  0.88498581516E+03  0.88498581516E+03  0.00000000000E+00 0. -1.
          2   -1    0    0  501    0 -0.00000000000E+00 -0.00000000000E+00 -0.10185530290E+02  0.10185530290E+02  0.00000000000E+00 0.  1.
          2    1    1    2  501    0 -0.18183942758E+02  0.18032276421E+02  0.86839628725E+03  0.86877380858E+03  0.00000000000E+00 0. -1.
          2    1    1    2  502    0  0.18183942758E+02 -0.18032276421E+02  0.64039976189E+01  0.26397536868E+02  0.00000000000E+00 0.  1.
</event>
<event>
 4    1  0.6688462E+003  0.2273531E+02  0.7546771E-02  0.1495849E+00
          2   -1    0    0  502    0  0.00000000000E+00  0.00000000000E+00  0.63608370927E+01  0.63608370927E+01  0.00000000000E+00 0. -1.
          2   -1    0    0  501    0 -0.00000000000E+00 -0.00000000000E+00 -0.24787526706E+03  0.24787526706E+03  0.00000000000E+00 0. -1.
          2    1    1    2  501    0 -0.21808185636E+02  0.64263144444E+01 -0.16538576707E+02  0.28114391289E+02  0.00000000000E+00 0. -1.
          2    1    1    2  502    0  0.21808185636E+02 -0.64263144444E+01 -0.22497585326E+03  0.22612171286E+03  0.00000000000E+00 0. -1.
</event>
<event>
 4    1  0.6688462E+003  0.2839256E+02  0.7546771E-02  0.1434100E+00
          2   -1    0    0  502    0  0.00000000000E+00  0.00000000000E+00  0.14011005896E+03  0.14011005896E+03  0.00000000000E+00 0.  1.
          2   -1    0    0  501    0 -0.00000000000E+00 -0.00000000000E+00 -0.12450280568E+02  0.12450280568E+02  0.00000000000E+00 0.  1.
          2    1    1    2  501    0 -0.25426368055E+02  0.12634758076E+02  0.11977367566E+03  0.12309293515E+03  0.00000000000E+00 0.  1.
          2    1    1    2  502    0  0.25426368055E+02 -0.12634758076E+02  0.78861027316E+01  0.29467404371E+02  0.00000000000E+00 0.  1.
</event>
<event>
 4    1  0.6688462E+003  0.2747088E+02  0.7546771E-02  0.1442934E+00
          2   -1    0    0  502    0  0.00000000000E+00  0.00000000000E+00  0.97567872515E+01  0.97567872515E+01  0.00000000000E+00 0.  1.
          2   -1    0    0  501    0 -0.00000000000E+00 -0.00000000000E+00 -0.68558462860E+03  0.68558462860E+03  0.00000000000E+00 0.  1.
          2    1    1    2  501    0  0.21395249505E+02  0.17230574745E+02 -0.10441650349E+02  0.29388390045E+02  0.00000000000E+00 0.  1.
          2    1    1    2  502    0 -0.21395249505E+02 -0.17230574745E+02 -0.66538619100E+03  0.66595302581E+03  0.00000000000E+00 0.  1.
</event>
<event>
 4    1  0.6688462E+003  0.2745672E+02  0.7546771E-02  0.1443073E+00
          2   -1    0    0  501    0  0.00000000000E+00  0.00000000000E+00  0.26135786165E+03  0.26135786165E+03  0.00000000000E+00 0.  1.
          2   -1    0    0  502    0 -0.00000000000E+00 -0.00000000000E+00 -0.15738424470E+02  0.15738424470E+02  0.00000000000E+00 0.  1.
          2    1    1    2  501    0  0.24528702150E+02 -0.12337505848E+02 -0.24002637210E+01  0.27561432213E+02  0.00000000000E+00 0.  1.
          2    1    1    2  502    0 -0.24528702150E+02  0.12337505848E+02  0.24801970090E+03  0.24953485391E+03  0.00000000000E+00 0.  1.
</event>
<event>
 4    1  0.6688462E+003  0.2935482E+02  0.7546771E-02  0.1425287E+00
          2   -1    0    0  501    0  0.00000000000E+00  0.00000000000E+00  0.14799744237E+03  0.14799744237E+03  0.00000000000E+00 0. -1.
          2   -1    0    0  502    0 -0.00000000000E+00 -0.00000000000E+00 -0.56878860144E+03  0.56878860144E+03  0.00000000000E+00 0. -1.
          2    1    1    2  501    0  0.10637020329E+02 -0.27359808807E+02 -0.56694952852E+03  0.56770896878E+03  0.00000000000E+00 0. -1.
          2    1    1    2  502    0 -0.10637020329E+02  0.27359808807E+02  0.14615836945E+03  0.14907707503E+03  0.00000000000E+00 0. -1.
</event>
<event>
 4    1  0.6688462E+003  0.2650946E+02  0.7546771E-02  0.1452599E+00
          2   -1    0    0  501    0  0.00000000000E+00  0.00000000000E+00  0.11034583350E+02  0.11034583350E+02  0.00000000000E+00 0.  1.
          2   -1    0    0  502    0 -0.00000000000E+00 -0.00000000000E+00 -0.82372816642E+02  0.82372816642E+02  0.00000000000E+00 0.  1.
          2    1    1    2  501    0 -0.25815542737E+02 -0.60257343327E+01 -0.57913664040E+02  0.63692575734E+02  0.00000000000E+00 0.  1.
          2    1    1    2  502    0  0.25815542737E+02  0.60257343327E+01 -0.13424569252E+02  0.29714824258E+02  0.00000000000E+00 0.  1.
</event>
<event>
 4    1  0.6688462E+003  0.2326245E+02  0.7546771E-02  0.1489229E+00
          2   -1    0    0  501    0  0.00000000000E+00  0.00000000000E+00  0.10052436679E+02  0.10052436679E+02  0.00000000000E+00 0. -1.
          2   -1    0    0  502    0 -0.00000000000E+00 -0.00000000000E+00 -0.73634873159E+02  0.73634873159E+02  0.00000000000E+00 0. -1.
          2    1    1    2  501    0 -0.16731379915E+02 -0.16161756113E+02 -0.53490901832E+02  0.58330249557E+02  0.00000000000E+00 0. -1.
          2    1    1    2  502    0  0.16731379915E+02  0.16161756113E+02 -0.10091534648E+02  0.25357060280E+02  0.00000000000E+00 0. -1.
</event>
<event>
 4    1  0.6688462E+003  0.4193984E+02  0.7546771E-02  0.1337479E+00
          2   -1    0    0  502    0  0.00000000000E+00  0.00000000000E+00  0.11329180333E+02  0.11329180333E+02  0.00000000000E+00 0. -1.
          2   -1    0    0  501    0 -0.00000000000E+00 -0.00000000000E+00 -0.18458217370E+04  0.18458217370E+04  0.00000000000E+00 0.  1.
          2    1    1    2  501    0 -0.20482019408E+01 -0.41889796725E+02 -0.28581333295E+02  0.50752761637E+02  0.00000000000E+00 0. -1.
          2    1    1    2  502    0  0.20482019408E+01  0.41889796725E+02 -0.18059112233E+04  0.18063981557E+04  0.00000000000E+00 0.  1.
</event>
<event>
 4    1  0.6688462E+003  0.3470788E+02  0.7546771E-02  0.1382629E+00
          2   -1    0    0  501    0  0.00000000000E+00  0.00000000000E+00  0.13669181927E+04  0.13669181927E+04  0.00000000000E+00 0. -1.
          2   -1    0    0  502    0 -0.00000000000E+00 -0.00000000000E+00 -0.16038522728E+02  0.16038522728E+02  0.00000000000E+00 0. -1.
          2    1    1    2  501    0  0.22526636267E+02  0.26404315058E+02  0.32274379050E+01  0.34857618258E+02  0.00000000000E+00 0. -1.
          2    1    1    2  502    0 -0.22526636267E+02 -0.26404315058E+02  0.13476522320E+04  0.13480990971E+04  0.00000000000E+00 0. -1.
</event>
<event>
 4    1  0.6688462E+003  0.2314731E+02  0.7546771E-02  0.1490657E+00
          2   -1    0    0  502    0  0.00000000000E+00  0.00000000000E+00  0.19597817367E+02  0.19597817367E+02  0.00000000000E+00 0. -1.
          2   -1    0    0  501    0 -0.00000000000E+00 -0.00000000000E+00 -0.35924912162E+02  0.35924912162E+02  0.00000000000E+00 0. -1.
          2    1    1    2  501    0 -0.47068993071E+01 -0.22663691574E+02  0.54076849188E+01  0.23770588403E+02  0.00000000000E+00 0. -1.
          2    1    1    2  502    0  0.47068993071E+01  0.22663691574E+02 -0.21734779714E+02  0.31752141126E+02  0.00000000000E+00 0. -1.
</event>
<event>
 4    1  0.6688462E+003  0.2959813E+02  0.7546771E-02  0.1423121E+00
          2   -1    0    0  502    0  0.00000000000E+00  0.00000000000E+00  0.22160771578E+04  0.22160771578E+04  0.00000000000E+00 0. -1.
          2   -1    0    0  501    0 -0.00000000000E+00 -0.00000000000E+00 -0.16872212853E+01  0.16872212853E+01  0.00000000000E+00 0.  1.
          2    1    1    2  501    0 -0.22923005223E+02 -0.18723917151E+02  0.20775146435E+04  0.20777254735E+04  0.00000000000E+00 0. -1.
          2    1    1    2  502    0  0.22923005223E+02  0.18723917151E+02  0.13687529304E+03  0.14003890561E+03  0.00000000000E+00 0.  1.
</event>
<event>
 4    1  0.6688462E+003  0.2656284E+02  0.7546771E-02  0.1452050E+00
          2   -1    0    0  502    0  0.00000000000E+00  0.00000000000E+00  0.24554440377E+01  0.24554440377E+01  0.00000000000E+00 0. -1.
          2   -1    0    0  501    0 -0.00000000000E+00 -0.00000000000E+00 -0.68022299483E+03  0.68022299483E+03  0.00000000000E+00 0. -1.
          2    1    1    2  501    0 -0.20976965685E+02  0.16295741298E+02 -0.79475499474E+02  0.83797012419E+02  0.00000000000E+00 0. -1.
          2    1    1    2  502    0  0.20976965685E+02 -0.16295741298E+02 -0.59829205132E+03  0.59888142645E+03  0.00000000000E+00 0. -1.
</event>
<event>
 4    1  0.6688462E+003  0.3090004E+02  0.7546771E-02  0.1411933E+00
          2   -1    0    0  501    0  0.00000000000E+00  0.00000000000E+00  0.49013248293E+02  0.49013248293E+02  0.00000000000E+00 0. -1.
          2   -1    0    0  502    0 -0.00000000000E+00 -0.00000000000E+00 -0.62300790823E+02  0.62300790823E+02  0.00000000000E+00 0. -1.
          2    1    1    2  501    0  0.28616924975E+02 -0.11656942756E+02 -0.52785825460E+02  0.61164990632E+02  0.00000000000E+00 0. -1.
          2    1    1    2  502    0 -0.28616924975E+02  0.11656942756E+02  0.39498282931E+02  0.50149048485E+02  0.00000000000E+00 0. -1.
</event>
<event>
 4    1  0.6688462E+003  0.9745212E+02  0.7546771E-02  0.1168298E+00
          2   -1    0    0  502    0  0.00000000000E+00  0.00000000000E+00  0.98582964677E+02  0.98582964677E+02  0.00000000000E+00 0.  1.
          2   -1    0    0  501    0 -0.00000000000E+00 -0.00000000000E+00 -0.14727171006E+03  0.14727171006E+03  0.00000000000E+00 0.  1.
          2    1    1    2  501    0 -0.90319155565E+02 -0.36597348388E+02  0.47950493982E+02  0.10861015442E+03  0.00000000000E+00 0.  1.
          2    1    1    2  502    0  0.90319155565E+02  0.36597348388E+02 -0.96639239368E+02  0.13724452032E+03  0.00000000000E+00 0.  1.
</event>
<event>
 4    1  0.6688462E+003  0.2611399E+02  0.7546771E-02  0.1456717E+00
          2   -1    0    0  502    0  0.00000000000E+00  0.00000000000E+00  0.48804008496E+01  0.48804008496E+01  0.00000000000E+00 0. -1.
          2   -1    0    0  501    0 -0.00000000000E+00 -0.00000000000E+00 -0.77667285455E+03  0.77667285455E+03  0.00000000000E+00 0.  1.
          2    1    1    2  501    0 -0.74218475061E+01  0.25037110398E+02 -0.32013315639E+02  0.41313352511E+02  0.00000000000E+00 0. -1.
          2    1    1    2  502    0  0.74218475061E+01 -0.25037110398E+02 -0.73977913806E+03  0.74023990288E+03  0.00000000000E+00 0.  1.
</event>
<event>
 4    1  0.6688462E+003  0.2386929E+02  0.7546771E-02  0.1481862E+00
          2   -1    0    0  502    0  0.00000000000E+00  0.00000000000E+00  0.57434512555E+03  0.57434512555E+03  0.00000000000E+00 0.  1.
          2   -1    0    0  501    0 -0.00000000000E+00 -0.00000000000E+00 -0.12876389912E+01  0.12876389912E+01  0.00000000000E+00 0.  1.
          2    1    1    2  501    0 -0.99497031705E+00 -0.23848544977E+02  0.42444283484E+03  0.42511347086E+03  0.00000000000E+00 0.  1.
          2    1    1    2  502    0  0.99497031705E+00  0.23848544977E+02  0.14861465173E+03  0.15051929368E+03  0.00000000000E+00 0.  1.
</event>
<event>
 4    1  0.6688462E+003  0.3274116E+02  0.7546771E-02  0.1397179E+00
          2   -1    0    0  501    0  0.00000000000E+00  0.00000000000E+00  0.58937786112E+01  0.58937786112E+01  0.00000000000E+00 0.  1.
          2   -1    0    0  502    0 -0.00000000000E+00 -0.00000000000E+00 -0.34179639080E+03  0.34179639080E+03  0.00000000000E+00 0. -1.
          2    1    1    2  501    0  0.31241638933E+02  0.97950764451E+01 -0.28686170987E+03  0.28872413150E+03  0.00000000000E+00 0. -1.
          2    1    1    2  502    0 -0.31241638933E+02 -0.97950764451E+01 -0.49040902325E+02  0.58966037909E+02  0.00000000000E+00 0.  1.
</event>
<event>
 4    1  0.6688462E+003  0.2392966E+02  0.7546771E-02  0.1481143E+00
          2   -1    0    0  502    0  0.00000000000E+00  0.00000000000E+00  0.29285962764E+02  0.29285962764E+02  0.00000000000E+00 0. -1.
          2   -1    0    0  501    0 -0.00000000000E+00 -0.00000000000E+00 -0.40401765982E+02  0.40401765982E+02  0.00000000000E+00 0. -1.
          2    1    1    2  501    0  0.20891958352E+02 -0.11668540666E+02  0.19472406661E+02  0.30851310932E+02  0.00000000000E+00 0. -1.
          2    1    1    2  502    0 -0.20891958352E+02  0.11668540666E+02 -0.30588209879E+02  0.38836417814E+02  0.00000000000E+00 0. -1.
</event>
<event>
 4    1  0.6688462E+003  0.7011614E+02  0.7546771E-02  0.1228863E+00
          2   -1    0    0  502    0  0.00000000000E+00  0.00000000000E+00  0.63204873530E+02  0.63204873530E+02  0.00000000000E+00 0.  1.
          2   -1    0    0  501    0 -0.00000000000E+00 -0.00000000000E+00 -0.10725924730E+04  0.10725924730E+04  0.00000000000E+00 0.  1.
          2    1    1    2  501    0 -0.34136191115E+02 -0.61245358350E+02  0.42225699322E+02  0.81849148722E+02  0.00000000000E+00 0.  1.
          2    1    1    2  502    0  0.34136191115E+02  0.61245358350E+02 -0.10516132988E+04  0.10539481978E+04  0.00000000000E+00 0.  1.
</event>
<event>
 4    1  0.6688462E+003  0.2397042E+02  0.7546771E-02  0.1480659E+00
          2   -1    0    0  502    0  0.00000000000E+00  0.00000000000E+00  0.34730225964E+03  0.34730225964E+03  0.00000000000E+00 0. -1.
          2   -1    0    0  501    0 -0.00000000000E+00 -0.00000000000E+00 -0.27042434780E+01  0.27042434780E+01  0.00000000000E+00 0. -1.
          2    1    1    2  501    0  0.21643182805E+02 -0.10303096069E+02  0.28133828014E+03  0.28235759069E+03  0.00000000000E+00 0. -1.
          2    1    1    2  502    0 -0.21643182805E+02  0.10303096069E+02  0.63259736019E+02  0.67648912421E+02  0.00000000000E+00 0. -1.
</event>
<event>
 4    1  0.6688462E+003  0.3539122E+02  0.7546771E-02  0.1377834E+00
          2   -1    0    0  501    0  0.00000000000E+00  0.00000000000E+00  0.81499461451E+01  0.81499461451E+01  0.00000000000E+00 0.  1.
          2   -1    0    0  502    0 -0.00000000000E+00 -0.00000000000E+00 -0.14528453078E+04  0.14528453078E+04  0.00000000000E+00 0.  1.
          2    1    1    2  501    0 -0.21587994401E+02  0.28044547191E+02 -0.14131284101E+04  0.14135715198E+04  0.00000000000E+00 0.  1.
          2    1    1    2  502    0  0.21587994401E+02 -0.28044547191E+02 -0.31566951512E+02  0.47423734112E+02  0.00000000000E+00 0.  1.
</event>
<event>
 4    1  0.6688462E+003  0.3494364E+02  0.7546771E-02  0.1380960E+00
          2   -1    0    0  502    0  0.00000000000E+00  0.00000000000E+00  0.65741534842E+02  0.65741534842E+02  0.00000000000E+00 0.  1.
          2   -1    0    0  501    0 -0.00000000000E+00 -0.00000000000E+00 -0.13063654762E+04  0.13063654762E+04  0.00000000000E+00 0. -1.
          2    1    1    2  501    0  0.31473642495E+02  0.15181167707E+02  0.60846996530E+02  0.70167050754E+02  0.00000000000E+00 0.  1.
          2    1    1    2  502    0 -0.31473642495E+02 -0.15181167707E+02 -0.13014709379E+04  0.13019399603E+04  0.00000000000E+00 0. -1.
</event>
<event>
 4    1  0.6688462E+003  0.4107457E+02  0.7546771E-02  0.1342301E+00
          2   -1    0    0  502    0  0.00000000000E+00  0.00000000000E+00  0.29293854857E+01  0.29293854857E+01  0.00000000000E+00 0. -1.
          2   -1    0    0  501    0 -0.00000000000E+00 -0.00000000000E+00 -0.15427294966E+04  0.15427294966E+04  0.00000000000E+00 0. -1.
          2    1    1    2  501    0 -0.12828876399E+02 -0.39019745998E+02 -0.15810353862E+03  0.16335191940E+03  0.00000000000E+00 0. -1.
          2    1    1    2  502    0  0.12828876399E+02  0.39019745998E+02 -0.13816965725E+04  0.13823069627E+04  0.00000000000E+00 0. -1.
</event>
<event>
 4    1  0.6688462E+003  0.2182835E+02  0.7546771E-02  0.1507759E+00
          2   -1    0    0  501    0  0.00000000000E+00  0.00000000000E+00  0.48635054751E+02  0.48635054751E+02  0.00000000000E+00 0.  1.
          2   -1    0    0  502    0 -0.00000000000E+00 -0.00000000000E+00 -0.67342843779E+02  0.67342843779E+02  0.00000000000E+00 0.  1.
          2    1    1    2  501    0  0.80763481084E+01 -0.20279284543E+02 -0.62959050094E+02  0.66635716917E+02  0.00000000000E+00 0.  1.
          2    1    1    2  502    0 -0.80763481084E+01  0.20279284543E+02  0.44251261066E+02  0.49342181613E+02  0.00000000000E+00 0.  1.
</event>
<event>
 4    1  0.6688462E+003  0.2103659E+02  0.7546771E-02  0.1518743E+00
          2   -1    0    0  501    0  0.00000000000E+00  0.00000000000E+00  0.88533063447E+03  0.88533063447E+03  0.00000000000E+00 0.  1.
          2   -1    0    0  502    0 -0.00000000000E+00 -0.00000000000E+00 -0.73024943014E+00  0.73024943014E+00  0.00000000000E+00 0. -1.
          2    1    1    2  501    0  0.77045014490E+01 -0.19574958143E+02  0.19345315815E+03  0.19459358347E+03  0.00000000000E+00 0. -1.
          2    1    1    2  502    0 -0.77045014490E+01  0.19574958143E+02  0.69114722689E+03  0.69146730043E+03  0.00000000000E+00 0.  1.
</event>
<event>
 4    1  0.6688462E+003  0.4181670E+02  0.7546771E-02  0.1338157E+00
          2   -1    0    0  502    0  0.00000000000E+00  0.00000000000E+00  0.21568601441E+01  0.21568601441E+01  0.00000000000E+00 0.  1.
          2   -1    0    0  501    0 -0.00000000000E+00 -0.00000000000E+00 -0.14861284022E+04  0.14861284022E+04  0.00000000000E+00 0. -1.
          2    1    1    2  501    0 -0.41680579151E+02  0.33713536406E+01 -0.24032837895E+03  0.24393926791E+03  0.00000000000E+00 0.  1.
          2    1    1    2  502    0  0.41680579151E+02 -0.33713536406E+01 -0.12436431631E+04  0.12443459945E+04  0.00000000000E+00 0. -1.
</event>
<event>
 4    1  0.6688462E+003  0.2284821E+02  0.7546771E-02  0.1494413E+00
          2   -1    0    0  502    0  0.00000000000E+00  0.00000000000E+00  0.31488217882E+03  0.31488217882E+03  0.00000000000E+00 0. -1.
          2   -1    0    0  501    0 -0.00000000000E+00 -0.00000000000E+00 -0.33095915477E+01  0.33095915477E+01  0.00000000000E+00 0.  1.
          2    1    1    2  501    0  0.91760874487E+01  0.20924632063E+02  0.26817876088E+03  0.26915030855E+03  0.00000000000E+00 0. -1.
          2    1    1    2  502    0 -0.91760874487E+01 -0.20924632063E+02  0.43393826394E+02  0.49041461815E+02  0.00000000000E+00 0.  1.
</event>
<event>
 4    1  0.6688462E+003  0.4136928E+02  0.7546771E-02  0.1340643E+00
          2   -1    0    0  501    0  0.00000000000E+00  0.00000000000E+00  0.49536908079E+02  0.49536908079E+02  0.00000000000E+00 0. -1.
          2   -1    0    0  502    0 -0.00000000000E+00 -0.00000000000E+00 -0.97848423160E+03  0.97848423160E+03  0.00000000000E+00 0.  1.
          2    1    1    2  501    0 -0.15324384368E+02  0.38426298366E+02 -0.96932834291E+03  0.97021072636E+03  0.00000000000E+00 0.  1.
          2    1    1    2  502    0  0.15324384368E+02 -0.38426298366E+02  0.40381019386E+02  0.57810413327E+02  0.00000000000E+00 0. -1.
</event>
<event>
 4    1  0.6688462E+003  0.6956763E+02  0.7546771E-02  0.1230387E+00
          2   -1    0    0  501    0  0.00000000000E+00  0.00000000000E+00  0.26679201249E+03  0.26679201249E+03  0.00000000000E+00 0.  1.
          2   -1    0    0  502    0 -0.00000000000E+00 -0.00000000000E+00 -0.18158236776E+02  0.18158236776E+02  0.00000000000E+00 0. -1.
          2    1    1    2  501    0  0.69499930350E+02  0.30684111302E+01  0.12880958509E+03  0.14639523447E+03  0.00000000000E+00 0.  1.
          2    1    1    2  502    0 -0.69499930350E+02 -0.30684111302E+01  0.11982419062E+03  0.13855501479E+03  0.00000000000E+00 0. -1.
</event>
<event>
 4    1  0.6688462E+003  0.2577539E+02  0.7546771E-02  0.1460313E+00
          2   -1    0    0  502    0  0.00000000000E+00  0.00000000000E+00  0.13619271198E+03  0.13619271198E+03  0.00000000000E+00 0. -1.
          2   -1    0    0  501    0 -0.00000000000E+00 -0.00000000000E+00 -0.18038369250E+04  0.18038369250E+04  0.00000000000E+00 0.  1.
          2    1    1    2  501    0 -0.20756416666E+02  0.15282079284E+02  0.13488020485E+03  0.13732093955E+03  0.00000000000E+00 0. -1.
          2    1    1    2  502    0  0.20756416666E+02 -0.15282079284E+02 -0.18025244179E+04  0.18027086974E+04  0.00000000000E+00 0.  1.
</event>
<event>
 4    1  0.6688462E+003  0.3431143E+02  0.7546771E-02  0.1385470E+00
          2   -1    0    0  502    0  0.00000000000E+00  0.00000000000E+00  0.75157342477E+01  0.75157342477E+01  0.00000000000E+00 0. -1.
          2   -1    0    0  501    0 -0.00000000000E+00 -0.00000000000E+00 -0.10192200848E+04  0.10192200848E+04  0.00000000000E+00 0.  1.
          2    1    1    2  501    0 -0.16793002695E+02 -0.29921054566E+02 -0.33578090554E+02  0.48007943209E+02  0.00000000000E+00 0. -1.
          2    1    1    2  502    0  0.16793002695E+02  0.29921054566E+02 -0.97812626002E+03  0.97872787586E+03  0.00000000000E+00 0.  1.
</event>
<event>
 4    1  0.6688462E+003  0.3152987E+02  0.7546771E-02  0.1406752E+00
          2   -1    0    0  501    0  0.00000000000E+00  0.00000000000E+00  0.60978795349E+02  0.60978795349E+02  0.00000000000E+00 0.  1.
          2   -1    0    0  502    0 -0.00000000000E+00 -0.00000000000E+00 -0.43516800340E+03  0.43516800340E+03  0.00000000000E+00 0. -1.
          2    1    1    2  501    0 -0.31220305518E+02 -0.44073741215E+01 -0.43047679683E+03  0.43162993992E+03  0.00000000000E+00 0. -1.
          2    1    1    2  502    0  0.31220305518E+02  0.44073741215E+01  0.56287588777E+02  0.64516858833E+02  0.00000000000E+00 0.  1.
</event>
<event>
 4    1  0.7016241E+003  0.4702432E+02  0.7546771E-02  0.1311616E+00
          2   -1    0    0  501    0  0.00000000000E+00  0.00000000000E+00  0.17772721602E+04  0.17772721602E+04  0.00000000000E+00 0.  1.
          2   -1    0    0  502    0 -0.00000000000E+00 -0.00000000000E+00 -0.70756375062E+03  0.70756375062E+03  0.00000000000E+00 0.  1.
          2    1    1    2  501    0  0.38509252828E+02 -0.26987475480E+02 -0.70647091650E+03  0.70803420980E+03  0.00000000000E+00 0.  1.
          2    1    1    2  502    0 -0.38509252828E+02  0.26987475480E+02  0.17761793261E+04  0.17768017011E+04  0.00000000000E+00 0.  1.
</event>
<event>
 4    1  0.6688462E+003  0.3761502E+02  0.7546771E-02  0.1363058E+00
          2   -1    0    0  501    0  0.00000000000E+00  0.00000000000E+00  0.22983293218E+03  0.22983293218E+03  0.00000000000E+00 0.  1.
          2   -1    0    0  502    0 -0.00000000000E+00 -0.00000000000E+00 -0.17035010479E+04  0.17035010479E+04  0.00000000000E+00 0.  1.
          2    1    1    2  501    0  0.73592508984E+01 -0.36888094587E+02 -0.17017527806E+04  0.17021684454E+04  0.00000000000E+00 0.  1.
          2    1    1    2  502    0 -0.73592508984E+01  0.36888094587E+02  0.22808466487E+03  0.23116553472E+03  0.00000000000E+00 0.  1.
</event>
<event>
 4    1  0.6688462E+003  0.2163639E+02  0.7546771E-02  0.1510370E+00
          2   -1    0    0  502    0  0.00000000000E+00  0.00000000000E+00  0.23879783250E+03  0.23879783250E+03  0.00000000000E+00 0.  1.
          2   -1    0    0  501    0 -0.00000000000E+00 -0.00000000000E+00 -0.77016242255E+03  0.77016242255E+03  0.00000000000E+00 0.  1.
          2    1    1    2  501    0  0.21143403441E+02  0.45923538658E+01  0.23815537049E+03  0.23913618236E+03  0.00000000000E+00 0.  1.
          2    1    1    2  502    0 -0.21143403441E+02 -0.45923538658E+01 -0.76951996054E+03  0.76982407269E+03  0.00000000000E+00 0.  1.
</event>
<event>
 4    1  0.6688462E+003  0.3016200E+02  0.7546771E-02  0.1418194E+00
          2   -1    0    0  502    0  0.00000000000E+00  0.00000000000E+00  0.31749468860E+02  0.31749468860E+02  0.00000000000E+00 0.  1.
          2   -1    0    0  501    0 -0.00000000000E+00 -0.00000000000E+00 -0.38676536847E+03  0.38676536847E+03  0.00000000000E+00 0.  1.
          2    1    1    2  501    0  0.28552652639E+02  0.97207276109E+01  0.23848794532E+02  0.38451417642E+02  0.00000000000E+00 0.  1.
          2    1    1    2  502    0 -0.28552652639E+02 -0.97207276109E+01 -0.37886469414E+03  0.38006341969E+03  0.00000000000E+00 0.  1.
</event>
<event>
 4    1  0.6688462E+003  0.4309324E+02  0.7546771E-02  0.1331254E+00
          2   -1    0    0  502    0  0.00000000000E+00  0.00000000000E+00  0.84432953068E+03  0.84432953068E+03  0.00000000000E+00 0. -1.
          2   -1    0    0  501    0 -0.00000000000E+00 -0.00000000000E+00 -0.78931419619E+02  0.78931419619E+02  0.00000000000E+00 0. -1.
          2    1    1    2  501    0 -0.12901836114E+02  0.41116536185E+02  0.83785246531E+03  0.83895993978E+03  0.00000000000E+00 0. -1.
          2    1    1    2  502    0  0.12901836114E+02 -0.41116536185E+02 -0.72454354257E+02  0.84301010515E+02  0.00000000000E+00 0. -1.
</event>
<event>
 4    1  0.6688462E+003  0.3388885E+02  0.7546771E-02  0.1388548E+00
          2   -1    0    0  501    0  0.00000000000E+00  0.00000000000E+00  0.69937691140E+01  0.69937691140E+01  0.00000000000E+00 0.  1.
          2   -1    0    0  502    0 -0.00000000000E+00 -0.00000000000E+00 -0.22151860658E+03  0.22151860658E+03  0.00000000000E+00 0.  1.
          2    1    1    2  501    0  0.13612305329E+02  0.31034805760E+02 -0.16537640263E+03  0.16881293958E+03  0.00000000000E+00 0.  1.
          2    1    1    2  502    0 -0.13612305329E+02 -0.31034805760E+02 -0.49148434843E+02  0.59699436115E+02  0.00000000000E+00 0.  1.
</event>
<event>
 4    1  0.6688462E+003  0.2311101E+02  0.7546771E-02  0.1491109E+00
          2   -1    0    0  502    0  0.00000000000E+00  0.00000000000E+00  0.64565511822E+00  0.64565511822E+00  0.00000000000E+00 0. -1.
          2   -1    0    0  501    0 -0.00000000000E+00 -0.00000000000E+00 -0.10209975350E+04  0.10209975350E+04  0.00000000000E+00 0.  1.
          2    1    1    2  501    0  0.13447401578E+02  0.18795904846E+02 -0.28765329625E+03  0.28858020981E+03  0.00000000000E+00 0. -1.
          2    1    1    2  502    0 -0.13447401578E+02 -0.18795904846E+02 -0.73269858360E+03  0.73306298028E+03  0.00000000000E+00 0.  1.
</event>
<event>
 4    1  0.6688462E+003  0.2275663E+02  0.7546771E-02  0.1495577E+00
          2   -1    0    0  502    0  0.00000000000E+00  0.00000000000E+00  0.64782070784E+01  0.64782070784E+01  0.00000000000E+00 0.  1.
          2   -1    0    0  501    0 -0.00000000000E+00 -0.00000000000E+00 -0.11517322196E+04  0.11517322196E+04  0.00000000000E+00 0. -1.
          2    1    1    2  501    0 -0.46428463737E+01  0.22277977916E+02 -0.13980447891E+02  0.26707999657E+02  0.00000000000E+00 0.  1.
          2    1    1    2  502    0  0.46428463737E+01 -0.22277977916E+02 -0.11312735647E+04  0.11315024271E+04  0.00000000000E+00 0. -1.
</event>
<event>
 4    1  0.6688462E+003  0.4180198E+02  0.7546771E-02  0.1338238E+00
          2   -1    0    0  502    0  0.00000000000E+00  0.00000000000E+00  0.13189892263E+03  0.13189892263E+03  0.00000000000E+00 0.  1.
          2   -1    0    0  501    0 -0.00000000000E+00 -0.00000000000E+00 -0.20003968116E+04  0.20003968116E+04  0.00000000000E+00 0. -1.
          2    1    1    2  501    0 -0.33410354056E+02 -0.25122772881E+02  0.12836265942E+03  0.13499769557E+03  0.00000000000E+00 0.  1.
          2    1    1    2  502    0  0.33410354056E+02  0.25122772881E+02 -0.19968605484E+04  0.19972980386E+04  0.00000000000E+00 0. -1.
</event>
<event>
 4    1  0.6688462E+003  0.3814174E+02  0.7546771E-02  0.1359733E+00
          2   -1    0    0  501    0  0.00000000000E+00  0.00000000000E+00  0.19697310786E+03  0.19697310786E+03  0.00000000000E+00 0. -1.
          2   -1    0    0  502    0 -0.00000000000E+00 -0.00000000000E+00 -0.33426724014E+02  0.33426724014E+02  0.00000000000E+00 0.  1.
          2    1    1    2  501    0  0.11926812963E+02  0.36229044209E+02 -0.19906432880E+02  0.43023930339E+02  0.00000000000E+00 0.  1.
          2    1    1    2  502    0 -0.11926812963E+02 -0.36229044209E+02  0.18345281673E+03  0.18737590154E+03  0.00000000000E+00 0. -1.
</event>
<event>
 4    1  0.6688462E+003  0.4980733E+02  0.7546771E-02  0.1299010E+00
          2   -1    0    0  502    0  0.00000000000E+00  0.00000000000E+00  0.80878584410E+01  0.80878584410E+01  0.00000000000E+00 0.  1.
          2   -1    0    0  501    0 -0.00000000000E+00 -0.00000000000E+00 -0.35950120575E+04  0.35950120575E+04  0.00000000000E+00 0.  1.
          2    1    1    2  501    0  0.37652765324E+02 -0.32604288947E+02 -0.70479799567E+02  0.86302795675E+02  0.00000000000E+00 0.  1.
          2    1    1    2  502    0 -0.37652765324E+02  0.32604288947E+02 -0.35164443995E+04  0.35167971203E+04  0.00000000000E+00 0.  1.
</event>
<event>
 4    1  0.6688462E+003  0.2506910E+02  0.7546771E-02  0.1468032E+00
          2   -1    0    0  502    0  0.00000000000E+00  0.00000000000E+00  0.79355002483E+03  0.79355002483E+03  0.00000000000E+00 0. -1.
          2   -1    0    0  501    0 -0.00000000000E+00 -0.00000000000E+00 -0.11139431498E+01  0.11139431498E+01  0.00000000000E+00 0.  1.
          2    1    1    2  501    0 -0.82999482821E+01 -0.23655249526E+02  0.60983636550E+03  0.61035141735E+03  0.00000000000E+00 0. -1.
          2    1    1    2  502    0  0.82999482821E+01  0.23655249526E+02  0.18259971618E+03  0.18431255063E+03  0.00000000000E+00 0.  1.
</event>
<event>
 4    1  0.6688462E+003  0.4246315E+02  0.7546771E-02  0.1334626E+00
          2   -1    0    0  501    0  0.00000000000E+00  0.00000000000E+00  0.46559472031E+01  0.46559472031E+01  0.00000000000E+00 0. -1.
          2   -1    0    0  502    0 -0.00000000000E+00 -0.00000000000E+00 -0.18253750834E+04  0.18253750834E+04  0.00000000000E+00 0. -1.
          2    1    1    2  501    0  0.41120700153E+02  0.10592773719E+02 -0.17225303850E+04  0.17230536979E+04  0.00000000000E+00 0. -1.
          2    1    1    2  502    0 -0.41120700153E+02 -0.10592773719E+02 -0.98188751206E+02  0.10697733264E+03  0.00000000000E+00 0. -1.
</event>
<event>
 4    1  0.6688462E+003  0.2697574E+02  0.7546771E-02  0.1447852E+00
          2   -1    0    0  502    0  0.00000000000E+00  0.00000000000E+00  0.33209695969E+03  0.33209695969E+03  0.00000000000E+00 0.  1.
          2   -1    0    0  501    0 -0.00000000000E+00 -0.00000000000E+00 -0.20020674859E+03  0.20020674859E+03  0.00000000000E+00 0.  1.
          2    1    1    2  501    0  0.25895953163E+02  0.75557951641E+01  0.33063647919E+03  0.33173509281E+03  0.00000000000E+00 0.  1.
          2    1    1    2  502    0 -0.25895953163E+02 -0.75557951641E+01 -0.19874626809E+03  0.20056861547E+03  0.00000000000E+00 0.  1.
</event>
<event>
 4    1  0.6688462E+003  0.2399613E+02  0.7546771E-02  0.1480355E+00
          2   -1    0    0  501    0  0.00000000000E+00  0.00000000000E+00  0.10821923637E+02  0.10821923637E+02  0.00000000000E+00 0.  1.
          2   -1    0    0  502    0 -0.00000000000E+00 -0.00000000000E+00 -0.15326665916E+03  0.15326665916E+03  0.00000000000E+00 0.  1.
          2    1    1    2  501    0  0.23015131618E+02 -0.67910167824E+01 -0.13751291524E+03  0.13959088814E+03  0.00000000000E+00 0.  1.
          2    1    1    2  502    0 -0.23015131618E+02  0.67910167824E+01 -0.49318202805E+01  0.24497694659E+02  0.00000000000E+00 0.  1.
</event>
<event>
 4    1  0.6688462E+003  0.2170962E+02  0.7546771E-02  0.1509370E+00
          2   -1    0    0  502    0  0.00000000000E+00  0.00000000000E+00  0.23945984123E+02  0.23945984123E+02  0.00000000000E+00 0. -1.
          2   -1    0    0  501    0 -0.00000000000E+00 -0.00000000000E+00 -0.22054371245E+02  0.22054371245E+02  0.00000000000E+00 0.  1.
          2    1    1    2  501    0 -0.16698283428E+02  0.13873541177E+02  0.84891498926E+01  0.23310372801E+02  0.00000000000E+00 0. -1.
          2    1    1    2  502    0  0.16698283428E+02 -0.13873541177E+02 -0.65975370152E+01  0.22689982567E+02  0.00000000000E+00 0.  1.
</event>
<event>
 4    1  0.6688462E+003  0.3999530E+02  0.7546771E-02  0.1348513E+00
          2   -1    0    0  502    0  0.00000000000E+00  0.00000000000E+00  0.14349331286E+02  0.14349331286E+02  0.00000000000E+00 0. -1.
          2   -1    0    0  501    0 -0.00000000000E+00 -0.00000000000E+00 -0.11517954867E+03  0.11517954867E+03  0.00000000000E+00 0. -1.
          2    1    1    2  501    0 -0.30520046121E+02  0.25848614729E+02 -0.62026498755E+02  0.73803188593E+02  0.00000000000E+00 0. -1.
          2    1    1    2  502    0  0.30520046121E+02 -0.25848614729E+02 -0.38803718632E+02  0.55725691367E+02  0.00000000000E+00 0. -1.
</event>
<event>
 4    1  0.6688462E+003  0.1246235E+03  0.7546771E-02  0.1126892E+00
          2   -1    0    0  502    0  0.00000000000E+00  0.00000000000E+00  0.25634552314E+02  0.25634552314E+02  0.00000000000E+00 0.  1.
          2   -1    0    0  501    0 -0.00000000000E+00 -0.00000000000E+00 -0.12112659856E+04  0.12112659856E+04  0.00000000000E+00 0. -1.
          2    1    1    2  501    0 -0.83504796643E+02 -0.92509206581E+02 -0.15558807076E+03  0.19934555958E+03  0.00000000000E+00 0.  1.
          2    1    1    2  502    0  0.83504796643E+02  0.92509206581E+02 -0.10300433625E+04  0.10375549783E+04  0.00000000000E+00 0. -1.
</event>
<event>
 4    1  0.6688462E+003  0.3347315E+02  0.7546771E-02  0.1391627E+00
          2   -1    0    0  502    0  0.00000000000E+00  0.00000000000E+00  0.81802045646E+03  0.81802045646E+03  0.00000000000E+00 0. -1.
          2   -1    0    0  501    0 -0.00000000000E+00 -0.00000000000E+00 -0.63132803122E+02  0.63132803122E+02  0.00000000000E+00 0.  1.
          2    1    1    2  501    0 -0.33424289855E+02 -0.18079922283E+01  0.81321493571E+03  0.81390354689E+03  0.00000000000E+00 0. -1.
          2    1    1    2  502    0  0.33424289855E+02  0.18079922283E+01 -0.58327282369E+02  0.67249712689E+02  0.00000000000E+00 0.  1.
</event>
<event>
 4    1  0.6688462E+003  0.3040969E+02  0.7546771E-02  0.1416069E+00
          2   -1    0    0  501    0  0.00000000000E+00  0.00000000000E+00  0.12219045602E+04  0.12219045602E+04  0.00000000000E+00 0.  1.
          2   -1    0    0  502    0 -0.00000000000E+00 -0.00000000000E+00 -0.81115535530E+00  0.81115535530E+00  0.00000000000E+00 0.  1.
          2    1    1    2  501    0 -0.29497113939E+02  0.73938943541E+01  0.76878999194E+03  0.76939118861E+03  0.00000000000E+00 0.  1.
          2    1    1    2  502    0  0.29497113939E+02 -0.73938943541E+01  0.45230341292E+03  0.45332452696E+03  0.00000000000E+00 0.  1.
</event>
<event>
 4    1  0.6688462E+003  0.2216512E+02  0.7546771E-02  0.1503257E+00
          2   -1    0    0  501    0  0.00000000000E+00  0.00000000000E+00  0.36070654512E+03  0.36070654512E+03  0.00000000000E+00 0.  1.
          2   -1    0    0  502    0 -0.00000000000E+00 -0.00000000000E+00 -0.14980506708E+02  0.14980506708E+02  0.00000000000E+00 0. -1.
          2    1    1    2  501    0 -0.81507931062E+01  0.20612061318E+02 -0.62376770368E+01  0.23026096387E+02  0.00000000000E+00 0. -1.
          2    1    1    2  502    0  0.81507931062E+01 -0.20612061318E+02  0.35196371545E+03  0.35266095544E+03  0.00000000000E+00 0.  1.
</event>
<event>
 4    1  0.6688462E+003  0.2065413E+02  0.7546771E-02  0.1524261E+00
          2   -1    0    0  501    0  0.00000000000E+00  0.00000000000E+00  0.99100933199E+03  0.99100933199E+03  0.00000000000E+00 0.  1.
          2   -1    0    0  502    0 -0.00000000000E+00 -0.00000000000E+00 -0.79643471773E+01  0.79643471773E+01  0.00000000000E+00 0.  1.
          2    1    1    2  501    0  0.20628458075E+02 -0.10295573636E+01  0.57214797904E+01  0.21431952825E+02  0.00000000000E+00 0.  1.
          2    1    1    2  502    0 -0.20628458075E+02  0.10295573636E+01  0.97732350502E+03  0.97754172634E+03  0.00000000000E+00 0.  1.
</event>
<event>
 4    1  0.6688462E+003  0.5177160E+02  0.7546771E-02  0.1290669E+00
          2   -1    0    0  501    0  0.00000000000E+00  0.00000000000E+00  0.16969287942E+04  0.16969287942E+04  0.00000000000E+00 0. -1.
          2   -1    0    0  502    0 -0.00000000000E+00 -0.00000000000E+00 -0.13242683587E+03  0.13242683587E+03  0.00000000000E+00 0. -1.
          2    1    1    2  501    0  0.36220734805E+02 -0.36991303774E+02 -0.12695563745E+03  0.13710591550E+03  0.00000000000E+00 0. -1.
          2    1    1    2  502    0 -0.36220734805E+02  0.36991303774E+02  0.16914575958E+04  0.16922497146E+04  0.00000000000E+00 0. -1.
</event>
<event>
 4    1  0.6688462E+003  0.3428834E+02  0.7546771E-02  0.1385637E+00
          2   -1    0    0  501    0  0.00000000000E+00  0.00000000000E+00  0.51708856390E+02  0.51708856390E+02  0.00000000000E+00 0. -1.
          2   -1    0    0  502    0 -0.00000000000E+00 -0.00000000000E+00 -0.14030838206E+03  0.14030838206E+03  0.00000000000E+00 0.  1.
          2    1    1    2  501    0  0.33540568053E+02  0.71218492197E+01 -0.13218576736E+03  0.13656049038E+03  0.00000000000E+00 0.  1.
          2    1    1    2  502    0 -0.33540568053E+02 -0.71218492197E+01  0.43586241689E+02  0.55456748067E+02  0.00000000000E+00 0. -1.
</event>
<event>
 4    1  0.6688462E+003  0.3022084E+02  0.7546771E-02  0.1417687E+00
          2   -1    0    0  501    0  0.00000000000E+00  0.00000000000E+00  0.11866905189E+02  0.11866905189E+02  0.00000000000E+00 0. -1.
          2   -1    0    0  502    0 -0.00000000000E+00 -0.00000000000E+00 -0.10084389740E+04  0.10084389740E+04  0.00000000000E+00 0. -1.
          2    1    1    2  501    0 -0.22790357100E+02 -0.19846882517E+02 -0.98858578970E+03  0.98904760386E+03  0.00000000000E+00 0. -1.
          2    1    1    2  502    0  0.22790357100E+02  0.19846882517E+02 -0.79862791214E+01  0.31258275330E+02  0.00000000000E+00 0. -1.
</event>
<event>
 4    1  0.6688462E+003  0.2107358E+02  0.7546771E-02  0.1518217E+00
          2   -1    0    0  502    0  0.00000000000E+00  0.00000000000E+00  0.10141348107E+04  0.10141348107E+04  0.00000000000E+00 0.  1.
          2   -1    0    0  501    0 -0.00000000000E+00 -0.00000000000E+00 -0.47872634995E+01  0.47872634995E+01  0.00000000000E+00 0.  1.
          2    1    1    2  501    0 -0.15594355511E+02 -0.14174345050E+02  0.99027508327E+03  0.99049928648E+03  0.00000000000E+00 0.  1.
          2    1    1    2  502    0  0.15594355511E+02  0.14174345050E+02  0.19072463948E+02  0.28422787732E+02  0.00000000000E+00 0.  1.
</event>
<event>
 4    1  0.6688462E+003  0.2048430E+02  0.7546771E-02  0.1526757E+00
          2   -1    0    0  501    0  0.00000000000E+00  0.00000000000E+00  0.31566497987E+03  0.31566497987E+03  0.00000000000E+00 0.  1.
          2   -1    0    0  502    0 -0.00000000000E+00 -0.00000000000E+00 -0.10087329401E+04  0.10087329401E+04  0.00000000000E+00 0.  1.
          2    1    1    2  501    0  0.14999793288E+02  0.13950374381E+02 -0.10082964831E+04  0.10085045387E+04  0.00000000000E+00 0.  1.
          2    1    1    2  502    0 -0.14999793288E+02 -0.13950374381E+02  0.31522852283E+03  0.31589338130E+03  0.00000000000E+00 0.  1.
</event>
<event>
 4    1  0.6688462E+003  0.2376380E+02  0.7546771E-02  0.1483124E+00
          2   -1    0    0  502    0  0.00000000000E+00  0.00000000000E+00  0.21816439273E+02  0.21816439273E+02  0.00000000000E+00 0. -1.
          2   -1    0    0  501    0 -0.00000000000E+00 -0.00000000000E+00 -0.99665611439E+02  0.99665611439E+02  0.00000000000E+00 0. -1.
          2    1    1    2  501    0 -0.14827646368E+02  0.18570380561E+02  0.13336764634E+02  0.27250457278E+02  0.00000000000E+00 0. -1.
          2    1    1    2  502    0  0.14827646368E+02 -0.18570380561E+02 -0.91185936800E+02  0.94231593433E+02  0.00000000000E+00 0. -1.
</event>
<event>
 4    1  0.6688462E+003  0.2091620E+02  0.7546771E-02  0.1520465E+00
          2   -1    0    0  502    0  0.00000000000E+00  0.00000000000E+00  0.16318692683E+03  0.16318692683E+03  0.00000000000E+00 0.  1.
          2   -1    0    0  501    0 -0.00000000000E+00 -0.00000000000E+00 -0.85923345427E+02  0.85923345427E+02  0.00000000000E+00 0.  1.
          2    1    1    2  501    0 -0.48136316238E+01 -0.20354764020E+02  0.16122840387E+03  0.16257947497E+03  0.00000000000E+00 0.  1.
          2    1    1    2  502    0  0.48136316238E+01  0.20354764020E+02 -0.83964822464E+02  0.86530797287E+02  0.00000000000E+00 0.  1.
</event>
<event>
 4    1  0.8195618E+003  0.2599309E+02  0.7546771E-02  0.1457994E+00
          2   -1    0    0  502    0  0.00000000000E+00  0.00000000000E+00  0.75570353887E+03  0.75570353887E+03  0.00000000000E+00 0.  1.
          2   -1    0    0  501    0 -0.00000000000E+00 -0.00000000000E+00 -0.59120695974E+03  0.59120695974E+03  0.00000000000E+00 0. -1.
          2    1    1    2  501    0 -0.20412298459E+02 -0.16092811787E+02  0.75519412857E+03  0.75564132519E+03  0.00000000000E+00 0.  1.
          2    1    1    2  502    0  0.20412298459E+02  0.16092811787E+02 -0.59069754944E+03  0.59126917342E+03  0.00000000000E+00 0. -1.
</event>
<event>
 4    1  0.6688462E+003  0.2514553E+02  0.7546771E-02  0.1467182E+00
          2   -1    0    0  501    0  0.00000000000E+00  0.00000000000E+00  0.21987312298E+02  0.21987312298E+02  0.00000000000E+00 0.  1.
          2   -1    0    0  502    0 -0.00000000000E+00 -0.00000000000E+00 -0.24608908253E+03  0.24608908253E+03  0.00000000000E+00 0. -1.
          2    1    1    2  501    0  0.17421775629E+02 -0.18132274535E+02 -0.23801415888E+03  0.23933875046E+03  0.00000000000E+00 0. -1.
          2    1    1    2  502    0 -0.17421775629E+02  0.18132274535E+02  0.13912388646E+02  0.28737644367E+02  0.00000000000E+00 0.  1.
</event>
<event>
 4    1  0.6688462E+003  0.3112096E+02  0.7546771E-02  0.1410099E+00
          2   -1    0    0  501    0  0.00000000000E+00  0.00000000000E+00  0.22084394755E+02  0.22084394755E+02  0.00000000000E+00 0.  1.
          2   -1    0    0  502    0 -0.00000000000E+00 -0.00000000000E+00 -0.12175857361E+03  0.12175857361E+03  0.00000000000E+00 0.  1.
          2    1    1    2  501    0 -0.18751088644E+02 -0.24837689725E+02 -0.10736613559E+03  0.11178551439E+03  0.00000000000E+00 0.  1.
          2    1    1    2  502    0  0.18751088644E+02  0.24837689725E+02  0.76919567422E+01  0.32057453966E+02  0.00000000000E+00 0.  1.
</event>
<event>
 4    1  0.6688462E+003  0.2639835E+02  0.7546771E-02  0.1453747E+00
          2   -1    0    0  501    0  0.00000000000E+00  0.00000000000E+00  0.24885441500E+03  0.24885441500E+03  0.00000000000E+00 0. -1.
          2   -1    0    0  502    0 -0.00000000000E+00 -0.00000000000E+00 -0.90230446352E+01  0.90230446352E+01  0.00000000000E+00 0. -1.
          2    1    1    2  501    0  0.74639852250E+01  0.25321171747E+02  0.12838483840E+02  0.29354718214E+02  0.00000000000E+00 0. -1.
          2    1    1    2  502    0 -0.74639852250E+01 -0.25321171747E+02  0.22699288653E+03  0.22852274142E+03  0.00000000000E+00 0. -1.
</event>
<event>
 4    1  0.6688462E+003  0.6770631E+02  0.7546771E-02  0.1235681E+00
          2   -1    0    0  501    0  0.00000000000E+00  0.00000000000E+00  0.25326385967E+03  0.25326385967E+03  0.00000000000E+00 0. -1.
          2   -1    0    0  502    0 -0.00000000000E+00 -0.00000000000E+00 -0.22210254828E+03  0.22210254828E+03  0.00000000000E+00 0. -1.
          2    1    1    2  501    0  0.52412547918E+01  0.67503139838E+02 -0.21221174391E+03  0.22275091221E+03  0.00000000000E+00 0. -1.
          2    1    1    2  502    0 -0.52412547918E+01 -0.67503139838E+02  0.24337305529E+03  0.25261549573E+03  0.00000000000E+00 0. -1.
</event>
<event>
 4    1  0.6688462E+003  0.2278156E+02  0.7546771E-02  0.1495259E+00
          2   -1    0    0  502    0  0.00000000000E+00  0.00000000000E+00  0.98680776721E+02  0.98680776721E+02  0.00000000000E+00 0.  1.
          2   -1    0    0  501    0 -0.00000000000E+00 -0.00000000000E+00 -0.21579847318E+03  0.21579847318E+03  0.00000000000E+00 0. -1.
          2    1    1    2  501    0 -0.22630636856E+02 -0.26179565926E+01  0.96752858573E+02  0.99398767916E+02  0.00000000000E+00 0.  1.
          2    1    1    2  502    0  0.22630636856E+02  0.26179565926E+01 -0.21387055503E+03  0.21508048199E+03  0.00000000000E+00 0. -1.
</event>
<event>
 4    1  0.6688462E+003  0.2353889E+02  0.7546771E-02  0.1485840E+00
          2   -1    0    0  502    0  0.00000000000E+00  0.00000000000E+00  0.42157458286E+01  0.42157458286E+01  0.00000000000E+00 0.  1.
          2   -1    0    0  501    0 -0.00000000000E+00 -0.00000000000E+00 -0.32808592026E+03  0.32808592026E+03  0.00000000000E+00 0. -1.
          2    1    1    2  501    0 -0.22820914740E+02  0.57693234758E+01 -0.33299464862E+02  0.40779082911E+02  0.00000000000E+00 0.  1.
          2    1    1    2  502    0  0.22820914740E+02 -0.57693234758E+01 -0.29057070957E+03  0.29152258318E+03  0.00000000000E+00 0. -1.
</event>
<event>
 4    1  0.6688462E+003  0.2024779E+02  0.7546771E-02  0.1530281E+00
          2   -1    0    0  501    0  0.00000000000E+00  0.00000000000E+00  0.30274605344E+02  0.30274605344E+02  0.00000000000E+00 0. -1.
          2   -1    0    0  502    0 -0.00000000000E+00 -0.00000000000E+00 -0.18367942783E+03  0.18367942783E+03  0.00000000000E+00 0. -1.
          2    1    1    2  501    0 -0.20246939723E+02 -0.18556340551E+00 -0.17966048171E+03  0.18079784758E+03  0.00000000000E+00 0. -1.
          2    1    1    2  502    0  0.20246939723E+02  0.18556340551E+00  0.26255659222E+02  0.33156185594E+02  0.00000000000E+00 0. -1.
</event>
<event>
 4    1  0.6688462E+003  0.2353552E+02  0.7546771E-02  0.1485881E+00
          2   -1    0    0  501    0  0.00000000000E+00  0.00000000000E+00  0.16458087709E+04  0.16458087709E+04  0.00000000000E+00 0. -1.
          2   -1    0    0  502    0 -0.00000000000E+00 -0.00000000000E+00 -0.15831021666E+01  0.15831021666E+01  0.00000000000E+00 0. -1.
          2    1    1    2  501    0  0.10301098021E+02 -0.21161475994E+02  0.91200707373E+02  0.94188585890E+02  0.00000000000E+00 0. -1.
          2    1    1    2  502    0 -0.10301098021E+02  0.21161475994E+02  0.15530249614E+04  0.15532032872E+04  0.00000000000E+00 0. -1.
</event>
<event>
 4    1  0.6688462E+003  0.3465934E+02  0.7546771E-02  0.1382974E+00
          2   -1    0    0  501    0  0.00000000000E+00  0.00000000000E+00  0.14212134944E+04  0.14212134944E+04  0.00000000000E+00 0. -1.
          2   -1    0    0  502    0 -0.00000000000E+00 -0.00000000000E+00 -0.13265727158E+03  0.13265727158E+03  0.00000000000E+00 0. -1.
          2    1    1    2  501    0  0.34569044162E+02  0.25001414022E+01 -0.13017814656E+03  0.13471310019E+03  0.00000000000E+00 0. -1.
          2    1    1    2  502    0 -0.34569044162E+02 -0.25001414022E+01  0.14187343694E+04  0.14191576658E+04  0.00000000000E+00 0. -1.
</event>
<event>
 4    1  0.6688462E+003  0.2901748E+02  0.7546771E-02  0.1428331E+00
          2   -1    0    0  502    0  0.00000000000E+00  0.00000000000E+00  0.26924355829E+03  0.26924355829E+03  0.00000000000E+00 0. -1.
          2   -1    0    0  501    0 -0.00000000000E+00 -0.00000000000E+00 -0.41030231289E+02  0.41030231289E+02  0.00000000000E+00 0.  1.
          2    1    1    2  501    0 -0.25667235604E+02  0.13535401725E+02  0.26321410755E+03  0.26480876212E+03  0.00000000000E+00 0. -1.
          2    1    1    2  502    0  0.25667235604E+02 -0.13535401725E+02 -0.35000780544E+02  0.45465027462E+02  0.00000000000E+00 0.  1.
</event>
<event>
 4    1  0.6688462E+003  0.4090536E+02  0.7546771E-02  0.1343261E+00
          2   -1    0    0  502    0  0.00000000000E+00  0.00000000000E+00  0.22446824683E+03  0.22446824683E+03  0.00000000000E+00 0. -1.
          2   -1    0    0  501    0 -0.00000000000E+00 -0.00000000000E+00 -0.89506784977E+02  0.89506784977E+02  0.00000000000E+00 0.  1.
          2    1    1    2  501    0 -0.35652845665E+02 -0.20053002148E+02  0.21778906826E+03  0.22159721693E+03  0.00000000000E+00 0. -1.
          2    1    1    2  502    0  0.35652845665E+02  0.20053002148E+02 -0.82827606402E+02  0.92377814877E+02  0.00000000000E+00 0.  1.
</event>
<event>
 4    1  0.6688462E+003  0.2087675E+02  0.7546771E-02  0.1521032E+00
          2   -1    0    0  502    0  0.00000000000E+00  0.00000000000E+00  0.92235902936E+00  0.92235902936E+00  0.00000000000E+00 0. -1.
          2   -1    0    0  501    0 -0.00000000000E+00 -0.00000000000E+00 -0.52105461483E+03  0.52105461483E+03  0.00000000000E+00 0.  1.
          2    1    1    2  501    0  0.93524645769E+01 -0.18664671229E+02 -0.18041736271E+03  0.18162120832E+03  0.00000000000E+00 0. -1.
          2    1    1    2  502    0 -0.93524645769E+01  0.18664671229E+02 -0.33971489310E+03  0.34035576554E+03  0.00000000000E+00 0.  1.
</event>
<event>
 4    1  0.6688462E+003  0.2198608E+02  0.7546771E-02  0.1505638E+00
          2   -1    0    0  502    0  0.00000000000E+00  0.00000000000E+00  0.88313906235E+03  0.88313906235E+03  0.00000000000E+00 0. -1.
          2   -1    0    0  501    0 -0.00000000000E+00 -0.00000000000E+00 -0.24705002985E+03  0.24705002985E+03  0.00000000000E+00 0.  1.
          2    1    1    2  501    0 -0.21476557752E+02 -0.47058840040E+01  0.88251271735E+03  0.88278654507E+03  0.00000000000E+00 0. -1.
          2    1    1    2  502    0  0.21476557752E+02  0.47058840040E+01 -0.24642368484E+03  0.24740254713E+03  0.00000000000E+00 0.  1.
</event>
<event>
 4    1  0.6688462E+003  0.2568474E+02  0.7546771E-02  0.1461287E+00
          2   -1    0    0  502    0  0.00000000000E+00  0.00000000000E+00  0.16750635335E+03  0.16750635335E+03  0.00000000000E+00 0. -1.
          2   -1    0    0  501    0 -0.00000000000E+00 -0.00000000000E+00 -0.12513968675E+03  0.12513968675E+03  0.00000000000E+00 0.  1.
          2    1    1    2  501    0  0.47939586877E+01  0.25233387561E+02  0.16518540889E+03  0.16717034784E+03  0.00000000000E+00 0. -1.
          2    1    1    2  502    0 -0.47939586877E+01 -0.25233387561E+02 -0.12281874229E+03  0.12547569225E+03  0.00000000000E+00 0.  1.
</event>
<event>
 4    1  0.6688462E+003  0.2069111E+02  0.7546771E-02  0.1523721E+00
          2   -1    0    0  501    0  0.00000000000E+00  0.00000000000E+00  0.82624179350E+01  0.82624179350E+01  0.00000000000E+00 0. -1.
          2   -1    0    0  502    0 -0.00000000000E+00 -0.00000000000E+00 -0.36810327998E+03  0.36810327998E+03  0.00000000000E+00 0. -1.
          2    1    1    2  501    0 -0.19727394346E+02 -0.62411612406E+01 -0.35435651572E+03  0.35496008566E+03  0.00000000000E+00 0. -1.
          2    1    1    2  502    0  0.19727394346E+02  0.62411612406E+01 -0.54843463274E+01  0.21405612254E+02  0.00000000000E+00 0. -1.
</event>
<event>
 4    1  0.6688462E+003  0.6137503E+02  0.7546771E-02  0.1255231E+00
          2   -1    0    0  502    0  0.00000000000E+00  0.00000000000E+00  0.35155095841E+02  0.35155095841E+02  0.00000000000E+00 0. -1.
          2   -1    0    0  501    0 -0.00000000000E+00 -0.00000000000E+00 -0.88270216431E+03  0.88270216431E+03  0.00000000000E+00 0. -1.
          2    1    1    2  501    0  0.82313881248E+01  0.60820543885E+02  0.63996733372E+01  0.61707780124E+02  0.00000000000E+00 0. -1.
          2    1    1    2  502    0 -0.82313881248E+01 -0.60820543885E+02 -0.85394674180E+03  0.85614948002E+03  0.00000000000E+00 0. -1.
</event>
<event>
 4    1  0.6688462E+003  0.3611497E+02  0.7546771E-02  0.1372890E+00
          2   -1    0    0  501    0  0.00000000000E+00  0.00000000000E+00  0.32521224001E+02  0.32521224001E+02  0.00000000000E+00 0.  1.
          2   -1    0    0  502    0 -0.00000000000E+00 -0.00000000000E+00 -0.34655228212E+03  0.34655228212E+03  0.00000000000E+00 0. -1.
          2    1    1    2  501    0  0.29369995599E+02 -0.21016535537E+02 -0.33524779888E+03  0.33718745241E+03  0.00000000000E+00 0. -1.
          2    1    1    2  502    0 -0.29369995599E+02  0.21016535537E+02  0.21216740759E+02  0.41886053716E+02  0.00000000000E+00 0.  1.
</event>
<event>
 4    1  0.6688462E+003  0.3394742E+02  0.7546771E-02  0.1388118E+00
          2   -1    0    0  502    0  0.00000000000E+00  0.00000000000E+00  0.30649260173E+03  0.30649260173E+03  0.00000000000E+00 0. -1.
          2   -1    0    0  501    0 -0.00000000000E+00 -0.00000000000E+00 -0.20614851346E+02  0.20614851346E+02  0.00000000000E+00 0.  1.
          2    1    1    2  501    0 -0.67183048413E+01  0.33275994536E+02  0.29082661187E+03  0.29280120492E+03  0.00000000000E+00 0. -1.
          2    1    1    2  502    0  0.67183048413E+01 -0.33275994536E+02 -0.49488614878E+01  0.34306248153E+02  0.00000000000E+00 0.  1.
</event>
<event>
 4    1  0.6688462E+003  0.2149540E+02  0.7546771E-02  0.1512308E+00
          2   -1    0    0  501    0  0.00000000000E+00  0.00000000000E+00  0.69578722424E+00  0.69578722424E+00  0.00000000000E+00 0.  1.
          2   -1    0    0  502    0 -0.00000000000E+00 -0.00000000000E+00 -0.92785846846E+03  0.92785846846E+03  0.00000000000E+00 0. -1.
          2    1    1    2  501    0  0.11807427507E+02 -0.17962096391E+02 -0.71113157591E+03  0.71145637288E+03  0.00000000000E+00 0. -1.
          2    1    1    2  502    0 -0.11807427507E+02  0.17962096391E+02 -0.21603110533E+03  0.21709788281E+03  0.00000000000E+00 0.  1.
</event>
<event>
 4    1  0.6688462E+003  0.2264035E+02  0.7546771E-02  0.1497064E+00
          2   -1    0    0  501    0  0.00000000000E+00  0.00000000000E+00  0.72089858982E+01  0.72089858982E+01  0.00000000000E+00 0.  1.
          2   -1    0    0  502    0 -0.00000000000E+00 -0.00000000000E+00 -0.67169870829E+03  0.67169870829E+03  0.00000000000E+00 0.  1.
          2    1    1    2  501    0  0.21616362863E+02  0.67318843467E+01 -0.65322957135E+03  0.65362180066E+03  0.00000000000E+00 0.  1.
          2    1    1    2  502    0 -0.21616362863E+02 -0.67318843467E+01 -0.11260151048E+02  0.25285893536E+02  0.00000000000E+00 0.  1.
</event>
<event>
 4    1  0.6688462E+003  0.3518832E+02  0.7546771E-02  0.1379244E+00
          2   -1    0    0  501    0  0.00000000000E+00  0.00000000000E+00  0.17330796425E+04  0.17330796425E+04  0.00000000000E+00 0. -1.
          2   -1    0    0  502    0 -0.00000000000E+00 -0.00000000000E+00 -0.11242722535E+01  0.11242722535E+01  0.00000000000E+00 0.  1.
          2    1    1    2  501    0  0.24072975562E+02 -0.25665337398E+02  0.34246597996E+03  0.34426903015E+03  0.00000000000E+00 0.  1.
          2    1    1    2  502    0 -0.24072975562E+02  0.25665337398E+02  0.13894893903E+04  0.13899348846E+04  0.00000000000E+00 0. -1.
</event>
<event>
 4    1  0.6688462E+003  0.2042680E+02  0.7546771E-02  0.1527608E+00
          2   -1    0    0  501    0  0.00000000000E+00  0.00000000000E+00  0.10588599905E+04  0.10588599905E+04  0.00000000000E+00 0. -1.
          2   -1    0    0  502    0 -0.00000000000E+00 -0.00000000000E+00 -0.27075662526E+02  0.27075662526E+02  0.00000000000E+00 0.  1.
          2    1    1    2  501    0 -0.12402657926E+02  0.16230469204E+02 -0.23109998552E+02  0.30843574489E+02  0.00000000000E+00 0.  1.
          2    1    1    2  502    0  0.12402657926E+02 -0.16230469204E+02  0.10548943266E+04  0.10550920786E+04  0.00000000000E+00 0. -1.
</event>
<event>
 4    1  0.6688462E+003  0.2019780E+02  0.7546771E-02  0.1531033E+00
          2   -1    0    0  502    0  0.00000000000E+00  0.00000000000E+00  0.31532919025E+01  0.31532919025E+01  0.00000000000E+00 0. -1.
          2   -1    0    0  501    0 -0.00000000000E+00 -0.00000000000E+00 -0.32651815178E+03  0.32651815178E+03  0.00000000000E+00 0.  1.
          2    1    1    2  501    0  0.43517212289E+01  0.19723424493E+02 -0.33599669502E+02  0.39203172601E+02  0.00000000000E+00 0. -1.
          2    1    1    2  502    0 -0.43517212289E+01 -0.19723424493E+02 -0.28976519038E+03  0.29046827108E+03  0.00000000000E+00 0.  1.
</event>
<event>
 4    1  0.6688462E+003  0.2101164E+02  0.7546771E-02  0.1519099E+00
          2   -1    0    0  501    0  0.00000000000E+00  0.00000000000E+00  0.78155240990E+01  0.78155240990E+01  0.00000000000E+00 0. -1.
          2   -1    0    0  502    0 -0.00000000000E+00 -0.00000000000E+00 -0.87910560086E+03  0.87910560086E+03  0.00000000000E+00 0. -1.
          2    1    1    2  501    0  0.10320470584E+02 -0.18302371711E+02 -0.86462132917E+03  0.86487659916E+03  0.00000000000E+00 0. -1.
          2    1    1    2  502    0 -0.10320470584E+02  0.18302371711E+02 -0.66687475968E+01  0.22044525802E+02  0.00000000000E+00 0. -1.
</event>
<event>
 4    1  0.6688462E+003  0.2087744E+02  0.7546771E-02  0.1521022E+00
          2   -1    0    0  502    0  0.00000000000E+00  0.00000000000E+00  0.39995859179E+02  0.39995859179E+02  0.00000000000E+00 0. -1.
          2   -1    0    0  501    0 -0.00000000000E+00 -0.00000000000E+00 -0.19050680249E+03  0.19050680249E+03  0.00000000000E+00 0.  1.
          2    1    1    2  501    0 -0.19821873219E+02  0.65544574151E+01  0.36650879307E+02  0.42180025176E+02  0.00000000000E+00 0. -1.
          2    1    1    2  502    0  0.19821873219E+02 -0.65544574151E+01 -0.18716182261E+03  0.18832263649E+03  0.00000000000E+00 0.  1.
</event>
<event>
 4    1  0.6688462E+003  0.2894214E+02  0.7546771E-02  0.1429017E+00
          2   -1    0    0  501    0  0.00000000000E+00  0.00000000000E+00  0.10324751384E+04  0.10324751384E+04  0.00000000000E+00 0.  1.
          2   -1    0    0  502    0 -0.00000000000E+00 -0.00000000000E+00 -0.76236541685E+02  0.76236541685E+02  0.00000000000E+00 0. -1.
          2    1    1    2  501    0  0.28493953613E+02  0.50736506084E+01 -0.73278957520E+02  0.78787390731E+02  0.00000000000E+00 0. -1.
          2    1    1    2  502    0 -0.28493953613E+02 -0.50736506084E+01  0.10295175542E+04  0.10299242893E+04  0.00000000000E+00 0.  1.
</event>
<event>
 4    1  0.6688462E+003  0.4929400E+02  0.7546771E-02  0.1301263E+00
          2   -1    0    0  502    0  0.00000000000E+00  0.00000000000E+00  0.10272418479E+03  0.10272418479E+03  0.00000000000E+00 0. -1.
          2   -1    0    0  501    0 -0.00000000000E+00 -0.00000000000E+00 -0.37337087382E+02  0.37337087382E+02  0.00000000000E+00 0.  1.
          2    1    1    2  501    0 -0.29971887301E+02  0.39135457254E+02  0.75087178838E+02  0.89821948702E+02  0.00000000000E+00 0. -1.
          2    1    1    2  502    0  0.29971887301E+02 -0.39135457254E+02 -0.97000814299E+01  0.50239323469E+02  0.00000000000E+00 0.  1.
</event>
<event>
 4    1  0.6688462E+003  0.2972512E+02  0.7546771E-02  0.1422000E+00
          2   -1    0    0  502    0  0.00000000000E+00  0.00000000000E+00  0.32107007759E+03  0.32107007759E+03  0.00000000000E+00 0. -1.
          2   -1    0    0  501    0 -0.00000000000E+00 -0.00000000000E+00 -0.92913474760E+02  0.92913474760E+02  0.00000000000E+00 0.  1.
          2    1    1    2  501    0  0.79683521568E+01 -0.28637182073E+02  0.31798160339E+03  0.31936794286E+03  0.00000000000E+00 0. -1.
          2    1    1    2  502    0 -0.79683521568E+01  0.28637182073E+02 -0.89825000561E+02  0.94615609488E+02  0.00000000000E+00 0.  1.
</event>
<event>
 4    1  0.6688462E+003  0.2482703E+02  0.7546771E-02  0.1470748E+00
          2   -1    0    0  502    0  0.00000000000E+00  0.00000000000E+00  0.34099455187E+01  0.34099455187E+01  0.00000000000E+00 0. -1.
          2   -1    0    0  501    0 -0.00000000000E+00 -0.00000000000E+00 -0.14079210184E+04  0.14079210184E+04  0.00000000000E+00 0.  1.
          2    1    1    2  501    0 -0.12456632624E+02  0.21475891626E+02 -0.43445039055E+02  0.50038515525E+02  0.00000000000E+00 0. -1.
          2    1    1    2  502    0  0.12456632624E+02 -0.21475891626E+02 -0.13610660339E+04  0.13612924484E+04  0.00000000000E+00 0.  1.
</event>
<event>
 4    1  0.6688462E+003  0.2670778E+02  0.7546771E-02  0.1450566E+00
          2   -1    0    0  501    0  0.00000000000E+00  0.00000000000E+00  0.75726384095E+03  0.75726384095E+03  0.00000000000E+00 0.  1.
          2   -1    0    0  502    0 -0.00000000000E+00 -0.00000000000E+00 -0.14917548153E+01  0.14917548153E+01  0.00000000000E+00 0.  1.
          2    1    1    2  501    0 -0.25707334125E+02  0.72414278177E+01  0.14756844205E+03  0.14996583076E+03  0.00000000000E+00 0.  1.
          2    1    1    2  502    0  0.25707334125E+02 -0.72414278177E+01  0.60820364408E+03  0.60878976501E+03  0.00000000000E+00 0.  1.
</event>
<event>
 4    1  0.6688462E+003  0.2442170E+02  0.7546771E-02  0.1475378E+00
          2   -1    0    0  501    0  0.00000000000E+00  0.00000000000E+00  0.18948256194E+01  0.18948256194E+01  0.00000000000E+00 0. -1.
          2   -1    0    0  502    0 -0.00000000000E+00 -0.00000000000E+00 -0.18605290488E+04  0.18605290488E+04  0.00000000000E+00 0.  1.
          2    1    1    2  501    0  0.21643588831E+02  0.11312571023E+02 -0.17781111532E+04  0.17782788568E+04  0.00000000000E+00 0.  1.
          2    1    1    2  502    0 -0.21643588831E+02 -0.11312571023E+02 -0.80523069952E+02  0.84145017649E+02  0.00000000000E+00 0. -1.
</event>
<event>
 4    1  0.6688462E+003  0.7962461E+02  0.7546771E-02  0.1204722E+00
          2   -1    0    0  502    0  0.00000000000E+00  0.00000000000E+00  0.13608297504E+04  0.13608297504E+04  0.00000000000E+00 0.  1.
          2   -1    0    0  501    0 -0.00000000000E+00 -0.00000000000E+00 -0.23167216936E+03  0.23167216936E+03  0.00000000000E+00 0. -1.
          2    1    1    2  501    0  0.31776431369E+02 -0.73009151038E+02  0.13527826951E+04  0.13551240157E+04  0.00000000000E+00 0.  1.
          2    1    1    2  502    0 -0.31776431369E+02  0.73009151038E+02 -0.22362511404E+03  0.23737790410E+03  0.00000000000E+00 0. -1.
</event>
<event>
 4    1  0.1352817E+004  0.3110483E+02  0.7546771E-02  0.1410232E+00
          2   -1    0    0  501    0  0.00000000000E+00  0.00000000000E+00  0.16467174758E+04  0.16467174758E+04  0.00000000000E+00 0. -1.
          2   -1    0    0  502    0 -0.00000000000E+00 -0.00000000000E+00 -0.63267864475E+03  0.63267864475E+03  0.00000000000E+00 0. -1.
          2    1    1    2  501    0 -0.21280094037E+02  0.22686292851E+02 -0.63214933000E+03  0.63291412190E+03  0.00000000000E+00 0. -1.
          2    1    1    2  502    0  0.21280094037E+02 -0.22686292851E+02  0.16461881611E+04  0.16464819987E+04  0.00000000000E+00 0. -1.
</event>
<event>
 4    1  0.6688462E+003  0.3247016E+02  0.7546771E-02  0.1399278E+00
          2   -1    0    0  502    0  0.00000000000E+00  0.00000000000E+00  0.45136427065E+03  0.45136427065E+03  0.00000000000E+00 0. -1.
          2   -1    0    0  501    0 -0.00000000000E+00 -0.00000000000E+00 -0.16065540582E+03  0.16065540582E+03  0.00000000000E+00 0.  1.
          2    1    1    2  501    0  0.30358765566E+02 -0.11517654727E+02  0.44913152687E+03  0.45030371911E+03  0.00000000000E+00 0. -1.
          2    1    1    2  502    0 -0.30358765566E+02  0.11517654727E+02 -0.15842266204E+03  0.16171595736E+03  0.00000000000E+00 0.  1.
</event>
<event>
 4    1  0.6688462E+003  0.2357548E+02  0.7546771E-02  0.1485396E+00
          2   -1    0    0  501    0  0.00000000000E+00  0.00000000000E+00  0.10244711729E+01  0.10244711729E+01  0.00000000000E+00 0.  1.
          2   -1    0    0  502    0 -0.00000000000E+00 -0.00000000000E+00 -0.10571624689E+04  0.10571624689E+04  0.00000000000E+00 0. -1.
          2    1    1    2  501    0  0.15697509528E+02 -0.17589528190E+02 -0.89722622681E+03  0.89753590758E+03  0.00000000000E+00 0. -1.
          2    1    1    2  502    0 -0.15697509528E+02  0.17589528190E+02 -0.15891177094E+03  0.16065103252E+03  0.00000000000E+00 0.  1.
</event>
<event>
 4    1  0.6688462E+003  0.3597916E+02  0.7546771E-02  0.1373807E+00
          2   -1    0    0  502    0  0.00000000000E+00  0.00000000000E+00  0.74266165738E+02  0.74266165738E+02  0.00000000000E+00 0. -1.
          2   -1    0    0  501    0 -0.00000000000E+00 -0.00000000000E+00 -0.26646649990E+03  0.26646649990E+03  0.00000000000E+00 0.  1.
          2    1    1    2  501    0 -0.30942612753E+02 -0.18359051602E+02  0.68599791337E+02  0.77462451751E+02  0.00000000000E+00 0. -1.
          2    1    1    2  502    0  0.30942612753E+02  0.18359051602E+02 -0.26080012550E+03  0.26327021389E+03  0.00000000000E+00 0.  1.
</event>
<event>
 4    1  0.6688462E+003  0.2262013E+02  0.7546771E-02  0.1497324E+00
          2   -1    0    0  501    0  0.00000000000E+00  0.00000000000E+00  0.48173348346E+02  0.48173348346E+02  0.00000000000E+00 0.  1.
          2   -1    0    0  502    0 -0.00000000000E+00 -0.00000000000E+00 -0.83251470620E+02  0.83251470620E+02  0.00000000000E+00 0. -1.
          2    1    1    2  501    0  0.15231347717E+02 -0.16723528206E+02 -0.78916610917E+02  0.82094468922E+02  0.00000000000E+00 0. -1.
          2    1    1    2  502    0 -0.15231347717E+02  0.16723528206E+02  0.43838488644E+02  0.49330350044E+02  0.00000000000E+00 0.  1.
</event>
<event>
 4    1  0.6688462E+003  0.6268095E+02  0.7546771E-02  0.1250986E+00
          2   -1    0    0  501    0  0.00000000000E+00  0.00000000000E+00  0.13487139456E+02  0.13487139456E+02  0.00000000000E+00 0. -1.
          2   -1    0    0  502    0 -0.00000000000E+00 -0.00000000000E+00 -0.15006734463E+04  0.15006734463E+04  0.00000000000E+00 0.  1.
          2    1    1    2  501    0 -0.51565699958E+02  0.35635370193E+02 -0.14232313230E+04  0.14246109292E+04  0.00000000000E+00 0.  1.
          2    1    1    2  502    0  0.51565699958E+02 -0.35635370193E+02 -0.63954983885E+02  0.89549656530E+02  0.00000000000E+00 0. -1.
</event>
<event>
 4    1  0.6688462E+003  0.2584422E+02  0.7546771E-02  0.1459577E+00
          2   -1    0    0  501    0  0.00000000000E+00  0.00000000000E+00  0.12535202290E+04  0.12535202290E+04  0.00000000000E+00 0. -1.
          2   -1    0    0  502    0 -0.00000000000E+00 -0.00000000000E+00 -0.46232009387E+01  0.46232009387E+01  0.00000000000E+00 0. -1.
          2    1    1    2  501    0 -0.25330183844E+02 -0.51288906506E+01  0.32737471903E+02  0.41709301114E+02  0.00000000000E+00 0. -1.
          2    1    1    2  502    0  0.25330183844E+02  0.51288906506E+01  0.12161595562E+04  0.12164341289E+04  0.00000000000E+00 0. -1.
</event>
<event>
 4    1  0.6688462E+003  0.2870824E+02  0.7546771E-02  0.1431164E+00
          2   -1    0    0  501    0  0.00000000000E+00  0.00000000000E+00  0.56973334855E+01  0.56973334855E+01  0.00000000000E+00 0.  1.
          2   -1    0    0  502    0 -0.00000000000E+00 -0.00000000000E+00 -0.51562452969E+03  0.51562452969E+03  0.00000000000E+00 0.  1.
          2    1    1    2  501    0 -0.18115284262E+02 -0.22271046748E+02 -0.47605747181E+03  0.47692229924E+03  0.00000000000E+00 0.  1.
          2    1    1    2  502    0  0.18115284262E+02  0.22271046748E+02 -0.33869724401E+02  0.44399563941E+02  0.00000000000E+00 0.  1.
</event>
<event>
 4    1  0.6688462E+003  0.2043180E+02  0.7546771E-02  0.1527534E+00
          2   -1    0    0  501    0  0.00000000000E+00  0.00000000000E+00  0.57693552010E+03  0.57693552010E+03  0.00000000000E+00 0. -1.
          2   -1    0    0  502    0 -0.00000000000E+00 -0.00000000000E+00 -0.16752864201E+01  0.16752864201E+01  0.00000000000E+00 0. -1.
          2    1    1    2  501    0 -0.14076367067E+02 -0.14809259717E+02  0.69576248656E+02  0.72514223848E+02  0.00000000000E+00 0. -1.
          2    1    1    2  502    0  0.14076367067E+02  0.14809259717E+02  0.50568398502E+03  0.50609658267E+03  0.00000000000E+00 0. -1.
</event>
<event>
 4    1  0.6688462E+003  0.2292514E+02  0.7546771E-02  0.1493440E+00
          2   -1    0    0  502    0  0.00000000000E+00  0.00000000000E+00  0.91539837954E+01  0.91539837954E+01  0.00000000000E+00 0. -1.
          2   -1    0    0  501    0 -0.00000000000E+00 -0.00000000000E+00 -0.87478431042E+03  0.87478431042E+03  0.00000000000E+00 0. -1.
          2    1    1    2  501    0 -0.22920839606E+02 -0.44416587591E+00 -0.55957049637E+01  0.23598179710E+02  0.00000000000E+00 0. -1.
          2    1    1    2  502    0  0.22920839606E+02  0.44416587591E+00 -0.86003462166E+03  0.86034011450E+03  0.00000000000E+00 0. -1.
</event>
<event>
 4    1  0.6688462E+003  0.2045430E+02  0.7546771E-02  0.1527201E+00
          2   -1    0    0  501    0  0.00000000000E+00  0.00000000000E+00  0.21441209617E+03  0.21441209617E+03  0.00000000000E+00 0. -1.
          2   -1    0    0  502    0 -0.00000000000E+00 -0.00000000000E+00 -0.30600144659E+01  0.30600144659E+01  0.00000000000E+00 0.  1.
          2    1    1    2  501    0  0.19111692415E+02  0.72884431461E+01  0.40223657390E+02  0.45125611401E+02  0.00000000000E+00 0.  1.
          2    1    1    2  502    0 -0.19111692415E+02 -0.72884431461E+01  0.17112842431E+03  0.17234649924E+03  0.00000000000E+00 0. -1.
</event>
<event>
 4    1  0.6688462E+003  0.2754358E+02  0.7546771E-02  0.1442223E+00
          2   -1    0    0  501    0  0.00000000000E+00  0.00000000000E+00  0.10906276053E+02  0.10906276053E+02  0.00000000000E+00 0.  1.
          2   -1    0    0  502    0 -0.00000000000E+00 -0.00000000000E+00 -0.15351855809E+03  0.15351855809E+03  0.00000000000E+00 0.  1.
          2    1    1    2  501    0  0.30042176605E+01  0.27379253020E+02 -0.13210389042E+03  0.13494475419E+03  0.00000000000E+00 0.  1.
          2    1    1    2  502    0 -0.30042176605E+01 -0.27379253020E+02 -0.10508391621E+02  0.29480079955E+02  0.00000000000E+00 0.  1.
</event>
<event>
 4    1  0.6688462E+003  0.2074439E+02  0.7546771E-02  0.1522946E+00
          2   -1    0    0  502    0  0.00000000000E+00  0.00000000000E+00  0.11812141066E+02  0.11812141066E+02  0.00000000000E+00 0. -1.
          2   -1    0    0  501    0 -0.00000000000E+00 -0.00000000000E+00 -0.20732245897E+03  0.20732245897E+03  0.00000000000E+00 0.  1.
          2    1    1    2  501    0  0.83516844902E+01  0.18988921111E+02  0.17207201252E+01  0.20815634425E+02  0.00000000000E+00 0. -1.
          2    1    1    2  502    0 -0.83516844902E+01 -0.18988921111E+02 -0.19723103803E+03  0.19831896561E+03  0.00000000000E+00 0.  1.
</event>
<event>
 4    1  0.6688462E+003  0.2671943E+02  0.7546771E-02  0.1450447E+00
          2   -1    0    0  501    0  0.00000000000E+00  0.00000000000E+00  0.10254373043E+02  0.10254373043E+02  0.00000000000E+00 0. -1.
          2   -1    0    0  502    0 -0.00000000000E+00 -0.00000000000E+00 -0.11118681124E+03  0.11118681124E+03  0.00000000000E+00 0. -1.
          2    1    1    2  501    0  0.77492440189E+01  0.25571024961E+02 -0.87591796282E+02  0.91576475562E+02  0.00000000000E+00 0. -1.
          2    1    1    2  502    0 -0.77492440189E+01 -0.25571024961E+02 -0.13340641917E+02  0.29864708724E+02  0.00000000000E+00 0. -1.
</event>
<event>
 4    1  0.6688462E+003  0.2975487E+02  0.7546771E-02  0.1421739E+00
          2   -1    0    0  501    0  0.00000000000E+00  0.00000000000E+00  0.60152668850E+01  0.60152668850E+01  0.00000000000E+00 0.  1.
          2   -1    0    0  502    0 -0.00000000000E+00 -0.00000000000E+00 -0.22179211285E+04  0.22179211285E+04  0.00000000000E+00 0.  1.
          2    1    1    2  501    0  0.16101674483E+01  0.29711266814E+02 -0.21803919848E+04  0.21805950012E+04  0.00000000000E+00 0.  1.
          2    1    1    2  502    0 -0.16101674483E+01 -0.29711266814E+02 -0.31513876799E+02  0.43341394137E+02  0.00000000000E+00 0.  1.
</event>
<event>
 4    1  0.6688462E+003  0.2519875E+02  0.7546771E-02  0.1466592E+00
          2   -1    0    0  501    0  0.00000000000E+00  0.00000000000E+00  0.62824269250E+03  0.62824269250E+03  0.00000000000E+00 0. -1.
          2   -1    0    0  502    0 -0.00000000000E+00 -0.00000000000E+00 -0.10698916001E+03  0.10698916001E+03  0.00000000000E+00 0.  1.
          2    1    1    2  501    0 -0.24618425065E+02  0.53768372739E+01 -0.10524861767E+03  0.10822314334E+03  0.00000000000E+00 0.  1.
          2    1    1    2  502    0  0.24618425065E+02 -0.53768372739E+01  0.62650215016E+03  0.62700870918E+03  0.00000000000E+00 0. -1.
</event>
<event>
 4    1  0.6688462E+003  0.2204597E+02  0.7546771E-02  0.1504838E+00
          2   -1    0    0  502    0  0.00000000000E+00  0.00000000000E+00  0.13309688857E+03  0.13309688857E+03  0.00000000000E+00 0.  1.
          2   -1    0    0  501    0 -0.00000000000E+00 -0.00000000000E+00 -0.42392232173E+01  0.42392232173E+01  0.00000000000E+00 0.  1.
          2    1    1    2  501    0 -0.94000040550E+01 -0.19941532484E+02  0.89993392931E+02  0.92654387728E+02  0.00000000000E+00 0.  1.
          2    1    1    2  502    0  0.94000040550E+01  0.19941532484E+02  0.38864272423E+02  0.44681724060E+02  0.00000000000E+00 0.  1.
</event>
<event>
 4    1  0.6688462E+003  0.2128886E+02  0.7546771E-02  0.1515180E+00
          2   -1    0    0  502    0  0.00000000000E+00  0.00000000000E+00  0.25077084659E+02  0.25077084659E+02  0.00000000000E+00 0. -1.
          2   -1    0    0  501    0 -0.00000000000E+00 -0.00000000000E+00 -0.22001208793E+02  0.22001208793E+02  0.00000000000E+00 0. -1.
          2    1    1    2  501    0 -0.61674059354E+01  0.20375933482E+02  0.11484441328E+02  0.24189004813E+02  0.00000000000E+00 0. -1.
          2    1    1    2  502    0  0.61674059354E+01 -0.20375933482E+02 -0.84085654624E+01  0.22889288639E+02  0.00000000000E+00 0. -1.
</event>
<event>
 4    1  0.6688462E+003  0.2108190E+02  0.7546771E-02  0.1518099E+00
          2   -1    0    0  501    0  0.00000000000E+00  0.00000000000E+00  0.64303951274E+03  0.64303951274E+03  0.00000000000E+00 0.  1.
          2   -1    0    0  502    0 -0.00000000000E+00 -0.00000000000E+00 -0.25090493324E+02  0.25090493324E+02  0.00000000000E+00 0. -1.
          2    1    1    2  501    0  0.11304486835E+02 -0.17794800644E+02 -0.20457136856E+02  0.29375854046E+02  0.00000000000E+00 0. -1.
          2    1    1    2  502    0 -0.11304486835E+02  0.17794800644E+02  0.63840615627E+03  0.63875415202E+03  0.00000000000E+00 0.  1.
</event>
<event>
 4    1  0.6688462E+003  0.2243386E+02  0.7546771E-02  0.1499732E+00
          2   -1    0    0  501    0  0.00000000000E+00  0.00000000000E+00  0.17474703529E+02  0.17474703529E+02  0.00000000000E+00 0. -1.
          2   -1    0    0  502    0 -0.00000000000E+00 -0.00000000000E+00 -0.66039809204E+03  0.66039809204E+03  0.00000000000E+00 0. -1.
          2    1    1    2  501    0 -0.10318426067E+02  0.19920039847E+02 -0.65292509551E+03  0.65331038431E+03  0.00000000000E+00 0. -1.
          2    1    1    2  502    0  0.10318426067E+02 -0.19920039847E+02  0.10001706997E+02  0.24562411259E+02  0.00000000000E+00 0. -1.
</event>
<event>
 4    1  0.6688462E+003  0.2080582E+02  0.7546771E-02  0.1522055E+00
          2   -1    0    0  501    0  0.00000000000E+00  0.00000000000E+00  0.43468386357E+03  0.43468386357E+03  0.00000000000E+00 0.  1.
          2   -1    0    0  502    0 -0.00000000000E+00 -0.00000000000E+00 -0.19322524040E+01  0.19322524040E+01  0.00000000000E+00 0. -1.
          2    1    1    2  501    0  0.19752493372E+02  0.65361551171E+01  0.64402320912E+02  0.67679696047E+02  0.00000000000E+00 0. -1.
          2    1    1    2  502    0 -0.19752493372E+02 -0.65361551171E+01  0.36834929025E+03  0.36893641993E+03  0.00000000000E+00 0.  1.
</event>
<event>
 4    1  0.6688462E+003  0.3129412E+02  0.7546771E-02  0.1408674E+00
          2   -1    0    0  502    0  0.00000000000E+00  0.00000000000E+00  0.37065905150E+01  0.37065905150E+01  0.00000000000E+00 0.  1.
          2   -1    0    0  501    0 -0.00000000000E+00 -0.00000000000E+00 -0.86945400095E+03  0.86945400095E+03  0.00000000000E+00 0.  1.
          2    1    1    2  501    0  0.10709956858E+02 -0.29404396288E+02 -0.68618520969E+02  0.75417657859E+02  0.00000000000E+00 0.  1.
          2    1    1    2  502    0 -0.10709956858E+02  0.29404396288E+02 -0.79712888947E+03  0.79774293361E+03  0.00000000000E+00 0.  1.
</event>
<event>
 4    1  0.6688462E+003  0.6479663E+02  0.7546771E-02  0.1244352E+00
          2   -1    0    0  502    0  0.00000000000E+00  0.00000000000E+00  0.45346535037E+03  0.45346535037E+03  0.00000000000E+00 0.  1.
          2   -1    0    0  501    0 -0.00000000000E+00 -0.00000000000E+00 -0.92700578382E+01  0.92700578382E+01  0.00000000000E+00 0.  1.
          2    1    1    2  501    0  0.40573310986E+02 -0.50521372402E+02  0.21408044156E+03  0.22367171947E+03  0.00000000000E+00 0.  1.
          2    1    1    2  502    0 -0.40573310986E+02  0.50521372402E+02  0.23011485098E+03  0.23906368874E+03  0.00000000000E+00 0.  1.
</event>
<event>
 4    1  0.6688462E+003  0.2673800E+02  0.7546771E-02  0.1450258E+00
          2   -1    0    0  502    0  0.00000000000E+00  0.00000000000E+00  0.15623451568E+03  0.15623451568E+03  0.00000000000E+00 0.  1.
          2   -1    0    0  501    0 -0.00000000000E+00 -0.00000000000E+00 -0.95531517985E+03  0.95531517985E+03  0.00000000000E+00 0. -1.
          2    1    1    2  501    0  0.15160862883E+02  0.22024278552E+02  0.15490184130E+03  0.15719256040E+03  0.00000000000E+00 0.  1.
          2    1    1    2  502    0 -0.15160862883E+02 -0.22024278552E+02 -0.95398250547E+03  0.95435713512E+03  0.00000000000E+00 0. -1.
</event>
<event>
 4    1  0.6688462E+003  0.3719334E+02  0.7546771E-02  0.1365767E+00
          2   -1    0    0  502    0  0.00000000000E+00  0.00000000000E+00  0.12736897457E+04  0.12736897457E+04  0.00000000000E+00 0.  1.
          2   -1    0    0  501    0 -0.00000000000E+00 -0.00000000000E+00 -0.18215593572E+02  0.18215593572E+02  0.00000000000E+00 0. -1.
          2    1    1    2  501    0 -0.36488544974E+02  0.72063089193E+01  0.12541365598E+04  0.12546879514E+04  0.00000000000E+00 0.  1.
          2    1    1    2  502    0  0.36488544974E+02 -0.72063089193E+01  0.13375922861E+01  0.37217387814E+02  0.00000000000E+00 0. -1.
</event>
<event>
 4    1  0.6688462E+003  0.2960042E+02  0.7546771E-02  0.1423101E+00
          2   -1    0    0  501    0  0.00000000000E+00  0.00000000000E+00  0.31105569677E+02  0.31105569677E+02  0.00000000000E+00 0. -1.
          2   -1    0    0  502    0 -0.00000000000E+00 -0.00000000000E+00 -0.16548776778E+03  0.16548776778E+03  0.00000000000E+00 0.  1.
          2    1    1    2  501    0 -0.20017799188E+02 -0.21805331515E+02 -0.15673215764E+03  0.15950283384E+03  0.00000000000E+00 0.  1.
          2    1    1    2  502    0  0.20017799188E+02  0.21805331515E+02  0.22349959536E+02  0.37090503611E+02  0.00000000000E+00 0. -1.
</event>
<event>
 4    1  0.6688462E+003  0.2218498E+02  0.7546771E-02  0.1502994E+00
          2   -1    0    0  502    0  0.00000000000E+00  0.00000000000E+00  0.18133883736E+03  0.18133883736E+03  0.00000000000E+00 0.  1.
          2   -1    0    0  501    0 -0.00000000000E+00 -0.00000000000E+00 -0.12089714934E+03  0.12089714934E+03  0.00000000000E+00 0.  1.
          2    1    1    2  501    0 -0.17984104270E+02  0.12990204864E+02  0.17963292904E+03  0.18099768679E+03  0.00000000000E+00 0.  1.
          2    1    1    2  502    0  0.17984104270E+02 -0.12990204864E+02 -0.11919124102E+03  0.12123829990E+03  0.00000000000E+00 0.  1.
</event>
<event>
 4    1  0.6688462E+003  0.3165750E+02  0.7546771E-02  0.1405720E+00
          2   -1    0    0  501    0  0.00000000000E+00  0.00000000000E+00  0.61806364601E+02  0.61806364601E+02  0.00000000000E+00 0.  1.
          2   -1    0    0  502    0 -0.00000000000E+00 -0.00000000000E+00 -0.18185420480E+02  0.18185420480E+02  0.00000000000E+00 0.  1.
          2    1    1    2  501    0  0.20649573926E+02  0.23995668712E+02  0.86454673713E+01  0.32816781170E+02  0.00000000000E+00 0.  1.
          2    1    1    2  502    0 -0.20649573926E+02 -0.23995668712E+02  0.34975476749E+02  0.47175003912E+02  0.00000000000E+00 0.  1.
</event>
<event>
 4    1  0.6688462E+003  0.2536168E+02  0.7546771E-02  0.1464798E+00
          2   -1    0    0  501    0  0.00000000000E+00  0.00000000000E+00  0.12410945039E+03  0.12410945039E+03  0.00000000000E+00 0.  1.
          2   -1    0    0  502    0 -0.00000000000E+00 -0.00000000000E+00 -0.41897732858E+02  0.41897732858E+02  0.00000000000E+00 0.  1.
          2    1    1    2  501    0 -0.21409761037E+02 -0.13595479138E+02 -0.36594660940E+02  0.44523972531E+02  0.00000000000E+00 0.  1.
          2    1    1    2  502    0  0.21409761037E+02  0.13595479138E+02  0.11880637847E+03  0.12148321072E+03  0.00000000000E+00 0.  1.
</event>
<event>
 4    1  0.6688462E+003  0.7267092E+02  0.7546771E-02  0.1221967E+00
          2   -1    0    0  501    0  0.00000000000E+00  0.00000000000E+00  0.16744579581E+04  0.16744579581E+04  0.00000000000E+00 0. -1.
          2   -1    0    0  502    0 -0.00000000000E+00 -0.00000000000E+00 -0.55618122929E+02  0.55618122929E+02  0.00000000000E+00 0. -1.
          2    1    1    2  501    0  0.72419488456E+02  0.60399113573E+01 -0.30733676818E+02  0.78902609134E+02  0.00000000000E+00 0. -1.
          2    1    1    2  502    0 -0.72419488456E+02 -0.60399113573E+01  0.16495735120E+04  0.16511734719E+04  0.00000000000E+00 0. -1.
</event>
<event>
 4    1  0.6688462E+003  0.3261196E+02  0.7546771E-02  0.1398177E+00
          2   -1    0    0  501    0  0.00000000000E+00  0.00000000000E+00  0.20485630731E+01  0.20485630731E+01  0.00000000000E+00 0.  1.
          2   -1    0    0  502    0 -0.00000000000E+00 -0.00000000000E+00 -0.55353478009E+03  0.55353478009E+03  0.00000000000E+00 0.  1.
          2    1    1    2  501    0 -0.32309321978E+02 -0.44325680667E+01 -0.34496480498E+03  0.34650289554E+03  0.00000000000E+00 0.  1.
          2    1    1    2  502    0  0.32309321978E+02  0.44325680667E+01 -0.20652141204E+03  0.20908044762E+03  0.00000000000E+00 0.  1.
</event>
<event>
 4    1  0.6688462E+003  0.2004816E+02  0.7546771E-02  0.1533301E+00
          2   -1    0    0  501    0  0.00000000000E+00  0.00000000000E+00  0.13670674003E+03  0.13670674003E+03  0.00000000000E+00 0. -1.
          2   -1    0    0  502    0 -0.00000000000E+00 -0.00000000000E+00 -0.96941339899E+03  0.96941339899E+03  0.00000000000E+00 0. -1.
          2    1    1    2  501    0 -0.45635843383E+01 -0.19521845145E+02 -0.96857408959E+03  0.96878155214E+03  0.00000000000E+00 0. -1.
          2    1    1    2  502    0  0.45635843383E+01  0.19521845145E+02  0.13586743063E+03  0.13733858688E+03  0.00000000000E+00 0. -1.
</event>
<event>
 4    1  0.6688462E+003  0.2024769E+02  0.7546771E-02  0.1530282E+00
          2   -1    0    0  502    0  0.00000000000E+00  0.00000000000E+00  0.31806390887E+01  0.31806390887E+01  0.00000000000E+00 0. -1.
          2   -1    0    0  501    0 -0.00000000000E+00 -0.00000000000E+00 -0.13645507307E+03  0.13645507307E+03  0.00000000000E+00 0.  1.
          2    1    1    2  501    0 -0.19613683576E+02 -0.50271698539E+01 -0.50203729378E+02  0.54133016391E+02  0.00000000000E+00 0. -1.
          2    1    1    2  502    0  0.19613683576E+02  0.50271698539E+01 -0.83070704601E+02  0.85502695765E+02  0.00000000000E+00 0.  1.
</event>
<event>
 4    1  0.6688462E+003  0.2495044E+02  0.7546771E-02  0.1469359E+00
          2   -1    0    0  502    0  0.00000000000E+00  0.00000000000E+00  0.38626013133E+03  0.38626013133E+03  0.00000000000E+00 0. -1.
          2   -1    0    0  501    0 -0.00000000000E+00 -0.00000000000E+00 -0.30089118183E+01  0.30089118183E+01  0.00000000000E+00 0. -1.
          2    1    1    2  501    0  0.88934767109E+01  0.23311594820E+02  0.32425834382E+03  0.32521684753E+03  0.00000000000E+00 0. -1.
          2    1    1    2  502    0 -0.88934767109E+01 -0.23311594820E+02  0.58992875696E+02  0.64052195622E+02  0.00000000000E+00 0. -1.
</event>
<event>
 4    1  0.6688462E+003  0.2763444E+02  0.7546771E-02  0.1441337E+00
          2   -1    0    0  502    0  0.00000000000E+00  0.00000000000E+00  0.79540983482E+03  0.79540983482E+03  0.00000000000E+00 0. -1.
          2   -1    0    0  501    0 -0.00000000000E+00 -0.00000000000E+00 -0.29477552508E+01  0.29477552508E+01  0.00000000000E+00 0. -1.
          2    1    1    2  501    0 -0.25109242594E+02 -0.11540725974E+02  0.72401955494E+03  0.72454673994E+03  0.00000000000E+00 0. -1.
          2    1    1    2  502    0  0.25109242594E+02  0.11540725974E+02  0.68442524627E+02  0.73810850130E+02  0.00000000000E+00 0. -1.
</event>
<event>
 4    1  0.6688462E+003  0.2466903E+02  0.7546771E-02  0.1472540E+00
          2   -1    0    0  502    0  0.00000000000E+00  0.00000000000E+00  0.16455890648E+04  0.16455890648E+04  0.00000000000E+00 0. -1.
          2   -1    0    0  501    0 -0.00000000000E+00 -0.00000000000E+00 -0.18485723684E+01  0.18485723684E+01  0.00000000000E+00 0.  1.
          2    1    1    2  501    0  0.15010049941E+02  0.19577016064E+02  0.15586020717E+04  0.15587972861E+04  0.00000000000E+00 0. -1.
          2    1    1    2  502    0 -0.15010049941E+02 -0.19577016064E+02  0.85138420639E+02  0.88640351004E+02  0.00000000000E+00 0.  1.
</event>
<event>
 4    1  0.6688462E+003  0.3092891E+02  0.7546771E-02  0.1411692E+00
          2   -1    0    0  501    0  0.00000000000E+00  0.00000000000E+00  0.37804687556E+01  0.37804687556E+01  0.00000000000E+00 0.  1.
          2   -1    0    0  502    0 -0.00000000000E+00 -0.00000000000E+00 -0.12993618776E+04  0.12993618776E+04  0.00000000000E+00 0.  1.
          2    1    1    2  501    0 -0.28463056985E+02  0.12101721481E+02 -0.12324867317E+04  0.12328747467E+04  0.00000000000E+00 0.  1.
          2    1    1    2  502    0  0.28463056985E+02 -0.12101721481E+02 -0.63094677194E+02  0.70267599688E+02  0.00000000000E+00 0.  1.
</event>
<event>
 4    1  0.6688462E+003  0.5386995E+02  0.7546771E-02  0.1282213E+00
          2   -1    0    0  501    0  0.00000000000E+00  0.00000000000E+00  0.52251872628E+02  0.52251872628E+02  0.00000000000E+00 0.  1.
          2   -1    0    0  502    0 -0.00000000000E+00 -0.00000000000E+00 -0.96795378528E+02  0.96795378528E+02  0.00000000000E+00 0.  1.
          2    1    1    2  501    0  0.30722328832E+02  0.44250534802E+02 -0.70925555921E+02  0.89064054488E+02  0.00000000000E+00 0.  1.
          2    1    1    2  502    0 -0.30722328832E+02 -0.44250534802E+02  0.26382050022E+02  0.59983196668E+02  0.00000000000E+00 0.  1.
</event>
<event>
 4    1  0.6688462E+003  0.2308558E+02  0.7546771E-02  0.1491426E+00
          2   -1    0    0  502    0  0.00000000000E+00  0.00000000000E+00  0.24073757386E+03  0.24073757386E+03  0.00000000000E+00 0. -1.
          2   -1    0    0  501    0 -0.00000000000E+00 -0.00000000000E+00 -0.37838786093E+01  0.37838786093E+01  0.00000000000E+00 0. -1.
          2    1    1    2  501    0 -0.96714417091E+01 -0.20962039101E+02  0.19723211874E+03  0.19857858024E+03  0.00000000000E+00 0. -1.
          2    1    1    2  502    0  0.96714417091E+01  0.20962039101E+02  0.39721576505E+02  0.45942872222E+02  0.00000000000E+00 0. -1.
</event>
<event>
 4    1  0.6688462E+003  0.2389954E+02  0.7546771E-02  0.1481501E+00
          2   -1    0    0  502    0  0.00000000000E+00  0.00000000000E+00  0.96418029114E+03  0.96418029114E+03  0.00000000000E+00 0.  1.
          2   -1    0    0  501    0 -0.00000000000E+00 -0.00000000000E+00 -0.68301093088E+00  0.68301093088E+00  0.00000000000E+00 0.  1.
          2    1    1    2  501    0 -0.23897067080E+02  0.34389409349E+00  0.65745730875E+03  0.65789155710E+03  0.00000000000E+00 0.  1.
          2    1    1    2  502    0  0.23897067080E+02 -0.34389409349E+00  0.30603997146E+03  0.30697174497E+03  0.00000000000E+00 0.  1.
</event>
<event>
 4    1  0.6688462E+003  0.2615761E+02  0.7546771E-02  0.1456259E+00
          2   -1    0    0  501    0  0.00000000000E+00  0.00000000000E+00  0.15540487614E+04  0.15540487614E+04  0.00000000000E+00 0.  1.
          2   -1    0    0  502    0 -0.00000000000E+00 -0.00000000000E+00 -0.85744174751E+01  0.85744174751E+01  0.00000000000E+00 0. -1.
          2    1    1    2  501    0 -0.26132212930E+02  0.11523427608E+01  0.11749464006E+02  0.28675256771E+02  0.00000000000E+00 0. -1.
          2    1    1    2  502    0  0.26132212930E+02 -0.11523427608E+01  0.15337248799E+04  0.15339479221E+04  0.00000000000E+00 0.  1.
</event>
<event>
 4    1  0.6688462E+003  0.2689162E+02  0.7546771E-02  0.1448700E+00
          2   -1    0    0  502    0  0.00000000000E+00  0.00000000000E+00  0.59454674106E+02  0.59454674106E+02  0.00000000000E+00 0. -1.
          2   -1    0    0  501    0 -0.00000000000E+00 -0.00000000000E+00 -0.11998599629E+04  0.11998599629E+04  0.00000000000E+00 0. -1.
          2    1    1    2  501    0 -0.72030071901E+01  0.25908989242E+02  0.56255069227E+02  0.62352159945E+02  0.00000000000E+00 0. -1.
          2    1    1    2  502    0  0.72030071901E+01 -0.25908989242E+02 -0.11966603580E+04  0.11969624771E+04  0.00000000000E+00 0. -1.
</event>
<event>
 4    1  0.6688462E+003  0.2304379E+02  0.7546771E-02  0.1491949E+00
          2   -1    0    0  501    0  0.00000000000E+00  0.00000000000E+00  0.52306678090E+02  0.52306678090E+02  0.00000000000E+00 0. -1.
          2   -1    0    0  502    0 -0.00000000000E+00 -0.00000000000E+00 -0.20740307010E+03  0.20740307010E+03  0.00000000000E+00 0.  1.
          2    1    1    2  501    0  0.71328521485E+01  0.21912064783E+02 -0.20418512643E+03  0.20548134226E+03  0.00000000000E+00 0.  1.
          2    1    1    2  502    0 -0.71328521485E+01 -0.21912064783E+02  0.49088734418E+02  0.54228405929E+02  0.00000000000E+00 0. -1.
</event>
<event>
 4    1  0.6688462E+003  0.2416470E+02  0.7546771E-02  0.1478369E+00
          2   -1    0    0  502    0  0.00000000000E+00  0.00000000000E+00  0.36639000396E+02  0.36639000396E+02  0.00000000000E+00 0. -1.
          2   -1    0    0  501    0 -0.00000000000E+00 -0.00000000000E+00 -0.47221953687E+02  0.47221953687E+02  0.00000000000E+00 0. -1.
          2    1    1    2  501    0 -0.17773302204E+02  0.16372003144E+02  0.28837429095E+02  0.37623530868E+02  0.00000000000E+00 0. -1.
          2    1    1    2  502    0  0.17773302204E+02 -0.16372003144E+02 -0.39420382386E+02  0.46237423215E+02  0.00000000000E+00 0. -1.
</event>
<event>
 4    1  0.6688462E+003  0.2588937E+02  0.7546771E-02  0.1459095E+00
          2   -1    0    0  502    0  0.00000000000E+00  0.00000000000E+00  0.38500635863E+03  0.38500635863E+03  0.00000000000E+00 0.  1.
          2   -1    0    0  501    0 -0.00000000000E+00 -0.00000000000E+00 -0.35536260430E+01  0.35536260430E+01  0.00000000000E+00 0. -1.
          2    1    1    2  501    0 -0.17782215985E+02  0.18816276103E+02  0.32948426589E+03  0.33049983498E+03  0.00000000000E+00 0.  1.
          2    1    1    2  502    0  0.17782215985E+02 -0.18816276103E+02  0.51968466699E+02  0.58060149696E+02  0.00000000000E+00 0. -1.
</event>
<event>
 4    1  0.6688462E+003  0.2288275E+02  0.7546771E-02  0.1493976E+00
          2   -1    0    0  501    0  0.00000000000E+00  0.00000000000E+00  0.10993114408E+02  0.10993114408E+02  0.00000000000E+00 0. -1.
          2   -1    0    0  502    0 -0.00000000000E+00 -0.00000000000E+00 -0.73419192367E+03  0.73419192367E+03  0.00000000000E+00 0.  1.
          2    1    1    2  501    0 -0.15012903969E+01 -0.22833451653E+02 -0.72190305201E+03  0.72226562765E+03  0.00000000000E+00 0.  1.
          2    1    1    2  502    0  0.15012903969E+01  0.22833451653E+02 -0.12957572485E+01  0.22919410422E+02  0.00000000000E+00 0. -1.
</event>
<event>
 4    1  0.1159192E+004  0.2474970E+02  0.7546771E-02  0.1471623E+00
          2   -1    0    0  502    0  0.00000000000E+00  0.00000000000E+00  0.16780302922E+04  0.16780302922E+04  0.00000000000E+00 0.  1.
          2   -1    0    0  501    0 -0.00000000000E+00 -0.00000000000E+00 -0.40681713237E+03  0.40681713237E+03  0.00000000000E+00 0. -1.
          2    1    1    2  501    0  0.13160323758E+01  0.24714689459E+02  0.16775625003E+04  0.16777450611E+04  0.00000000000E+00 0.  1.
          2    1    1    2  502    0 -0.13160323758E+01 -0.24714689459E+02 -0.40634934045E+03  0.40710236342E+03  0.00000000000E+00 0. -1.
</event>
<event>
 4    1  0.6688462E+003  0.2613609E+02  0.7546771E-02  0.1456485E+00
          2   -1    0    0  501    0  0.00000000000E+00  0.00000000000E+00  0.18095705068E+04  0.18095705068E+04  0.00000000000E+00 0.  1.
          2   -1    0    0  502    0 -0.00000000000E+00 -0.00000000000E+00 -0.17839763820E+02  0.17839763820E+02  0.00000000000E+00 0.  1.
          2    1    1    2  501    0  0.25442822708E+02  0.59798051202E+01 -0.81210537580E+01  0.27368719567E+02  0.00000000000E+00 0.  1.
          2    1    1    2  502    0 -0.25442822708E+02 -0.59798051202E+01  0.17998517968E+04  0.18000415511E+04  0.00000000000E+00 0.  1.
</event>
<event>
 4    1  0.6688462E+003  0.4522630E+02  0.7546771E-02  0.1320312E+00
          2   -1    0    0  502    0  0.00000000000E+00  0.00000000000E+00  0.27956639200E+01  0.27956639200E+01  0.00000000000E+00 0. -1.
          2   -1    0    0  501    0 -0.00000000000E+00 -0.00000000000E+00 -0.11856425778E+04  0.11856425778E+04  0.00000000000E+00 0. -1.
          2    1    1    2  501    0 -0.43508007434E+02  0.12347918900E+02 -0.22371875292E+03  0.22824438267E+03  0.00000000000E+00 0. -1.
          2    1    1    2  502    0  0.43508007434E+02 -0.12347918900E+02 -0.95912816101E+03  0.96019385910E+03  0.00000000000E+00 0. -1.
</event>
<event>
 4    1  0.6688462E+003  0.2097807E+02  0.7546771E-02  0.1519578E+00
          2   -1    0    0  501    0  0.00000000000E+00  0.00000000000E+00  0.47433089521E+01  0.47433089521E+01  0.00000000000E+00 0.  1.
          2   -1    0    0  502    0 -0.00000000000E+00 -0.00000000000E+00 -0.18600657533E+03  0.18600657533E+03  0.00000000000E+00 0. -1.
          2    1    1    2  501    0 -0.15311086079E+02 -0.14340511243E+02 -0.15815316029E+03  0.15953840205E+03  0.00000000000E+00 0. -1.
          2    1    1    2  502    0  0.15311086079E+02  0.14340511243E+02 -0.23110106091E+02  0.31211482233E+02  0.00000000000E+00 0.  1.
</event>
<event>
 4    1  0.6688462E+003  0.2206834E+02  0.7546771E-02  0.1504541E+00
          2   -1    0    0  502    0  0.00000000000E+00  0.00000000000E+00  0.61059163486E+02  0.61059163486E+02  0.00000000000E+00 0. -1.
          2   -1    0    0  501    0 -0.00000000000E+00 -0.00000000000E+00 -0.84564637167E+02  0.84564637167E+02  0.00000000000E+00 0.  1.
          2    1    1    2  501    0  0.44654662116E+01  0.21611826733E+02  0.57540360882E+02  0.61627141534E+02  0.00000000000E+00 0. -1.
          2    1    1    2  502    0 -0.44654662116E+01 -0.21611826733E+02 -0.81045834562E+02  0.83996659119E+02  0.00000000000E+00 0.  1.
</event>
<event>
 4    1  0.6688462E+003  0.3145371E+02  0.7546771E-02  0.1407371E+00
          2   -1    0    0  502    0  0.00000000000E+00  0.00000000000E+00  0.10317330090E+03  0.10317330090E+03  0.00000000000E+00 0.  1.
          2   -1    0    0  501    0 -0.00000000000E+00 -0.00000000000E+00 -0.13954000803E+04  0.13954000803E+04  0.00000000000E+00 0.  1.
          2    1    1    2  501    0 -0.30188660401E+02 -0.88306635627E+01  0.10059434609E+03  0.10539714560E+03  0.00000000000E+00 0.  1.
          2    1    1    2  502    0  0.30188660401E+02  0.88306635627E+01 -0.13928211255E+04  0.13931762356E+04  0.00000000000E+00 0.  1.
</event>
<event>
 4    1  0.6688462E+003  0.2709439E+02  0.7546771E-02  0.1446662E+00
          2   -1    0    0  501    0  0.00000000000E+00  0.00000000000E+00  0.26567396565E+03  0.26567396565E+03  0.00000000000E+00 0. -1.
          2   -1    0    0  502    0 -0.00000000000E+00 -0.00000000000E+00 -0.47165539598E+03  0.47165539598E+03  0.00000000000E+00 0. -1.
          2    1    1    2  501    0 -0.27094241396E+02  0.89588265416E-01 -0.47057390239E+03  0.47135326832E+03  0.00000000000E+00 0. -1.
          2    1    1    2  502    0  0.27094241396E+02 -0.89588265416E-01  0.26459247206E+03  0.26597609331E+03  0.00000000000E+00 0. -1.
</event>
<event>
 4    1  0.6688462E+003  0.2256521E+02  0.7546771E-02  0.1498031E+00
          2   -1    0    0  501    0  0.00000000000E+00  0.00000000000E+00  0.16022531374E+04  0.16022531374E+04  0.00000000000E+00 0. -1.
          2   -1    0    0  502    0 -0.00000000000E+00 -0.00000000000E+00 -0.25387036188E+01  0.25387036188E+01  0.00000000000E+00 0.  1.
          2    1    1    2  501    0  0.13239871781E+02 -0.18272776421E+02  0.49361836117E+02  0.54275035032E+02  0.00000000000E+00 0.  1.
          2    1    1    2  502    0 -0.13239871781E+02  0.18272776421E+02  0.15503525977E+04  0.15505168060E+04  0.00000000000E+00 0. -1.
</event>
<event>
 4    1  0.6688462E+003  0.2792873E+02  0.7546771E-02  0.1438495E+00
          2   -1    0    0  502    0  0.00000000000E+00  0.00000000000E+00  0.60749673484E+02  0.60749673484E+02  0.00000000000E+00 0. -1.
          2   -1    0    0  501    0 -0.00000000000E+00 -0.00000000000E+00 -0.40011351968E+03  0.40011351968E+03  0.00000000000E+00 0. -1.
          2    1    1    2  501    0 -0.26697645693E+02 -0.82005983444E+01  0.57022203324E+02  0.63494454645E+02  0.00000000000E+00 0. -1.
          2    1    1    2  502    0  0.26697645693E+02  0.82005983444E+01 -0.39638604952E+03  0.39736873852E+03  0.00000000000E+00 0. -1.
</event>
<event>
 4    1  0.6688462E+003  0.2729642E+02  0.7546771E-02  0.1444653E+00
          2   -1    0    0  502    0  0.00000000000E+00  0.00000000000E+00  0.33375112608E+03  0.33375112608E+03  0.00000000000E+00 0. -1.
          2   -1    0    0  501    0 -0.00000000000E+00 -0.00000000000E+00 -0.47176847066E+02  0.47176847066E+02  0.00000000000E+00 0. -1.
          2    1    1    2  501    0  0.14182085437E+02 -0.23323017750E+02  0.32918997739E+03  0.33031974800E+03  0.00000000000E+00 0. -1.
          2    1    1    2  502    0 -0.14182085437E+02  0.23323017750E+02 -0.42615698376E+02  0.50608225146E+02  0.00000000000E+00 0. -1.
</event>
<event>
 4    1  0.6688462E+003  0.2761383E+02  0.7546771E-02  0.1441538E+00
          2   -1    0    0  501    0  0.00000000000E+00  0.00000000000E+00  0.17871651545E+01  0.17871651545E+01  0.00000000000E+00 0. -1.
          2   -1    0    0  502    0 -0.00000000000E+00 -0.00000000000E+00 -0.20902876166E+04  0.20902876166E+04  0.00000000000E+00 0. -1.
          2    1    1    2  501    0 -0.24923673158E+02  0.11888396738E+02 -0.19774430702E+04  0.19776358662E+04  0.00000000000E+00 0. -1.
          2    1    1    2  502    0  0.24923673158E+02 -0.11888396738E+02 -0.11105738126E+03  0.11443891555E+03  0.00000000000E+00 0. -1.
</event>
<event>
 4    1  0.6688462E+003  0.2871265E+02  0.7546771E-02  0.1431123E+00
          2   -1    0    0  502    0  0.00000000000E+00  0.00000000000E+00  0.20482684513E+03  0.20482684513E+03  0.00000000000E+00 0. -1.
          2   -1    0    0  501    0 -0.00000000000E+00 -0.00000000000E+00 -0.29624248290E+02  0.29624248290E+02  0.00000000000E+00 0.  1.
          2    1    1    2  501    0 -0.41823796991E+01 -0.28406411442E+02  0.19657273633E+03  0.19865864487E+03  0.00000000000E+00 0. -1.
          2    1    1    2  502    0  0.41823796991E+01  0.28406411442E+02 -0.21370139498E+02  0.35792448549E+02  0.00000000000E+00 0.  1.
</event>
<event>
 4    1  0.6688462E+003  0.2035450E+02  0.7546771E-02  0.1528684E+00
          2   -1    0    0  501    0  0.00000000000E+00  0.00000000000E+00  0.59176135460E+03  0.59176135460E+03  0.00000000000E+00 0.  1.
          2   -1    0    0  502    0 -0.00000000000E+00 -0.00000000000E+00 -0.54542928686E+01  0.54542928686E+01  0.00000000000E+00 0. -1.
          2    1    1    2  501    0 -0.20128325735E+02 -0.30259186241E+01  0.14368592215E+02  0.24915098287E+02  0.00000000000E+00 0. -1.
          2    1    1    2  502    0  0.20128325735E+02  0.30259186241E+01  0.57193846952E+03  0.57230054918E+03  0.00000000000E+00 0.  1.
</event>
<event>
 4    1  0.6688462E+003  0.2956409E+02  0.7546771E-02  0.1423423E+00
          2   -1    0    0  501    0  0.00000000000E+00  0.00000000000E+00  0.36584107747E+03  0.36584107747E+03  0.00000000000E+00 0. -1.
          2   -1    0    0  502    0 -0.00000000000E+00 -0.00000000000E+00 -0.15128728874E+02  0.15128728874E+02  0.00000000000E+00 0.  1.
          2    1    1    2  501    0 -0.27927829299E+02 -0.96990577559E+01  0.55774640084E+00  0.29569349871E+02  0.00000000000E+00 0.  1.
          2    1    1    2  502    0  0.27927829299E+02  0.96990577559E+01  0.35015460219E+03  0.35140045647E+03  0.00000000000E+00 0. -1.
</event>
<event>
 4    1  0.6688462E+003  0.2040490E+02  0.7546771E-02  0.1527933E+00
          2   -1    0    0  502    0  0.00000000000E+00  0.00000000000E+00  0.16551598965E+03  0.16551598965E+03  0.00000000000E+00 0.  1.
          2   -1    0    0  501    0 -0.00000000000E+00 -0.00000000000E+00 -0.10139466042E+02  0.10139466042E+02  0.00000000000E+00 0. -1.
          2    1    1    2  501    0 -0.17214200471E+02 -0.10955873811E+02  0.15384596273E+03  0.15519323477E+03  0.00000000000E+00 0.  1.
          2    1    1    2  502    0  0.17214200471E+02  0.10955873811E+02  0.15305608823E+01  0.20462220931E+02  0.00000000000E+00 0. -1.
</event>
<event>
 4    1  0.6688462E+003  0.2062053E+02  0.7546771E-02  0.1524752E+00
          2   -1    0    0  501    0  0.00000000000E+00  0.00000000000E+00  0.41786763956E+02  0.41786763956E+02  0.00000000000E+00 0. -1.
          2   -1    0    0  502    0 -0.00000000000E+00 -0.00000000000E+00 -0.17227568427E+02  0.17227568427E+02  0.00000000000E+00 0. -1.
          2    1    1    2  501    0  0.12530423515E+02 -0.16376648154E+02 -0.65990184541E+01  0.21650708136E+02  0.00000000000E+00 0. -1.
          2    1    1    2  502    0 -0.12530423515E+02  0.16376648154E+02  0.31158213983E+02  0.37363624247E+02  0.00000000000E+00 0. -1.
</event>
<event>
 4    1  0.6688462E+003  0.2108778E+02  0.7546771E-02  0.1518015E+00
          2   -1    0    0  501    0  0.00000000000E+00  0.00000000000E+00  0.10266132911E+04  0.10266132911E+04  0.00000000000E+00 0. -1.
          2   -1    0    0  502    0 -0.00000000000E+00 -0.00000000000E+00 -0.87375876722E+02  0.87375876722E+02  0.00000000000E+00 0. -1.
          2    1    1    2  501    0 -0.20749821586E+02  0.37602577797E+01 -0.85993508648E+02  0.88541392377E+02  0.00000000000E+00 0. -1.
          2    1    1    2  502    0  0.20749821586E+02 -0.37602577797E+01  0.10252309230E+04  0.10254477754E+04  0.00000000000E+00 0. -1.
</event>
<event>
 4    1  0.6688462E+003  0.2834559E+02  0.7546771E-02  0.1434540E+00
          2   -1    0    0  502    0  0.00000000000E+00  0.00000000000E+00  0.31221180502E+01  0.31221180502E+01  0.00000000000E+00 0. -1.
          2   -1    0    0  501    0 -0.00000000000E+00 -0.00000000000E+00 -0.84135336917E+03  0.84135336917E+03  0.00000000000E+00 0. -1.
          2    1    1    2  501    0 -0.20226671003E+02  0.19858350658E+02 -0.67331630015E+02  0.73054915723E+02  0.00000000000E+00 0. -1.
          2    1    1    2  502    0  0.20226671003E+02 -0.19858350658E+02 -0.77089962110E+03  0.77142057150E+03  0.00000000000E+00 0. -1.
</event>
<event>
 4    1  0.6688462E+003  0.2063097E+02  0.7546771E-02  0.1524599E+00
          2   -1    0    0  502    0  0.00000000000E+00  0.00000000000E+00  0.10849579625E+04  0.10849579625E+04  0.00000000000E+00 0. -1.
          2   -1    0    0  501    0 -0.00000000000E+00 -0.00000000000E+00 -0.22365946415E+03  0.22365946415E+03  0.00000000000E+00 0. -1.
          2    1    1    2  501    0 -0.12741987336E+02  0.16225859123E+02  0.10843838696E+04  0.10845801092E+04  0.00000000000E+00 0. -1.
          2    1    1    2  502    0  0.12741987336E+02 -0.16225859123E+02 -0.22308537122E+03  0.22403731742E+03  0.00000000000E+00 0. -1.
</event>
<event>
 4    1  0.6688462E+003  0.2833560E+02  0.7546771E-02  0.1434634E+00
          2   -1    0    0  501    0  0.00000000000E+00  0.00000000000E+00  0.78103249337E+01  0.78103249337E+01  0.00000000000E+00 0. -1.
          2   -1    0    0  502    0 -0.00000000000E+00 -0.00000000000E+00 -0.24611048009E+03  0.24611048009E+03  0.00000000000E+00 0.  1.
          2    1    1    2  501    0 -0.27916490218E+01 -0.28197748107E+02 -0.21603166848E+03  0.21788205086E+03  0.00000000000E+00 0.  1.
          2    1    1    2  502    0  0.27916490218E+01  0.28197748107E+02 -0.22268486678E+02  0.36038754162E+02  0.00000000000E+00 0. -1.
</event>
<event>
 4    1  0.6688462E+003  0.2231236E+02  0.7546771E-02  0.1501318E+00
          2   -1    0    0  501    0  0.00000000000E+00  0.00000000000E+00  0.26283751033E+00  0.26283751033E+00  0.00000000000E+00 0. -1.
          2   -1    0    0  502    0 -0.00000000000E+00 -0.00000000000E+00 -0.19738587448E+04  0.19738587448E+04  0.00000000000E+00 0.  1.
          2    1    1    2  501    0  0.21092348562E+02 -0.72769681671E+01 -0.11852089071E+04  0.11854189112E+04  0.00000000000E+00 0.  1.
          2    1    1    2  502    0 -0.21092348562E+02  0.72769681671E+01 -0.78838700018E+03  0.78870267115E+03  0.00000000000E+00 0. -1.
</event>
<event>
 4    1  0.6688462E+003  0.6330835E+02  0.7546771E-02  0.1248988E+00
          2   -1    0    0  502    0  0.00000000000E+00  0.00000000000E+00  0.31946561219E+03  0.31946561219E+03  0.00000000000E+00 0. -1.
          2   -1    0    0  501    0 -0.00000000000E+00 -0.00000000000E+00 -0.17504085982E+02  0.17504085982E+02  0.00000000000E+00 0.  1.
          2    1    1    2  501    0  0.32471633574E+02 -0.54346485892E+02  0.24065289416E+03  0.24884083866E+03  0.00000000000E+00 0. -1.
          2    1    1    2  502    0 -0.32471633574E+02  0.54346485892E+02  0.61308632045E+02  0.88128859512E+02  0.00000000000E+00 0.  1.
</event>
<event>
 4    1  0.6688462E+003  0.4155229E+02  0.7546771E-02  0.1339622E+00
          2   -1    0    0  501    0  0.00000000000E+00  0.00000000000E+00  0.13370405510E+04  0.13370405510E+04  0.00000000000E+00 0. -1.
          2   -1    0    0  502    0 -0.00000000000E+00 -0.00000000000E+00 -0.21895010848E+01  0.21895010848E+01  0.00000000000E+00 0. -1.
          2    1    1    2  501    0  0.41530332580E+02  0.13506287241E+01  0.23855487112E+03  0.24214668954E+03  0.00000000000E+00 0. -1.
          2    1    1    2  502    0 -0.41530332580E+02 -0.13506287241E+01  0.10962961788E+04  0.10970833625E+04  0.00000000000E+00 0. -1.
</event>
<event>
 4    1  0.6688462E+003  0.3513104E+02  0.7546771E-02  0.1379644E+00
          2   -1    0    0  502    0  0.00000000000E+00  0.00000000000E+00  0.13354954686E+04  0.13354954686E+04  0.00000000000E+00 0. -1.
          2   -1    0    0  501    0 -0.00000000000E+00 -0.00000000000E+00 -0.26147658670E+02  0.26147658670E+02  0.00000000000E+00 0. -1.
          2    1    1    2  501    0 -0.17390899969E+02 -0.30524522742E+02  0.13233560107E+04  0.13238222391E+04  0.00000000000E+00 0. -1.
          2    1    1    2  502    0  0.17390899969E+02  0.30524522742E+02 -0.14008200740E+02  0.37820888121E+02  0.00000000000E+00 0. -1.
</event>
<event>
 4    1  0.6688462E+003  0.2011391E+02  0.7546771E-02  0.1532301E+00
          2   -1    0    0  502    0  0.00000000000E+00  0.00000000000E+00  0.50402048536E+02  0.50402048536E+02  0.00000000000E+00 0.  1.
          2   -1    0    0  501    0 -0.00000000000E+00 -0.00000000000E+00 -0.19571578600E+03  0.19571578600E+03  0.00000000000E+00 0. -1.
          2    1    1    2  501    0 -0.10073599861E+02  0.17409541754E+02  0.47852136231E+02  0.51907576519E+02  0.00000000000E+00 0.  1.
          2    1    1    2  502    0  0.10073599861E+02 -0.17409541754E+02 -0.19316587370E+03  0.19421025802E+03  0.00000000000E+00 0. -1.
</event>
<event>
 4    1  0.6688462E+003  0.3720237E+02  0.7546771E-02  0.1365709E+00
          2   -1    0    0  502    0  0.00000000000E+00  0.00000000000E+00  0.86813168277E+03  0.86813168277E+03  0.00000000000E+00 0.  1.
          2   -1    0    0  501    0 -0.00000000000E+00 -0.00000000000E+00 -0.11126705651E+02  0.11126705651E+02  0.00000000000E+00 0.  1.
          2    1    1    2  501    0  0.18255436705E+02 -0.32415352447E+02  0.83541936078E+03  0.83624728664E+03  0.00000000000E+00 0.  1.
          2    1    1    2  502    0 -0.18255436705E+02  0.32415352447E+02  0.21585616332E+02  0.43011101776E+02  0.00000000000E+00 0.  1.
</event>
<event>
 4    1  0.6688462E+003  0.3245759E+02  0.7546771E-02  0.1399376E+00
          2   -1    0    0  502    0  0.00000000000E+00  0.00000000000E+00  0.34022791349E+03  0.34022791349E+03  0.00000000000E+00 0. -1.
          2   -1    0    0  501    0 -0.00000000000E+00 -0.00000000000E+00 -0.17195612226E+02  0.17195612226E+02  0.00000000000E+00 0. -1.
          2    1    1    2  501    0  0.29170700111E+02 -0.14232553815E+02  0.32333947720E+03  0.32496447936E+03  0.00000000000E+00 0. -1.
          2    1    1    2  502    0 -0.29170700111E+02  0.14232553815E+02 -0.30717593439E+00  0.32459046353E+02  0.00000000000E+00 0. -1.
</event>
<event>
 4    1  0.6688462E+003  0.2004579E+02  0.7546771E-02  0.1533337E+00
          2   -1    0    0  502    0  0.00000000000E+00  0.00000000000E+00  0.11970808910E+03  0.11970808910E+03  0.00000000000E+00 0. -1.
          2   -1    0    0  501    0 -0.00000000000E+00 -0.00000000000E+00 -0.29343365756E+02  0.29343365756E+02  0.00000000000E+00 0.  1.
          2    1    1    2  501    0  0.16704816094E+02  0.11080737806E+02  0.11531592067E+03  0.11704526984E+03  0.00000000000E+00 0. -1.
          2    1    1    2  502    0 -0.16704816094E+02 -0.11080737806E+02 -0.24951197329E+02  0.32006185016E+02  0.00000000000E+00 0.  1.
</event>
<event>
 4    1  0.6688462E+003  0.5721797E+02  0.7546771E-02  0.1269590E+00
          2   -1    0    0  501    0  0.00000000000E+00  0.00000000000E+00  0.11872453489E+04  0.11872453489E+04  0.00000000000E+00 0.  1.
          2   -1    0    0  502    0 -0.00000000000E+00 -0.00000000000E+00 -0.17213024588E+02  0.17213024588E+02  0.00000000000E+00 0.  1.
          2    1    1    2  501    0 -0.56752677594E+02 -0.72821717565E+01  0.33130284792E+02  0.66117412305E+02  0.00000000000E+00 0.  1.
          2    1    1    2  502    0  0.56752677594E+02  0.72821717565E+01  0.11369020396E+04  0.11383409612E+04  0.00000000000E+00 0.  1.
</event>
<event>
 4    1  0.6688462E+003  0.2353929E+02  0.7546771E-02  0.1485835E+00
          2   -1    0    0  502    0  0.00000000000E+00  0.00000000000E+00  0.12740478111E+04  0.12740478111E+04  0.00000000000E+00 0.  1.
          2   -1    0    0  501    0 -0.00000000000E+00 -0.00000000000E+00 -0.71952137343E+00  0.71952137343E+00  0.00000000000E+00 0. -1.
          2    1    1    2  501    0 -0.10235260084E+02 -0.21197588625E+02  0.10375344632E+04  0.10378014553E+04  0.00000000000E+00 0.  1.
          2    1    1    2  502    0  0.10235260084E+02  0.21197588625E+02  0.23579382649E+03  0.23696587713E+03  0.00000000000E+00 0. -1.
</event>
<event>
 4    1  0.6688462E+003  0.2874473E+02  0.7546771E-02  0.1430828E+00
          2   -1    0    0  501    0  0.00000000000E+00  0.00000000000E+00  0.29511631190E+03  0.29511631190E+03  0.00000000000E+00 0. -1.
          2   -1    0    0  502    0 -0.00000000000E+00 -0.00000000000E+00 -0.22668800618E+02  0.22668800618E+02  0.00000000000E+00 0.  1.
          2    1    1    2  501    0  0.20835093024E+02 -0.19802992183E+02 -0.12533293018E+02  0.31358300888E+02  0.00000000000E+00 0.  1.
          2    1    1    2  502    0 -0.20835093024E+02  0.19802992183E+02  0.28498080430E+03  0.28642681163E+03  0.00000000000E+00 0. -1.
</event>
<event>
 4    1  0.6688462E+003  0.2636894E+02  0.7546771E-02  0.1454052E+00
          2   -1    0    0  501    0  0.00000000000E+00  0.00000000000E+00  0.10977658204E+04  0.10977658204E+04  0.00000000000E+00 0. -1.
          2   -1    0    0  502    0 -0.00000000000E+00 -0.00000000000E+00 -0.13311744323E+01  0.13311744323E+01  0.00000000000E+00 0.  1.
          2    1    1    2  501    0  0.23575087491E+02  0.11812544413E+02  0.15034184185E+03  0.15263679231E+03  0.00000000000E+00 0.  1.
          2    1    1    2  502    0 -0.23575087491E+02 -0.11812544413E+02  0.94609280415E+03  0.94646020256E+03  0.00000000000E+00 0. -1.
</event>
<event>
 4    1  0.6688462E+003  0.3827878E+02  0.7546771E-02  0.1358878E+00
          2   -1    0    0  502    0  0.00000000000E+00  0.00000000000E+00  0.96979739188E+01  0.96979739188E+01  0.00000000000E+00 0.  1.
          2   -1    0    0  501    0 -0.00000000000E+00 -0.00000000000E+00 -0.12338816889E+04  0.12338816889E+04  0.00000000000E+00 0.  1.
          2    1    1    2  501    0 -0.77711619237E+01 -0.37481650765E+02 -0.29614095514E+02  0.48396898195E+02  0.00000000000E+00 0.  1.
          2    1    1    2  502    0  0.77711619237E+01  0.37481650765E+02 -0.11945696195E+04  0.11951827647E+04  0.00000000000E+00 0.  1.
</event>
<event>
 4    1  0.6688462E+003  0.2433578E+02  0.7546771E-02  0.1476373E+00
          2   -1    0    0  501    0  0.00000000000E+00  0.00000000000E+00  0.90142795589E+01  0.90142795589E+01  0.00000000000E+00 0. -1.
          2   -1    0    0  502    0 -0.00000000000E+00 -0.00000000000E+00 -0.73124970611E+02  0.73124970611E+02  0.00000000000E+00 0.  1.
          2    1    1    2  501    0 -0.20162797503E+02 -0.13626874196E+02 -0.45142987772E+02  0.51284690196E+02  0.00000000000E+00 0. -1.
          2    1    1    2  502    0  0.20162797503E+02  0.13626874196E+02 -0.18967703281E+02  0.30854559975E+02  0.00000000000E+00 0.  1.
</event>
<event>
 4    1  0.6688462E+003  0.2417036E+02  0.7546771E-02  0.1478303E+00
          2   -1    0    0  501    0  0.00000000000E+00  0.00000000000E+00  0.33590059767E+01  0.33590059767E+01  0.00000000000E+00 0. -1.
          2   -1    0    0  502    0 -0.00000000000E+00 -0.00000000000E+00 -0.20527377260E+03  0.20527377260E+03  0.00000000000E+00 0. -1.
          2    1    1    2  501    0  0.21436755012E+02 -0.11165646927E+02 -0.60189834677E+02  0.64861562848E+02  0.00000000000E+00 0. -1.
          2    1    1    2  502    0 -0.21436755012E+02  0.11165646927E+02 -0.14172493194E+03  0.14377121572E+03  0.00000000000E+00 0. -1.
</event>
<event>
 4    1  0.6688462E+003  0.2204950E+02  0.7546771E-02  0.1504791E+00
          2   -1    0    0  501    0  0.00000000000E+00  0.00000000000E+00  0.26767116096E+00  0.26767116096E+00  0.00000000000E+00 0. -1.
          2   -1    0    0  502    0 -0.00000000000E+00 -0.00000000000E+00 -0.18201679739E+04  0.18201679739E+04  0.00000000000E+00 0. -1.
          2    1    1    2  501    0  0.63917278289E+01 -0.21102750520E+02 -0.95172424669E+03  0.95197963319E+03  0.00000000000E+00 0. -1.
          2    1    1    2  502    0 -0.63917278289E+01  0.21102750520E+02 -0.86817605605E+03  0.86845601188E+03  0.00000000000E+00 0. -1.
</event>
<event>
 4    1  0.6688462E+003  0.2541719E+02  0.7546771E-02  0.1464190E+00
          2   -1    0    0  501    0  0.00000000000E+00  0.00000000000E+00  0.99810843216E+03  0.99810843216E+03  0.00000000000E+00 0.  1.
          2   -1    0    0  502    0 -0.00000000000E+00 -0.00000000000E+00 -0.36548269730E+02  0.36548269730E+02  0.00000000000E+00 0.  1.
          2    1    1    2  501    0  0.12119973711E+02 -0.22341439280E+02 -0.31946948086E+02  0.40824516701E+02  0.00000000000E+00 0.  1.
          2    1    1    2  502    0 -0.12119973711E+02  0.22341439280E+02  0.99350711052E+03  0.99383218519E+03  0.00000000000E+00 0.  1.
</event>
<event>
 4    1  0.6688462E+003  0.2178412E+02  0.7546771E-02  0.1508358E+00
          2   -1    0    0  502    0  0.00000000000E+00  0.00000000000E+00  0.77506014036E+03  0.77506014036E+03  0.00000000000E+00 0.  1.
          2   -1    0    0  501    0 -0.00000000000E+00 -0.00000000000E+00 -0.26717509071E+01  0.26717509071E+01  0.00000000000E+00 0.  1.
          2    1    1    2  501    0 -0.20470559755E+02 -0.74500937973E+01  0.72760761708E+03  0.72793364543E+03  0.00000000000E+00 0.  1.
          2    1    1    2  502    0  0.20470559755E+02  0.74500937973E+01  0.44780772373E+02  0.49798245838E+02  0.00000000000E+00 0.  1.
</event>
<event>
 4    1  0.6688462E+003  0.2297753E+02  0.7546771E-02  0.1492781E+00
          2   -1    0    0  502    0  0.00000000000E+00  0.00000000000E+00  0.11834914534E+04  0.11834914534E+04  0.00000000000E+00 0. -1.
          2   -1    0    0  501    0 -0.00000000000E+00 -0.00000000000E+00 -0.13133439359E+01  0.13133439359E+01  0.00000000000E+00 0. -1.
          2    1    1    2  501    0  0.22946139193E+02 -0.12006395582E+01  0.10724776716E+04  0.10727237868E+04  0.00000000000E+00 0. -1.
          2    1    1    2  502    0 -0.22946139193E+02  0.12006395582E+01  0.10970043787E+03  0.11208101047E+03  0.00000000000E+00 0. -1.
</event>
<event>
 4    1  0.6688462E+003  0.3400555E+02  0.7546771E-02  0.1387692E+00
          2   -1    0    0  502    0  0.00000000000E+00  0.00000000000E+00  0.75931588690E+03  0.75931588690E+03  0.00000000000E+00 0. -1.
          2   -1    0    0  501    0 -0.00000000000E+00 -0.00000000000E+00 -0.38715525068E+02  0.38715525068E+02  0.00000000000E+00 0. -1.
          2    1    1    2  501    0 -0.33995607624E+02  0.82240738186E+00  0.75138927960E+03  0.75215837906E+03  0.00000000000E+00 0. -1.
          2    1    1    2  502    0  0.33995607624E+02 -0.82240738186E+00 -0.30788917763E+02  0.45873032913E+02  0.00000000000E+00 0. -1.
</event>
<event>
 4    1  0.6688462E+003  0.2042172E+02  0.7546771E-02  0.1527684E+00
          2   -1    0    0  501    0  0.00000000000E+00  0.00000000000E+00  0.99413008036E+01  0.99413008036E+01  0.00000000000E+00 0.  1.
          2   -1    0    0  502    0 -0.00000000000E+00 -0.00000000000E+00 -0.86527402525E+03  0.86527402525E+03  0.00000000000E+00 0.  1.
          2    1    1    2  501    0  0.20171258580E+02 -0.31885663779E+01 -0.85453400808E+03  0.85477799316E+03  0.00000000000E+00 0.  1.
          2    1    1    2  502    0 -0.20171258580E+02  0.31885663779E+01 -0.79871637570E+00  0.20437332901E+02  0.00000000000E+00 0.  1.
</event>
<event>
 4    1  0.6688462E+003  0.2078610E+02  0.7546771E-02  0.1522341E+00
          2   -1    0    0  501    0  0.00000000000E+00  0.00000000000E+00  0.76408969321E+01  0.76408969321E+01  0.00000000000E+00 0.  1.
          2   -1    0    0  502    0 -0.00000000000E+00 -0.00000000000E+00 -0.50172734730E+03  0.50172734730E+03  0.00000000000E+00 0. -1.
          2    1    1    2  501    0 -0.20364503914E+02 -0.41652266422E+01 -0.48694665945E+03  0.48739010175E+03  0.00000000000E+00 0. -1.
          2    1    1    2  502    0  0.20364503914E+02  0.41652266422E+01 -0.71397909167E+01  0.21978142483E+02  0.00000000000E+00 0.  1.
</event>
<event>
 4    1  0.6688462E+003  0.2150689E+02  0.7546771E-02  0.1512149E+00
          2   -1    0    0  502    0  0.00000000000E+00  0.00000000000E+00  0.14223955740E+03  0.14223955740E+03  0.00000000000E+00 0. -1.
          2   -1    0    0  501    0 -0.00000000000E+00 -0.00000000000E+00 -0.16098098935E+02  0.16098098935E+02  0.00000000000E+00 0. -1.
          2    1    1    2  501    0  0.20721871104E+02 -0.57576386451E+01  0.13379272957E+03  0.13551029787E+03  0.00000000000E+00 0. -1.
          2    1    1    2  502    0 -0.20721871104E+02  0.57576386451E+01 -0.76512711019E+01  0.22827358461E+02  0.00000000000E+00 0. -1.
</event>
<event>
 4    1  0.6688462E+003  0.2876318E+02  0.7546771E-02  0.1430658E+00
          2   -1    0    0  501    0  0.00000000000E+00  0.00000000000E+00  0.13671794610E+03  0.13671794610E+03  0.00000000000E+00 0. -1.
          2   -1    0    0  502    0 -0.00000000000E+00 -0.00000000000E+00 -0.30556149999E+02  0.30556149999E+02  0.00000000000E+00 0. -1.
          2    1    1    2  501    0 -0.80794303488E+01  0.27605132612E+02 -0.21818004330E+02  0.36101881588E+02  0.00000000000E+00 0. -1.
          2    1    1    2  502    0  0.80794303488E+01 -0.27605132612E+02  0.12797980043E+03  0.13117221451E+03  0.00000000000E+00 0. -1.
</event>
<event>
 4    1  0.6688462E+003  0.3964215E+02  0.7546771E-02  0.1350596E+00
          2   -1    0    0  501    0  0.00000000000E+00  0.00000000000E+00  0.98515140229E+03  0.98515140229E+03  0.00000000000E+00 0. -1.
          2   -1    0    0  502    0 -0.00000000000E+00 -0.00000000000E+00 -0.82246171444E+02  0.82246171444E+02  0.00000000000E+00 0. -1.
          2    1    1    2  501    0  0.35504697814E+02  0.17632821459E+02 -0.77045214951E+02  0.86645629471E+02  0.00000000000E+00 0. -1.
          2    1    1    2  502    0 -0.35504697814E+02 -0.17632821459E+02  0.97995044580E+03  0.98075194426E+03  0.00000000000E+00 0. -1.
</event>
<event>
 4    1  0.6688462E+003  0.3634923E+02  0.7546771E-02  0.1371318E+00
          2   -1    0    0  502    0  0.00000000000E+00  0.00000000000E+00  0.16233941880E+03  0.16233941880E+03  0.00000000000E+00 0. -1.
          2   -1    0    0  501    0 -0.00000000000E+00 -0.00000000000E+00 -0.87149027327E+01  0.87149027327E+01  0.00000000000E+00 0. -1.
          2    1    1    2  501    0  0.39556248249E+01 -0.36133357749E+02  0.98799963591E+02  0.10527440010E+03  0.00000000000E+00 0. -1.
          2    1    1    2  502    0 -0.39556248249E+01  0.36133357749E+02  0.54824552478E+02  0.65779921438E+02  0.00000000000E+00 0. -1.
</event>
<event>
 4    1  0.6688462E+003  0.2533734E+02  0.7546771E-02  0.1465065E+00
          2   -1    0    0  502    0  0.00000000000E+00  0.00000000000E+00  0.93563610773E+03  0.93563610773E+03  0.00000000000E+00 0.  1.
          2   -1    0    0  501    0 -0.00000000000E+00 -0.00000000000E+00 -0.69070703831E+00  0.69070703831E+00  0.00000000000E+00 0.  1.
          2    1    1    2  501    0  0.11865369455E+01  0.25309544825E+02  0.42941992410E+03  0.43016677248E+03  0.00000000000E+00 0.  1.
          2    1    1    2  502    0 -0.11865369455E+01 -0.25309544825E+02  0.50552547659E+03  0.50616004229E+03  0.00000000000E+00 0.  1.
</event>
<event>
 4    1  0.6688462E+003  0.2720611E+02  0.7546771E-02  0.1445549E+00
          2   -1    0    0  501    0  0.00000000000E+00  0.00000000000E+00  0.10061881001E+01  0.10061881001E+01  0.00000000000E+00 0. -1.
          2   -1    0    0  502    0 -0.00000000000E+00 -0.00000000000E+00 -0.21778951130E+04  0.21778951130E+04  0.00000000000E+00 0.  1.
          2    1    1    2  501    0 -0.26937482836E+02 -0.38137082962E+01 -0.19750145982E+04  0.19752019733E+04  0.00000000000E+00 0.  1.
          2    1    1    2  502    0  0.26937482836E+02  0.38137082962E+01 -0.20187432671E+03  0.20369932778E+03  0.00000000000E+00 0. -1.
</event>
<event>
 4    1  0.6688462E+003  0.2499294E+02  0.7546771E-02  0.1468882E+00
          2   -1    0    0  502    0  0.00000000000E+00  0.00000000000E+00  0.62985644991E+03  0.62985644991E+03  0.00000000000E+00 0. -1.
          2   -1    0    0  501    0 -0.00000000000E+00 -0.00000000000E+00 -0.12263500243E+01  0.12263500243E+01  0.00000000000E+00 0.  1.
          2    1    1    2  501    0  0.17496437491E+02  0.17847179912E+02  0.45233193586E+03  0.45302188397E+03  0.00000000000E+00 0. -1.
          2    1    1    2  502    0 -0.17496437491E+02 -0.17847179912E+02  0.17629816403E+03  0.17806091597E+03  0.00000000000E+00 0.  1.
</event>
<event>
 4    1  0.6688462E+003  0.2002469E+02  0.7546771E-02  0.1533659E+00
          2   -1    0    0  501    0  0.00000000000E+00  0.00000000000E+00  0.19640135794E+03  0.19640135794E+03  0.00000000000E+00 0. -1.
          2   -1    0    0  502    0 -0.00000000000E+00 -0.00000000000E+00 -0.38006951918E+01  0.38006951918E+01  0.00000000000E+00 0.  1.
          2    1    1    2  501    0 -0.19006990535E+02  0.63025657871E+01  0.28201094439E+02  0.34587421879E+02  0.00000000000E+00 0.  1.
          2    1    1    2  502    0  0.19006990535E+02 -0.63025657871E+01  0.16439956831E+03  0.16561463125E+03  0.00000000000E+00 0. -1.
</event>
<event>
 4    1  0.6688462E+003  0.3156789E+02  0.7546771E-02  0.1406444E+00
          2   -1    0    0  501    0  0.00000000000E+00  0.00000000000E+00  0.68057122482E+03  0.68057122482E+03  0.00000000000E+00 0.  1.
          2   -1    0    0  502    0 -0.00000000000E+00 -0.00000000000E+00 -0.14382397130E+03  0.14382397130E+03  0.00000000000E+00 0. -1.
          2    1    1    2  501    0  0.24582634063E+02  0.19804688717E+02 -0.14172033191E+03  0.14519360891E+03  0.00000000000E+00 0. -1.
          2    1    1    2  502    0 -0.24582634063E+02 -0.19804688717E+02  0.67846758543E+03  0.67920158721E+03  0.00000000000E+00 0.  1.
</event>
<event>
 4    1  0.6688462E+003  0.2794553E+02  0.7546771E-02  0.1438335E+00
          2   -1    0    0  501    0  0.00000000000E+00  0.00000000000E+00  0.24260521510E+03  0.24260521510E+03  0.00000000000E+00 0.  1.
          2   -1    0    0  502    0 -0.00000000000E+00 -0.00000000000E+00 -0.55575234638E+01  0.55575234638E+01  0.00000000000E+00 0. -1.
          2    1    1    2  501    0 -0.18625836206E+02  0.20833402431E+02  0.19901245093E+03  0.20096494236E+03  0.00000000000E+00 0.  1.
          2    1    1    2  502    0  0.18625836206E+02 -0.20833402431E+02  0.38035240705E+02  0.47197796206E+02  0.00000000000E+00 0. -1.
</event>
<event>
 4    1  0.6688462E+003  0.2129890E+02  0.7546771E-02  0.1515040E+00
          2   -1    0    0  502    0  0.00000000000E+00  0.00000000000E+00  0.19009398647E+03  0.19009398647E+03  0.00000000000E+00 0. -1.
          2   -1    0    0  501    0 -0.00000000000E+00 -0.00000000000E+00 -0.27837767715E+01  0.27837767715E+01  0.00000000000E+00 0.  1.
          2    1    1    2  501    0  0.18957146687E+02 -0.97092691728E+01  0.13009083633E+03  0.13182286985E+03  0.00000000000E+00 0. -1.
          2    1    1    2  502    0 -0.18957146687E+02  0.97092691728E+01  0.57219373366E+02  0.61054893390E+02  0.00000000000E+00 0.  1.
</event>
<event>
 4    1  0.6688462E+003  0.2328115E+02  0.7546771E-02  0.1488998E+00
          2   -1    0    0  502    0  0.00000000000E+00  0.00000000000E+00  0.11399940469E+04  0.11399940469E+04  0.00000000000E+00 0.  1.
          2   -1    0    0  501    0 -0.00000000000E+00 -0.00000000000E+00 -0.63979013497E+01  0.63979013497E+01  0.00000000000E+00 0. -1.
          2    1    1    2  501    0 -0.13234381975E+02 -0.19153668618E+02  0.11182847909E+04  0.11185271053E+04  0.00000000000E+00 0.  1.
          2    1    1    2  502    0  0.13234381975E+02  0.19153668618E+02  0.15311354660E+02  0.27864842890E+02  0.00000000000E+00 0. -1.
</event>
<event>
 4    1  0.6688462E+003  0.5256664E+02  0.7546771E-02  0.1287412E+00
          2   -1    0    0  502    0  0.00000000000E+00  0.00000000000E+00  0.83886972051E+02  0.83886972051E+02  0.00000000000E+00 0.  1.
          2   -1    0    0  501    0 -0.00000000000E+00 -0.00000000000E+00 -0.12143864892E+04  0.12143864892E+04  0.00000000000E+00 0.  1.
          2    1    1    2  501    0 -0.17574018318E+02 -0.49541957083E+02  0.75022545446E+02  0.91605862021E+02  0.00000000000E+00 0.  1.
          2    1    1    2  502    0  0.17574018318E+02  0.49541957083E+02 -0.12055220626E+04  0.12066675992E+04  0.00000000000E+00 0.  1.
</event>
<event>
 4    1  0.6688462E+003  0.2292664E+02  0.7546771E-02  0.1493421E+00
          2   -1    0    0  502    0  0.00000000000E+00  0.00000000000E+00  0.11207523898E+04  0.11207523898E+04  0.00000000000E+00 0. -1.
          2   -1    0    0  501    0 -0.00000000000E+00 -0.00000000000E+00 -0.88451789207E+02  0.88451789207E+02  0.00000000000E+00 0.  1.
          2    1    1    2  501    0  0.10487206261E+02 -0.20387478163E+02  0.11191473679E+04  0.11193821787E+04  0.00000000000E+00 0. -1.
          2    1    1    2  502    0 -0.10487206261E+02  0.20387478163E+02 -0.86846767303E+02  0.89822000378E+02  0.00000000000E+00 0.  1.
</event>
<event>
 4    1  0.6688462E+003  0.3356849E+02  0.7546771E-02  0.1390916E+00
          2   -1    0    0  502    0  0.00000000000E+00  0.00000000000E+00  0.14502456290E+04  0.14502456290E+04  0.00000000000E+00 0. -1.
          2   -1    0    0  501    0 -0.00000000000E+00 -0.00000000000E+00 -0.24832469438E+01  0.24832469438E+01  0.00000000000E+00 0. -1.
          2    1    1    2  501    0  0.94020665544E+01 -0.32224908128E+02  0.13259766121E+04  0.13264014549E+04  0.00000000000E+00 0. -1.
          2    1    1    2  502    0 -0.94020665544E+01  0.32224908128E+02  0.12178576994E+03  0.12632742109E+03  0.00000000000E+00 0. -1.
</event>
<event>
 4    1  0.6688462E+003  0.2984062E+02  0.7546771E-02  0.1420987E+00
          2   -1    0    0  502    0  0.00000000000E+00  0.00000000000E+00  0.14489822615E+01  0.14489822615E+01  0.00000000000E+00 0. -1.
          2   -1    0    0  501    0 -0.00000000000E+00 -0.00000000000E+00 -0.82308788988E+03  0.82308788988E+03  0.00000000000E+00 0.  1.
          2    1    1    2  501    0  0.26708329851E+02  0.13308938857E+02 -0.20330126949E+03  0.20547960705E+03  0.00000000000E+00 0. -1.
          2    1    1    2  502    0 -0.26708329851E+02 -0.13308938857E+02 -0.61833763813E+03  0.61905726509E+03  0.00000000000E+00 0.  1.
</event>
<event>
 4    1  0.6688462E+003  0.2154870E+02  0.7546771E-02  0.1511573E+00
          2   -1    0    0  501    0  0.00000000000E+00  0.00000000000E+00  0.78940110786E+01  0.78940110786E+01  0.00000000000E+00 0. -1.
          2   -1    0    0  502    0 -0.00000000000E+00 -0.00000000000E+00 -0.37900780401E+03  0.37900780401E+03  0.00000000000E+00 0.  1.
          2    1    1    2  501    0  0.20026131645E+02  0.79561680515E+01 -0.36336325951E+03  0.36400165511E+03  0.00000000000E+00 0.  1.
          2    1    1    2  502    0 -0.20026131645E+02 -0.79561680515E+01 -0.77505334165E+01  0.22900159977E+02  0.00000000000E+00 0. -1.
</event>
<event>
 4    1  0.6688462E+003  0.9926358E+02  0.7546771E-02  0.1165090E+00
          2   -1    0    0  502    0  0.00000000000E+00  0.00000000000E+00  0.13059886240E+03  0.13059886240E+03  0.00000000000E+00 0. -1.
          2   -1    0    0  501    0 -0.00000000000E+00 -0.00000000000E+00 -0.69713985325E+03  0.69713985325E+03  0.00000000000E+00 0.  1.
          2    1    1    2  501    0  0.24869472833E+02 -0.96097698960E+02  0.10756261240E+03  0.14636589087E+03  0.00000000000E+00 0. -1.
          2    1    1    2  502    0 -0.24869472833E+02  0.96097698960E+02 -0.67410360326E+03  0.68137282478E+03  0.00000000000E+00 0.  1.
</event>
<event>
 4    1  0.6688462E+003  0.3012374E+02  0.7546771E-02  0.1418524E+00
          2   -1    0    0  502    0  0.00000000000E+00  0.00000000000E+00  0.36508811227E+02  0.36508811227E+02  0.00000000000E+00 0.  1.
          2   -1    0    0  501    0 -0.00000000000E+00 -0.00000000000E+00 -0.10072621441E+03  0.10072621441E+03  0.00000000000E+00 0. -1.
          2    1    1    2  501    0  0.47358286663E+01 -0.29749144879E+02  0.27443963220E+02  0.40750592773E+02  0.00000000000E+00 0.  1.
          2    1    1    2  502    0 -0.47358286663E+01  0.29749144879E+02 -0.91661366400E+02  0.96484432860E+02  0.00000000000E+00 0. -1.
</event>
<event>
 4    1  0.6688462E+003  0.2150458E+02  0.7546771E-02  0.1512181E+00
          2   -1    0    0  502    0  0.00000000000E+00  0.00000000000E+00  0.42937242815E+01  0.42937242815E+01  0.00000000000E+00 0. -1.
          2   -1    0    0  501    0 -0.00000000000E+00 -0.00000000000E+00 -0.15854265759E+03  0.15854265759E+03  0.00000000000E+00 0. -1.
          2    1    1    2  501    0 -0.21494342347E+02 -0.66337502023E+00 -0.31019272421E+02  0.37744431124E+02  0.00000000000E+00 0. -1.
          2    1    1    2  502    0  0.21494342347E+02  0.66337502023E+00 -0.12322966089E+03  0.12509195075E+03  0.00000000000E+00 0. -1.
</event>
<event>
 4    1  0.6688462E+003  0.2304738E+02  0.7546771E-02  0.1491904E+00
          2   -1    0    0  502    0  0.00000000000E+00  0.00000000000E+00  0.11768174040E+03  0.11768174040E+03  0.00000000000E+00 0. -1.
          2   -1    0    0  501    0 -0.00000000000E+00 -0.00000000000E+00 -0.15937291072E+03  0.15937291072E+03  0.00000000000E+00 0.  1.
          2    1    1    2  501    0 -0.46003317527E+00  0.23042784795E+02  0.11570598567E+03  0.11797905187E+03  0.00000000000E+00 0. -1.
          2    1    1    2  502    0  0.46003317527E+00 -0.23042784795E+02 -0.15739715599E+03  0.15907559924E+03  0.00000000000E+00 0.  1.
</event>
<event>
 4    1  0.6688462E+003  0.2576566E+02  0.7546771E-02  0.1460417E+00
          2   -1    0    0  502    0  0.00000000000E+00  0.00000000000E+00  0.32908147423E+01  0.32908147423E+01  0.00000000000E+00 0. -1.
          2   -1    0    0  501    0 -0.00000000000E+00 -0.00000000000E+00 -0.18306927430E+04  0.18306927430E+04  0.00000000000E+00 0.  1.
          2    1    1    2  501    0  0.25569814868E+02 -0.31707589239E+01 -0.48707635937E+02  0.55102658222E+02  0.00000000000E+00 0. -1.
          2    1    1    2  502    0 -0.25569814868E+02  0.31707589239E+01 -0.17786942923E+04  0.17788808995E+04  0.00000000000E+00 0.  1.
</event>
<event>
 4    1  0.6688462E+003  0.2773552E+02  0.7546771E-02  0.1440356E+00
          2   -1    0    0  502    0  0.00000000000E+00  0.00000000000E+00  0.26049804754E+03  0.26049804754E+03  0.00000000000E+00 0.  1.
          2   -1    0    0  501    0 -0.00000000000E+00 -0.00000000000E+00 -0.59456975717E+01  0.59456975717E+01  0.00000000000E+00 0. -1.
          2    1    1    2  501    0 -0.25799673828E+02 -0.10180172254E+02  0.22179171460E+03  0.22351917981E+03  0.00000000000E+00 0.  1.
          2    1    1    2  502    0  0.25799673828E+02  0.10180172254E+02  0.32760635367E+02  0.42924565303E+02  0.00000000000E+00 0. -1.
</event>
<event>
 4    1  0.6688462E+003  0.2260187E+02  0.7546771E-02  0.1497559E+00
          2   -1    0    0  501    0  0.00000000000E+00  0.00000000000E+00  0.68952522810E+00  0.68952522810E+00  0.00000000000E+00 0. -1.
          2   -1    0    0  502    0 -0.00000000000E+00 -0.00000000000E+00 -0.13277474933E+04  0.13277474933E+04  0.00000000000E+00 0. -1.
          2    1    1    2  501    0 -0.83494233231E+01  0.21003137524E+02 -0.11051289677E+04  0.11053600680E+04  0.00000000000E+00 0. -1.
          2    1    1    2  502    0  0.83494233231E+01 -0.21003137524E+02 -0.22192900041E+03  0.22307695057E+03  0.00000000000E+00 0. -1.
</event>
<event>
 4    1  0.6688462E+003  0.2571952E+02  0.7546771E-02  0.1460913E+00
          2   -1    0    0  502    0  0.00000000000E+00  0.00000000000E+00  0.63305251132E+03  0.63305251132E+03  0.00000000000E+00 0.  1.
          2   -1    0    0  501    0 -0.00000000000E+00 -0.00000000000E+00 -0.15935387167E+02  0.15935387167E+02  0.00000000000E+00 0. -1.
          2    1    1    2  501    0 -0.24475501903E+02 -0.79021338673E+01  0.62223315788E+03  0.62276447930E+03  0.00000000000E+00 0.  1.
          2    1    1    2  502    0  0.24475501903E+02  0.79021338673E+01 -0.51160337216E+01  0.26223419192E+02  0.00000000000E+00 0. -1.
</event>
<event>
 4    1  0.6688462E+003  0.2681352E+02  0.7546771E-02  0.1449490E+00
          2   -1    0    0  501    0  0.00000000000E+00  0.00000000000E+00  0.15552417994E+02  0.15552417994E+02  0.00000000000E+00 0. -1.
          2   -1    0    0  502    0 -0.00000000000E+00 -0.00000000000E+00 -0.93440870730E+03  0.93440870730E+03  0.00000000000E+00 0. -1.
          2    1    1    2  501    0 -0.86832289954E+01  0.25368609270E+02 -0.92251019454E+03  0.92289979079E+03  0.00000000000E+00 0. -1.
          2    1    1    2  502    0  0.86832289954E+01 -0.25368609270E+02  0.36539052309E+01  0.27061334511E+02  0.00000000000E+00 0. -1.
</event>
<event>
 4    1  0.6688462E+003  0.2159183E+02  0.7546771E-02  0.1510980E+00
          2   -1    0    0  502    0  0.00000000000E+00  0.00000000000E+00  0.62886766288E+02  0.62886766288E+02  0.00000000000E+00 0.  1.
          2   -1    0    0  501    0 -0.00000000000E+00 -0.00000000000E+00 -0.23722782348E+03  0.23722782348E+03  0.00000000000E+00 0.  1.
          2    1    1    2  501    0 -0.11402516618E+02  0.18335480713E+02  0.60523489084E+02  0.64259629388E+02  0.00000000000E+00 0.  1.
          2    1    1    2  502    0  0.11402516618E+02 -0.18335480713E+02 -0.23486454628E+03  0.23585496038E+03  0.00000000000E+00 0.  1.
</event>
<event>
 4    1  0.6688462E+003  0.2455099E+02  0.7546771E-02  0.1473890E+00
          2   -1    0    0  502    0  0.00000000000E+00  0.00000000000E+00  0.28725731958E+01  0.28725731958E+01  0.00000000000E+00 0. -1.
          2   -1    0    0  501    0 -0.00000000000E+00 -0.00000000000E+00 -0.21054046796E+03  0.21054046796E+03  0.00000000000E+00 0. -1.
          2    1    1    2  501    0 -0.10017468453E+02  0.22414314343E+02 -0.11003389725E+03  0.11273956584E+03  0.00000000000E+00 0. -1.
          2    1    1    2  502    0  0.10017468453E+02 -0.22414314343E+02 -0.97633997522E+02  0.10067347532E+03  0.00000000000E+00 0. -1.
</event>
<event>
 4    1  0.6688462E+003  0.2494056E+02  0.7546771E-02  0.1469469E+00
          2   -1    0    0  502    0  0.00000000000E+00  0.00000000000E+00  0.19472338135E+01  0.19472338135E+01  0.00000000000E+00 0. -1.
          2   -1    0    0  501    0 -0.00000000000E+00 -0.00000000000E+00 -0.36926916086E+03  0.36926916086E+03  0.00000000000E+00 0. -1.
          2    1    1    2  501    0 -0.21008922289E+02  0.13440864008E+02 -0.11548188212E+03  0.11814438937E+03  0.00000000000E+00 0. -1.
          2    1    1    2  502    0  0.21008922289E+02 -0.13440864008E+02 -0.25184004493E+03  0.25307200531E+03  0.00000000000E+00 0. -1.
</event>
<event>
 4    1  0.6688462E+003  0.2610164E+02  0.7546771E-02  0.1456847E+00
          2   -1    0    0  502    0  0.00000000000E+00  0.00000000000E+00  0.59376560568E+03  0.59376560568E+03  0.00000000000E+00 0. -1.
          2   -1    0    0  501    0 -0.00000000000E+00 -0.00000000000E+00 -0.35046197954E+02  0.35046197954E+02  0.00000000000E+00 0.  1.
          2    1    1    2  501    0  0.22352212631E+02  0.13478665556E+02  0.58857593685E+03  0.58915441887E+03  0.00000000000E+00 0. -1.
          2    1    1    2  502    0 -0.22352212631E+02 -0.13478665556E+02 -0.29856529127E+02  0.39657384762E+02  0.00000000000E+00 0.  1.
</event>
<event>
 4    1  0.6688462E+003  0.3893933E+02  0.7546771E-02  0.1354816E+00
          2   -1    0    0  501    0  0.00000000000E+00  0.00000000000E+00  0.24325698392E+03  0.24325698392E+03  0.00000000000E+00 0. -1.
          2   -1    0    0  502    0 -0.00000000000E+00 -0.00000000000E+00 -0.32551361734E+03  0.32551361734E+03  0.00000000000E+00 0. -1.
          2    1    1    2  501    0 -0.36278149384E+02  0.14148040297E+02 -0.32277763244E+03  0.32511793425E+03  0.00000000000E+00 0. -1.
          2    1    1    2  502    0  0.36278149384E+02 -0.14148040297E+02  0.24052099902E+03  0.24365266700E+03  0.00000000000E+00 0. -1.
</event>
<event>
 4    1  0.6688462E+003  0.2436483E+02  0.7546771E-02  0.1476036E+00
          2   -1    0    0  502    0  0.00000000000E+00  0.00000000000E+00  0.22136325595E+04  0.22136325595E+04  0.00000000000E+00 0.  1.
          2   -1    0    0  501    0 -0.00000000000E+00 -0.00000000000E+00 -0.30583387434E+00  0.30583387434E+00  0.00000000000E+00 0. -1.
          2    1    1    2  501    0 -0.15385239768E+02  0.18892836596E+02  0.14950963276E+04  0.14952948451E+04  0.00000000000E+00 0.  1.
          2    1    1    2  502    0  0.15385239768E+02 -0.18892836596E+02  0.71823039798E+03  0.71864354826E+03  0.00000000000E+00 0. -1.
</event>
<event>
 4    1  0.6688462E+003  0.4642407E+02  0.7546771E-02  0.1314468E+00
          2   -1    0    0  502    0  0.00000000000E+00  0.00000000000E+00  0.21081096518E+03  0.21081096518E+03  0.00000000000E+00 0. -1.
          2   -1    0    0  501    0 -0.00000000000E+00 -0.00000000000E+00 -0.25694075245E+03  0.25694075245E+03  0.00000000000E+00 0.  1.
          2    1    1    2  501    0 -0.20543454102E+02  0.41631243150E+02  0.20611092586E+03  0.21127448419E+03  0.00000000000E+00 0. -1.
          2    1    1    2  502    0  0.20543454102E+02 -0.41631243150E+02 -0.25224071313E+03  0.25647723344E+03  0.00000000000E+00 0.  1.
</event>
<event>
 4    1  0.6688462E+003  0.3816612E+02  0.7546771E-02  0.1359581E+00
          2   -1    0    0  501    0  0.00000000000E+00  0.00000000000E+00  0.10174164666E+04  0.10174164666E+04  0.00000000000E+00 0.  1.
          2   -1    0    0  502    0 -0.00000000000E+00 -0.00000000000E+00 -0.48814712830E+01  0.48814712830E+01  0.00000000000E+00 0. -1.
          2    1    1    2  501    0  0.30419898929E+01 -0.38044701243E+02  0.76566692624E+02  0.85551805443E+02  0.00000000000E+00 0. -1.
          2    1    1    2  502    0 -0.30419898929E+01  0.38044701243E+02  0.93596830269E+03  0.93674613244E+03  0.00000000000E+00 0.  1.
</event>
<event>
 4    1  0.6688462E+003  0.2028138E+02  0.7546771E-02  0.1529777E+00
          2   -1    0    0  502    0  0.00000000000E+00  0.00000000000E+00  0.15592892852E+02  0.15592892852E+02  0.00000000000E+00 0.  1.
          2   -1    0    0  501    0 -0.00000000000E+00 -0.00000000000E+00 -0.69125849094E+02  0.69125849094E+02  0.00000000000E+00 0.  1.
          2    1    1    2  501    0  0.19876893475E+02 -0.40303283842E+01  0.65437966588E+01  0.21310929492E+02  0.00000000000E+00 0.  1.
          2    1    1    2  502    0 -0.19876893475E+02  0.40303283842E+01 -0.60076752901E+02  0.63407812454E+02  0.00000000000E+00 0.  1.
</event>
<event>
 4    1  0.6688462E+003  0.2300318E+02  0.7546771E-02  0.1492458E+00
          2   -1    0    0  502    0  0.00000000000E+00  0.00000000000E+00  0.81095867539E+03  0.81095867539E+03  0.00000000000E+00 0.  1.
          2   -1    0    0  501    0 -0.00000000000E+00 -0.00000000000E+00 -0.19183296762E+02  0.19183296762E+02  0.00000000000E+00 0.  1.
          2    1    1    2  501    0 -0.16953684105E+02  0.15547306258E+02  0.80383855979E+03  0.80416762950E+03  0.00000000000E+00 0.  1.
          2    1    1    2  502    0  0.16953684105E+02 -0.15547306258E+02 -0.12063181158E+02  0.25974342653E+02  0.00000000000E+00 0.  1.
</event>
<event>
 4    1  0.6688462E+003  0.2875926E+02  0.7546771E-02  0.1430694E+00
          2   -1    0    0  501    0  0.00000000000E+00  0.00000000000E+00  0.30518198731E+02  0.30518198731E+02  0.00000000000E+00 0.  1.
          2   -1    0    0  502    0 -0.00000000000E+00 -0.00000000000E+00 -0.40859712090E+02  0.40859712090E+02  0.00000000000E+00 0.  1.
          2    1    1    2  501    0  0.27313201051E+02  0.90046798086E+01 -0.25879986834E+02  0.38689390389E+02  0.00000000000E+00 0.  1.
          2    1    1    2  502    0 -0.27313201051E+02 -0.90046798086E+01  0.15538473475E+02  0.32688520432E+02  0.00000000000E+00 0.  1.
</event>
<event>
 4    1  0.6688462E+003  0.2629147E+02  0.7546771E-02  0.1454858E+00
          2   -1    0    0  501    0  0.00000000000E+00  0.00000000000E+00  0.17016337391E+01  0.17016337391E+01  0.00000000000E+00 0.  1.
          2   -1    0    0  502    0 -0.00000000000E+00 -0.00000000000E+00 -0.11084651424E+04  0.11084651424E+04  0.00000000000E+00 0. -1.
          2    1    1    2  501    0 -0.11278321872E+02 -0.23749549082E+02 -0.99519716579E+03  0.99554439400E+03  0.00000000000E+00 0. -1.
          2    1    1    2  502    0  0.11278321872E+02  0.23749549082E+02 -0.11156634285E+03  0.11462238212E+03  0.00000000000E+00 0.  1.
</event>
<event>
 4    1  0.6688462E+003  0.2094037E+02  0.7546771E-02  0.1520118E+00
          2   -1    0    0  501    0  0.00000000000E+00  0.00000000000E+00  0.50666725474E+03  0.50666725474E+03  0.00000000000E+00 0. -1.
          2   -1    0    0  502    0 -0.00000000000E+00 -0.00000000000E+00 -0.46794674973E+02  0.46794674973E+02  0.00000000000E+00 0.  1.
          2    1    1    2  501    0 -0.20650923954E+02 -0.34696678253E+01 -0.44223690416E+02  0.48930910976E+02  0.00000000000E+00 0.  1.
          2    1    1    2  502    0  0.20650923954E+02  0.34696678253E+01  0.50409627018E+03  0.50453101874E+03  0.00000000000E+00 0. -1.
</event>
<event>
 4    1  0.6688462E+003  0.3388222E+02  0.7546771E-02  0.1388596E+00
          2   -1    0    0  501    0  0.00000000000E+00  0.00000000000E+00  0.56683852939E+03  0.56683852939E+03  0.00000000000E+00 0.  1.
          2   -1    0    0  502    0 -0.00000000000E+00 -0.00000000000E+00 -0.84788793909E+02  0.84788793909E+02  0.00000000000E+00 0.  1.
          2    1    1    2  501    0  0.33003638842E+02  0.76658044741E+01 -0.80874061320E+02  0.87684767944E+02  0.00000000000E+00 0.  1.
          2    1    1    2  502    0 -0.33003638842E+02 -0.76658044741E+01  0.56292379681E+03  0.56394255536E+03  0.00000000000E+00 0.  1.
</event>
<event>
 4    1  0.6688462E+003  0.2557916E+02  0.7546771E-02  0.1462428E+00
          2   -1    0    0  502    0  0.00000000000E+00  0.00000000000E+00  0.32869348380E+02  0.32869348380E+02  0.00000000000E+00 0. -1.
          2   -1    0    0  501    0 -0.00000000000E+00 -0.00000000000E+00 -0.60041312651E+03  0.60041312651E+03  0.00000000000E+00 0.  1.
          2    1    1    2  501    0 -0.25579049821E+02  0.73497045815E-01  0.27576203128E+02  0.37613031924E+02  0.00000000000E+00 0. -1.
          2    1    1    2  502    0  0.25579049821E+02 -0.73497045815E-01 -0.59511998125E+03  0.59566944296E+03  0.00000000000E+00 0.  1.
</event>
<event>
 4    1  0.6688462E+003  0.2537100E+02  0.7546771E-02  0.1464696E+00
          2   -1    0    0  502    0  0.00000000000E+00  0.00000000000E+00  0.98857904538E+01  0.98857904538E+01  0.00000000000E+00 0. -1.
          2   -1    0    0  501    0 -0.00000000000E+00 -0.00000000000E+00 -0.10830895264E+03  0.10830895264E+03  0.00000000000E+00 0.  1.
          2    1    1    2  501    0 -0.12377359944E+02 -0.22146975641E+02 -0.11889958405E+02  0.28018898624E+02  0.00000000000E+00 0. -1.
          2    1    1    2  502    0  0.12377359944E+02  0.22146975641E+02 -0.86533203782E+02  0.90175844471E+02  0.00000000000E+00 0.  1.
</event>
<event>
 4    1  0.6688462E+003  0.2655744E+02  0.7546771E-02  0.1452105E+00
          2   -1    0    0  502    0  0.00000000000E+00  0.00000000000E+00  0.43878208956E+03  0.43878208956E+03  0.00000000000E+00 0.  1.
          2   -1    0    0  501    0 -0.00000000000E+00 -0.00000000000E+00 -0.17353935490E+01  0.17353935490E+01  0.00000000000E+00 0.  1.
          2    1    1    2  501    0  0.26554802782E+02 -0.37424428719E+00  0.27834122470E+03  0.27960532000E+03  0.00000000000E+00 0.  1.
          2    1    1    2  502    0 -0.26554802782E+02  0.37424428719E+00  0.15870547131E+03  0.16091216310E+03  0.00000000000E+00 0.  1.
</event>
<event>
 4    1  0.6688462E+003  0.2838285E+02  0.7546771E-02  0.1434191E+00
          2   -1    0    0  502    0  0.00000000000E+00  0.00000000000E+00  0.80353518375E+02  0.80353518375E+02  0.00000000000E+00 0. -1.
          2   -1    0    0  501    0 -0.00000000000E+00 -0.00000000000E+00 -0.42880280164E+02  0.42880280164E+02  0.00000000000E+00 0.  1.
          2    1    1    2  501    0  0.27791235126E+02 -0.57648207619E+01  0.72671555973E+02  0.78017568251E+02  0.00000000000E+00 0. -1.
          2    1    1    2  502    0 -0.27791235126E+02  0.57648207619E+01 -0.35198317761E+02  0.45216230288E+02  0.00000000000E+00 0.  1.
</event>
<event>
 4    1  0.6688462E+003  0.2093333E+02  0.7546771E-02  0.1520219E+00
          2   -1    0    0  501    0  0.00000000000E+00  0.00000000000E+00  0.77825281914E+00  0.77825281914E+00  0.00000000000E+00 0. -1.
          2   -1    0    0  502    0 -0.00000000000E+00 -0.00000000000E+00 -0.75043271368E+03  0.75043271368E+03  0.00000000000E+00 0.  1.
          2    1    1    2  501    0  0.59502444435E+01  0.20069848845E+02 -0.56251130239E+03  0.56290067468E+03  0.00000000000E+00 0.  1.
          2    1    1    2  502    0 -0.59502444435E+01 -0.20069848845E+02 -0.18714315846E+03  0.18831029181E+03  0.00000000000E+00 0. -1.
</event>
<event>
 4    1  0.6688462E+003  0.4370476E+02  0.7546771E-02  0.1328044E+00
          2   -1    0    0  502    0  0.00000000000E+00  0.00000000000E+00  0.59312941897E+01  0.59312941897E+01  0.00000000000E+00 0. -1.
          2   -1    0    0  501    0 -0.00000000000E+00 -0.00000000000E+00 -0.16182086714E+04  0.16182086714E+04  0.00000000000E+00 0. -1.
          2    1    1    2  501    0  0.36750491298E+02  0.23653901586E+02 -0.79351621796E+02  0.90591310580E+02  0.00000000000E+00 0. -1.
          2    1    1    2  502    0 -0.36750491298E+02 -0.23653901586E+02 -0.15329257554E+04  0.15335486550E+04  0.00000000000E+00 0. -1.
</event>
<event>
 4    1  0.6688462E+003  0.2038327E+02  0.7546771E-02  0.1528255E+00
          2   -1    0    0  502    0  0.00000000000E+00  0.00000000000E+00  0.60949370288E+01  0.60949370288E+01  0.00000000000E+00 0. -1.
          2   -1    0    0  501    0 -0.00000000000E+00 -0.00000000000E+00 -0.67300252248E+03  0.67300252248E+03  0.00000000000E+00 0.  1.
          2    1    1    2  501    0  0.12988974454E+02  0.15708735231E+02 -0.11560328514E+02  0.23433288614E+02  0.00000000000E+00 0. -1.
          2    1    1    2  502    0 -0.12988974454E+02 -0.15708735231E+02 -0.65534725693E+03  0.65566417089E+03  0.00000000000E+00 0.  1.
</event>
<event>
 4    1  0.6688462E+003  0.2151062E+02  0.7546771E-02  0.1512098E+00
          2   -1    0    0  501    0  0.00000000000E+00  0.00000000000E+00  0.65540680836E+00  0.65540680836E+00  0.00000000000E+00 0.  1.
          2   -1    0    0  502    0 -0.00000000000E+00 -0.00000000000E+00 -0.84270251821E+03  0.84270251821E+03  0.00000000000E+00 0.  1.
          2    1    1    2  501    0  0.21322545038E+02  0.28382622796E+01 -0.59087083984E+03  0.59126225656E+03  0.00000000000E+00 0.  1.
          2    1    1    2  502    0 -0.21322545038E+02 -0.28382622796E+01 -0.25117627156E+03  0.25209566846E+03  0.00000000000E+00 0.  1.
</event>
<event>
 4    1  0.6688462E+003  0.2084379E+02  0.7546771E-02  0.1521507E+00
          2   -1    0    0  502    0  0.00000000000E+00  0.00000000000E+00  0.10331545852E+01  0.10331545852E+01  0.00000000000E+00 0.  1.
          2   -1    0    0  501    0 -0.00000000000E+00 -0.00000000000E+00 -0.10201284238E+04  0.10201284238E+04  0.00000000000E+00 0.  1.
          2    1    1    2  501    0  0.17117393521E+02 -0.11893628208E+02 -0.90099233954E+03  0.90123341009E+03  0.00000000000E+00 0.  1.
          2    1    1    2  502    0 -0.17117393521E+02  0.11893628208E+02 -0.11810292968E+03  0.11992816830E+03  0.00000000000E+00 0.  1.
</event>
<event>
 4    1  0.6688462E+003  0.2236181E+02  0.7546771E-02  0.1500671E+00
          2   -1    0    0  501    0  0.00000000000E+00  0.00000000000E+00  0.60642471953E+03  0.60642471953E+03  0.00000000000E+00 0. -1.
          2   -1    0    0  502    0 -0.00000000000E+00 -0.00000000000E+00 -0.95003191308E+01  0.95003191308E+01  0.00000000000E+00 0. -1.
          2    1    1    2  501    0  0.21763187968E+02 -0.51394705529E+01  0.41679274074E+01  0.22746914669E+02  0.00000000000E+00 0. -1.
          2    1    1    2  502    0 -0.21763187968E+02  0.51394705529E+01  0.59275647299E+03  0.59317812399E+03  0.00000000000E+00 0. -1.
</event>
<event>
 4    1  0.6688462E+003  0.3525083E+02  0.7546771E-02  0.1378808E+00
          2   -1    0    0  502    0  0.00000000000E+00  0.00000000000E+00  0.93092879584E+03  0.93092879584E+03  0.00000000000E+00 0.  1.
          2   -1    0    0  501    0 -0.00000000000E+00 -0.00000000000E+00 -0.22162669703E+03  0.22162669703E+03  0.00000000000E+00 0. -1.
          2    1    1    2  501    0 -0.27928481041E+02  0.21508628702E+02  0.92919076507E+03  0.92985918237E+03  0.00000000000E+00 0.  1.
          2    1    1    2  502    0  0.27928481041E+02 -0.21508628702E+02 -0.21988866625E+03  0.22269631049E+03  0.00000000000E+00 0. -1.
</event>
<event>
 4    1  0.6688462E+003  0.2154730E+02  0.7546771E-02  0.1511592E+00
          2   -1    0    0  501    0  0.00000000000E+00  0.00000000000E+00  0.80720734187E+03  0.80720734187E+03  0.00000000000E+00 0. -1.
          2   -1    0    0  502    0 -0.00000000000E+00 -0.00000000000E+00 -0.96086583397E+00  0.96086583397E+00  0.00000000000E+00 0. -1.
          2    1    1    2  501    0 -0.21467129100E+02 -0.18570249702E+01  0.14711168284E+03  0.14868131490E+03  0.00000000000E+00 0. -1.
          2    1    1    2  502    0  0.21467129100E+02  0.18570249702E+01  0.65913479319E+03  0.65948689280E+03  0.00000000000E+00 0. -1.
</event>
<event>
 4    1  0.6688462E+003  0.2505932E+02  0.7546771E-02  0.1468141E+00
          2   -1    0    0  502    0  0.00000000000E+00  0.00000000000E+00  0.10133504619E+04  0.10133504619E+04  0.00000000000E+00 0.  1.
          2   -1    0    0  501    0 -0.00000000000E+00 -0.00000000000E+00 -0.43557875671E+01  0.43557875671E+01  0.00000000000E+00 0. -1.
          2    1    1    2  501    0  0.17203591901E+02  0.18221026067E+02  0.97576522536E+03  0.97608695535E+03  0.00000000000E+00 0.  1.
          2    1    1    2  502    0 -0.17203591901E+02 -0.18221026067E+02  0.33229449018E+02  0.41619294171E+02  0.00000000000E+00 0. -1.
</event>
<event>
 4    1  0.6688462E+003  0.3548721E+02  0.7546771E-02  0.1377170E+00
          2   -1    0    0  502    0  0.00000000000E+00  0.00000000000E+00  0.57626478376E+02  0.57626478376E+02  0.00000000000E+00 0.  1.
          2   -1    0    0  501    0 -0.00000000000E+00 -0.00000000000E+00 -0.52939951041E+02  0.52939951041E+02  0.00000000000E+00 0. -1.
          2    1    1    2  501    0 -0.39636024898E+01  0.35265165954E+02  0.44706279674E+02  0.57078835979E+02  0.00000000000E+00 0.  1.
          2    1    1    2  502    0  0.39636024898E+01 -0.35265165954E+02 -0.40019752340E+02  0.53487593438E+02  0.00000000000E+00 0. -1.
</event>
<event>
 4    1  0.6688462E+003  0.2509929E+02  0.7546771E-02  0.1467696E+00
          2   -1    0    0  502    0  0.00000000000E+00  0.00000000000E+00  0.28614128406E+04  0.28614128406E+04  0.00000000000E+00 0.  1.
          2   -1    0    0  501    0 -0.00000000000E+00 -0.00000000000E+00 -0.23993607865E+00  0.23993607865E+00  0.00000000000E+00 0.  1.
          2    1    1    2  501    0 -0.64169590528E+01 -0.24265135459E+02  0.18413464124E+04  0.18415174679E+04  0.00000000000E+00 0.  1.
          2    1    1    2  502    0  0.64169590528E+01  0.24265135459E+02  0.10198264922E+04  0.10201353088E+04  0.00000000000E+00 0.  1.
</event>
<event>
 4    1  0.6688462E+003  0.5818276E+02  0.7546771E-02  0.1266135E+00
          2   -1    0    0  501    0  0.00000000000E+00  0.00000000000E+00  0.89808869523E+03  0.89808869523E+03  0.00000000000E+00 0.  1.
          2   -1    0    0  502    0 -0.00000000000E+00 -0.00000000000E+00 -0.10016559842E+04  0.10016559842E+04  0.00000000000E+00 0. -1.
          2    1    1    2  501    0  0.50595243927E+02  0.28728984669E+02 -0.99986704669E+03  0.10015584578E+04  0.00000000000E+00 0. -1.
          2    1    1    2  502    0 -0.50595243927E+02 -0.28728984669E+02  0.89629975768E+03  0.89818622172E+03  0.00000000000E+00 0.  1.
</event>
<event>
 4    1  0.6688462E+003  0.2501571E+02  0.7546771E-02  0.1468628E+00
          2   -1    0    0  502    0  0.00000000000E+00  0.00000000000E+00  0.27936003943E+02  0.27936003943E+02  0.00000000000E+00 0. -1.
          2   -1    0    0  501    0 -0.00000000000E+00 -0.00000000000E+00 -0.98668457891E+02  0.98668457891E+02  0.00000000000E+00 0. -1.
          2    1    1    2  501    0  0.16797534439E+02  0.18537224769E+02  0.20288281729E+02  0.32208698218E+02  0.00000000000E+00 0. -1.
          2    1    1    2  502    0 -0.16797534439E+02 -0.18537224769E+02 -0.91020735677E+02  0.94395763616E+02  0.00000000000E+00 0. -1.
</event>
<event>
 4    1  0.6688462E+003  0.2383582E+02  0.7546771E-02  0.1482261E+00
          2   -1    0    0  502    0  0.00000000000E+00  0.00000000000E+00  0.43379690899E+02  0.43379690899E+02  0.00000000000E+00 0. -1.
          2   -1    0    0  501    0 -0.00000000000E+00 -0.00000000000E+00 -0.19470637711E+03  0.19470637711E+03  0.00000000000E+00 0.  1.
          2    1    1    2  501    0  0.13654995917E+02  0.19536823060E+02  0.39306241709E+02  0.45968761198E+02  0.00000000000E+00 0. -1.
          2    1    1    2  502    0 -0.13654995917E+02 -0.19536823060E+02 -0.19063292792E+03  0.19211730681E+03  0.00000000000E+00 0.  1.
</event>
<event>
 4    1  0.6688462E+003  0.2609738E+02  0.7546771E-02  0.1456892E+00
          2   -1    0    0  501    0  0.00000000000E+00  0.00000000000E+00  0.16254418678E+03  0.16254418678E+03  0.00000000000E+00 0.  1.
          2   -1    0    0  502    0 -0.00000000000E+00 -0.00000000000E+00 -0.45644947168E+01  0.45644947168E+01  0.00000000000E+00 0.  1.
          2    1    1    2  501    0  0.71696317579E+01 -0.25093218023E+02  0.55059504922E+02  0.60931291571E+02  0.00000000000E+00 0.  1.
          2    1    1    2  502    0 -0.71696317579E+01  0.25093218023E+02  0.10292018714E+03  0.10617738993E+03  0.00000000000E+00 0.  1.
</event>
<event>
 4    1  0.6688462E+003  0.2477209E+02  0.7546771E-02  0.1471369E+00
          2   -1    0    0  501    0  0.00000000000E+00  0.00000000000E+00  0.19732212966E+03  0.19732212966E+03  0.00000000000E+00 0. -1.
          2   -1    0    0  502    0 -0.00000000000E+00 -0.00000000000E+00 -0.27668166400E+02  0.27668166400E+02  0.00000000000E+00 0.  1.
          2    1    1    2  501    0  0.17263412583E+02  0.17766008254E+02 -0.21157494920E+02  0.32577539112E+02  0.00000000000E+00 0.  1.
          2    1    1    2  502    0 -0.17263412583E+02 -0.17766008254E+02  0.19081145818E+03  0.19241275694E+03  0.00000000000E+00 0. -1.
</event>
<event>
 4    1  0.6688462E+003  0.2283611E+02  0.7546771E-02  0.1494566E+00
          2   -1    0    0  502    0  0.00000000000E+00  0.00000000000E+00  0.21497864878E+02  0.21497864878E+02  0.00000000000E+00 0.  1.
          2   -1    0    0  501    0 -0.00000000000E+00 -0.00000000000E+00 -0.12362707260E+04  0.12362707260E+04  0.00000000000E+00 0. -1.
          2    1    1    2  501    0 -0.76896116457E+01 -0.21502508815E+02  0.15297426279E+02  0.27486346854E+02  0.00000000000E+00 0.  1.
          2    1    1    2  502    0  0.76896116457E+01  0.21502508815E+02 -0.12300702874E+04  0.12302822440E+04  0.00000000000E+00 0. -1.
</event>
<event>
 4    1  0.6688462E+003  0.2286336E+02  0.7546771E-02  0.1494221E+00
          2   -1    0    0  501    0  0.00000000000E+00  0.00000000000E+00  0.11866571513E+02  0.11866571513E+02  0.00000000000E+00 0. -1.
          2   -1    0    0  502    0 -0.00000000000E+00 -0.00000000000E+00 -0.10691436628E+04  0.10691436628E+04  0.00000000000E+00 0. -1.
          2    1    1    2  501    0  0.15949737077E+02 -0.16381053525E+02 -0.10578915876E+04  0.10581386224E+04  0.00000000000E+00 0. -1.
          2    1    1    2  502    0 -0.15949737077E+02  0.16381053525E+02  0.61449631214E+00  0.22871611949E+02  0.00000000000E+00 0. -1.
</event>
<event>
 4    1  0.6688462E+003  0.2517994E+02  0.7546771E-02  0.1466800E+00
          2   -1    0    0  502    0  0.00000000000E+00  0.00000000000E+00  0.11505038029E+02  0.11505038029E+02  0.00000000000E+00 0. -1.
          2   -1    0    0  501    0 -0.00000000000E+00 -0.00000000000E+00 -0.14387661730E+04  0.14387661730E+04  0.00000000000E+00 0. -1.
          2    1    1    2  501    0  0.16742758466E+02  0.18807160551E+02 -0.25179307344E+01  0.25305517664E+02  0.00000000000E+00 0. -1.
          2    1    1    2  502    0 -0.16742758466E+02 -0.18807160551E+02 -0.14247432042E+04  0.14249656934E+04  0.00000000000E+00 0. -1.
</event>
<event>
 4    1  0.6688462E+003  0.2255197E+02  0.7546771E-02  0.1498202E+00
          2   -1    0    0  501    0  0.00000000000E+00  0.00000000000E+00  0.23447710454E+02  0.23447710454E+02  0.00000000000E+00 0. -1.
          2   -1    0    0  502    0 -0.00000000000E+00 -0.00000000000E+00 -0.80687002702E+02  0.80687002702E+02  0.00000000000E+00 0.  1.
          2    1    1    2  501    0 -0.12724503378E+02  0.18619301840E+02 -0.73141891247E+02  0.76539712845E+02  0.00000000000E+00 0.  1.
          2    1    1    2  502    0  0.12724503378E+02 -0.18619301840E+02  0.15902598999E+02  0.27595000311E+02  0.00000000000E+00 0. -1.
</event>
<event>
 4    1  0.6688462E+003  0.3493023E+02  0.7546771E-02  0.1381054E+00
          2   -1    0    0  502    0  0.00000000000E+00  0.00000000000E+00  0.21918208769E+02  0.21918208769E+02  0.00000000000E+00 0.  1.
          2   -1    0    0  501    0 -0.00000000000E+00 -0.00000000000E+00 -0.38847336390E+03  0.38847336390E+03  0.00000000000E+00 0. -1.
          2    1    1    2  501    0 -0.50610977920E+00 -0.34926568061E+02  0.66480696962E+01  0.35557251501E+02  0.00000000000E+00 0.  1.
          2    1    1    2  502    0  0.50610977920E+00  0.34926568061E+02 -0.37320322483E+03  0.37483432117E+03  0.00000000000E+00 0. -1.
</event>
<event>
 4    1  0.6688462E+003  0.3081466E+02  0.7546771E-02  0.1412646E+00
          2   -1    0    0  501    0  0.00000000000E+00  0.00000000000E+00  0.22469705032E+03  0.22469705032E+03  0.00000000000E+00 0. -1.
          2   -1    0    0  502    0 -0.00000000000E+00 -0.00000000000E+00 -0.71747813644E+01  0.71747813644E+01  0.00000000000E+00 0.  1.
          2    1    1    2  501    0 -0.14576494391E+02  0.27149014981E+02  0.34434641258E+02  0.46209173567E+02  0.00000000000E+00 0.  1.
          2    1    1    2  502    0  0.14576494391E+02 -0.27149014981E+02  0.18308762770E+03  0.18566265811E+03  0.00000000000E+00 0. -1.
</event>
<event>
 4    1  0.1179866E+004  0.2373766E+02  0.7546771E-02  0.1483437E+00
          2   -1    0    0  502    0  0.00000000000E+00  0.00000000000E+00  0.96804160636E+03  0.96804160636E+03  0.00000000000E+00 0. -1.
          2   -1    0    0  501    0 -0.00000000000E+00 -0.00000000000E+00 -0.49267089816E+03  0.49267089816E+03  0.00000000000E+00 0. -1.
          2    1    1    2  501    0 -0.23713579328E+02 -0.10690384016E+01  0.96761002954E+03  0.96790115505E+03  0.00000000000E+00 0. -1.
          2    1    1    2  502    0  0.23713579328E+02  0.10690384016E+01 -0.49223932134E+03  0.49281134946E+03  0.00000000000E+00 0. -1.
</event>
<event>
 4    1  0.6688462E+003  0.4515318E+02  0.7546771E-02  0.1320675E+00
          2   -1    0    0  501    0  0.00000000000E+00  0.00000000000E+00  0.25738094735E+01  0.25738094735E+01  0.00000000000E+00 0. -1.
          2   -1    0    0  502    0 -0.00000000000E+00 -0.00000000000E+00 -0.11831021621E+04  0.11831021621E+04  0.00000000000E+00 0. -1.
          2    1    1    2  501    0  0.22306211452E+02 -0.39258666353E+02 -0.93105969690E+03  0.93215394069E+03  0.00000000000E+00 0. -1.
          2    1    1    2  502    0 -0.22306211452E+02  0.39258666353E+02 -0.24946865574E+03  0.25352203089E+03  0.00000000000E+00 0. -1.
</event>
<event>
 4    1  0.6688462E+003  0.4112014E+02  0.7546771E-02  0.1342044E+00
          2   -1    0    0  502    0  0.00000000000E+00  0.00000000000E+00  0.15991757825E+02  0.15991757825E+02  0.00000000000E+00 0.  1.
          2   -1    0    0  501    0 -0.00000000000E+00 -0.00000000000E+00 -0.77766816880E+03  0.77766816880E+03  0.00000000000E+00 0.  1.
          2    1    1    2  501    0  0.93847525374E+01 -0.40034884078E+02 -0.11970359318E+02  0.42827036152E+02  0.00000000000E+00 0.  1.
          2    1    1    2  502    0 -0.93847525374E+01  0.40034884078E+02 -0.74970605165E+03  0.75083289047E+03  0.00000000000E+00 0.  1.
</event>
<event>
 4    1  0.6688462E+003  0.2544605E+02  0.7546771E-02  0.1463875E+00
          2   -1    0    0  502    0  0.00000000000E+00  0.00000000000E+00  0.12153240194E+03  0.12153240194E+03  0.00000000000E+00 0. -1.
          2   -1    0    0  501    0 -0.00000000000E+00 -0.00000000000E+00 -0.11613611230E+02  0.11613611230E+02  0.00000000000E+00 0.  1.
          2    1    1    2  501    0 -0.24188159958E+02  0.79015426533E+01  0.10393669943E+03  0.10700625658E+03  0.00000000000E+00 0. -1.
          2    1    1    2  502    0  0.24188159958E+02 -0.79015426533E+01  0.59820912761E+01  0.26139756588E+02  0.00000000000E+00 0.  1.
</event>
<event>
 4    1  0.6688462E+003  0.2023606E+02  0.7546771E-02  0.1530457E+00
          2   -1    0    0  501    0  0.00000000000E+00  0.00000000000E+00  0.12957771418E+03  0.12957771418E+03  0.00000000000E+00 0.  1.
          2   -1    0    0  502    0 -0.00000000000E+00 -0.00000000000E+00 -0.22799348797E+02  0.22799348797E+02  0.00000000000E+00 0. -1.
          2    1    1    2  501    0  0.20082027953E+02 -0.24920826736E+01 -0.17322167328E+02  0.26637488689E+02  0.00000000000E+00 0. -1.
          2    1    1    2  502    0 -0.20082027953E+02  0.24920826736E+01  0.12410053271E+03  0.12573957429E+03  0.00000000000E+00 0.  1.
</event>
<event>
 4    1  0.6688462E+003  0.2459668E+02  0.7546771E-02  0.1473366E+00
          2   -1    0    0  501    0  0.00000000000E+00  0.00000000000E+00  0.48262264473E+03  0.48262264473E+03  0.00000000000E+00 0. -1.
          2   -1    0    0  502    0 -0.00000000000E+00 -0.00000000000E+00 -0.50198718207E+01  0.50198718207E+01  0.00000000000E+00 0. -1.
          2    1    1    2  501    0 -0.23379144821E+02  0.76427972114E+01  0.27606522316E+02  0.36974543083E+02  0.00000000000E+00 0. -1.
          2    1    1    2  502    0  0.23379144821E+02 -0.76427972114E+01  0.44999625059E+03  0.45066797347E+03  0.00000000000E+00 0. -1.
</event>
<event>
 4    1  0.6688462E+003  0.2335420E+02  0.7546771E-02  0.1488098E+00
          2   -1    0    0  501    0  0.00000000000E+00  0.00000000000E+00  0.10075575498E+03  0.10075575498E+03  0.00000000000E+00 0.  1.
          2   -1    0    0  502    0 -0.00000000000E+00 -0.00000000000E+00 -0.16936206768E+02  0.16936206768E+02  0.00000000000E+00 0.  1.
          2    1    1    2  501    0  0.17960879248E+01 -0.23285030098E+02 -0.66291602441E+01  0.24276826894E+02  0.00000000000E+00 0.  1.
          2    1    1    2  502    0 -0.17960879248E+01  0.23285030098E+02  0.90448708460E+02  0.93415134858E+02  0.00000000000E+00 0.  1.
</event>
<event>
 4    1  0.6688462E+003  0.2120922E+02  0.7546771E-02  0.1516299E+00
          2   -1    0    0  502    0  0.00000000000E+00  0.00000000000E+00  0.39395824937E+00  0.39395824937E+00  0.00000000000E+00 0. -1.
          2   -1    0    0  501    0 -0.00000000000E+00 -0.00000000000E+00 -0.11878143452E+04  0.11878143452E+04  0.00000000000E+00 0. -1.
          2    1    1    2  501    0  0.45745445477E+01  0.20710014976E+02 -0.71061148629E+03  0.71092792576E+03  0.00000000000E+00 0. -1.
          2    1    1    2  502    0 -0.45745445477E+01 -0.20710014976E+02 -0.47680890064E+03  0.47728037766E+03  0.00000000000E+00 0. -1.
</event>
<event>
 4    1  0.6688462E+003  0.3715627E+02  0.7546771E-02  0.1366007E+00
          2   -1    0    0  501    0  0.00000000000E+00  0.00000000000E+00  0.21344034662E+04  0.21344034662E+04  0.00000000000E+00 0. -1.
          2   -1    0    0  502    0 -0.00000000000E+00 -0.00000000000E+00 -0.14170738539E+02  0.14170738539E+02  0.00000000000E+00 0. -1.
          2    1    1    2  501    0 -0.28226057659E+02  0.24163567124E+02  0.10633646648E+02  0.38647933297E+02  0.00000000000E+00 0. -1.
          2    1    1    2  502    0  0.28226057659E+02 -0.24163567124E+02  0.21095990810E+04  0.21099262714E+04  0.00000000000E+00 0. -1.
</event>
<event>
 4    1  0.6688462E+003  0.6529901E+02  0.7546771E-02  0.1242819E+00
          2   -1    0    0  501    0  0.00000000000E+00  0.00000000000E+00  0.15117954775E+01  0.15117954775E+01  0.00000000000E+00 0.  1.
          2   -1    0    0  502    0 -0.00000000000E+00 -0.00000000000E+00 -0.29345666309E+04  0.29345666309E+04  0.00000000000E+00 0.  1.
          2    1    1    2  501    0  0.12352274098E+01  0.65287321819E+02 -0.11770469829E+04  0.11788568871E+04  0.00000000000E+00 0.  1.
          2    1    1    2  502    0 -0.12352274098E+01 -0.65287321819E+02 -0.17560078526E+04  0.17572215394E+04  0.00000000000E+00 0.  1.
</event>
<event>
 4    1  0.6688462E+003  0.2018804E+02  0.7546771E-02  0.1531180E+00
          2   -1    0    0  502    0  0.00000000000E+00  0.00000000000E+00  0.98133148239E+03  0.98133148239E+03  0.00000000000E+00 0.  1.
          2   -1    0    0  501    0 -0.00000000000E+00 -0.00000000000E+00 -0.35227429993E+02  0.35227429993E+02  0.00000000000E+00 0.  1.
          2    1    1    2  501    0  0.20119988345E+02 -0.16562044276E+01  0.97832644500E+03  0.97853471575E+03  0.00000000000E+00 0.  1.
          2    1    1    2  502    0 -0.20119988345E+02  0.16562044276E+01 -0.32222392605E+02  0.38024196629E+02  0.00000000000E+00 0.  1.
</event>
<event>
 4    1  0.6688462E+003  0.2461045E+02  0.7546771E-02  0.1473209E+00
          2   -1    0    0  501    0  0.00000000000E+00  0.00000000000E+00  0.60174469783E+00  0.60174469783E+00  0.00000000000E+00 0. -1.
          2   -1    0    0  502    0 -0.00000000000E+00 -0.00000000000E+00 -0.11633569075E+04  0.11633569075E+04  0.00000000000E+00 0. -1.
          2    1    1    2  501    0 -0.22929024776E+02  0.89405779003E+01 -0.79505632175E+03  0.79543713069E+03  0.00000000000E+00 0. -1.
          2    1    1    2  502    0  0.22929024776E+02 -0.89405779003E+01 -0.36769884101E+03  0.36852152148E+03  0.00000000000E+00 0. -1.
</event>
<event>
 4    1  0.6688462E+003  0.3106373E+02  0.7546771E-02  0.1410572E+00
          2   -1    0    0  502    0  0.00000000000E+00  0.00000000000E+00  0.50423996499E+02  0.50423996499E+02  0.00000000000E+00 0.  1.
          2   -1    0    0  501    0 -0.00000000000E+00 -0.00000000000E+00 -0.16680622206E+04  0.16680622206E+04  0.00000000000E+00 0. -1.
          2    1    1    2  501    0  0.27291908004E+02  0.14836004847E+02  0.45480949469E+02  0.55076964758E+02  0.00000000000E+00 0.  1.
          2    1    1    2  502    0 -0.27291908004E+02 -0.14836004847E+02 -0.16631191735E+04  0.16634092523E+04  0.00000000000E+00 0. -1.
</event>
<event>
 4    1  0.6688462E+003  0.2331355E+02  0.7546771E-02  0.1488598E+00
          2   -1    0    0  502    0  0.00000000000E+00  0.00000000000E+00  0.11530746240E+04  0.11530746240E+04  0.00000000000E+00 0.  1.
          2   -1    0    0  501    0 -0.00000000000E+00 -0.00000000000E+00 -0.25902671924E+02  0.25902671924E+02  0.00000000000E+00 0.  1.
          2    1    1    2  501    0  0.23029411681E+02 -0.36287401724E+01  0.11476863503E+04  0.11479231160E+04  0.00000000000E+00 0.  1.
          2    1    1    2  502    0 -0.23029411681E+02  0.36287401724E+01 -0.20514398217E+02  0.31054179941E+02  0.00000000000E+00 0.  1.
</event>
<event>
 4    1  0.6688462E+003  0.2248656E+02  0.7546771E-02  0.1499048E+00
          2   -1    0    0  501    0  0.00000000000E+00  0.00000000000E+00  0.83948563566E+03  0.83948563566E+03  0.00000000000E+00 0. -1.
          2   -1    0    0  502    0 -0.00000000000E+00 -0.00000000000E+00 -0.80472041738E+00  0.80472041738E+00  0.00000000000E+00 0.  1.
          2    1    1    2  501    0  0.17948209020E+02 -0.13546489216E+02  0.20863579102E+03  0.20984408229E+03  0.00000000000E+00 0.  1.
          2    1    1    2  502    0 -0.17948209020E+02  0.13546489216E+02  0.63004512422E+03  0.63044627379E+03  0.00000000000E+00 0. -1.
</event>
<event>
 4    1  0.6688462E+003  0.2983860E+02  0.7546771E-02  0.1421004E+00
          2   -1    0    0  502    0  0.00000000000E+00  0.00000000000E+00  0.22457623507E+03  0.22457623507E+03  0.00000000000E+00 0. -1.
          2   -1    0    0  501    0 -0.00000000000E+00 -0.00000000000E+00 -0.27386728261E+02  0.27386728261E+02  0.00000000000E+00 0.  1.
          2    1    1    2  501    0  0.21330552276E+02 -0.20865039180E+02  0.21510130122E+03  0.21716102806E+03  0.00000000000E+00 0. -1.
          2    1    1    2  502    0 -0.21330552276E+02  0.20865039180E+02 -0.17911794405E+02  0.34801935280E+02  0.00000000000E+00 0.  1.
</event>
<event>
 4    1  0.6688462E+003  0.3164554E+02  0.7546771E-02  0.1405816E+00
          2   -1    0    0  501    0  0.00000000000E+00  0.00000000000E+00  0.94682534458E+01  0.94682534458E+01  0.00000000000E+00 0. -1.
          2   -1    0    0  502    0 -0.00000000000E+00 -0.00000000000E+00 -0.28037024613E+03  0.28037024613E+03  0.00000000000E+00 0.  1.
          2    1    1    2  501    0 -0.16086743935E+02 -0.27251734450E+02 -0.24981378822E+03  0.25181018475E+03  0.00000000000E+00 0.  1.
          2    1    1    2  502    0  0.16086743935E+02  0.27251734450E+02 -0.21088204473E+02  0.38028314830E+02  0.00000000000E+00 0. -1.
</event>
<event>
 4    1  0.6688462E+003  0.3616256E+02  0.7546771E-02  0.1372569E+00
          2   -1    0    0  502    0  0.00000000000E+00  0.00000000000E+00  0.13732420473E+04  0.13732420473E+04  0.00000000000E+00 0. -1.
          2   -1    0    0  501    0 -0.00000000000E+00 -0.00000000000E+00 -0.62971180183E+02  0.62971180183E+02  0.00000000000E+00 0. -1.
          2    1    1    2  501    0  0.26029535589E-01 -0.36162550272E+02  0.13677915058E+04  0.13682694669E+04  0.00000000000E+00 0. -1.
          2    1    1    2  502    0 -0.26029535589E-01  0.36162550272E+02 -0.57520638714E+02  0.67943760550E+02  0.00000000000E+00 0. -1.
</event>
<event>
 4    1  0.6688462E+003  0.4622173E+02  0.7546771E-02  0.1315441E+00
          2   -1    0    0  501    0  0.00000000000E+00  0.00000000000E+00  0.11702003433E+04  0.11702003433E+04  0.00000000000E+00 0. -1.
          2   -1    0    0  502    0 -0.00000000000E+00 -0.00000000000E+00 -0.57667332397E+01  0.57667332397E+01  0.00000000000E+00 0.  1.
          2    1    1    2  501    0  0.20276457055E+02  0.41536889268E+02  0.96140257252E+02  0.10667425624E+03  0.00000000000E+00 0.  1.
          2    1    1    2  502    0 -0.20276457055E+02 -0.41536889268E+02  0.10682933528E+04  0.10692928203E+04  0.00000000000E+00 0. -1.
</event>
<event>
 4    1  0.6688462E+003  0.2121720E+02  0.7546771E-02  0.1516186E+00
          2   -1    0    0  502    0  0.00000000000E+00  0.00000000000E+00  0.46847555134E+00  0.46847555134E+00  0.00000000000E+00 0. -1.
          2   -1    0    0  501    0 -0.00000000000E+00 -0.00000000000E+00 -0.13439214848E+04  0.13439214848E+04  0.00000000000E+00 0.  1.
          2    1    1    2  501    0  0.11240761474E+02 -0.17994859720E+02 -0.31288231267E+03  0.31360087895E+03  0.00000000000E+00 0. -1.
          2    1    1    2  502    0 -0.11240761474E+02  0.17994859720E+02 -0.10305706966E+04  0.10307890814E+04  0.00000000000E+00 0.  1.
</event>
<event>
 4    1  0.6688462E+003  0.3385134E+02  0.7546771E-02  0.1388823E+00
          2   -1    0    0  502    0  0.00000000000E+00  0.00000000000E+00  0.19301881877E+04  0.19301881877E+04  0.00000000000E+00 0.  1.
          2   -1    0    0  501    0 -0.00000000000E+00 -0.00000000000E+00 -0.20148421015E+03  0.20148421015E+03  0.00000000000E+00 0.  1.
          2    1    1    2  501    0 -0.31834932601E+02  0.11508709835E+02  0.19286167693E+04  0.19289138281E+04  0.00000000000E+00 0.  1.
          2    1    1    2  502    0  0.31834932601E+02 -0.11508709835E+02 -0.19991279172E+03  0.20275856980E+03  0.00000000000E+00 0.  1.
</event>
<event>
 4    1  0.6688462E+003  0.2758325E+02  0.7546771E-02  0.1441836E+00
          2   -1    0    0  501    0  0.00000000000E+00  0.00000000000E+00  0.11680081098E+03  0.11680081098E+03  0.00000000000E+00 0.  1.
          2   -1    0    0  502    0 -0.00000000000E+00 -0.00000000000E+00 -0.13899378462E+02  0.13899378462E+02  0.00000000000E+00 0.  1.
          2    1    1    2  501    0 -0.20440775922E+02 -0.18520543138E+02  0.38146294401E+01  0.27845775913E+02  0.00000000000E+00 0.  1.
          2    1    1    2  502    0  0.20440775922E+02  0.18520543138E+02  0.99086803078E+02  0.10285441353E+03  0.00000000000E+00 0.  1.
</event>
<event>
 4    1  0.6688462E+003  0.2559735E+02  0.7546771E-02  0.1462231E+00
          2   -1    0    0  502    0  0.00000000000E+00  0.00000000000E+00  0.17761601186E+03  0.17761601186E+03  0.00000000000E+00 0. -1.
          2   -1    0    0  501    0 -0.00000000000E+00 -0.00000000000E+00 -0.74198936411E+01  0.74198936411E+01  0.00000000000E+00 0.  1.
          2    1    1    2  501    0  0.23884323693E+02  0.92067004165E+01  0.15070261609E+03  0.15286105700E+03  0.00000000000E+00 0. -1.
          2    1    1    2  502    0 -0.23884323693E+02 -0.92067004165E+01  0.19493502130E+02  0.32174848502E+02  0.00000000000E+00 0.  1.
</event>
<event>
 4    1  0.6688462E+003  0.2954926E+02  0.7546771E-02  0.1423554E+00
          2   -1    0    0  501    0  0.00000000000E+00  0.00000000000E+00  0.27770739989E+03  0.27770739989E+03  0.00000000000E+00 0. -1.
          2   -1    0    0  502    0 -0.00000000000E+00 -0.00000000000E+00 -0.76897998139E+02  0.76897998139E+02  0.00000000000E+00 0. -1.
          2    1    1    2  501    0 -0.29548823666E+02  0.16020646769E+00 -0.73235436144E+02  0.78972069451E+02  0.00000000000E+00 0. -1.
          2    1    1    2  502    0  0.29548823666E+02 -0.16020646769E+00  0.27404483789E+03  0.27563332858E+03  0.00000000000E+00 0. -1.
</event>
<event>
 4    1  0.6688462E+003  0.3058059E+02  0.7546771E-02  0.1414617E+00
          2   -1    0    0  502    0  0.00000000000E+00  0.00000000000E+00  0.14982173728E+01  0.14982173728E+01  0.00000000000E+00 0. -1.
          2   -1    0    0  501    0 -0.00000000000E+00 -0.00000000000E+00 -0.94557468110E+03  0.94557468110E+03  0.00000000000E+00 0. -1.
          2    1    1    2  501    0  0.30546693475E+02  0.14394477999E+01 -0.19596900686E+03  0.19834067697E+03  0.00000000000E+00 0. -1.
          2    1    1    2  502    0 -0.30546693475E+02 -0.14394477999E+01 -0.74810745687E+03  0.74873222150E+03  0.00000000000E+00 0. -1.
</event>
<event>
 4    1  0.1098740E+004  0.2122778E+02  0.7546771E-02  0.1516038E+00
          2   -1    0    0  501    0  0.00000000000E+00  0.00000000000E+00  0.12251753912E+04  0.12251753912E+04  0.00000000000E+00 0. -1.
          2   -1    0    0  502    0 -0.00000000000E+00 -0.00000000000E+00 -0.53778954224E+03  0.53778954224E+03  0.00000000000E+00 0. -1.
          2    1    1    2  501    0 -0.20708168260E+02 -0.46680022989E+01 -0.53748806375E+03  0.53790708970E+03  0.00000000000E+00 0. -1.
          2    1    1    2  502    0  0.20708168260E+02  0.46680022989E+01  0.12248739127E+04  0.12250578438E+04  0.00000000000E+00 0. -1.
</event>
<event>
 4    1  0.6688462E+003  0.2312584E+02  0.7546771E-02  0.1490924E+00
          2   -1    0    0  501    0  0.00000000000E+00  0.00000000000E+00  0.16052105964E+02  0.16052105964E+02  0.00000000000E+00 0. -1.
          2   -1    0    0  502    0 -0.00000000000E+00 -0.00000000000E+00 -0.53905447782E+02  0.53905447782E+02  0.00000000000E+00 0. -1.
          2    1    1    2  501    0  0.56599843443E+01  0.22422507222E+02  0.26906845715E+01  0.23281839196E+02  0.00000000000E+00 0. -1.
          2    1    1    2  502    0 -0.56599843443E+01 -0.22422507222E+02 -0.40544026390E+02  0.46675714550E+02  0.00000000000E+00 0. -1.
</event>
<event>
 4    1  0.6688462E+003  0.2511464E+02  0.7546771E-02  0.1467525E+00
          2   -1    0    0  502    0  0.00000000000E+00  0.00000000000E+00  0.11880331756E+03  0.11880331756E+03  0.00000000000E+00 0.  1.
          2   -1    0    0  501    0 -0.00000000000E+00 -0.00000000000E+00 -0.66404234062E+01  0.66404234062E+01  0.00000000000E+00 0.  1.
          2    1    1    2  501    0 -0.18476748244E+02 -0.17010440508E+02  0.84165113904E+02  0.87832293095E+02  0.00000000000E+00 0.  1.
          2    1    1    2  502    0  0.18476748244E+02  0.17010440508E+02  0.27997780245E+02  0.37611447866E+02  0.00000000000E+00 0.  1.
</event>
<event>
 4    1  0.6688462E+003  0.3508273E+02  0.7546771E-02  0.1379983E+00
          2   -1    0    0  501    0  0.00000000000E+00  0.00000000000E+00  0.37399533521E+01  0.37399533521E+01  0.00000000000E+00 0.  1.
          2   -1    0    0  502    0 -0.00000000000E+00 -0.00000000000E+00 -0.67275610236E+03  0.67275610236E+03  0.00000000000E+00 0. -1.
          2    1    1    2  501    0 -0.17228980774E+02 -0.30560757499E+02 -0.57626115869E+03  0.57732808757E+03  0.00000000000E+00 0. -1.
          2    1    1    2  502    0  0.17228980774E+02  0.30560757499E+02 -0.92754990319E+02  0.99167968147E+02  0.00000000000E+00 0.  1.
</event>
<event>
 4    1  0.6688462E+003  0.2195330E+02  0.7546771E-02  0.1506077E+00
          2   -1    0    0  502    0  0.00000000000E+00  0.00000000000E+00  0.19365031710E+03  0.19365031710E+03  0.00000000000E+00 0. -1.
          2   -1    0    0  501    0 -0.00000000000E+00 -0.00000000000E+00 -0.11993208950E+03  0.11993208950E+03  0.00000000000E+00 0. -1.
          2    1    1    2  501    0 -0.16290183722E+02  0.14716563278E+02  0.19201497567E+03  0.19326587438E+03  0.00000000000E+00 0. -1.
          2    1    1    2  502    0  0.16290183722E+02 -0.14716563278E+02 -0.11829674807E+03  0.12031653221E+03  0.00000000000E+00 0. -1.
</event>
<event>
 4    1  0.6688462E+003  0.2382523E+02  0.7546771E-02  0.1482388E+00
          2   -1    0    0  502    0  0.00000000000E+00  0.00000000000E+00  0.38610998425E+00  0.38610998425E+00  0.00000000000E+00 0. -1.
          2   -1    0    0  501    0 -0.00000000000E+00 -0.00000000000E+00 -0.16568297436E+04  0.16568297436E+04  0.00000000000E+00 0. -1.
          2    1    1    2  501    0  0.84118453933E+01 -0.22290862679E+02 -0.55008890156E+03  0.55060461433E+03  0.00000000000E+00 0. -1.
          2    1    1    2  502    0 -0.84118453933E+01  0.22290862679E+02 -0.11063547320E+04  0.11066112392E+04  0.00000000000E+00 0. -1.
</event>
<event>
 4    1  0.6688462E+003  0.6367413E+02  0.7546771E-02  0.1247835E+00
          2   -1    0    0  502    0  0.00000000000E+00  0.00000000000E+00  0.94013482222E+03  0.94013482222E+03  0.00000000000E+00 0. -1.
          2   -1    0    0  501    0 -0.00000000000E+00 -0.00000000000E+00 -0.20794823118E+03  0.20794823118E+03  0.00000000000E+00 0. -1.
          2    1    1    2  501    0  0.63669431241E+02  0.77364337300E+00  0.93415121070E+03  0.93631879157E+03  0.00000000000E+00 0. -1.
          2    1    1    2  502    0 -0.63669431241E+02 -0.77364337300E+00 -0.20196461965E+03  0.21176426183E+03  0.00000000000E+00 0. -1.
</event>
<event>
 4    1  0.6688462E+003  0.2780646E+02  0.7546771E-02  0.1439671E+00
          2   -1    0    0  501    0  0.00000000000E+00  0.00000000000E+00  0.59177854281E+02  0.59177854281E+02  0.00000000000E+00 0.  1.
          2   -1    0    0  502    0 -0.00000000000E+00 -0.00000000000E+00 -0.51925220316E+02  0.51925220316E+02  0.00000000000E+00 0. -1.
          2    1    1    2  501    0 -0.13496462736E+02 -0.24311410450E+02 -0.44430578451E+02  0.52414458749E+02  0.00000000000E+00 0. -1.
          2    1    1    2  502    0  0.13496462736E+02  0.24311410450E+02  0.51683212416E+02  0.58688615848E+02  0.00000000000E+00 0.  1.
</event>
<event>
 4    1  0.6688462E+003  0.2151734E+02  0.7546771E-02  0.1512005E+00
          2   -1    0    0  502    0  0.00000000000E+00  0.00000000000E+00  0.11679669581E+03  0.11679669581E+03  0.00000000000E+00 0.  1.
          2   -1    0    0  501    0 -0.00000000000E+00 -0.00000000000E+00 -0.10752760805E+03  0.10752760805E+03  0.00000000000E+00 0.  1.
          2    1    1    2  501    0 -0.14427078737E+02  0.15964183206E+02  0.11470979420E+03  0.11671046497E+03  0.00000000000E+00 0.  1.
          2    1    1    2  502    0  0.14427078737E+02 -0.15964183206E+02 -0.10544070644E+03  0.10761383890E+03  0.00000000000E+00 0.  1.
</event>
<event>
 4    1  0.6688462E+003  0.3111975E+02  0.7546771E-02  0.1410109E+00
          2   -1    0    0  502    0  0.00000000000E+00  0.00000000000E+00  0.76471885525E+03  0.76471885525E+03  0.00000000000E+00 0. -1.
          2   -1    0    0  501    0 -0.00000000000E+00 -0.00000000000E+00 -0.11822719081E+03  0.11822719081E+03  0.00000000000E+00 0.  1.
          2    1    1    2  501    0 -0.18932726905E+02  0.24697992484E+02  0.76234805501E+03  0.76298295916E+03  0.00000000000E+00 0. -1.
          2    1    1    2  502    0  0.18932726905E+02 -0.24697992484E+02 -0.11585639058E+03  0.11996308690E+03  0.00000000000E+00 0.  1.
</event>
<event>
 4    1  0.6688462E+003  0.2034781E+02  0.7546771E-02  0.1528784E+00
          2   -1    0    0  502    0  0.00000000000E+00  0.00000000000E+00  0.52860594792E+03  0.52860594792E+03  0.00000000000E+00 0. -1.
          2   -1    0    0  501    0 -0.00000000000E+00 -0.00000000000E+00 -0.14633105492E+02  0.14633105492E+02  0.00000000000E+00 0. -1.
          2    1    1    2  501    0  0.10996232177E+02 -0.17120632256E+02  0.52123659488E+03  0.52163360802E+03  0.00000000000E+00 0. -1.
          2    1    1    2  502    0 -0.10996232177E+02  0.17120632256E+02 -0.72637524532E+01  0.21605445393E+02  0.00000000000E+00 0. -1.
</event>
<event>
 4    1  0.6688462E+003  0.2124025E+02  0.7546771E-02  0.1515862E+00
          2   -1    0    0  502    0  0.00000000000E+00  0.00000000000E+00  0.63006787948E+03  0.63006787948E+03  0.00000000000E+00 0. -1.
          2   -1    0    0  501    0 -0.00000000000E+00 -0.00000000000E+00 -0.55809109820E+02  0.55809109820E+02  0.00000000000E+00 0.  1.
          2    1    1    2  501    0  0.20101748936E+02 -0.68606158863E+01  0.62786082557E+03  0.62821999701E+03  0.00000000000E+00 0. -1.
          2    1    1    2  502    0 -0.20101748936E+02  0.68606158863E+01 -0.53602055916E+02  0.57656992282E+02  0.00000000000E+00 0.  1.
</event>
<event>
 4    1  0.6688462E+003  0.2333675E+02  0.7546771E-02  0.1488312E+00
          2   -1    0    0  502    0  0.00000000000E+00  0.00000000000E+00  0.99639271382E+02  0.99639271382E+02  0.00000000000E+00 0.  1.
          2   -1    0    0  501    0 -0.00000000000E+00 -0.00000000000E+00 -0.16193937353E+02  0.16193937353E+02  0.00000000000E+00 0.  1.
          2    1    1    2  501    0 -0.20347953189E+02  0.11426489097E+02  0.88862705864E+02  0.91875918202E+02  0.00000000000E+00 0.  1.
          2    1    1    2  502    0  0.20347953189E+02 -0.11426489097E+02 -0.54173718350E+01  0.23957290532E+02  0.00000000000E+00 0.  1.
</event>
<event>
 4    1  0.6688462E+003  0.4423557E+02  0.7546771E-02  0.1325306E+00
          2   -1    0    0  501    0  0.00000000000E+00  0.00000000000E+00  0.21256921565E+02  0.21256921565E+02  0.00000000000E+00 0. -1.
          2   -1    0    0  502    0 -0.00000000000E+00 -0.00000000000E+00 -0.48837651473E+03  0.48837651473E+03  0.00000000000E+00 0. -1.
          2    1    1    2  501    0 -0.31877154741E+02  0.30669732390E+02 -0.46310852095E+03  0.46521638799E+03  0.00000000000E+00 0. -1.
          2    1    1    2  502    0  0.31877154741E+02 -0.30669732390E+02 -0.40110722103E+01  0.44417048299E+02  0.00000000000E+00 0. -1.
</event>
<event>
 4    1  0.6688462E+003  0.3284921E+02  0.7546771E-02  0.1396349E+00
          2   -1    0    0  502    0  0.00000000000E+00  0.00000000000E+00  0.18740783494E+03  0.18740783494E+03  0.00000000000E+00 0.  1.
          2   -1    0    0  501    0 -0.00000000000E+00 -0.00000000000E+00 -0.24301587035E+04  0.24301587035E+04  0.00000000000E+00 0.  1.
          2    1    1    2  501    0  0.31046020354E+02 -0.10733846693E+02  0.18585643848E+03  0.18873708319E+03  0.00000000000E+00 0.  1.
          2    1    1    2  502    0 -0.31046020354E+02  0.10733846693E+02 -0.24286073071E+04  0.24288294553E+04  0.00000000000E+00 0.  1.
</event>
<event>
 4    1  0.6688462E+003  0.2770712E+02  0.7546771E-02  0.1440631E+00
          2   -1    0    0  502    0  0.00000000000E+00  0.00000000000E+00  0.93761505423E+01  0.93761505423E+01  0.00000000000E+00 0. -1.
          2   -1    0    0  501    0 -0.00000000000E+00 -0.00000000000E+00 -0.86616241835E+02  0.86616241835E+02  0.00000000000E+00 0.  1.
          2    1    1    2  501    0 -0.27643478854E+02  0.18768452469E+01 -0.27392266274E+02  0.38961785416E+02  0.00000000000E+00 0.  1.
          2    1    1    2  502    0  0.27643478854E+02 -0.18768452469E+01 -0.49847825019E+02  0.57030606961E+02  0.00000000000E+00 0. -1.
</event>
<event>
 4    1  0.6688462E+003  0.3063342E+02  0.7546771E-02  0.1414170E+00
          2   -1    0    0  502    0  0.00000000000E+00  0.00000000000E+00  0.74024990823E+01  0.74024990823E+01  0.00000000000E+00 0.  1.
          2   -1    0    0  501    0 -0.00000000000E+00 -0.00000000000E+00 -0.13538793095E+04  0.13538793095E+04  0.00000000000E+00 0. -1.
          2    1    1    2  501    0 -0.23914469747E+02 -0.19144308151E+02 -0.25246029298E+02  0.39695949330E+02  0.00000000000E+00 0.  1.
          2    1    1    2  502    0  0.23914469747E+02  0.19144308151E+02 -0.13212307812E+04  0.13215858593E+04  0.00000000000E+00 0. -1.
</event>
<event>
 4    1  0.6688462E+003  0.2089849E+02  0.7546771E-02  0.1520719E+00
          2   -1    0    0  502    0  0.00000000000E+00  0.00000000000E+00  0.18283503224E+03  0.18283503224E+03  0.00000000000E+00 0.  1.
          2   -1    0    0  501    0 -0.00000000000E+00 -0.00000000000E+00 -0.78910255493E+01  0.78910255493E+01  0.00000000000E+00 0. -1.
          2    1    1    2  501    0 -0.12876059870E+02  0.16460673773E+02  0.16710344608E+03  0.16840519111E+03  0.00000000000E+00 0.  1.
          2    1    1    2  502    0  0.12876059870E+02 -0.16460673773E+02  0.78405606091E+01  0.22320866684E+02  0.00000000000E+00 0. -1.
</event>
<event>
 4    1  0.6688462E+003  0.3827432E+02  0.7546771E-02  0.1358906E+00
          2   -1    0    0  501    0  0.00000000000E+00  0.00000000000E+00  0.48738271998E+03  0.48738271998E+03  0.00000000000E+00 0.  1.
          2   -1    0    0  502    0 -0.00000000000E+00 -0.00000000000E+00 -0.80101242695E+01  0.80101242695E+01  0.00000000000E+00 0.  1.
          2    1    1    2  501    0 -0.30822482238E+02 -0.22691368406E+02  0.43902205771E+02  0.58243688783E+02  0.00000000000E+00 0.  1.
          2    1    1    2  502    0  0.30822482238E+02  0.22691368406E+02  0.43547038994E+03  0.43714915547E+03  0.00000000000E+00 0.  1.
</event>
<event>
 4    1  0.6688462E+003  0.2500063E+02  0.7546771E-02  0.1468796E+00
          2   -1    0    0  502    0  0.00000000000E+00  0.00000000000E+00  0.11084968018E+03  0.11084968018E+03  0.00000000000E+00 0.  1.
          2   -1    0    0  501    0 -0.00000000000E+00 -0.00000000000E+00 -0.13591891246E+03  0.13591891246E+03  0.00000000000E+00 0. -1.
          2    1    1    2  501    0 -0.68495561245E+01 -0.24044023655E+02  0.10826329426E+03  0.11111243124E+03  0.00000000000E+00 0.  1.
          2    1    1    2  502    0  0.68495561245E+01  0.24044023655E+02 -0.13333252653E+03  0.13565616140E+03  0.00000000000E+00 0. -1.
</event>
<event>
 4    1  0.6688462E+003  0.3793609E+02  0.7546771E-02  0.1361024E+00
          2   -1    0    0  501    0  0.00000000000E+00  0.00000000000E+00  0.12617791362E+01  0.12617791362E+01  0.00000000000E+00 0.  1.
          2   -1    0    0  502    0 -0.00000000000E+00 -0.00000000000E+00 -0.27217415059E+04  0.27217415059E+04  0.00000000000E+00 0. -1.
          2    1    1    2  501    0 -0.44743910781E+00 -0.37933449637E+02 -0.23979696658E+04  0.23982697231E+04  0.00000000000E+00 0. -1.
          2    1    1    2  502    0  0.44743910781E+00  0.37933449637E+02 -0.32251006098E+03  0.32473356192E+03  0.00000000000E+00 0.  1.
</event>
<event>
 4    1  0.6688462E+003  0.2739649E+02  0.7546771E-02  0.1443665E+00
          2   -1    0    0  502    0  0.00000000000E+00  0.00000000000E+00  0.41666938506E+03  0.41666938506E+03  0.00000000000E+00 0. -1.
          2   -1    0    0  501    0 -0.00000000000E+00 -0.00000000000E+00 -0.31640662795E+01  0.31640662795E+01  0.00000000000E+00 0.  1.
          2    1    1    2  501    0 -0.10388228883E+02 -0.25350590520E+02  0.34451383764E+03  0.34560143527E+03  0.00000000000E+00 0. -1.
          2    1    1    2  502    0  0.10388228883E+02  0.25350590520E+02  0.68991481145E+02  0.74232016068E+02  0.00000000000E+00 0.  1.
</event>
<event>
 4    1  0.6688462E+003  0.5323850E+02  0.7546771E-02  0.1284711E+00
          2   -1    0    0  502    0  0.00000000000E+00  0.00000000000E+00  0.68432921347E+03  0.68432921347E+03  0.00000000000E+00 0. -1.
          2   -1    0    0  501    0 -0.00000000000E+00 -0.00000000000E+00 -0.13104153561E+02  0.13104153561E+02  0.00000000000E+00 0. -1.
          2    1    1    2  501    0 -0.33028938370E+01 -0.53135941811E+02  0.62400232488E+03  0.62626930220E+03  0.00000000000E+00 0. -1.
          2    1    1    2  502    0  0.33028938370E+01  0.53135941811E+02  0.47222735028E+02  0.71164064832E+02  0.00000000000E+00 0. -1.
</event>
<event>
 4    1  0.6688462E+003  0.2677167E+02  0.7546771E-02  0.1449915E+00
          2   -1    0    0  502    0  0.00000000000E+00  0.00000000000E+00  0.65606826705E+02  0.65606826705E+02  0.00000000000E+00 0.  1.
          2   -1    0    0  501    0 -0.00000000000E+00 -0.00000000000E+00 -0.14504225394E+04  0.14504225394E+04  0.00000000000E+00 0.  1.
          2    1    1    2  501    0 -0.24770319215E+02 -0.10156454676E+02  0.62746767330E+02  0.68219345467E+02  0.00000000000E+00 0.  1.
          2    1    1    2  502    0  0.24770319215E+02  0.10156454676E+02 -0.14475624800E+04  0.14478100207E+04  0.00000000000E+00 0.  1.
</event>
<event>
 4    1  0.6688462E+003  0.3605228E+02  0.7546771E-02  0.1373313E+00
          2   -1    0    0  502    0  0.00000000000E+00  0.00000000000E+00  0.15004288768E+03  0.15004288768E+03  0.00000000000E+00 0.  1.
          2   -1    0    0  501    0 -0.00000000000E+00 -0.00000000000E+00 -0.14237997361E+03  0.14237997361E+03  0.00000000000E+00 0.  1.
          2    1    1    2  501    0  0.35609873765E+02 -0.56306139245E+01  0.14552521967E+03  0.14992450261E+03  0.00000000000E+00 0.  1.
          2    1    1    2  502    0 -0.35609873765E+02  0.56306139245E+01 -0.13786230559E+03  0.14249835868E+03  0.00000000000E+00 0.  1.
</event>
<event>
 4    1  0.6688462E+003  0.2152435E+02  0.7546771E-02  0.1511908E+00
          2   -1    0    0  502    0  0.00000000000E+00  0.00000000000E+00  0.64127523104E+00  0.64127523104E+00  0.00000000000E+00 0. -1.
          2   -1    0    0  501    0 -0.00000000000E+00 -0.00000000000E+00 -0.79978826136E+03  0.79978826136E+03  0.00000000000E+00 0. -1.
          2    1    1    2  501    0 -0.12555144490E+02 -0.17483308929E+02 -0.27513183659E+03  0.27597250814E+03  0.00000000000E+00 0. -1.
          2    1    1    2  502    0  0.12555144490E+02  0.17483308929E+02 -0.52401514953E+03  0.52445702844E+03  0.00000000000E+00 0. -1.
</event>
<event>
 4    1  0.6688462E+003  0.3776733E+02  0.7546771E-02  0.1362090E+00
          2   -1    0    0  502    0  0.00000000000E+00  0.00000000000E+00  0.15608931550E+04  0.15608931550E+04  0.00000000000E+00 0. -1.
          2   -1    0    0  501    0 -0.00000000000E+00 -0.00000000000E+00 -0.62422834857E+01  0.62422834857E+01  0.00000000000E+00 0. -1.
          2    1    1    2  501    0 -0.42763591588E-01 -0.37767310683E+02  0.15012709614E+04  0.15017459409E+04  0.00000000000E+00 0. -1.
          2    1    1    2  502    0  0.42763591588E-01  0.37767310683E+02  0.53379910087E+02  0.65389497520E+02  0.00000000000E+00 0. -1.
</event>
<event>
 4    1  0.6688462E+003  0.2892493E+02  0.7546771E-02  0.1429174E+00
          2   -1    0    0  502    0  0.00000000000E+00  0.00000000000E+00  0.43334488692E+02  0.43334488692E+02  0.00000000000E+00 0.  1.
          2   -1    0    0  501    0 -0.00000000000E+00 -0.00000000000E+00 -0.25586889612E+03  0.25586889612E+03  0.00000000000E+00 0. -1.
          2    1    1    2  501    0  0.12429885457E+02  0.26117996350E+02  0.37579630179E+02  0.47422361710E+02  0.00000000000E+00 0.  1.
          2    1    1    2  502    0 -0.12429885457E+02 -0.26117996350E+02 -0.25011403760E+03  0.25178102310E+03  0.00000000000E+00 0. -1.
</event>
<event>
 4    1  0.6688462E+003  0.2893495E+02  0.7546771E-02  0.1429083E+00
          2   -1    0    0  502    0  0.00000000000E+00  0.00000000000E+00  0.70218518338E+00  0.70218518338E+00  0.00000000000E+00 0. -1.
          2   -1    0    0  501    0 -0.00000000000E+00 -0.00000000000E+00 -0.14653155955E+04  0.14653155955E+04  0.00000000000E+00 0. -1.
          2    1    1    2  501    0 -0.15410854245E+02 -0.24489528168E+02 -0.10486941438E+04  0.10490932459E+04  0.00000000000E+00 0. -1.
          2    1    1    2  502    0  0.15410854245E+02  0.24489528168E+02 -0.41591926652E+03  0.41692453475E+03  0.00000000000E+00 0. -1.
</event>
<event>
 4    1  0.6688462E+003  0.4175441E+02  0.7546771E-02  0.1338501E+00
          2   -1    0    0  502    0  0.00000000000E+00  0.00000000000E+00  0.77903637187E+03  0.77903637187E+03  0.00000000000E+00 0.  1.
          2   -1    0    0  501    0 -0.00000000000E+00 -0.00000000000E+00 -0.97441666048E+01  0.97441666048E+01  0.00000000000E+00 0.  1.
          2    1    1    2  501    0  0.23624560971E+02  0.34428345970E+02  0.73079654465E+03  0.73198840193E+03  0.00000000000E+00 0.  1.
          2    1    1    2  502    0 -0.23624560971E+02 -0.34428345970E+02  0.38495660618E+02  0.56792136548E+02  0.00000000000E+00 0.  1.
</event>
<event>
 4    1  0.6688462E+003  0.3767306E+02  0.7546771E-02  0.1362689E+00
          2   -1    0    0  502    0  0.00000000000E+00  0.00000000000E+00  0.11283850756E+04  0.11283850756E+04  0.00000000000E+00 0. -1.
          2   -1    0    0  501    0 -0.00000000000E+00 -0.00000000000E+00 -0.29071411862E+01  0.29071411862E+01  0.00000000000E+00 0. -1.
          2    1    1    2  501    0 -0.16695308545E+02 -0.33771674673E+02  0.98879794886E+03  0.98951535764E+03  0.00000000000E+00 0. -1.
          2    1    1    2  502    0  0.16695308545E+02  0.33771674673E+02  0.13667998550E+03  0.14177685910E+03  0.00000000000E+00 0. -1.
</event>
<event>
 4    1  0.6688462E+003  0.3402780E+02  0.7546771E-02  0.1387530E+00
          2   -1    0    0  502    0  0.00000000000E+00  0.00000000000E+00  0.17777642477E+04  0.17777642477E+04  0.00000000000E+00 0.  1.
          2   -1    0    0  501    0 -0.00000000000E+00 -0.00000000000E+00 -0.73043393962E+00  0.73043393962E+00  0.00000000000E+00 0. -1.
          2    1    1    2  501    0 -0.32070664036E+02 -0.11373827353E+02  0.11811757485E+04  0.11816657905E+04  0.00000000000E+00 0.  1.
          2    1    1    2  502    0  0.32070664036E+02  0.11373827353E+02  0.59585806525E+03  0.59682889119E+03  0.00000000000E+00 0. -1.
</event>
<event>
 4    1  0.6688462E+003  0.2672920E+02  0.7546771E-02  0.1450347E+00
          2   -1    0    0  501    0  0.00000000000E+00  0.00000000000E+00  0.11665007519E+04  0.11665007519E+04  0.00000000000E+00 0.  1.
          2   -1    0    0  502    0 -0.00000000000E+00 -0.00000000000E+00 -0.17173886893E+02  0.17173886893E+02  0.00000000000E+00 0.  1.
          2    1    1    2  501    0 -0.22390825550E+02 -0.14597978183E+02 -0.65247234948E+01  0.27514033738E+02  0.00000000000E+00 0.  1.
          2    1    1    2  502    0  0.22390825550E+02  0.14597978183E+02  0.11558515885E+04  0.11561606051E+04  0.00000000000E+00 0.  1.
</event>
<event>
 4    1  0.6688462E+003  0.2714025E+02  0.7546771E-02  0.1446204E+00
          2   -1    0    0  502    0  0.00000000000E+00  0.00000000000E+00  0.23392278332E+03  0.23392278332E+03  0.00000000000E+00 0. -1.
          2   -1    0    0  501    0 -0.00000000000E+00 -0.00000000000E+00 -0.44060624107E+01  0.44060624107E+01  0.00000000000E+00 0. -1.
          2    1    1    2  501    0  0.19399453869E+02 -0.18980367278E+02  0.17841176499E+03  0.18046426527E+03  0.00000000000E+00 0. -1.
          2    1    1    2  502    0 -0.19399453869E+02  0.18980367278E+02  0.51104955920E+02  0.57864580462E+02  0.00000000000E+00 0. -1.
</event>
<event>
 4    1  0.6688462E+003  0.2279298E+02  0.7546771E-02  0.1495114E+00
          2   -1    0    0  502    0  0.00000000000E+00  0.00000000000E+00  0.59090421514E+00  0.59090421514E+00  0.00000000000E+00 0.  1.
          2   -1    0    0  501    0 -0.00000000000E+00 -0.00000000000E+00 -0.11369450474E+04  0.11369450474E+04  0.00000000000E+00 0.  1.
          2    1    1    2  501    0 -0.22754733910E+02  0.13198821151E+01 -0.29736699849E+03  0.29823925261E+03  0.00000000000E+00 0.  1.
          2    1    1    2  502    0  0.22754733910E+02 -0.13198821151E+01 -0.83898714469E+03  0.83929669901E+03  0.00000000000E+00 0.  1.
</event>
<event>
 4    1  0.6688462E+003  0.2179241E+02  0.7546771E-02  0.1508245E+00
          2   -1    0    0  501    0  0.00000000000E+00  0.00000000000E+00  0.18185254061E+03  0.18185254061E+03  0.00000000000E+00 0.  1.
          2   -1    0    0  502    0 -0.00000000000E+00 -0.00000000000E+00 -0.37714791504E+01  0.37714791504E+01  0.00000000000E+00 0. -1.
          2    1    1    2  501    0 -0.18556970060E+02  0.11425762472E+02  0.37568405517E+02  0.43431489486E+02  0.00000000000E+00 0. -1.
          2    1    1    2  502    0  0.18556970060E+02 -0.11425762472E+02  0.14051265594E+03  0.14219253028E+03  0.00000000000E+00 0.  1.
</event>
<event>
 4    1  0.6688462E+003  0.2130105E+02  0.7546771E-02  0.1515010E+00
          2   -1    0    0  501    0  0.00000000000E+00  0.00000000000E+00  0.90443568171E+02  0.90443568171E+02  0.00000000000E+00 0.  1.
          2   -1    0    0  502    0 -0.00000000000E+00 -0.00000000000E+00 -0.33116584456E+02  0.33116584456E+02  0.00000000000E+00 0. -1.
          2    1    1    2  501    0  0.26227654880E+00 -0.21299438163E+02 -0.28245038953E+02  0.35376787311E+02  0.00000000000E+00 0. -1.
          2    1    1    2  502    0 -0.26227654880E+00  0.21299438163E+02  0.85572022668E+02  0.88183365316E+02  0.00000000000E+00 0.  1.
</event>
<event>
 4    1  0.6688462E+003  0.2533152E+02  0.7546771E-02  0.1465129E+00
          2   -1    0    0  501    0  0.00000000000E+00  0.00000000000E+00  0.51330292261E+01  0.51330292261E+01  0.00000000000E+00 0. -1.
          2   -1    0    0  502    0 -0.00000000000E+00 -0.00000000000E+00 -0.11085087932E+04  0.11085087932E+04  0.00000000000E+00 0.  1.
          2    1    1    2  501    0  0.22400708882E+02 -0.11827691112E+02 -0.10761723370E+04  0.10764704292E+04  0.00000000000E+00 0.  1.
          2    1    1    2  502    0 -0.22400708882E+02  0.11827691112E+02 -0.27203427013E+02  0.37171393257E+02  0.00000000000E+00 0. -1.
</event>
<event>
 4    1  0.6688462E+003  0.2325271E+02  0.7546771E-02  0.1489349E+00
          2   -1    0    0  501    0  0.00000000000E+00  0.00000000000E+00  0.20657295597E+02  0.20657295597E+02  0.00000000000E+00 0.  1.
          2   -1    0    0  502    0 -0.00000000000E+00 -0.00000000000E+00 -0.55008058619E+02  0.55008058619E+02  0.00000000000E+00 0. -1.
          2    1    1    2  501    0 -0.20556289134E+02 -0.10868650935E+02 -0.44566208698E+02  0.50267639230E+02  0.00000000000E+00 0. -1.
          2    1    1    2  502    0  0.20556289134E+02  0.10868650935E+02  0.10215445676E+02  0.25397714985E+02  0.00000000000E+00 0.  1.
</event>
<event>
 4    1  0.6688462E+003  0.2164335E+02  0.7546771E-02  0.1510274E+00
          2   -1    0    0  502    0  0.00000000000E+00  0.00000000000E+00  0.59694882953E+00  0.59694882953E+00  0.00000000000E+00 0. -1.
          2   -1    0    0  501    0 -0.00000000000E+00 -0.00000000000E+00 -0.80938902768E+03  0.80938902768E+03  0.00000000000E+00 0.  1.
          2    1    1    2  501    0  0.96712374992E+01  0.19362385388E+02 -0.33368497589E+03  0.33438615094E+03  0.00000000000E+00 0. -1.
          2    1    1    2  502    0 -0.96712374992E+01 -0.19362385388E+02 -0.47510710296E+03  0.47559982557E+03  0.00000000000E+00 0.  1.
</event>
<event>
 4    1  0.6688462E+003  0.2379308E+02  0.7546771E-02  0.1482772E+00
          2   -1    0    0  501    0  0.00000000000E+00  0.00000000000E+00  0.65309775392E+03  0.65309775392E+03  0.00000000000E+00 0. -1.
          2   -1    0    0  502    0 -0.00000000000E+00 -0.00000000000E+00 -0.86986438062E+00  0.86986438062E+00  0.00000000000E+00 0. -1.
          2    1    1    2  501    0 -0.15987644854E+02 -0.17621183317E+02  0.30673427578E+03  0.30765569526E+03  0.00000000000E+00 0. -1.
          2    1    1    2  502    0  0.15987644854E+02  0.17621183317E+02  0.34549361377E+03  0.34631192305E+03  0.00000000000E+00 0. -1.
</event>
<event>
 4    1  0.6688462E+003  0.3284303E+02  0.7546771E-02  0.1396396E+00
          2   -1    0    0  501    0  0.00000000000E+00  0.00000000000E+00  0.20981361041E+04  0.20981361041E+04  0.00000000000E+00 0.  1.
          2   -1    0    0  502    0 -0.00000000000E+00 -0.00000000000E+00 -0.11846295001E+03  0.11846295001E+03  0.00000000000E+00 0.  1.
          2    1    1    2  501    0 -0.17010092596E+02 -0.28094859957E+02 -0.11605543360E+03  0.12061313392E+03  0.00000000000E+00 0.  1.
          2    1    1    2  502    0  0.17010092596E+02  0.28094859957E+02  0.20957285876E+04  0.20959859202E+04  0.00000000000E+00 0.  1.
</event>
<event>
 4    1  0.6688462E+003  0.3803499E+02  0.7546771E-02  0.1360402E+00
          2   -1    0    0  501    0  0.00000000000E+00  0.00000000000E+00  0.51201849508E+02  0.51201849508E+02  0.00000000000E+00 0.  1.
          2   -1    0    0  502    0 -0.00000000000E+00 -0.00000000000E+00 -0.30027708010E+03  0.30027708010E+03  0.00000000000E+00 0. -1.
          2    1    1    2  501    0 -0.31611125140E+02  0.21151771166E+02 -0.29180490817E+03  0.29427328300E+03  0.00000000000E+00 0. -1.
          2    1    1    2  502    0  0.31611125140E+02 -0.21151771166E+02  0.42729677587E+02  0.57205646599E+02  0.00000000000E+00 0.  1.
</event>
<event>
 4    1  0.6688462E+003  0.2088731E+02  0.7546771E-02  0.1520880E+00
          2   -1    0    0  501    0  0.00000000000E+00  0.00000000000E+00  0.59867134894E+03  0.59867134894E+03  0.00000000000E+00 0.  1.
          2   -1    0    0  502    0 -0.00000000000E+00 -0.00000000000E+00 -0.14317391027E+02  0.14317391027E+02  0.00000000000E+00 0.  1.
          2    1    1    2  501    0 -0.19943828993E+02  0.62067248501E+01 -0.64153350764E+01  0.21850315156E+02  0.00000000000E+00 0.  1.
          2    1    1    2  502    0  0.19943828993E+02 -0.62067248501E+01  0.59076929299E+03  0.59113842481E+03  0.00000000000E+00 0.  1.
</event>
<event>
 4    1  0.6688462E+003  0.3551864E+02  0.7546771E-02  0.1376953E+00
          2   -1    0    0  501    0  0.00000000000E+00  0.00000000000E+00  0.14881740567E+03  0.14881740567E+03  0.00000000000E+00 0.  1.
          2   -1    0    0  502    0 -0.00000000000E+00 -0.00000000000E+00 -0.14022080722E+02  0.14022080722E+02  0.00000000000E+00 0.  1.
          2    1    1    2  501    0 -0.23717978953E+02 -0.26439194465E+02  0.16198282526E+02  0.39037903201E+02  0.00000000000E+00 0.  1.
          2    1    1    2  502    0  0.23717978953E+02  0.26439194465E+02  0.11859704242E+03  0.12380158319E+03  0.00000000000E+00 0.  1.
</event>
<event>
 4    1  0.6688462E+003  0.2362636E+02  0.7546771E-02  0.1484779E+00
          2   -1    0    0  502    0  0.00000000000E+00  0.00000000000E+00  0.47771988484E+02  0.47771988484E+02  0.00000000000E+00 0. -1.
          2   -1    0    0  501    0 -0.00000000000E+00 -0.00000000000E+00 -0.16441734932E+02  0.16441734932E+02  0.00000000000E+00 0. -1.
          2    1    1    2  501    0  0.12262778931E+02  0.20194785320E+02  0.32934979174E+02  0.40532924326E+02  0.00000000000E+00 0. -1.
          2    1    1    2  502    0 -0.12262778931E+02 -0.20194785320E+02 -0.16047256213E+01  0.23680799090E+02  0.00000000000E+00 0. -1.
</event>
<event>
 4    1  0.6688462E+003  0.3210824E+02  0.7546771E-02  0.1402119E+00
          2   -1    0    0  501    0  0.00000000000E+00  0.00000000000E+00  0.29501589675E+01  0.29501589675E+01  0.00000000000E+00 0.  1.
          2   -1    0    0  502    0 -0.00000000000E+00 -0.00000000000E+00 -0.10932375265E+04  0.10932375265E+04  0.00000000000E+00 0.  1.
          2    1    1    2  501    0 -0.26813764090E+02  0.17662428950E+02 -0.99723012369E+03  0.99774689122E+03  0.00000000000E+00 0.  1.
          2    1    1    2  502    0  0.26813764090E+02 -0.17662428950E+02 -0.93057243863E+02  0.98440794270E+02  0.00000000000E+00 0.  1.
</event>
<event>
 4    1  0.6688462E+003  0.3396040E+02  0.7546771E-02  0.1388023E+00
          2   -1    0    0  501    0  0.00000000000E+00  0.00000000000E+00  0.15760373809E+02  0.15760373809E+02  0.00000000000E+00 0. -1.
          2   -1    0    0  502    0 -0.00000000000E+00 -0.00000000000E+00 -0.24832569466E+03  0.24832569466E+03  0.00000000000E+00 0. -1.
          2    1    1    2  501    0  0.33529318302E+02  0.53938393027E+01 -0.22717644086E+03  0.22970077051E+03  0.00000000000E+00 0. -1.
          2    1    1    2  502    0 -0.33529318302E+02 -0.53938393027E+01 -0.53888799859E+01  0.34385297959E+02  0.00000000000E+00 0. -1.
</event>
<event>
 4    1  0.6688462E+003  0.2808303E+02  0.7546771E-02  0.1437022E+00
          2   -1    0    0  502    0  0.00000000000E+00  0.00000000000E+00  0.17274838939E+01  0.17274838939E+01  0.00000000000E+00 0.  1.
          2   -1    0    0  501    0 -0.00000000000E+00 -0.00000000000E+00 -0.11154390552E+04  0.11154390552E+04  0.00000000000E+00 0. -1.
          2    1    1    2  501    0  0.56199168750E+01 -0.27514957057E+02 -0.12754065767E+03  0.13059584866E+03  0.00000000000E+00 0.  1.
          2    1    1    2  502    0 -0.56199168750E+01  0.27514957057E+02 -0.98617091362E+03  0.98657069042E+03  0.00000000000E+00 0. -1.
</event>
<event>
 4    1  0.6688462E+003  0.5264066E+02  0.7546771E-02  0.1287112E+00
          2   -1    0    0  502    0  0.00000000000E+00  0.00000000000E+00  0.98725777977E+01  0.98725777977E+01  0.00000000000E+00 0. -1.
          2   -1    0    0  501    0 -0.00000000000E+00 -0.00000000000E+00 -0.10808357039E+04  0.10808357039E+04  0.00000000000E+00 0. -1.
          2    1    1    2  501    0 -0.37456439912E+02 -0.36987210269E+02 -0.66251390016E+02  0.84618468985E+02  0.00000000000E+00 0. -1.
          2    1    1    2  502    0  0.37456439912E+02  0.36987210269E+02 -0.10047117360E+04  0.10060898127E+04  0.00000000000E+00 0. -1.
</event>
<event>
 4    1  0.6688462E+003  0.2098617E+02  0.7546771E-02  0.1519462E+00
          2   -1    0    0  501    0  0.00000000000E+00  0.00000000000E+00  0.83172087265E+03  0.83172087265E+03  0.00000000000E+00 0. -1.
          2   -1    0    0  502    0 -0.00000000000E+00 -0.00000000000E+00 -0.10623940674E+02  0.10623940674E+02  0.00000000000E+00 0. -1.
          2    1    1    2  501    0 -0.88626965748E+01 -0.19022937206E+02  0.64424393055E-02  0.20986175737E+02  0.00000000000E+00 0. -1.
          2    1    1    2  502    0  0.88626965748E+01  0.19022937206E+02  0.82109048953E+03  0.82135863758E+03  0.00000000000E+00 0. -1.
</event>
<event>
 4    1  0.6688462E+003  0.2041227E+02  0.7546771E-02  0.1527824E+00
          2   -1    0    0  502    0  0.00000000000E+00  0.00000000000E+00  0.43469017116E+03  0.43469017116E+03  0.00000000000E+00 0. -1.
          2   -1    0    0  501    0 -0.00000000000E+00 -0.00000000000E+00 -0.15541897158E+02  0.15541897158E+02  0.00000000000E+00 0. -1.
          2    1    1    2  501    0  0.38708009724E+01  0.20041901846E+02  0.42763785332E+03  0.42812474178E+03  0.00000000000E+00 0. -1.
          2    1    1    2  502    0 -0.38708009724E+01 -0.20041901846E+02 -0.84895793178E+01  0.22107326540E+02  0.00000000000E+00 0. -1.
</event>
<event>
 4    1  0.6688462E+003  0.2773947E+02  0.7546771E-02  0.1440318E+00
          2   -1    0    0  502    0  0.00000000000E+00  0.00000000000E+00  0.94165882700E+03  0.94165882700E+03  0.00000000000E+00 0. -1.
          2   -1    0    0  501    0 -0.00000000000E+00 -0.00000000000E+00 -0.13585257533E+03  0.13585257533E+03  0.00000000000E+00 0.  1.
          2    1    1    2  501    0  0.26790124689E+01  0.27609802525E+02  0.94003607800E+03  0.94044527020E+03  0.00000000000E+00 0. -1.
          2    1    1    2  502    0 -0.26790124689E+01 -0.27609802525E+02 -0.13422982633E+03  0.13706613214E+03  0.00000000000E+00 0.  1.
</event>
<event>
 4    1  0.6688462E+003  0.3548854E+02  0.7546771E-02  0.1377161E+00
          2   -1    0    0  501    0  0.00000000000E+00  0.00000000000E+00  0.53889593155E+03  0.53889593155E+03  0.00000000000E+00 0.  1.
          2   -1    0    0  502    0 -0.00000000000E+00 -0.00000000000E+00 -0.17628052476E+03  0.17628052476E+03  0.00000000000E+00 0.  1.
          2    1    1    2  501    0  0.30266564017E+02 -0.18530297213E+02 -0.17390222275E+03  0.17748639353E+03  0.00000000000E+00 0.  1.
          2    1    1    2  502    0 -0.30266564017E+02  0.18530297213E+02  0.53651762954E+03  0.53769006279E+03  0.00000000000E+00 0.  1.
</event>
<event>
 4    1  0.6688462E+003  0.2085072E+02  0.7546771E-02  0.1521407E+00
          2   -1    0    0  501    0  0.00000000000E+00  0.00000000000E+00  0.14303887102E+04  0.14303887102E+04  0.00000000000E+00 0.  1.
          2   -1    0    0  502    0 -0.00000000000E+00 -0.00000000000E+00 -0.13042433383E+03  0.13042433383E+03  0.00000000000E+00 0. -1.
          2    1    1    2  501    0 -0.15710866961E+02 -0.13708442121E+02 -0.12951447555E+03  0.13118213333E+03  0.00000000000E+00 0. -1.
          2    1    1    2  502    0  0.15710866961E+02  0.13708442121E+02  0.14294788520E+04  0.14296309107E+04  0.00000000000E+00 0.  1.
</event>
<event>
 4    1  0.6688462E+003  0.3624710E+02  0.7546771E-02  0.1372002E+00
          2   -1    0    0  502    0  0.00000000000E+00  0.00000000000E+00  0.78494643126E+03  0.78494643126E+03  0.00000000000E+00 0.  1.
          2   -1    0    0  501    0 -0.00000000000E+00 -0.00000000000E+00 -0.15944929415E+02  0.15944929415E+02  0.00000000000E+00 0.  1.
          2    1    1    2  501    0  0.13908984690E+02  0.33472258194E+02  0.76334554042E+03  0.76420564379E+03  0.00000000000E+00 0.  1.
          2    1    1    2  502    0 -0.13908984690E+02 -0.33472258194E+02  0.56559614266E+01  0.36685716886E+02  0.00000000000E+00 0.  1.
</event>
<event>
 4    1  0.6688462E+003  0.2885661E+02  0.7546771E-02  0.1429800E+00
          2   -1    0    0  501    0  0.00000000000E+00  0.00000000000E+00  0.40656450571E+03  0.40656450571E+03  0.00000000000E+00 0.  1.
          2   -1    0    0  502    0 -0.00000000000E+00 -0.00000000000E+00 -0.20959134771E+01  0.20959134771E+01  0.00000000000E+00 0.  1.
          2    1    1    2  501    0 -0.28855586217E+02  0.24247978710E+00  0.17138750627E+03  0.17379983014E+03  0.00000000000E+00 0.  1.
          2    1    1    2  502    0  0.28855586217E+02 -0.24247978710E+00  0.23308108596E+03  0.23486058904E+03  0.00000000000E+00 0.  1.
</event>
<event>
 4    1  0.6688462E+003  0.3173004E+02  0.7546771E-02  0.1405135E+00
          2   -1    0    0  502    0  0.00000000000E+00  0.00000000000E+00  0.28761454901E+03  0.28761454901E+03  0.00000000000E+00 0. -1.
          2   -1    0    0  501    0 -0.00000000000E+00 -0.00000000000E+00 -0.96876040871E+01  0.96876040871E+01  0.00000000000E+00 0. -1.
          2    1    1    2  501    0  0.24525146719E+02 -0.20132371589E+02  0.25775993829E+03  0.25970556597E+03  0.00000000000E+00 0. -1.
          2    1    1    2  502    0 -0.24525146719E+02  0.20132371589E+02  0.20167006637E+02  0.37596587134E+02  0.00000000000E+00 0. -1.
</event>
<event>
 4    1  0.6688462E+003  0.2137652E+02  0.7546771E-02  0.1513957E+00
          2   -1    0    0  502    0  0.00000000000E+00  0.00000000000E+00  0.13079938051E+02  0.13079938051E+02  0.00000000000E+00 0. -1.
          2   -1    0    0  501    0 -0.00000000000E+00 -0.00000000000E+00 -0.48695771864E+02  0.48695771864E+02  0.00000000000E+00 0.  1.
          2    1    1    2  501    0 -0.73961981729E+01 -0.20056215018E+02 -0.13886402044E+01  0.21421573936E+02  0.00000000000E+00 0. -1.
          2    1    1    2  502    0  0.73961981729E+01  0.20056215018E+02 -0.34227193609E+02  0.40354135979E+02  0.00000000000E+00 0.  1.
</event>
<event>
 4    1  0.6688462E+003  0.2526044E+02  0.7546771E-02  0.1465911E+00
          2   -1    0    0  502    0  0.00000000000E+00  0.00000000000E+00  0.45345467499E+01  0.45345467499E+01  0.00000000000E+00 0.  1.
          2   -1    0    0  501    0 -0.00000000000E+00 -0.00000000000E+00 -0.45870458456E+03  0.45870458456E+03  0.00000000000E+00 0. -1.
          2    1    1    2  501    0  0.24493355584E+02 -0.61777926489E+01 -0.34237739191E+02  0.42547765802E+02  0.00000000000E+00 0.  1.
          2    1    1    2  502    0 -0.24493355584E+02  0.61777926489E+01 -0.41993229861E+03  0.42069136550E+03  0.00000000000E+00 0. -1.
</event>
<event>
 4    1  0.6688462E+003  0.3459527E+02  0.7546771E-02  0.1383431E+00
          2   -1    0    0  502    0  0.00000000000E+00  0.00000000000E+00  0.16092912127E+01  0.16092912127E+01  0.00000000000E+00 0.  1.
          2   -1    0    0  501    0 -0.00000000000E+00 -0.00000000000E+00 -0.10693504326E+04  0.10693504326E+04  0.00000000000E+00 0. -1.
          2    1    1    2  501    0 -0.16028057972E+02 -0.30658347357E+02 -0.23837042989E+03  0.24086779517E+03  0.00000000000E+00 0.  1.
          2    1    1    2  502    0  0.16028057972E+02  0.30658347357E+02 -0.82937071147E+03  0.83009192861E+03  0.00000000000E+00 0. -1.
</event>
<event>
 4    1  0.6688462E+003  0.2081185E+02  0.7546771E-02  0.1521968E+00
          2   -1    0    0  501    0  0.00000000000E+00  0.00000000000E+00  0.53808652598E+03  0.53808652598E+03  0.00000000000E+00 0. -1.
          2   -1    0    0  502    0 -0.00000000000E+00 -0.00000000000E+00 -0.10262056104E+01  0.10262056104E+01  0.00000000000E+00 0. -1.
          2    1    1    2  501    0 -0.10556637934E+02 -0.17935731768E+02  0.39369401936E+03  0.39424372406E+03  0.00000000000E+00 0. -1.
          2    1    1    2  502    0  0.10556637934E+02  0.17935731768E+02  0.14336630101E+03  0.14486900754E+03  0.00000000000E+00 0. -1.
</event>
<event>
 4    1  0.6688462E+003  0.2340681E+02  0.7546771E-02  0.1487452E+00
          2   -1    0    0  501    0  0.00000000000E+00  0.00000000000E+00  0.28406510342E+01  0.28406510342E+01  0.00000000000E+00 0. -1.
          2   -1    0    0  502    0 -0.00000000000E+00 -0.00000000000E+00 -0.23351652715E+03  0.23351652715E+03  0.00000000000E+00 0. -1.
          2    1    1    2  501    0 -0.21466437994E+02  0.93311655158E+01 -0.16464254370E+03  0.16629806314E+03  0.00000000000E+00 0. -1.
          2    1    1    2  502    0  0.21466437994E+02 -0.93311655158E+01 -0.66033332417E+02  0.70059115039E+02  0.00000000000E+00 0. -1.
</event>
<event>
 4    1  0.6688462E+003  0.2005628E+02  0.7546771E-02  0.1533177E+00
          2   -1    0    0  502    0  0.00000000000E+00  0.00000000000E+00  0.18566130453E+03  0.18566130453E+03  0.00000000000E+00 0. -1.
          2   -1    0    0  501    0 -0.00000000000E+00 -0.00000000000E+00 -0.10900569981E+02  0.10900569981E+02  0.00000000000E+00 0. -1.
          2    1    1    2  501    0  0.20031775747E+02 -0.99120035690E+00  0.17535357642E+03  0.17649683079E+03  0.00000000000E+00 0. -1.
          2    1    1    2  502    0 -0.20031775747E+02  0.99120035690E+00 -0.59284187269E+00  0.20065043713E+02  0.00000000000E+00 0. -1.
</event>
<event>
 4    1  0.6688462E+003  0.2597026E+02  0.7546771E-02  0.1458235E+00
          2   -1    0    0  501    0  0.00000000000E+00  0.00000000000E+00  0.78815869951E+02  0.78815869951E+02  0.00000000000E+00 0.  1.
          2   -1    0    0  502    0 -0.00000000000E+00 -0.00000000000E+00 -0.67159358006E+02  0.67159358006E+02  0.00000000000E+00 0. -1.
          2    1    1    2  501    0  0.86002178640E+01  0.24504913934E+02 -0.62350985855E+02  0.67543319368E+02  0.00000000000E+00 0. -1.
          2    1    1    2  502    0 -0.86002178640E+01 -0.24504913934E+02  0.74007497800E+02  0.78431908588E+02  0.00000000000E+00 0.  1.
</event>
<event>
 4    1  0.6688462E+003  0.2585410E+02  0.7546771E-02  0.1459471E+00
          2   -1    0    0  502    0  0.00000000000E+00  0.00000000000E+00  0.13310613568E+03  0.13310613568E+03  0.00000000000E+00 0. -1.
          2   -1    0    0  501    0 -0.00000000000E+00 -0.00000000000E+00 -0.50762645987E+03  0.50762645987E+03  0.00000000000E+00 0.  1.
          2    1    1    2  501    0  0.17359224651E+02 -0.19159643137E+02  0.13151754679E+03  0.13403469595E+03  0.00000000000E+00 0. -1.
          2    1    1    2  502    0 -0.17359224651E+02  0.19159643137E+02 -0.50603787097E+03  0.50669789960E+03  0.00000000000E+00 0.  1.
</event>
<event>
 4    1  0.6688462E+003  0.2654144E+02  0.7546771E-02  0.1452270E+00
          2   -1    0    0  502    0  0.00000000000E+00  0.00000000000E+00  0.14905682540E+01  0.14905682540E+01  0.00000000000E+00 0. -1.
          2   -1    0    0  501    0 -0.00000000000E+00 -0.00000000000E+00 -0.11436541002E+04  0.11436541002E+04  0.00000000000E+00 0.  1.
          2    1    1    2  501    0  0.21853141180E+02  0.15062813565E+02 -0.13248990217E+03  0.13512224950E+03  0.00000000000E+00 0. -1.
          2    1    1    2  502    0 -0.21853141180E+02 -0.15062813565E+02 -0.10096736298E+04  0.10100224190E+04  0.00000000000E+00 0.  1.
</event>
<event>
 4    1  0.6688462E+003  0.7025206E+02  0.7546771E-02  0.1228487E+00
          2   -1    0    0  502    0  0.00000000000E+00  0.00000000000E+00  0.18671942238E+02  0.18671942238E+02  0.00000000000E+00 0.  1.
          2   -1    0    0  501    0 -0.00000000000E+00 -0.00000000000E+00 -0.13617841343E+04  0.13617841343E+04  0.00000000000E+00 0. -1.
          2    1    1    2  501    0 -0.21965431777E+02  0.66729843622E+02 -0.51924157701E+02  0.87358287391E+02  0.00000000000E+00 0.  1.
          2    1    1    2  502    0  0.21965431777E+02 -0.66729843622E+02 -0.12911880343E+04  0.12930977891E+04  0.00000000000E+00 0. -1.
</event>
<event>
 4    1  0.6688462E+003  0.3723367E+02  0.7546771E-02  0.1365506E+00
          2   -1    0    0  502    0  0.00000000000E+00  0.00000000000E+00  0.14829370240E+04  0.14829370240E+04  0.00000000000E+00 0. -1.
          2   -1    0    0  501    0 -0.00000000000E+00 -0.00000000000E+00 -0.20099968487E+01  0.20099968487E+01  0.00000000000E+00 0.  1.
          2    1    1    2  501    0 -0.27743937381E+02  0.24831837393E+02  0.12834813559E+04  0.12840213149E+04  0.00000000000E+00 0. -1.
          2    1    1    2  502    0  0.27743937381E+02 -0.24831837393E+02  0.19744567128E+03  0.20092570596E+03  0.00000000000E+00 0.  1.
</event>
<event>
 4    1  0.6688462E+003  0.2319093E+02  0.7546771E-02  0.1490114E+00
          2   -1    0    0  502    0  0.00000000000E+00  0.00000000000E+00  0.72277808329E+03  0.72277808329E+03  0.00000000000E+00 0. -1.
          2   -1    0    0  501    0 -0.00000000000E+00 -0.00000000000E+00 -0.11961487174E+02  0.11961487174E+02  0.00000000000E+00 0.  1.
          2    1    1    2  501    0  0.18962907099E+02 -0.13350191743E+02  0.71116795042E+03  0.71154597404E+03  0.00000000000E+00 0. -1.
          2    1    1    2  502    0 -0.18962907099E+02  0.13350191743E+02 -0.35135430529E+00  0.23193596424E+02  0.00000000000E+00 0.  1.
</event>
<event>
 4    1  0.6688462E+003  0.2980363E+02  0.7546771E-02  0.1421311E+00
          2   -1    0    0  502    0  0.00000000000E+00  0.00000000000E+00  0.12332531375E+04  0.12332531375E+04  0.00000000000E+00 0.  1.
          2   -1    0    0  501    0 -0.00000000000E+00 -0.00000000000E+00 -0.92316484040E+00  0.92316484040E+00  0.00000000000E+00 0.  1.
          2    1    1    2  501    0  0.27856958887E+02  0.10594633242E+02  0.90547230331E+03  0.90596266395E+03  0.00000000000E+00 0.  1.
          2    1    1    2  502    0 -0.27856958887E+02 -0.10594633242E+02  0.32685766930E+03  0.32821363834E+03  0.00000000000E+00 0.  1.
</event>
<event>
 4    1  0.6688462E+003  0.2274935E+02  0.7546771E-02  0.1495670E+00
          2   -1    0    0  502    0  0.00000000000E+00  0.00000000000E+00  0.25628209849E+01  0.25628209849E+01  0.00000000000E+00 0.  1.
          2   -1    0    0  501    0 -0.00000000000E+00 -0.00000000000E+00 -0.29255099618E+03  0.29255099618E+03  0.00000000000E+00 0.  1.
          2    1    1    2  501    0  0.12721999740E+02 -0.18859582418E+02 -0.62873516293E+02  0.66862636632E+02  0.00000000000E+00 0.  1.
          2    1    1    2  502    0 -0.12721999740E+02  0.18859582418E+02 -0.22711465890E+03  0.22825118053E+03  0.00000000000E+00 0.  1.
</event>
<event>
 4    1  0.6688462E+003  0.5797132E+02  0.7546771E-02  0.1266886E+00
          2   -1    0    0  501    0  0.00000000000E+00  0.00000000000E+00  0.18742108702E+01  0.18742108702E+01  0.00000000000E+00 0. -1.
          2   -1    0    0  502    0 -0.00000000000E+00 -0.00000000000E+00 -0.18091729901E+04  0.18091729901E+04  0.00000000000E+00 0. -1.
          2    1    1    2  501    0 -0.73839398476E+01  0.57499139524E+02 -0.81833548338E+03  0.82038627303E+03  0.00000000000E+00 0. -1.
          2    1    1    2  502    0  0.73839398476E+01 -0.57499139524E+02 -0.98896329584E+03  0.99066092793E+03  0.00000000000E+00 0. -1.
</event>
<event>
 4    1  0.6688462E+003  0.5522692E+02  0.7546771E-02  0.1276973E+00
          2   -1    0    0  501    0  0.00000000000E+00  0.00000000000E+00  0.26424458586E+02  0.26424458586E+02  0.00000000000E+00 0. -1.
          2   -1    0    0  502    0 -0.00000000000E+00 -0.00000000000E+00 -0.22526300807E+04  0.22526300807E+04  0.00000000000E+00 0. -1.
          2    1    1    2  501    0 -0.47357813204E+02 -0.28412158059E+02 -0.22230517416E+04  0.22237376327E+04  0.00000000000E+00 0. -1.
          2    1    1    2  502    0  0.47357813204E+02  0.28412158059E+02 -0.31538805488E+01  0.55316906634E+02  0.00000000000E+00 0. -1.
</event>
<event>
 4    1  0.6688462E+003  0.3404527E+02  0.7546771E-02  0.1387402E+00
          2   -1    0    0  501    0  0.00000000000E+00  0.00000000000E+00  0.52543660351E+01  0.52543660351E+01  0.00000000000E+00 0. -1.
          2   -1    0    0  502    0 -0.00000000000E+00 -0.00000000000E+00 -0.15120788209E+04  0.15120788209E+04  0.00000000000E+00 0. -1.
          2    1    1    2  501    0  0.31606879396E+02 -0.12652490841E+02 -0.14545581933E+04  0.14549565692E+04  0.00000000000E+00 0. -1.
          2    1    1    2  502    0 -0.31606879396E+02  0.12652490841E+02 -0.52266261488E+02  0.62376617731E+02  0.00000000000E+00 0. -1.
</event>
<event>
 4    1  0.6688462E+003  0.3027462E+02  0.7546771E-02  0.1417225E+00
          2   -1    0    0  501    0  0.00000000000E+00  0.00000000000E+00  0.10512011866E+04  0.10512011866E+04  0.00000000000E+00 0.  1.
          2   -1    0    0  502    0 -0.00000000000E+00 -0.00000000000E+00 -0.17269656312E+02  0.17269656312E+02  0.00000000000E+00 0.  1.
          2    1    1    2  501    0  0.19453658211E+02 -0.23197151284E+02 -0.36087655397E+01  0.30488946098E+02  0.00000000000E+00 0.  1.
          2    1    1    2  502    0 -0.19453658211E+02  0.23197151284E+02  0.10375402959E+04  0.10379818969E+04  0.00000000000E+00 0.  1.
</event>
<event>
 4    1  0.6688462E+003  0.3043603E+02  0.7546771E-02  0.1415844E+00
          2   -1    0    0  502    0  0.00000000000E+00  0.00000000000E+00  0.73383025341E+03  0.73383025341E+03  0.00000000000E+00 0. -1.
          2   -1    0    0  501    0 -0.00000000000E+00 -0.00000000000E+00 -0.35914591820E+03  0.35914591820E+03  0.00000000000E+00 0. -1.
          2    1    1    2  501    0 -0.29563072815E+02 -0.72371722504E+01  0.73286899025E+03  0.73350072175E+03  0.00000000000E+00 0. -1.
          2    1    1    2  502    0  0.29563072815E+02  0.72371722504E+01 -0.35818465504E+03  0.35947544985E+03  0.00000000000E+00 0. -1.
</event>
<event>
 4    1  0.6688462E+003  0.2176928E+02  0.7546771E-02  0.1508559E+00
          2   -1    0    0  501    0  0.00000000000E+00  0.00000000000E+00  0.12666924006E+04  0.12666924006E+04  0.00000000000E+00 0.  1.
          2   -1    0    0  502    0 -0.00000000000E+00 -0.00000000000E+00 -0.20382701352E+01  0.20382701352E+01  0.00000000000E+00 0. -1.
          2    1    1    2  501    0  0.11648880280E+02  0.18390352596E+02  0.59129742529E+02  0.63009744738E+02  0.00000000000E+00 0. -1.
          2    1    1    2  502    0 -0.11648880280E+02 -0.18390352596E+02  0.12055243879E+04  0.12057209260E+04  0.00000000000E+00 0.  1.
</event>
<event>
 4    1  0.6688462E+003  0.2000095E+02  0.7546771E-02  0.1534021E+00
          2   -1    0    0  501    0  0.00000000000E+00  0.00000000000E+00  0.40714583848E+03  0.40714583848E+03  0.00000000000E+00 0.  1.
          2   -1    0    0  502    0 -0.00000000000E+00 -0.00000000000E+00 -0.20424259963E+02  0.20424259963E+02  0.00000000000E+00 0. -1.
          2    1    1    2  501    0  0.97570394211E+01  0.17459613166E+02 -0.15218644431E+02  0.25132549582E+02  0.00000000000E+00 0. -1.
          2    1    1    2  502    0 -0.97570394211E+01 -0.17459613166E+02  0.40194022295E+03  0.40243754886E+03  0.00000000000E+00 0.  1.
</event>
<event>
 4    1  0.6688462E+003  0.4519111E+02  0.7546771E-02  0.1320487E+00
          2   -1    0    0  502    0  0.00000000000E+00  0.00000000000E+00  0.25979236673E+03  0.25979236673E+03  0.00000000000E+00 0. -1.
          2   -1    0    0  501    0 -0.00000000000E+00 -0.00000000000E+00 -0.48002897353E+02  0.48002897353E+02  0.00000000000E+00 0.  1.
          2    1    1    2  501    0  0.64890927589E+01 -0.44722794000E+02  0.24662806860E+03  0.25073420359E+03  0.00000000000E+00 0. -1.
          2    1    1    2  502    0 -0.64890927589E+01  0.44722794000E+02 -0.34838599228E+02  0.57061060490E+02  0.00000000000E+00 0.  1.
</event>
<event>
 4    1  0.6688462E+003  0.2493914E+02  0.7546771E-02  0.1469485E+00
          2   -1    0    0  501    0  0.00000000000E+00  0.00000000000E+00  0.11518912671E+01  0.11518912671E+01  0.00000000000E+00 0. -1.
          2   -1    0    0  502    0 -0.00000000000E+00 -0.00000000000E+00 -0.14877094917E+04  0.14877094917E+04  0.00000000000E+00 0. -1.
          2    1    1    2  501    0  0.20683437092E+02 -0.13934000290E+02 -0.13374544125E+04  0.13376869090E+04  0.00000000000E+00 0. -1.
          2    1    1    2  502    0 -0.20683437092E+02  0.13934000290E+02 -0.14910318787E+03  0.15117447393E+03  0.00000000000E+00 0. -1.
</event>
<event>
 4    1  0.6688462E+003  0.2382792E+02  0.7546771E-02  0.1482356E+00
          2   -1    0    0  502    0  0.00000000000E+00  0.00000000000E+00  0.79124663658E+03  0.79124663658E+03  0.00000000000E+00 0. -1.
          2   -1    0    0  501    0 -0.00000000000E+00 -0.00000000000E+00 -0.27912697743E+03  0.27912697743E+03  0.00000000000E+00 0.  1.
          2    1    1    2  501    0 -0.23765214152E+02  0.17275821747E+01  0.79055827995E+03  0.79091729273E+03  0.00000000000E+00 0. -1.
          2    1    1    2  502    0  0.23765214152E+02 -0.17275821747E+01 -0.27843862080E+03  0.27945632127E+03  0.00000000000E+00 0.  1.
</event>
<event>
 4    1  0.6688462E+003  0.2627072E+02  0.7546771E-02  0.1455075E+00
          2   -1    0    0  502    0  0.00000000000E+00  0.00000000000E+00  0.83352914770E+03  0.83352914770E+03  0.00000000000E+00 0.  1.
          2   -1    0    0  501    0 -0.00000000000E+00 -0.00000000000E+00 -0.49029271481E+01  0.49029271481E+01  0.00000000000E+00 0.  1.
          2    1    1    2  501    0  0.30227924018E+01 -0.26096234485E+02  0.79649563235E+03  0.79692875659E+03  0.00000000000E+00 0.  1.
          2    1    1    2  502    0 -0.30227924018E+01  0.26096234485E+02  0.32130588202E+02  0.41503318258E+02  0.00000000000E+00 0.  1.
</event>
<event>
 4    1  0.6688462E+003  0.3406315E+02  0.7546771E-02  0.1387272E+00
          2   -1    0    0  502    0  0.00000000000E+00  0.00000000000E+00  0.46127889252E+03  0.46127889252E+03  0.00000000000E+00 0.  1.
          2   -1    0    0  501    0 -0.00000000000E+00 -0.00000000000E+00 -0.75910209014E+02  0.75910209014E+02  0.00000000000E+00 0. -1.
          2    1    1    2  501    0 -0.32537061583E+01  0.33907400119E+02  0.45679126903E+03  0.45805956147E+03  0.00000000000E+00 0.  1.
          2    1    1    2  502    0  0.32537061583E+01 -0.33907400119E+02 -0.71422585531E+02  0.79129540063E+02  0.00000000000E+00 0. -1.
</event>
<event>
 4    1  0.6688462E+003  0.2807780E+02  0.7546771E-02  0.1437072E+00
          2   -1    0    0  502    0  0.00000000000E+00  0.00000000000E+00  0.18540201008E+04  0.18540201008E+04  0.00000000000E+00 0.  1.
          2   -1    0    0  501    0 -0.00000000000E+00 -0.00000000000E+00 -0.44700067678E+00  0.44700067678E+00  0.00000000000E+00 0.  1.
          2    1    1    2  501    0 -0.24246002820E+02 -0.14159596046E+02  0.11314735060E+04  0.11318218312E+04  0.00000000000E+00 0.  1.
          2    1    1    2  502    0  0.24246002820E+02  0.14159596046E+02  0.72209959420E+03  0.72264527035E+03  0.00000000000E+00 0.  1.
</event>
<event>
 4    1  0.6688462E+003  0.2110675E+02  0.7546771E-02  0.1517746E+00
          2   -1    0    0  502    0  0.00000000000E+00  0.00000000000E+00  0.44563894619E+01  0.44563894619E+01  0.00000000000E+00 0.  1.
          2   -1    0    0  501    0 -0.00000000000E+00 -0.00000000000E+00 -0.56844284472E+03  0.56844284472E+03  0.00000000000E+00 0. -1.
          2    1    1    2  501    0  0.11521297830E+02 -0.17684870611E+02 -0.21948455985E+02  0.30450446177E+02  0.00000000000E+00 0.  1.
          2    1    1    2  502    0 -0.11521297830E+02  0.17684870611E+02 -0.54203799927E+03  0.54244878800E+03  0.00000000000E+00 0. -1.
</event>
<event>
 4    1  0.6688462E+003  0.3189478E+02  0.7546771E-02  0.1403815E+00
          2   -1    0    0  502    0  0.00000000000E+00  0.00000000000E+00  0.16519757724E+04  0.16519757724E+04  0.00000000000E+00 0.  1.
          2   -1    0    0  501    0 -0.00000000000E+00 -0.00000000000E+00 -0.11068152575E+01  0.11068152575E+01  0.00000000000E+00 0.  1.
          2    1    1    2  501    0 -0.10434411761E+02 -0.30139672270E+02  0.13759595825E+04  0.13763291937E+04  0.00000000000E+00 0.  1.
          2    1    1    2  502    0  0.10434411761E+02  0.30139672270E+02  0.27490937462E+03  0.27675339392E+03  0.00000000000E+00 0.  1.
</event>
<event>
 4    1  0.6688462E+003  0.3373628E+02  0.7546771E-02  0.1389672E+00
          2   -1    0    0  502    0  0.00000000000E+00  0.00000000000E+00  0.21573017701E+02  0.21573017701E+02  0.00000000000E+00 0.  1.
          2   -1    0    0  501    0 -0.00000000000E+00 -0.00000000000E+00 -0.13329726083E+03  0.13329726083E+03  0.00000000000E+00 0. -1.
          2    1    1    2  501    0  0.88588359885E+01 -0.32552383969E+02  0.43290594213E+01  0.34012900973E+02  0.00000000000E+00 0.  1.
          2    1    1    2  502    0 -0.88588359885E+01  0.32552383969E+02 -0.11605330255E+03  0.12085737756E+03  0.00000000000E+00 0. -1.
</event>
<event>
 4    1  0.6688462E+003  0.2870798E+02  0.7546771E-02  0.1431166E+00
          2   -1    0    0  502    0  0.00000000000E+00  0.00000000000E+00  0.32280867815E+02  0.32280867815E+02  0.00000000000E+00 0. -1.
          2   -1    0    0  501    0 -0.00000000000E+00 -0.00000000000E+00 -0.19896070042E+03  0.19896070042E+03  0.00000000000E+00 0. -1.
          2    1    1    2  501    0 -0.25792880538E+02  0.12604585943E+02  0.24608074052E+02  0.37811447761E+02  0.00000000000E+00 0. -1.
          2    1    1    2  502    0  0.25792880538E+02 -0.12604585943E+02 -0.19128790666E+03  0.19343012047E+03  0.00000000000E+00 0. -1.
</event>
<event>
 4    1  0.6688462E+003  0.2271147E+02  0.7546771E-02  0.1496153E+00
          2   -1    0    0  502    0  0.00000000000E+00  0.00000000000E+00  0.20321117085E+03  0.20321117085E+03  0.00000000000E+00 0.  1.
          2   -1    0    0  501    0 -0.00000000000E+00 -0.00000000000E+00 -0.85887647216E+02  0.85887647216E+02  0.00000000000E+00 0. -1.
          2    1    1    2  501    0  0.22684147425E+02 -0.11137643306E+01  0.20105916441E+03  0.20233783287E+03  0.00000000000E+00 0.  1.
          2    1    1    2  502    0 -0.22684147425E+02  0.11137643306E+01 -0.83735640780E+02  0.86760985197E+02  0.00000000000E+00 0. -1.
</event>
<event>
 4    1  0.6688462E+003  0.2001759E+02  0.7546771E-02  0.1533767E+00
          2   -1    0    0  501    0  0.00000000000E+00  0.00000000000E+00  0.14245779695E+02  0.14245779695E+02  0.00000000000E+00 0. -1.
          2   -1    0    0  502    0 -0.00000000000E+00 -0.00000000000E+00 -0.28417898145E+03  0.28417898145E+03  0.00000000000E+00 0.  1.
          2    1    1    2  501    0  0.56852865747E+01 -0.19193268349E+02 -0.27660212041E+03  0.27732550739E+03  0.00000000000E+00 0.  1.
          2    1    1    2  502    0 -0.56852865747E+01  0.19193268349E+02  0.66689186493E+01  0.21099253762E+02  0.00000000000E+00 0. -1.
</event>
<event>
 4    1  0.6688462E+003  0.2606685E+02  0.7546771E-02  0.1457214E+00
          2   -1    0    0  502    0  0.00000000000E+00  0.00000000000E+00  0.10228956381E+02  0.10228956381E+02  0.00000000000E+00 0. -1.
          2   -1    0    0  501    0 -0.00000000000E+00 -0.00000000000E+00 -0.72084912922E+03  0.72084912922E+03  0.00000000000E+00 0.  1.
          2    1    1    2  501    0  0.10986286006E+02 -0.23638570450E+02 -0.70204777853E+01  0.26995695981E+02  0.00000000000E+00 0. -1.
          2    1    1    2  502    0 -0.10986286006E+02  0.23638570450E+02 -0.70359969506E+03  0.70408238962E+03  0.00000000000E+00 0.  1.
</event>
<event>
 4    1  0.6688462E+003  0.2441641E+02  0.7546771E-02  0.1475439E+00
          2   -1    0    0  502    0  0.00000000000E+00  0.00000000000E+00  0.19975558501E+02  0.19975558501E+02  0.00000000000E+00 0. -1.
          2   -1    0    0  501    0 -0.00000000000E+00 -0.00000000000E+00 -0.58529522891E+03  0.58529522891E+03  0.00000000000E+00 0. -1.
          2    1    1    2  501    0 -0.24374139234E+02  0.14360918042E+01  0.12158838091E+02  0.27276333456E+02  0.00000000000E+00 0. -1.
          2    1    1    2  502    0  0.24374139234E+02 -0.14360918042E+01 -0.57747850850E+03  0.57799445396E+03  0.00000000000E+00 0. -1.
</event>
<event>
 4    1  0.6688462E+003  0.2231674E+02  0.7546771E-02  0.1501261E+00
          2   -1    0    0  501    0  0.00000000000E+00  0.00000000000E+00  0.14508932071E+04  0.14508932071E+04  0.00000000000E+00 0.  1.
          2   -1    0    0  502    0 -0.00000000000E+00 -0.00000000000E+00 -0.51750101416E+02  0.51750101416E+02  0.00000000000E+00 0. -1.
          2    1    1    2  501    0 -0.12537530452E+02  0.18462050913E+02 -0.49254168918E+02  0.54074117187E+02  0.00000000000E+00 0. -1.
          2    1    1    2  502    0  0.12537530452E+02 -0.18462050913E+02  0.14483972746E+04  0.14485691913E+04  0.00000000000E+00 0.  1.
</event>
<event>
 4    1  0.6688462E+003  0.2381922E+02  0.7546771E-02  0.1482460E+00
          2   -1    0    0  501    0  0.00000000000E+00  0.00000000000E+00  0.10389436185E+04  0.10389436185E+04  0.00000000000E+00 0.  1.
          2   -1    0    0  502    0 -0.00000000000E+00 -0.00000000000E+00 -0.30484386237E+02  0.30484386237E+02  0.00000000000E+00 0. -1.
          2    1    1    2  501    0 -0.20669910180E+02 -0.11836805945E+02 -0.25673386978E+02  0.35021107361E+02  0.00000000000E+00 0. -1.
          2    1    1    2  502    0  0.20669910180E+02  0.11836805945E+02  0.10341326192E+04  0.10344068973E+04  0.00000000000E+00 0.  1.
</event>
<event>
 4    1  0.6688462E+003  0.3143392E+02  0.7546771E-02  0.1407532E+00
          2   -1    0    0  501    0  0.00000000000E+00  0.00000000000E+00  0.83552139738E+03  0.83552139738E+03  0.00000000000E+00 0.  1.
          2   -1    0    0  502    0 -0.00000000000E+00 -0.00000000000E+00 -0.33932688190E+01  0.33932688190E+01  0.00000000000E+00 0.  1.
          2    1    1    2  501    0 -0.28868444257E+02 -0.12438015426E+02  0.77500618377E+02  0.83632751661E+02  0.00000000000E+00 0.  1.
          2    1    1    2  502    0  0.28868444257E+02  0.12438015426E+02  0.75462751018E+03  0.75528191454E+03  0.00000000000E+00 0.  1.
</event>
<event>
 4    1  0.6688462E+003  0.2227541E+02  0.7546771E-02  0.1501803E+00
          2   -1    0    0  502    0  0.00000000000E+00  0.00000000000E+00  0.73239191679E+03  0.73239191679E+03  0.00000000000E+00 0.  1.
          2   -1    0    0  501    0 -0.00000000000E+00 -0.00000000000E+00 -0.13686856539E+01  0.13686856539E+01  0.00000000000E+00 0. -1.
          2    1    1    2  501    0 -0.73205710664E+01  0.21038130183E+02  0.62622941626E+03  0.62662546666E+03  0.00000000000E+00 0.  1.
          2    1    1    2  502    0  0.73205710664E+01 -0.21038130183E+02  0.10479381488E+03  0.10713513578E+03  0.00000000000E+00 0. -1.
</event>
<event>
 4    1  0.6688462E+003  0.2015568E+02  0.7546771E-02  0.1531669E+00
          2   -1    0    0  501    0  0.00000000000E+00  0.00000000000E+00  0.64945667796E+03  0.64945667796E+03  0.00000000000E+00 0. -1.
          2   -1    0    0  502    0 -0.00000000000E+00 -0.00000000000E+00 -0.55602249716E+02  0.55602249716E+02  0.00000000000E+00 0. -1.
          2    1    1    2  501    0 -0.20113497340E+02 -0.13033291425E+01 -0.53613663485E+02  0.57277188778E+02  0.00000000000E+00 0. -1.
          2    1    1    2  502    0  0.20113497340E+02  0.13033291425E+01  0.64746809172E+03  0.64778173889E+03  0.00000000000E+00 0. -1.
</event>
<event>
 4    1  0.6688462E+003  0.3891781E+02  0.7546771E-02  0.1354947E+00
          2   -1    0    0  501    0  0.00000000000E+00  0.00000000000E+00  0.11751240694E+04  0.11751240694E+04  0.00000000000E+00 0. -1.
          2   -1    0    0  502    0 -0.00000000000E+00 -0.00000000000E+00 -0.34386868937E+01  0.34386868937E+01  0.00000000000E+00 0. -1.
          2    1    1    2  501    0 -0.11969794021E+02 -0.37031333180E+02  0.11990699876E+03  0.12606460232E+03  0.00000000000E+00 0. -1.
          2    1    1    2  502    0  0.11969794021E+02  0.37031333180E+02  0.10517783837E+04  0.10524981539E+04  0.00000000000E+00 0. -1.
</event>
<event>
 4    1  0.6688462E+003  0.3087485E+02  0.7546771E-02  0.1412143E+00
          2   -1    0    0  501    0  0.00000000000E+00  0.00000000000E+00  0.14718306739E+04  0.14718306739E+04  0.00000000000E+00 0.  1.
          2   -1    0    0  502    0 -0.00000000000E+00 -0.00000000000E+00 -0.66969666395E+00  0.66969666395E+00  0.00000000000E+00 0.  1.
          2    1    1    2  501    0  0.23917525831E+02 -0.19524560306E+02  0.60204767226E+03  0.60283883101E+03  0.00000000000E+00 0.  1.
          2    1    1    2  502    0 -0.23917525831E+02  0.19524560306E+02  0.86911330496E+03  0.86966153954E+03  0.00000000000E+00 0.  1.
</event>
<event>
 4    1  0.6688462E+003  0.2319917E+02  0.7546771E-02  0.1490012E+00
          2   -1    0    0  502    0  0.00000000000E+00  0.00000000000E+00  0.58245573839E+01  0.58245573839E+01  0.00000000000E+00 0.  1.
          2   -1    0    0  501    0 -0.00000000000E+00 -0.00000000000E+00 -0.16820613791E+04  0.16820613791E+04  0.00000000000E+00 0. -1.
          2    1    1    2  501    0 -0.22210012758E+02  0.67020008401E+01 -0.17683370556E+02  0.29170242992E+02  0.00000000000E+00 0.  1.
          2    1    1    2  502    0  0.22210012758E+02 -0.67020008401E+01 -0.16585534512E+04  0.16587156935E+04  0.00000000000E+00 0. -1.
</event>
<event>
 4    1  0.6688462E+003  0.2396159E+02  0.7546771E-02  0.1480764E+00
          2   -1    0    0  501    0  0.00000000000E+00  0.00000000000E+00  0.76215172449E+03  0.76215172449E+03  0.00000000000E+00 0. -1.
          2   -1    0    0  502    0 -0.00000000000E+00 -0.00000000000E+00 -0.16087429556E+02  0.16087429556E+02  0.00000000000E+00 0. -1.
          2    1    1    2  501    0  0.31006348306E+01 -0.23760130265E+02 -0.68674037052E+01  0.24926270484E+02  0.00000000000E+00 0. -1.
          2    1    1    2  502    0 -0.31006348306E+01  0.23760130265E+02  0.75293169864E+03  0.75331288357E+03  0.00000000000E+00 0. -1.
</event>
<event>
 4    1  0.6688462E+003  0.2251427E+02  0.7546771E-02  0.1498689E+00
          2   -1    0    0  502    0  0.00000000000E+00  0.00000000000E+00  0.24774089063E+02  0.24774089063E+02  0.00000000000E+00 0. -1.
          2   -1    0    0  501    0 -0.00000000000E+00 -0.00000000000E+00 -0.18807753824E+03  0.18807753824E+03  0.00000000000E+00 0.  1.
          2    1    1    2  501    0 -0.15202660526E+02  0.16606374468E+02  0.18818523288E+02  0.29343302111E+02  0.00000000000E+00 0. -1.
          2    1    1    2  502    0  0.15202660526E+02 -0.16606374468E+02 -0.18212197247E+03  0.18350832519E+03  0.00000000000E+00 0.  1.
</event>
<event>
 4    1  0.6688462E+003  0.2159061E+02  0.7546771E-02  0.1510997E+00
          2   -1    0    0  502    0  0.00000000000E+00  0.00000000000E+00  0.19179358209E+01  0.19179358209E+01  0.00000000000E+00 0.  1.
          2   -1    0    0  501    0 -0.00000000000E+00 -0.00000000000E+00 -0.15039651850E+04  0.15039651850E+04  0.00000000000E+00 0.  1.
          2    1    1    2  501    0  0.34444286928E+00  0.21587861300E+02 -0.61601356041E+02  0.65275427708E+02  0.00000000000E+00 0.  1.
          2    1    1    2  502    0 -0.34444286928E+00 -0.21587861300E+02 -0.14404458931E+04  0.14406076931E+04  0.00000000000E+00 0.  1.
</event>
<event>
 4    1  0.6688462E+003  0.2587761E+02  0.7546771E-02  0.1459221E+00
          2   -1    0    0  502    0  0.00000000000E+00  0.00000000000E+00  0.43540875195E+01  0.43540875195E+01  0.00000000000E+00 0. -1.
          2   -1    0    0  501    0 -0.00000000000E+00 -0.00000000000E+00 -0.34589902365E+03  0.34589902365E+03  0.00000000000E+00 0.  1.
          2    1    1    2  501    0  0.88710278878E+01 -0.24309572384E+02 -0.40262991011E+02  0.47861873035E+02  0.00000000000E+00 0. -1.
          2    1    1    2  502    0 -0.88710278878E+01  0.24309572384E+02 -0.30128194512E+03  0.30239123813E+03  0.00000000000E+00 0.  1.
</event>
<event>
 4    1  0.6688462E+003  0.2190717E+02  0.7546771E-02  0.1506696E+00
          2   -1    0    0  502    0  0.00000000000E+00  0.00000000000E+00  0.13339243237E+03  0.13339243237E+03  0.00000000000E+00 0.  1.
          2   -1    0    0  501    0 -0.00000000000E+00 -0.00000000000E+00 -0.98698699589E+01  0.98698699589E+01  0.00000000000E+00 0.  1.
          2    1    1    2  501    0 -0.12921630251E+02 -0.17690551995E+02  0.11886316022E+03  0.12086511083E+03  0.00000000000E+00 0.  1.
          2    1    1    2  502    0  0.12921630251E+02  0.17690551995E+02  0.46594021887E+01  0.22397191498E+02  0.00000000000E+00 0.  1.
</event>
<event>
 4    1  0.6688462E+003  0.2245522E+02  0.7546771E-02  0.1499455E+00
          2   -1    0    0  501    0  0.00000000000E+00  0.00000000000E+00  0.32492484952E+02  0.32492484952E+02  0.00000000000E+00 0. -1.
          2   -1    0    0  502    0 -0.00000000000E+00 -0.00000000000E+00 -0.22866399480E+03  0.22866399480E+03  0.00000000000E+00 0.  1.
          2    1    1    2  501    0  0.72066281224E+01  0.21267379152E+02 -0.22415522416E+03  0.22527716578E+03  0.00000000000E+00 0.  1.
          2    1    1    2  502    0 -0.72066281224E+01 -0.21267379152E+02  0.27983714307E+02  0.35879313975E+02  0.00000000000E+00 0. -1.
</event>
<event>
 4    1  0.6688462E+003  0.2545379E+02  0.7546771E-02  0.1463790E+00
          2   -1    0    0  501    0  0.00000000000E+00  0.00000000000E+00  0.26647651786E+01  0.26647651786E+01  0.00000000000E+00 0. -1.
          2   -1    0    0  502    0 -0.00000000000E+00 -0.00000000000E+00 -0.14313793487E+04  0.14313793487E+04  0.00000000000E+00 0. -1.
          2    1    1    2  501    0 -0.14092179686E+02 -0.21196838223E+02 -0.13676505430E+04  0.13678873869E+04  0.00000000000E+00 0. -1.
          2    1    1    2  502    0  0.14092179686E+02  0.21196838223E+02 -0.61064040480E+02  0.66156726935E+02  0.00000000000E+00 0. -1.
</event>
<event>
 4    1  0.6688462E+003  0.2154467E+02  0.7546771E-02  0.1511629E+00
          2   -1    0    0  502    0  0.00000000000E+00  0.00000000000E+00  0.12569358194E+04  0.12569358194E+04  0.00000000000E+00 0.  1.
          2   -1    0    0  501    0 -0.00000000000E+00 -0.00000000000E+00 -0.55856676053E+01  0.55856676053E+01  0.00000000000E+00 0.  1.
          2    1    1    2  501    0  0.17461171761E+02  0.12620635716E+02  0.12357115159E+04  0.12358993177E+04  0.00000000000E+00 0.  1.
          2    1    1    2  502    0 -0.17461171761E+02 -0.12620635716E+02  0.15638635863E+02  0.26622169273E+02  0.00000000000E+00 0.  1.
</event>
<event>
 4    1  0.6688462E+003  0.2275050E+02  0.7546771E-02  0.1495655E+00
          2   -1    0    0  502    0  0.00000000000E+00  0.00000000000E+00  0.39666239255E+01  0.39666239255E+01  0.00000000000E+00 0.  1.
          2   -1    0    0  501    0 -0.00000000000E+00 -0.00000000000E+00 -0.16417986359E+03  0.16417986359E+03  0.00000000000E+00 0.  1.
          2    1    1    2  501    0  0.19079283812E+02  0.12392175746E+02 -0.42019385522E+02  0.47782987037E+02  0.00000000000E+00 0.  1.
          2    1    1    2  502    0 -0.19079283812E+02 -0.12392175746E+02 -0.11819385415E+03  0.12036350048E+03  0.00000000000E+00 0.  1.
</event>
<event>
 4    1  0.6688462E+003  0.2405836E+02  0.7546771E-02  0.1479619E+00
          2   -1    0    0  502    0  0.00000000000E+00  0.00000000000E+00  0.77741991627E+03  0.77741991627E+03  0.00000000000E+00 0. -1.
          2   -1    0    0  501    0 -0.00000000000E+00 -0.00000000000E+00 -0.14243092205E+02  0.14243092205E+02  0.00000000000E+00 0. -1.
          2    1    1    2  501    0 -0.23400946892E+02 -0.55857319402E+01  0.76693554312E+03  0.76731279933E+03  0.00000000000E+00 0. -1.
          2    1    1    2  502    0  0.23400946892E+02  0.55857319402E+01 -0.37587190480E+01  0.24350209150E+02  0.00000000000E+00 0. -1.
</event>
<event>
 4    1  0.6688462E+003  0.2027147E+02  0.7546771E-02  0.1529925E+00
          2   -1    0    0  501    0  0.00000000000E+00  0.00000000000E+00  0.46192317545E+03  0.46192317545E+03  0.00000000000E+00 0. -1.
          2   -1    0    0  502    0 -0.00000000000E+00 -0.00000000000E+00 -0.10041528026E+01  0.10041528026E+01  0.00000000000E+00 0.  1.
          2    1    1    2  501    0 -0.39485361195E+01  0.19883201547E+02  0.15228556393E+03  0.15362885674E+03  0.00000000000E+00 0.  1.
          2    1    1    2  502    0  0.39485361195E+01 -0.19883201547E+02  0.30863345872E+03  0.30929847152E+03  0.00000000000E+00 0. -1.
</event>
<event>
 4    1  0.6688462E+003  0.3088650E+02  0.7546771E-02  0.1412046E+00
          2   -1    0    0  502    0  0.00000000000E+00  0.00000000000E+00  0.16311642101E+02  0.16311642101E+02  0.00000000000E+00 0. -1.
          2   -1    0    0  501    0 -0.00000000000E+00 -0.00000000000E+00 -0.16266879084E+04  0.16266879084E+04  0.00000000000E+00 0. -1.
          2    1    1    2  501    0  0.27700962574E+02  0.13661350494E+02  0.14087637579E+01  0.30918609933E+02  0.00000000000E+00 0. -1.
          2    1    1    2  502    0 -0.27700962574E+02 -0.13661350494E+02 -0.16117850301E+04  0.16120809406E+04  0.00000000000E+00 0. -1.
</event>
<event>
 4    1  0.6688462E+003  0.2551132E+02  0.7546771E-02  0.1463164E+00
          2   -1    0    0  501    0  0.00000000000E+00  0.00000000000E+00  0.48371448985E+03  0.48371448985E+03  0.00000000000E+00 0. -1.
          2   -1    0    0  502    0 -0.00000000000E+00 -0.00000000000E+00 -0.28508583609E+01  0.28508583609E+01  0.00000000000E+00 0. -1.
          2    1    1    2  501    0  0.93363606599E+01 -0.23741518132E+02  0.63646393228E+02  0.68568875480E+02  0.00000000000E+00 0. -1.
          2    1    1    2  502    0 -0.93363606599E+01  0.23741518132E+02  0.41721723826E+03  0.41799647273E+03  0.00000000000E+00 0. -1.
</event>
<event>
 4    1  0.1045534E+004  0.2349644E+02  0.7546771E-02  0.1486357E+00
          2   -1    0    0  502    0  0.00000000000E+00  0.00000000000E+00  0.44550208001E+03  0.44550208001E+03  0.00000000000E+00 0. -1.
          2   -1    0    0  501    0 -0.00000000000E+00 -0.00000000000E+00 -0.14701035995E+04  0.14701035995E+04  0.00000000000E+00 0. -1.
          2    1    1    2  501    0  0.43629469458E+01 -0.23087814780E+02  0.44509830077E+03  0.44571804972E+03  0.00000000000E+00 0. -1.
          2    1    1    2  502    0 -0.43629469458E+01  0.23087814780E+02 -0.14696998202E+04  0.14698876297E+04  0.00000000000E+00 0. -1.
</event>
<event>
 4    1  0.6688462E+003  0.2124672E+02  0.7546771E-02  0.1515771E+00
          2   -1    0    0  501    0  0.00000000000E+00  0.00000000000E+00  0.10452861954E+01  0.10452861954E+01  0.00000000000E+00 0.  1.
          2   -1    0    0  502    0 -0.00000000000E+00 -0.00000000000E+00 -0.82643346408E+03  0.82643346408E+03  0.00000000000E+00 0. -1.
          2    1    1    2  501    0  0.21157456493E+02 -0.19455837951E+01 -0.69857404303E+03  0.69889707172E+03  0.00000000000E+00 0. -1.
          2    1    1    2  502    0 -0.21157456493E+02  0.19455837951E+01 -0.12681413486E+03  0.12858167856E+03  0.00000000000E+00 0.  1.
</event>
<event>
 4    1  0.6688462E+003  0.5310883E+02  0.7546771E-02  0.1285228E+00
          2   -1    0    0  502    0  0.00000000000E+00  0.00000000000E+00  0.12963810257E+03  0.12963810257E+03  0.00000000000E+00 0. -1.
          2   -1    0    0  501    0 -0.00000000000E+00 -0.00000000000E+00 -0.57834743209E+03  0.57834743209E+03  0.00000000000E+00 0.  1.
          2    1    1    2  501    0 -0.17286040843E+02 -0.50216930897E+02  0.12291577545E+03  0.13389860049E+03  0.00000000000E+00 0. -1.
          2    1    1    2  502    0  0.17286040843E+02  0.50216930897E+02 -0.57162510498E+03  0.57408693418E+03  0.00000000000E+00 0.  1.
</event>
<event>
 4    1  0.6688462E+003  0.2983016E+02  0.7546771E-02  0.1421078E+00
          2   -1    0    0  502    0  0.00000000000E+00  0.00000000000E+00  0.73245516693E+01  0.73245516693E+01  0.00000000000E+00 0.  1.
          2   -1    0    0  501    0 -0.00000000000E+00 -0.00000000000E+00 -0.19280879224E+03  0.19280879224E+03  0.00000000000E+00 0.  1.
          2    1    1    2  501    0  0.22344696315E+02 -0.19762411829E+02 -0.31881422446E+02  0.43660777271E+02  0.00000000000E+00 0.  1.
          2    1    1    2  502    0 -0.22344696315E+02  0.19762411829E+02 -0.15360281813E+03  0.15647256664E+03  0.00000000000E+00 0.  1.
</event>
<event>
 4    1  0.6688462E+003  0.2071305E+02  0.7546771E-02  0.1523401E+00
          2   -1    0    0  502    0  0.00000000000E+00  0.00000000000E+00  0.84870686432E+02  0.84870686432E+02  0.00000000000E+00 0. -1.
          2   -1    0    0  501    0 -0.00000000000E+00 -0.00000000000E+00 -0.25012479961E+02  0.25012479961E+02  0.00000000000E+00 0. -1.
          2    1    1    2  501    0 -0.18069462319E+02 -0.10125471656E+02  0.79005701101E+02  0.81675770283E+02  0.00000000000E+00 0. -1.
          2    1    1    2  502    0  0.18069462319E+02  0.10125471656E+02 -0.19147494630E+02  0.28207396111E+02  0.00000000000E+00 0. -1.
</event>
<event>
 4    1  0.6688462E+003  0.4926221E+02  0.7546771E-02  0.1301403E+00
          2   -1    0    0  502    0  0.00000000000E+00  0.00000000000E+00  0.28386925736E+03  0.28386925736E+03  0.00000000000E+00 0.  1.
          2   -1    0    0  501    0 -0.00000000000E+00 -0.00000000000E+00 -0.18110310821E+02  0.18110310821E+02  0.00000000000E+00 0.  1.
          2    1    1    2  501    0  0.42157531626E+02  0.25485449920E+02  0.24258940443E+03  0.24754067297E+03  0.00000000000E+00 0.  1.
          2    1    1    2  502    0 -0.42157531626E+02 -0.25485449920E+02  0.23169542103E+02  0.54438895210E+02  0.00000000000E+00 0.  1.
</event>
<event>
 4    1  0.6688462E+003  0.2029151E+02  0.7546771E-02  0.1529625E+00
          2   -1    0    0  502    0  0.00000000000E+00  0.00000000000E+00  0.93551602651E+03  0.93551602651E+03  0.00000000000E+00 0.  1.
          2   -1    0    0  501    0 -0.00000000000E+00 -0.00000000000E+00 -0.24517811435E+01  0.24517811435E+01  0.00000000000E+00 0. -1.
          2    1    1    2  501    0  0.11388296644E+02 -0.16794408414E+02  0.89134120393E+03  0.89157214362E+03  0.00000000000E+00 0.  1.
          2    1    1    2  502    0 -0.11388296644E+02  0.16794408414E+02  0.41723041432E+02  0.46395664030E+02  0.00000000000E+00 0. -1.
</event>
<event>
 4    1  0.6688462E+003  0.3206419E+02  0.7546771E-02  0.1402468E+00
          2   -1    0    0  502    0  0.00000000000E+00  0.00000000000E+00  0.27704599633E+02  0.27704599633E+02  0.00000000000E+00 0.  1.
          2   -1    0    0  501    0 -0.00000000000E+00 -0.00000000000E+00 -0.16631004525E+04  0.16631004525E+04  0.00000000000E+00 0. -1.
          2    1    1    2  501    0  0.89449985840E+01  0.30791223565E+02  0.18219388515E+02  0.36878971869E+02  0.00000000000E+00 0.  1.
          2    1    1    2  502    0 -0.89449985840E+01 -0.30791223565E+02 -0.16536152414E+04  0.16539260802E+04  0.00000000000E+00 0. -1.
</event>
<event>
 4    1  0.6688462E+003  0.3483397E+02  0.7546771E-02  0.1381734E+00
          2   -1    0    0  502    0  0.00000000000E+00  0.00000000000E+00  0.13084669660E+01  0.13084669660E+01  0.00000000000E+00 0.  1.
          2   -1    0    0  501    0 -0.00000000000E+00 -0.00000000000E+00 -0.13675569903E+04  0.13675569903E+04  0.00000000000E+00 0.  1.
          2    1    1    2  501    0  0.22386155022E+02 -0.26688309333E+02 -0.29480680485E+03  0.29685763924E+03  0.00000000000E+00 0.  1.
          2    1    1    2  502    0 -0.22386155022E+02  0.26688309333E+02 -0.10714417185E+04  0.10720078180E+04  0.00000000000E+00 0.  1.
</event>
<event>
 4    1  0.6688462E+003  0.2349963E+02  0.7546771E-02  0.1486318E+00
          2   -1    0    0  502    0  0.00000000000E+00  0.00000000000E+00  0.76893202443E+01  0.76893202443E+01  0.00000000000E+00 0. -1.
          2   -1    0    0  501    0 -0.00000000000E+00 -0.00000000000E+00 -0.96599412380E+03  0.96599412380E+03  0.00000000000E+00 0. -1.
          2    1    1    2  501    0  0.22924592427E+02  0.51667935087E+01 -0.10757620397E+02  0.25844904522E+02  0.00000000000E+00 0. -1.
          2    1    1    2  502    0 -0.22924592427E+02 -0.51667935087E+01 -0.94754718316E+03  0.94783853952E+03  0.00000000000E+00 0. -1.
</event>
<event>
 4    1  0.6688462E+003  0.2296301E+02  0.7546771E-02  0.1492963E+00
          2   -1    0    0  501    0  0.00000000000E+00  0.00000000000E+00  0.72135703557E+01  0.72135703557E+01  0.00000000000E+00 0. -1.
          2   -1    0    0  502    0 -0.00000000000E+00 -0.00000000000E+00 -0.25403620687E+03  0.25403620687E+03  0.00000000000E+00 0.  1.
          2    1    1    2  501    0 -0.89120930339E+01  0.21163040213E+02 -0.23365225981E+03  0.23477793377E+03  0.00000000000E+00 0.  1.
          2    1    1    2  502    0  0.89120930339E+01 -0.21163040213E+02 -0.13170376709E+02  0.26471843456E+02  0.00000000000E+00 0. -1.
</event>
<event>
 4    1  0.6688462E+003  0.2166566E+02  0.7546771E-02  0.1509969E+00
          2   -1    0    0  501    0  0.00000000000E+00  0.00000000000E+00  0.12553349849E+04  0.12553349849E+04  0.00000000000E+00 0. -1.
          2   -1    0    0  502    0 -0.00000000000E+00 -0.00000000000E+00 -0.85514388430E+02  0.85514388430E+02  0.00000000000E+00 0.  1.
          2    1    1    2  501    0 -0.14732610566E+02 -0.15885560340E+02 -0.84047015258E+02  0.86794594390E+02  0.00000000000E+00 0.  1.
          2    1    1    2  502    0  0.14732610566E+02  0.15885560340E+02  0.12538676118E+04  0.12540547790E+04  0.00000000000E+00 0. -1.
</event>
<event>
 4    1  0.6688462E+003  0.2516844E+02  0.7546771E-02  0.1466928E+00
          2   -1    0    0  502    0  0.00000000000E+00  0.00000000000E+00  0.52282479260E+03  0.52282479260E+03  0.00000000000E+00 0. -1.
          2   -1    0    0  501    0 -0.00000000000E+00 -0.00000000000E+00 -0.42086314983E+02  0.42086314983E+02  0.00000000000E+00 0.  1.
          2    1    1    2  501    0 -0.21821460491E+02 -0.12540905036E+02  0.51872939918E+03  0.51933961915E+03  0.00000000000E+00 0. -1.
          2    1    1    2  502    0  0.21821460491E+02  0.12540905036E+02 -0.37990921565E+02  0.45571488438E+02  0.00000000000E+00 0.  1.
</event>
<event>
 4    1  0.6688462E+003  0.2313199E+02  0.7546771E-02  0.1490847E+00
          2   -1    0    0  501    0  0.00000000000E+00  0.00000000000E+00  0.10033814452E+04  0.10033814452E+04  0.00000000000E+00 0. -1.
          2   -1    0    0  502    0 -0.00000000000E+00 -0.00000000000E+00 -0.41761067208E+01  0.41761067208E+01  0.00000000000E+00 0. -1.
          2    1    1    2  501    0 -0.67304767657E+01 -0.22131196741E+02  0.29088206821E+02  0.37164673586E+02  0.00000000000E+00 0. -1.
          2    1    1    2  502    0  0.67304767657E+01  0.22131196741E+02  0.97011713167E+03  0.97039287835E+03  0.00000000000E+00 0. -1.
</event>
<event>
 4    1  0.6688462E+003  0.2131831E+02  0.7546771E-02  0.1514768E+00
          2   -1    0    0  501    0  0.00000000000E+00  0.00000000000E+00  0.15900256145E+01  0.15900256145E+01  0.00000000000E+00 0.  1.
          2   -1    0    0  502    0 -0.00000000000E+00 -0.00000000000E+00 -0.32119674507E+03  0.32119674507E+03  0.00000000000E+00 0.  1.
          2    1    1    2  501    0 -0.12783812607E+02  0.17060026963E+02 -0.21336123448E+03  0.21442361522E+03  0.00000000000E+00 0.  1.
          2    1    1    2  502    0  0.12783812607E+02 -0.17060026963E+02 -0.10624548497E+03  0.10836315546E+03  0.00000000000E+00 0.  1.
</event>
<event>
 4    1  0.6688462E+003  0.2014174E+02  0.7546771E-02  0.1531880E+00
          2   -1    0    0  502    0  0.00000000000E+00  0.00000000000E+00  0.47260240129E+03  0.47260240129E+03  0.00000000000E+00 0. -1.
          2   -1    0    0  501    0 -0.00000000000E+00 -0.00000000000E+00 -0.68409421568E+01  0.68409421568E+01  0.00000000000E+00 0.  1.
          2    1    1    2  501    0  0.15675532840E+02 -0.12647819264E+02  0.45705802546E+03  0.45750161563E+03  0.00000000000E+00 0. -1.
          2    1    1    2  502    0 -0.15675532840E+02  0.12647819264E+02  0.87034336672E+01  0.21941727816E+02  0.00000000000E+00 0.  1.
</event>
<event>
 4    1  0.6688462E+003  0.2150815E+02  0.7546771E-02  0.1512132E+00
          2   -1    0    0  502    0  0.00000000000E+00  0.00000000000E+00  0.82144273554E+02  0.82144273554E+02  0.00000000000E+00 0. -1.
          2   -1    0    0  501    0 -0.00000000000E+00 -0.00000000000E+00 -0.26674925453E+02  0.26674925453E+02  0.00000000000E+00 0. -1.
          2    1    1    2  501    0 -0.21060716535E+02  0.43642490785E+01  0.76060748093E+02  0.79043265694E+02  0.00000000000E+00 0. -1.
          2    1    1    2  502    0  0.21060716535E+02 -0.43642490785E+01 -0.20591399993E+02  0.29775933313E+02  0.00000000000E+00 0. -1.
</event>
<event>
 4    1  0.6688462E+003  0.3220550E+02  0.7546771E-02  0.1401351E+00
          2   -1    0    0  502    0  0.00000000000E+00  0.00000000000E+00  0.17917293204E+04  0.17917293204E+04  0.00000000000E+00 0.  1.
          2   -1    0    0  501    0 -0.00000000000E+00 -0.00000000000E+00 -0.70955488761E+02  0.70955488761E+02  0.00000000000E+00 0.  1.
          2    1    1    2  501    0 -0.29342068569E+02 -0.13275433038E+02  0.17879224374E+04  0.17882124695E+04  0.00000000000E+00 0.  1.
          2    1    1    2  502    0  0.29342068569E+02  0.13275433038E+02 -0.67148605763E+02  0.74472339604E+02  0.00000000000E+00 0.  1.
</event>
<event>
 4    1  0.6688462E+003  0.2133274E+02  0.7546771E-02  0.1514567E+00
          2   -1    0    0  501    0  0.00000000000E+00  0.00000000000E+00  0.12471616875E+03  0.12471616875E+03  0.00000000000E+00 0. -1.
          2   -1    0    0  502    0 -0.00000000000E+00 -0.00000000000E+00 -0.70623188947E+02  0.70623188947E+02  0.00000000000E+00 0.  1.
          2    1    1    2  501    0 -0.63878242141E-01 -0.21332640516E+02 -0.68066519828E+02  0.71331176588E+02  0.00000000000E+00 0.  1.
          2    1    1    2  502    0  0.63878242141E-01  0.21332640516E+02  0.12215949963E+03  0.12400818111E+03  0.00000000000E+00 0. -1.
</event>
<event>
 4    1  0.6688462E+003  0.4634889E+02  0.7546771E-02  0.1314829E+00
          2   -1    0    0  501    0  0.00000000000E+00  0.00000000000E+00  0.35529507638E+01  0.35529507638E+01  0.00000000000E+00 0. -1.
          2   -1    0    0  502    0 -0.00000000000E+00 -0.00000000000E+00 -0.11056016836E+04  0.11056016836E+04  0.00000000000E+00 0.  1.
          2    1    1    2  501    0 -0.41855573568E+02  0.19908043706E+02 -0.92433427238E+03  0.92549557877E+03  0.00000000000E+00 0.  1.
          2    1    1    2  502    0  0.41855573568E+02 -0.19908043706E+02 -0.17771446044E+03  0.18365905556E+03  0.00000000000E+00 0. -1.
</event>
<event>
 4    1  0.6688462E+003  0.2041081E+02  0.7546771E-02  0.1527846E+00
          2   -1    0    0  501    0  0.00000000000E+00  0.00000000000E+00  0.17833111283E+02  0.17833111283E+02  0.00000000000E+00 0.  1.
          2   -1    0    0  502    0 -0.00000000000E+00 -0.00000000000E+00 -0.14302114775E+03  0.14302114775E+03  0.00000000000E+00 0.  1.
          2    1    1    2  501    0  0.61427089722E+01  0.19464539201E+02 -0.13615999722E+03  0.13768132045E+03  0.00000000000E+00 0.  1.
          2    1    1    2  502    0 -0.61427089722E+01 -0.19464539201E+02  0.10971960748E+02  0.23172938581E+02  0.00000000000E+00 0.  1.
</event>
<event>
 4    1  0.6688462E+003  0.2222121E+02  0.7546771E-02  0.1502516E+00
          2   -1    0    0  501    0  0.00000000000E+00  0.00000000000E+00  0.25169202488E+02  0.25169202488E+02  0.00000000000E+00 0. -1.
          2   -1    0    0  502    0 -0.00000000000E+00 -0.00000000000E+00 -0.10271628922E+03  0.10271628922E+03  0.00000000000E+00 0. -1.
          2    1    1    2  501    0 -0.15022457546E+02  0.16373999180E+02 -0.96286586506E+02  0.98817452006E+02  0.00000000000E+00 0. -1.
          2    1    1    2  502    0  0.15022457546E+02 -0.16373999180E+02  0.18739499779E+02  0.29068039698E+02  0.00000000000E+00 0. -1.
</event>
<event>
 4    1  0.6688462E+003  0.4051553E+02  0.7546771E-02  0.1345491E+00
          2   -1    0    0  501    0  0.00000000000E+00  0.00000000000E+00  0.10946452283E+03  0.10946452283E+03  0.00000000000E+00 0. -1.
          2   -1    0    0  502    0 -0.00000000000E+00 -0.00000000000E+00 -0.20031979628E+03  0.20031979628E+03  0.00000000000E+00 0. -1.
          2    1    1    2  501    0  0.36281968197E+02 -0.18031276593E+02 -0.19440947463E+03  0.19858638417E+03  0.00000000000E+00 0. -1.
          2    1    1    2  502    0 -0.36281968197E+02  0.18031276593E+02  0.10355420119E+03  0.11119793494E+03  0.00000000000E+00 0. -1.
</event>
<event>
 4    1  0.6688462E+003  0.2678842E+02  0.7546771E-02  0.1449745E+00
          2   -1    0    0  502    0  0.00000000000E+00  0.00000000000E+00  0.99999618837E+03  0.99999618837E+03  0.00000000000E+00 0. -1.
          2   -1    0    0  501    0 -0.00000000000E+00 -0.00000000000E+00 -0.48828965690E+01  0.48828965690E+01  0.00000000000E+00 0.  1.
          2    1    1    2  501    0 -0.16430176504E+02 -0.21158182160E+02  0.96160887238E+03  0.96198193477E+03  0.00000000000E+00 0. -1.
          2    1    1    2  502    0  0.16430176504E+02  0.21158182160E+02  0.33504419416E+02  0.42897150170E+02  0.00000000000E+00 0.  1.
</event>
<event>
 4    1  0.6688462E+003  0.2082982E+02  0.7546771E-02  0.1521708E+00
          2   -1    0    0  501    0  0.00000000000E+00  0.00000000000E+00  0.17568653392E+01  0.17568653392E+01  0.00000000000E+00 0.  1.
          2   -1    0    0  502    0 -0.00000000000E+00 -0.00000000000E+00 -0.27453744789E+03  0.27453744789E+03  0.00000000000E+00 0.  1.
          2    1    1    2  501    0 -0.58998278010E+01 -0.19976825046E+02 -0.18017183855E+03  0.18137191875E+03  0.00000000000E+00 0.  1.
          2    1    1    2  502    0  0.58998278010E+01  0.19976825046E+02 -0.92608744003E+02  0.94922394475E+02  0.00000000000E+00 0.  1.
</event>
<event>
 4    1  0.6688462E+003  0.2427792E+02  0.7546771E-02  0.1477046E+00
          2   -1    0    0  501    0  0.00000000000E+00  0.00000000000E+00  0.79666040398E+01  0.79666040398E+01  0.00000000000E+00 0.  1.
          2   -1    0    0  502    0 -0.00000000000E+00 -0.00000000000E+00 -0.38691004837E+03  0.38691004837E+03  0.00000000000E+00 0.  1.
          2    1    1    2  501    0 -0.21146135174E+02 -0.11927218934E+02 -0.36703203024E+03  0.36783410501E+03  0.00000000000E+00 0.  1.
          2    1    1    2  502    0  0.21146135174E+02  0.11927218934E+02 -0.11911414087E+02  0.27042547400E+02  0.00000000000E+00 0.  1.
</event>
<event>
 4    1  0.6688462E+003  0.4686468E+02  0.7546771E-02  0.1312370E+00
          2   -1    0    0  502    0  0.00000000000E+00  0.00000000000E+00  0.71932694769E+03  0.71932694769E+03  0.00000000000E+00 0. -1.
          2   -1    0    0  501    0 -0.00000000000E+00 -0.00000000000E+00 -0.42799375765E+03  0.42799375765E+03  0.00000000000E+00 0. -1.
          2    1    1    2  501    0  0.17518130626E+02 -0.43467381175E+02  0.71727706504E+03  0.71880643163E+03  0.00000000000E+00 0. -1.
          2    1    1    2  502    0 -0.17518130626E+02  0.43467381175E+02 -0.42594387499E+03  0.42851427371E+03  0.00000000000E+00 0. -1.
</event>
<event>
 4    1  0.6688462E+003  0.4310481E+02  0.7546771E-02  0.1331193E+00
          2   -1    0    0  501    0  0.00000000000E+00  0.00000000000E+00  0.13040889361E+04  0.13040889361E+04  0.00000000000E+00 0. -1.
          2   -1    0    0  502    0 -0.00000000000E+00 -0.00000000000E+00 -0.20250523397E+03  0.20250523397E+03  0.00000000000E+00 0. -1.
          2    1    1    2  501    0  0.63016755273E+00  0.43100200555E+02 -0.19985056632E+03  0.20444626007E+03  0.00000000000E+00 0. -1.
          2    1    1    2  502    0 -0.63016755273E+00 -0.43100200555E+02  0.13014342684E+04  0.13021479099E+04  0.00000000000E+00 0. -1.
</event>
<event>
 4    1  0.6688462E+003  0.2415590E+02  0.7546771E-02  0.1478472E+00
          2   -1    0    0  501    0  0.00000000000E+00  0.00000000000E+00  0.55454170376E+01  0.55454170376E+01  0.00000000000E+00 0.  1.
          2   -1    0    0  502    0 -0.00000000000E+00 -0.00000000000E+00 -0.15190244135E+03  0.15190244135E+03  0.00000000000E+00 0.  1.
          2    1    1    2  501    0 -0.11993952828E+02 -0.20967889618E+02 -0.11681860148E+03  0.11928995327E+03  0.00000000000E+00 0.  1.
          2    1    1    2  502    0  0.11993952828E+02  0.20967889618E+02 -0.29538422829E+02  0.38157905114E+02  0.00000000000E+00 0.  1.
</event>
<event>
 4    1  0.6688462E+003  0.2960085E+02  0.7546771E-02  0.1423097E+00
          2   -1    0    0  502    0  0.00000000000E+00  0.00000000000E+00  0.55719273494E+03  0.55719273494E+03  0.00000000000E+00 0. -1.
          2   -1    0    0  501    0 -0.00000000000E+00 -0.00000000000E+00 -0.19081542958E+01  0.19081542958E+01  0.00000000000E+00 0. -1.
          2    1    1    2  501    0  0.57482277255E+01  0.29037361433E+02  0.39488089173E+03  0.39598879925E+03  0.00000000000E+00 0. -1.
          2    1    1    2  502    0 -0.57482277255E+01 -0.29037361433E+02  0.16040368891E+03  0.16311208998E+03  0.00000000000E+00 0. -1.
</event>
<event>
 4    1  0.6688462E+003  0.2166065E+02  0.7546771E-02  0.1510038E+00
          2   -1    0    0  501    0  0.00000000000E+00  0.00000000000E+00  0.51098017528E+03  0.51098017528E+03  0.00000000000E+00 0.  1.
          2   -1    0    0  502    0 -0.00000000000E+00 -0.00000000000E+00 -0.10066123172E+03  0.10066123172E+03  0.00000000000E+00 0.  1.
          2    1    1    2  501    0  0.10806531254E+02  0.18772394473E+02 -0.99263230690E+02  0.10159907912E+03  0.00000000000E+00 0.  1.
          2    1    1    2  502    0 -0.10806531254E+02 -0.18772394473E+02  0.50958217425E+03  0.51004232788E+03  0.00000000000E+00 0.  1.
</event>
<event>
 4    1  0.6688462E+003  0.3099801E+02  0.7546771E-02  0.1411117E+00
          2   -1    0    0  501    0  0.00000000000E+00  0.00000000000E+00  0.78132184788E+03  0.78132184788E+03  0.00000000000E+00 0. -1.
          2   -1    0    0  502    0 -0.00000000000E+00 -0.00000000000E+00 -0.12333767870E+01  0.12333767870E+01  0.00000000000E+00 0. -1.
          2    1    1    2  501    0  0.12668726268E+01  0.30972106805E+02  0.36899879913E+03  0.37029851488E+03  0.00000000000E+00 0. -1.
          2    1    1    2  502    0 -0.12668726268E+01 -0.30972106805E+02  0.41108967197E+03  0.41225670979E+03  0.00000000000E+00 0. -1.
</event>
<event>
 4    1  0.6688462E+003  0.2203816E+02  0.7546771E-02  0.1504943E+00
          2   -1    0    0  502    0  0.00000000000E+00  0.00000000000E+00  0.60502071797E+00  0.60502071797E+00  0.00000000000E+00 0.  1.
          2   -1    0    0  501    0 -0.00000000000E+00 -0.00000000000E+00 -0.11178135942E+04  0.11178135942E+04  0.00000000000E+00 0.  1.
          2    1    1    2  501    0 -0.36782058415E-01  0.22038125283E+02 -0.26171885965E+03  0.26264508717E+03  0.00000000000E+00 0.  1.
          2    1    1    2  502    0  0.36782058415E-01 -0.22038125283E+02 -0.85548971384E+03  0.85577352775E+03  0.00000000000E+00 0.  1.
</event>
<event>
 4    1  0.6688462E+003  0.4574362E+02  0.7546771E-02  0.1317762E+00
          2   -1    0    0  501    0  0.00000000000E+00  0.00000000000E+00  0.27395255233E+03  0.27395255233E+03  0.00000000000E+00 0.  1.
          2   -1    0    0  502    0 -0.00000000000E+00 -0.00000000000E+00 -0.97103953537E+01  0.97103953537E+01  0.00000000000E+00 0.  1.
          2    1    1    2  501    0  0.33125455790E+02  0.31546519346E+02  0.66600257488E+02  0.80796491270E+02  0.00000000000E+00 0.  1.
          2    1    1    2  502    0 -0.33125455790E+02 -0.31546519346E+02  0.19764189949E+03  0.20286645641E+03  0.00000000000E+00 0.  1.
</event>
<event>
 4    1  0.6688462E+003  0.2798831E+02  0.7546771E-02  0.1437925E+00
          2   -1    0    0  502    0  0.00000000000E+00  0.00000000000E+00  0.19764452370E+02  0.19764452370E+02  0.00000000000E+00 0. -1.
          2   -1    0    0  501    0 -0.00000000000E+00 -0.00000000000E+00 -0.10694873489E+03  0.10694873489E+03  0.00000000000E+00 0.  1.
          2    1    1    2  501    0 -0.16704865311E+02  0.22456464564E+02  0.66720728678E+01  0.28772589076E+02  0.00000000000E+00 0. -1.
          2    1    1    2  502    0  0.16704865311E+02 -0.22456464564E+02 -0.93856355391E+02  0.97940598186E+02  0.00000000000E+00 0.  1.
</event>
<event>
 4    1  0.6688462E+003  0.2679135E+02  0.7546771E-02  0.1449715E+00
          2   -1    0    0  502    0  0.00000000000E+00  0.00000000000E+00  0.48715654673E+02  0.48715654673E+02  0.00000000000E+00 0. -1.
          2   -1    0    0  501    0 -0.00000000000E+00 -0.00000000000E+00 -0.35888425876E+02  0.35888425876E+02  0.00000000000E+00 0. -1.
          2    1    1    2  501    0 -0.11290795738E+02 -0.24295969498E+02  0.38891278401E+02  0.47226134056E+02  0.00000000000E+00 0. -1.
          2    1    1    2  502    0  0.11290795738E+02  0.24295969498E+02 -0.26064049603E+02  0.37377946492E+02  0.00000000000E+00 0. -1.
</event>
<event>
 4    1  0.6688462E+003  0.2684755E+02  0.7546771E-02  0.1449146E+00
          2   -1    0    0  502    0  0.00000000000E+00  0.00000000000E+00  0.28040050713E+02  0.28040050713E+02  0.00000000000E+00 0.  1.
          2   -1    0    0  501    0 -0.00000000000E+00 -0.00000000000E+00 -0.27512758538E+02  0.27512758538E+02  0.00000000000E+00 0. -1.
          2    1    1    2  501    0 -0.26569498432E+02 -0.38538862322E+01 -0.68548526246E+01  0.27708837770E+02  0.00000000000E+00 0.  1.
          2    1    1    2  502    0  0.26569498432E+02  0.38538862322E+01  0.73821447994E+01  0.27843971482E+02  0.00000000000E+00 0. -1.
</event>
<event>
 4    1  0.8517586E+003  0.3831943E+02  0.7546771E-02  0.1358626E+00
          2   -1    0    0  502    0  0.00000000000E+00  0.00000000000E+00  0.58567963257E+03  0.58567963257E+03  0.00000000000E+00 0. -1.
          2   -1    0    0  501    0 -0.00000000000E+00 -0.00000000000E+00 -0.14913546946E+04  0.14913546946E+04  0.00000000000E+00 0.  1.
          2    1    1    2  501    0 -0.16844676607E+02 -0.34418538966E+02  0.58480633267E+03  0.58606042836E+03  0.00000000000E+00 0. -1.
          2    1    1    2  502    0  0.16844676607E+02  0.34418538966E+02 -0.14904813947E+04  0.14909738988E+04  0.00000000000E+00 0.  1.
</event>
<event>
 4    1  0.6688462E+003  0.2116425E+02  0.7546771E-02  0.1516933E+00
          2   -1    0    0  501    0  0.00000000000E+00  0.00000000000E+00  0.82807524750E+03  0.82807524750E+03  0.00000000000E+00 0. -1.
          2   -1    0    0  502    0 -0.00000000000E+00 -0.00000000000E+00 -0.14430902659E+02  0.14430902659E+02  0.00000000000E+00 0.  1.
          2    1    1    2  501    0  0.13012725256E+02  0.16691149526E+02 -0.64604362608E+01  0.22128324107E+02  0.00000000000E+00 0.  1.
          2    1    1    2  502    0 -0.13012725256E+02 -0.16691149526E+02  0.82010478111E+03  0.82037782606E+03  0.00000000000E+00 0. -1.
</event>
<event>
 4    1  0.6688462E+003  0.2268216E+02  0.7546771E-02  0.1496528E+00
          2   -1    0    0  501    0  0.00000000000E+00  0.00000000000E+00  0.29239310456E+02  0.29239310456E+02  0.00000000000E+00 0. -1.
          2   -1    0    0  502    0 -0.00000000000E+00 -0.00000000000E+00 -0.58533936475E+03  0.58533936475E+03  0.00000000000E+00 0. -1.
          2    1    1    2  501    0 -0.42158088513E+01 -0.22286927296E+02 -0.58068551394E+03  0.58112833890E+03  0.00000000000E+00 0. -1.
          2    1    1    2  502    0  0.42158088513E+01  0.22286927296E+02  0.24585459650E+02  0.33450336303E+02  0.00000000000E+00 0. -1.
</event>
<event>
 4    1  0.6688462E+003  0.3019440E+02  0.7546771E-02  0.1417914E+00
          2   -1    0    0  502    0  0.00000000000E+00  0.00000000000E+00  0.16832045080E+02  0.16832045080E+02  0.00000000000E+00 0.  1.
          2   -1    0    0  501    0 -0.00000000000E+00 -0.00000000000E+00 -0.69957454733E+02  0.69957454733E+02  0.00000000000E+00 0.  1.
          2    1    1    2  501    0 -0.26875428561E+02  0.13762748174E+02 -0.59445513654E+01  0.30774008328E+02  0.00000000000E+00 0.  1.
          2    1    1    2  502    0  0.26875428561E+02 -0.13762748174E+02 -0.47180858287E+02  0.56015491485E+02  0.00000000000E+00 0.  1.
</event>
<event>
 4    1  0.6688462E+003  0.2012514E+02  0.7546771E-02  0.1532131E+00
          2   -1    0    0  502    0  0.00000000000E+00  0.00000000000E+00  0.19564668245E+03  0.19564668245E+03  0.00000000000E+00 0.  1.
          2   -1    0    0  501    0 -0.00000000000E+00 -0.00000000000E+00 -0.33314901254E+01  0.33314901254E+01  0.00000000000E+00 0. -1.
          2    1    1    2  501    0  0.64220819105E+01 -0.19072969973E+02  0.15737421575E+03  0.15865580702E+03  0.00000000000E+00 0.  1.
          2    1    1    2  502    0 -0.64220819105E+01  0.19072969973E+02  0.34940976578E+02  0.40322365554E+02  0.00000000000E+00 0. -1.
</event>
<event>
 4    1  0.6688462E+003  0.2271027E+02  0.7546771E-02  0.1496169E+00
          2   -1    0    0  502    0  0.00000000000E+00  0.00000000000E+00  0.67373237525E+02  0.67373237525E+02  0.00000000000E+00 0. -1.
          2   -1    0    0  501    0 -0.00000000000E+00 -0.00000000000E+00 -0.60155713302E+03  0.60155713302E+03  0.00000000000E+00 0.  1.
          2    1    1    2  501    0 -0.22632653979E+02  0.18759756171E+01  0.65238278784E+02  0.69078139302E+02  0.00000000000E+00 0. -1.
          2    1    1    2  502    0  0.22632653979E+02 -0.18759756171E+01 -0.59942217428E+03  0.59985223125E+03  0.00000000000E+00 0.  1.
</event>
<event>
 4    1  0.6688462E+003  0.2389536E+02  0.7546771E-02  0.1481551E+00
          2   -1    0    0  501    0  0.00000000000E+00  0.00000000000E+00  0.55566553785E+03  0.55566553785E+03  0.00000000000E+00 0. -1.
          2   -1    0    0  502    0 -0.00000000000E+00 -0.00000000000E+00 -0.50300510493E+02  0.50300510493E+02  0.00000000000E+00 0. -1.
          2    1    1    2  501    0 -0.18398577958E+02 -0.15247310200E+02 -0.47189763144E+02  0.52894819074E+02  0.00000000000E+00 0. -1.
          2    1    1    2  502    0  0.18398577958E+02  0.15247310200E+02  0.55255479050E+03  0.55307122927E+03  0.00000000000E+00 0. -1.
</event>
<event>
 4    1  0.6688462E+003  0.2615011E+02  0.7546771E-02  0.1456337E+00
          2   -1    0    0  501    0  0.00000000000E+00  0.00000000000E+00  0.12817140169E+01  0.12817140169E+01  0.00000000000E+00 0. -1.
          2   -1    0    0  502    0 -0.00000000000E+00 -0.00000000000E+00 -0.15435652581E+04  0.15435652581E+04  0.00000000000E+00 0.  1.
          2    1    1    2  501    0 -0.25461390641E+02 -0.59620411571E+01 -0.13959719545E+04  0.13962168621E+04  0.00000000000E+00 0.  1.
          2    1    1    2  502    0  0.25461390641E+02  0.59620411571E+01 -0.14631158958E+03  0.14863010999E+03  0.00000000000E+00 0. -1.
</event>
<event>
 4    1  0.7747319E+003  0.2471689E+02  0.7546771E-02  0.1471996E+00
          2   -1    0    0  501    0  0.00000000000E+00  0.00000000000E+00  0.30097147520E+03  0.30097147520E+03  0.00000000000E+00 0. -1.
          2   -1    0    0  502    0 -0.00000000000E+00 -0.00000000000E+00 -0.12413402598E+04  0.12413402598E+04  0.00000000000E+00 0. -1.
          2    1    1    2  501    0 -0.17502285584E+02  0.17452643286E+02 -0.12407095038E+04  0.12409556791E+04  0.00000000000E+00 0. -1.
          2    1    1    2  502    0  0.17502285584E+02 -0.17452643286E+02  0.30034071923E+03  0.30135605583E+03  0.00000000000E+00 0. -1.
</event>
<event>
 4    1  0.6688462E+003  0.2009536E+02  0.7546771E-02  0.1532583E+00
          2   -1    0    0  501    0  0.00000000000E+00  0.00000000000E+00  0.14000342196E+02  0.14000342196E+02  0.00000000000E+00 0.  1.
          2   -1    0    0  502    0 -0.00000000000E+00 -0.00000000000E+00 -0.45476592956E+03  0.45476592956E+03  0.00000000000E+00 0. -1.
          2    1    1    2  501    0  0.12960549217E+02  0.15357327552E+02 -0.44721122683E+03  0.44766248977E+03  0.00000000000E+00 0. -1.
          2    1    1    2  502    0 -0.12960549217E+02 -0.15357327552E+02  0.64456394734E+01  0.21103781977E+02  0.00000000000E+00 0.  1.
</event>
<event>
 4    1  0.6688462E+003  0.2897924E+02  0.7546771E-02  0.1428679E+00
          2   -1    0    0  502    0  0.00000000000E+00  0.00000000000E+00  0.53977501886E+01  0.53977501886E+01  0.00000000000E+00 0. -1.
          2   -1    0    0  501    0 -0.00000000000E+00 -0.00000000000E+00 -0.15252851158E+04  0.15252851158E+04  0.00000000000E+00 0. -1.
          2    1    1    2  501    0 -0.17554026191E+02 -0.23057594327E+02 -0.34685192549E+02  0.45197998560E+02  0.00000000000E+00 0. -1.
          2    1    1    2  502    0  0.17554026191E+02  0.23057594327E+02 -0.14852021730E+04  0.14854848674E+04  0.00000000000E+00 0. -1.
</event>
<event>
 4    1  0.6688462E+003  0.2498417E+02  0.7546771E-02  0.1468981E+00
          2   -1    0    0  501    0  0.00000000000E+00  0.00000000000E+00  0.64457705349E+02  0.64457705349E+02  0.00000000000E+00 0. -1.
          2   -1    0    0  502    0 -0.00000000000E+00 -0.00000000000E+00 -0.10523392147E+03  0.10523392147E+03  0.00000000000E+00 0. -1.
          2    1    1    2  501    0 -0.17117464000E+02  0.18198936102E+02 -0.10123581235E+03  0.10427319191E+03  0.00000000000E+00 0. -1.
          2    1    1    2  502    0  0.17117464000E+02 -0.18198936102E+02  0.60459596231E+02  0.65418434906E+02  0.00000000000E+00 0. -1.
</event>
<event>
 4    1  0.6688462E+003  0.3782040E+02  0.7546771E-02  0.1361754E+00
          2   -1    0    0  501    0  0.00000000000E+00  0.00000000000E+00  0.10494507898E+04  0.10494507898E+04  0.00000000000E+00 0. -1.
          2   -1    0    0  502    0 -0.00000000000E+00 -0.00000000000E+00 -0.60375388230E+01  0.60375388230E+01  0.00000000000E+00 0. -1.
          2    1    1    2  501    0 -0.37711842025E+02  0.28635186820E+01  0.57337130260E+02  0.68687184209E+02  0.00000000000E+00 0. -1.
          2    1    1    2  502    0  0.37711842025E+02 -0.28635186820E+01  0.98607612069E+03  0.98680114439E+03  0.00000000000E+00 0. -1.
</event>
<event>
 4    1  0.6688462E+003  0.2618210E+02  0.7546771E-02  0.1456002E+00
          2   -1    0    0  502    0  0.00000000000E+00  0.00000000000E+00  0.13820554179E+03  0.13820554179E+03  0.00000000000E+00 0. -1.
          2   -1    0    0  501    0 -0.00000000000E+00 -0.00000000000E+00 -0.58000308083E+01  0.58000308083E+01  0.00000000000E+00 0. -1.
          2    1    1    2  501    0  0.24211669235E+02  0.99648147244E+01  0.38801137969E+02  0.46808447606E+02  0.00000000000E+00 0. -1.
          2    1    1    2  502    0 -0.24211669235E+02 -0.99648147244E+01  0.93604373012E+02  0.97197124991E+02  0.00000000000E+00 0. -1.
</event>
<event>
 4    1  0.6688462E+003  0.2549394E+02  0.7546771E-02  0.1463353E+00
          2   -1    0    0  502    0  0.00000000000E+00  0.00000000000E+00  0.36937202569E+00  0.36937202569E+00  0.00000000000E+00 0. -1.
          2   -1    0    0  501    0 -0.00000000000E+00 -0.00000000000E+00 -0.23485917510E+04  0.23485917510E+04  0.00000000000E+00 0. -1.
          2    1    1    2  501    0 -0.19182778011E+02 -0.16791720034E+02 -0.58594122282E+03  0.58649557324E+03  0.00000000000E+00 0. -1.
          2    1    1    2  502    0  0.19182778011E+02  0.16791720034E+02 -0.17622811561E+04  0.17624655498E+04  0.00000000000E+00 0. -1.
</event>
<event>
 4    1  0.6688462E+003  0.2173787E+02  0.7546771E-02  0.1508985E+00
          2   -1    0    0  502    0  0.00000000000E+00  0.00000000000E+00  0.29688690020E+03  0.29688690020E+03  0.00000000000E+00 0.  1.
          2   -1    0    0  501    0 -0.00000000000E+00 -0.00000000000E+00 -0.73021511332E+01  0.73021511332E+01  0.00000000000E+00 0. -1.
          2    1    1    2  501    0  0.21171393680E+02  0.49302242212E+01  0.27929350275E+03  0.28013817252E+03  0.00000000000E+00 0.  1.
          2    1    1    2  502    0 -0.21171393680E+02 -0.49302242212E+01  0.10291246317E+02  0.24050878819E+02  0.00000000000E+00 0. -1.
</event>
<event>
 4    1  0.6688462E+003  0.4541793E+02  0.7546771E-02  0.1319363E+00
          2   -1    0    0  501    0  0.00000000000E+00  0.00000000000E+00  0.16813690065E+02  0.16813690065E+02  0.00000000000E+00 0. -1.
          2   -1    0    0  502    0 -0.00000000000E+00 -0.00000000000E+00 -0.11877408974E+04  0.11877408974E+04  0.00000000000E+00 0. -1.
          2    1    1    2  501    0 -0.31980416572E+01 -0.45305196118E+02 -0.11557878394E+04  0.11566798684E+04  0.00000000000E+00 0. -1.
          2    1    1    2  502    0  0.31980416572E+01  0.45305196118E+02 -0.15139367966E+02  0.47874719092E+02  0.00000000000E+00 0. -1.
</event>
<event>
 4    1  0.6688462E+003  0.2996399E+02  0.7546771E-02  0.1419910E+00
          2   -1    0    0  502    0  0.00000000000E+00  0.00000000000E+00  0.17734287927E+02  0.17734287927E+02  0.00000000000E+00 0. -1.
          2   -1    0    0  501    0 -0.00000000000E+00 -0.00000000000E+00 -0.16556830126E+03  0.16556830126E+03  0.00000000000E+00 0. -1.
          2    1    1    2  501    0 -0.29197578301E+02  0.67336484059E+01  0.24467591726E+01  0.30063719496E+02  0.00000000000E+00 0. -1.
          2    1    1    2  502    0  0.29197578301E+02 -0.67336484059E+01 -0.15028077250E+03  0.15323886969E+03  0.00000000000E+00 0. -1.
</event>
<event>
 4    1  0.6688462E+003  0.2261941E+02  0.7546771E-02  0.1497333E+00
          2   -1    0    0  501    0  0.00000000000E+00  0.00000000000E+00  0.45606053839E+01  0.45606053839E+01  0.00000000000E+00 0. -1.
          2   -1    0    0  502    0 -0.00000000000E+00 -0.00000000000E+00 -0.10075772194E+04  0.10075772194E+04  0.00000000000E+00 0.  1.
          2    1    1    2  501    0  0.34574615169E+01  0.22353604047E+02 -0.97857250043E+03  0.97883388593E+03  0.00000000000E+00 0.  1.
          2    1    1    2  502    0 -0.34574615169E+01 -0.22353604047E+02 -0.24444113593E+02  0.33303938857E+02  0.00000000000E+00 0. -1.
</event>
<event>
 4    1  0.6688462E+003  0.3570962E+02  0.7546771E-02  0.1375642E+00
          2   -1    0    0  501    0  0.00000000000E+00  0.00000000000E+00  0.14255613202E+02  0.14255613202E+02  0.00000000000E+00 0. -1.
          2   -1    0    0  502    0 -0.00000000000E+00 -0.00000000000E+00 -0.48728324230E+03  0.48728324230E+03  0.00000000000E+00 0. -1.
          2    1    1    2  501    0  0.32590420875E+02  0.14595937249E+02 -0.46310025339E+03  0.46447499567E+03  0.00000000000E+00 0. -1.
          2    1    1    2  502    0 -0.32590420875E+02 -0.14595937249E+02 -0.99273757102E+01  0.37063859830E+02  0.00000000000E+00 0. -1.
</event>
<event>
 4    1  0.6688462E+003  0.2137056E+02  0.7546771E-02  0.1514040E+00
          2   -1    0    0  501    0  0.00000000000E+00  0.00000000000E+00  0.61200100197E+01  0.61200100197E+01  0.00000000000E+00 0.  1.
          2   -1    0    0  502    0 -0.00000000000E+00 -0.00000000000E+00 -0.11341179844E+04  0.11341179844E+04  0.00000000000E+00 0. -1.
          2    1    1    2  501    0  0.98609364023E+01 -0.18959500215E+02 -0.11150421334E+04  0.11152469054E+04  0.00000000000E+00 0. -1.
          2    1    1    2  502    0 -0.98609364023E+01  0.18959500215E+02 -0.12955840960E+02  0.24991089014E+02  0.00000000000E+00 0.  1.
</event>
<event>
 4    1  0.6688462E+003  0.6359425E+02  0.7546771E-02  0.1248086E+00
          2   -1    0    0  501    0  0.00000000000E+00  0.00000000000E+00  0.96836391074E+01  0.96836391074E+01  0.00000000000E+00 0. -1.
          2   -1    0    0  502    0 -0.00000000000E+00 -0.00000000000E+00 -0.18906209383E+04  0.18906209383E+04  0.00000000000E+00 0.  1.
          2    1    1    2  501    0  0.63591206497E+02  0.62218573005E+00 -0.17791370050E+04  0.17802732125E+04  0.00000000000E+00 0.  1.
          2    1    1    2  502    0 -0.63591206497E+02 -0.62218573005E+00 -0.10180029419E+03  0.12003136488E+03  0.00000000000E+00 0. -1.
</event>
<event>
 4    1  0.6688462E+003  0.2205493E+02  0.7546771E-02  0.1504719E+00
          2   -1    0    0  502    0  0.00000000000E+00  0.00000000000E+00  0.87903031613E+01  0.87903031613E+01  0.00000000000E+00 0. -1.
          2   -1    0    0  501    0 -0.00000000000E+00 -0.00000000000E+00 -0.61020190375E+03  0.61020190375E+03  0.00000000000E+00 0. -1.
          2    1    1    2  501    0  0.83319874046E+01  0.20420523826E+02 -0.55764213573E+01  0.22748984210E+02  0.00000000000E+00 0. -1.
          2    1    1    2  502    0 -0.83319874046E+01 -0.20420523826E+02 -0.59583517923E+03  0.59624322270E+03  0.00000000000E+00 0. -1.
</event>
<event>
 4    1  0.6688462E+003  0.2324544E+02  0.7546771E-02  0.1489439E+00
          2   -1    0    0  501    0  0.00000000000E+00  0.00000000000E+00  0.12185929394E+04  0.12185929394E+04  0.00000000000E+00 0. -1.
          2   -1    0    0  502    0 -0.00000000000E+00 -0.00000000000E+00 -0.85158566760E+01  0.85158566760E+01  0.00000000000E+00 0. -1.
          2    1    1    2  501    0  0.22862147304E+02 -0.42038949678E+01  0.76716061160E+01  0.24478644829E+02  0.00000000000E+00 0. -1.
          2    1    1    2  502    0 -0.22862147304E+02  0.42038949678E+01  0.12024054766E+04  0.12026301513E+04  0.00000000000E+00 0. -1.
</event>
<event>
 4    1  0.6688462E+003  0.4939072E+02  0.7546771E-02  0.1300836E+00
          2   -1    0    0  502    0  0.00000000000E+00  0.00000000000E+00  0.30937366673E+03  0.30937366673E+03  0.00000000000E+00 0.  1.
          2   -1    0    0  501    0 -0.00000000000E+00 -0.00000000000E+00 -0.21666517185E+03  0.21666517185E+03  0.00000000000E+00 0.  1.
          2    1    1    2  501    0  0.46561830261E+02 -0.16475422764E+02  0.30454327318E+03  0.30852236359E+03  0.00000000000E+00 0.  1.
          2    1    1    2  502    0 -0.46561830261E+02  0.16475422764E+02 -0.21183477830E+03  0.21751647499E+03  0.00000000000E+00 0.  1.
</event>
<event>
 4    1  0.6688462E+003  0.2555207E+02  0.7546771E-02  0.1462721E+00
          2   -1    0    0  502    0  0.00000000000E+00  0.00000000000E+00  0.12041898966E+02  0.12041898966E+02  0.00000000000E+00 0.  1.
          2   -1    0    0  501    0 -0.00000000000E+00 -0.00000000000E+00 -0.95450477136E+03  0.95450477136E+03  0.00000000000E+00 0. -1.
          2    1    1    2  501    0 -0.25000709168E+02 -0.52794697259E+01 -0.18846983478E+01  0.25621482146E+02  0.00000000000E+00 0.  1.
          2    1    1    2  502    0  0.25000709168E+02  0.52794697259E+01 -0.94057817405E+03  0.94092518818E+03  0.00000000000E+00 0. -1.
</event>
<event>
 4    1  0.6688462E+003  0.2400621E+02  0.7546771E-02  0.1480235E+00
          2   -1    0    0  502    0  0.00000000000E+00  0.00000000000E+00  0.11701072441E+04  0.11701072441E+04  0.00000000000E+00 0.  1.
          2   -1    0    0  501    0 -0.00000000000E+00 -0.00000000000E+00 -0.15065074624E+02  0.15065074624E+02  0.00000000000E+00 0.  1.
          2    1    1    2  501    0 -0.10039696152E+02  0.21806021062E+02  0.11603401451E+04  0.11605884500E+04  0.00000000000E+00 0.  1.
          2    1    1    2  502    0  0.10039696152E+02 -0.21806021062E+02 -0.52979756246E+01  0.24583868676E+02  0.00000000000E+00 0.  1.
</event>
<event>
 4    1  0.6688462E+003  0.6985516E+02  0.7546771E-02  0.1229586E+00
          2   -1    0    0  501    0  0.00000000000E+00  0.00000000000E+00  0.35112098566E+02  0.35112098566E+02  0.00000000000E+00 0. -1.
          2   -1    0    0  502    0 -0.00000000000E+00 -0.00000000000E+00 -0.86406689410E+03  0.86406689410E+03  0.00000000000E+00 0.  1.
          2    1    1    2  501    0  0.38398323866E+02  0.58355057288E+02 -0.82632700538E+03  0.82927442009E+03  0.00000000000E+00 0.  1.
          2    1    1    2  502    0 -0.38398323866E+02 -0.58355057288E+02 -0.26277901563E+01  0.69904572583E+02  0.00000000000E+00 0. -1.
</event>
<event>
 4    1  0.6688462E+003  0.2538838E+02  0.7546771E-02  0.1464505E+00
          2   -1    0    0  501    0  0.00000000000E+00  0.00000000000E+00  0.24262038133E+03  0.24262038133E+03  0.00000000000E+00 0.  1.
          2   -1    0    0  502    0 -0.00000000000E+00 -0.00000000000E+00 -0.18894890675E+03  0.18894890675E+03  0.00000000000E+00 0.  1.
          2    1    1    2  501    0  0.19714934501E+02 -0.15996599920E+02 -0.18742652501E+03  0.18913823550E+03  0.00000000000E+00 0.  1.
          2    1    1    2  502    0 -0.19714934501E+02  0.15996599920E+02  0.24109799959E+03  0.24243105258E+03  0.00000000000E+00 0.  1.
</event>
<event>
 4    1  0.6688462E+003  0.2491039E+02  0.7546771E-02  0.1469808E+00
          2   -1    0    0  502    0  0.00000000000E+00  0.00000000000E+00  0.60532619484E+02  0.60532619484E+02  0.00000000000E+00 0.  1.
          2   -1    0    0  501    0 -0.00000000000E+00 -0.00000000000E+00 -0.37528798884E+03  0.37528798884E+03  0.00000000000E+00 0.  1.
          2    1    1    2  501    0  0.22243762385E+02  0.11213503135E+02  0.57535863856E+02  0.62696915772E+02  0.00000000000E+00 0.  1.
          2    1    1    2  502    0 -0.22243762385E+02 -0.11213503135E+02 -0.37229123321E+03  0.37312369255E+03  0.00000000000E+00 0.  1.
</event>
<event>
 4    1  0.6688462E+003  0.2871613E+02  0.7546771E-02  0.1431091E+00
          2   -1    0    0  502    0  0.00000000000E+00  0.00000000000E+00  0.24095784095E+01  0.24095784095E+01  0.00000000000E+00 0.  1.
          2   -1    0    0  501    0 -0.00000000000E+00 -0.00000000000E+00 -0.91216556644E+03  0.91216556644E+03  0.00000000000E+00 0. -1.
          2    1    1    2  501    0 -0.55048899679E+01  0.28183541911E+02 -0.93411803250E+02  0.97726049928E+02  0.00000000000E+00 0.  1.
          2    1    1    2  502    0  0.55048899679E+01 -0.28183541911E+02 -0.81634418479E+03  0.81684909493E+03  0.00000000000E+00 0. -1.
</event>
<event>
 4    1  0.6688462E+003  0.2070686E+02  0.7546771E-02  0.1523492E+00
          2   -1    0    0  501    0  0.00000000000E+00  0.00000000000E+00  0.24656766498E+02  0.24656766498E+02  0.00000000000E+00 0.  1.
          2   -1    0    0  502    0 -0.00000000000E+00 -0.00000000000E+00 -0.84979923489E+02  0.84979923489E+02  0.00000000000E+00 0.  1.
          2    1    1    2  501    0  0.14466760068E+02  0.14815090254E+02 -0.79050410016E+02  0.81717448380E+02  0.00000000000E+00 0.  1.
          2    1    1    2  502    0 -0.14466760068E+02 -0.14815090254E+02  0.18727253025E+02  0.27919241607E+02  0.00000000000E+00 0.  1.
</event>
<event>
 4    1  0.6688462E+003  0.4154590E+02  0.7546771E-02  0.1339657E+00
          2   -1    0    0  502    0  0.00000000000E+00  0.00000000000E+00  0.14460460789E+04  0.14460460789E+04  0.00000000000E+00 0. -1.
          2   -1    0    0  501    0 -0.00000000000E+00 -0.00000000000E+00 -0.17744073193E+01  0.17744073193E+01  0.00000000000E+00 0. -1.
          2    1    1    2  501    0  0.35073399785E+02  0.22269225335E+02  0.11362864275E+04  0.11370456926E+04  0.00000000000E+00 0. -1.
          2    1    1    2  502    0 -0.35073399785E+02 -0.22269225335E+02  0.30798524410E+03  0.31077479362E+03  0.00000000000E+00 0. -1.
</event>
<event>
 4    1  0.6688462E+003  0.2097799E+02  0.7546771E-02  0.1519579E+00
          2   -1    0    0  501    0  0.00000000000E+00  0.00000000000E+00  0.15834618500E+03  0.15834618500E+03  0.00000000000E+00 0. -1.
          2   -1    0    0  502    0 -0.00000000000E+00 -0.00000000000E+00 -0.95113291100E+01  0.95113291100E+01  0.00000000000E+00 0. -1.
          2    1    1    2  501    0 -0.18240172921E+02 -0.10362046463E+02  0.38074030363E+01  0.21320699636E+02  0.00000000000E+00 0. -1.
          2    1    1    2  502    0  0.18240172921E+02  0.10362046463E+02  0.14502745286E+03  0.14653681448E+03  0.00000000000E+00 0. -1.
</event>
<event>
 4    1  0.6688462E+003  0.2140696E+02  0.7546771E-02  0.1513533E+00
          2   -1    0    0  501    0  0.00000000000E+00  0.00000000000E+00  0.88206171892E+03  0.88206171892E+03  0.00000000000E+00 0. -1.
          2   -1    0    0  502    0 -0.00000000000E+00 -0.00000000000E+00 -0.26813734658E+02  0.26813734658E+02  0.00000000000E+00 0.  1.
          2    1    1    2  501    0 -0.21269872693E+02  0.24187913230E+01 -0.22389712283E+02  0.30976721130E+02  0.00000000000E+00 0.  1.
          2    1    1    2  502    0  0.21269872693E+02 -0.24187913230E+01  0.87763769654E+03  0.87789873245E+03  0.00000000000E+00 0. -1.
</event>
<event>
 4    1  0.6688462E+003  0.4982939E+02  0.7546771E-02  0.1298914E+00
          2   -1    0    0  502    0  0.00000000000E+00  0.00000000000E+00  0.72756838114E+03  0.72756838114E+03  0.00000000000E+00 0. -1.
          2   -1    0    0  501    0 -0.00000000000E+00 -0.00000000000E+00 -0.70181528955E+01  0.70181528955E+01  0.00000000000E+00 0. -1.
          2    1    1    2  501    0  0.27149414082E+02  0.41783697352E+02  0.62353327645E+03  0.62552115463E+03  0.00000000000E+00 0. -1.
          2    1    1    2  502    0 -0.27149414082E+02 -0.41783697352E+02  0.97016951795E+02  0.10906537941E+03  0.00000000000E+00 0. -1.
</event>
<event>
 4    1  0.6688462E+003  0.2548994E+02  0.7546771E-02  0.1463396E+00
          2   -1    0    0  501    0  0.00000000000E+00  0.00000000000E+00  0.17751218703E+04  0.17751218703E+04  0.00000000000E+00 0. -1.
          2   -1    0    0  502    0 -0.00000000000E+00 -0.00000000000E+00 -0.11725173454E+01  0.11725173454E+01  0.00000000000E+00 0. -1.
          2    1    1    2  501    0  0.22484105612E+02 -0.12008417898E+02  0.15038484448E+03  0.15252979563E+03  0.00000000000E+00 0. -1.
          2    1    1    2  502    0 -0.22484105612E+02  0.12008417898E+02  0.16235645085E+04  0.16237645920E+04  0.00000000000E+00 0. -1.
</event>
<event>
 4    1  0.6688462E+003  0.4785292E+02  0.7546771E-02  0.1307760E+00
          2   -1    0    0  502    0  0.00000000000E+00  0.00000000000E+00  0.32187364477E+04  0.32187364477E+04  0.00000000000E+00 0.  1.
          2   -1    0    0  501    0 -0.00000000000E+00 -0.00000000000E+00 -0.41019478795E+03  0.41019478795E+03  0.00000000000E+00 0. -1.
          2    1    1    2  501    0 -0.77389687837E+01  0.47222988081E+02  0.32171622888E+04  0.32175181576E+04  0.00000000000E+00 0.  1.
          2    1    1    2  502    0  0.77389687837E+01 -0.47222988081E+02 -0.40862062907E+03  0.41141307799E+03  0.00000000000E+00 0. -1.
</event>
<event>
 4    1  0.6688462E+003  0.2857309E+02  0.7546771E-02  0.1432415E+00
          2   -1    0    0  502    0  0.00000000000E+00  0.00000000000E+00  0.74711063406E+01  0.74711063406E+01  0.00000000000E+00 0.  1.
          2   -1    0    0  501    0 -0.00000000000E+00 -0.00000000000E+00 -0.21197882462E+03  0.21197882462E+03  0.00000000000E+00 0. -1.
          2    1    1    2  501    0 -0.20436462090E+02 -0.19969286344E+02 -0.25879438816E+02  0.38550833107E+02  0.00000000000E+00 0.  1.
          2    1    1    2  502    0  0.20436462090E+02  0.19969286344E+02 -0.17862827946E+03  0.18089909785E+03  0.00000000000E+00 0. -1.
</event>
<event>
 4    1  0.6688462E+003  0.2081870E+02  0.7546771E-02  0.1521869E+00
          2   -1    0    0  501    0  0.00000000000E+00  0.00000000000E+00  0.62868549370E+01  0.62868549370E+01  0.00000000000E+00 0.  1.
          2   -1    0    0  502    0 -0.00000000000E+00 -0.00000000000E+00 -0.11864194993E+04  0.11864194993E+04  0.00000000000E+00 0. -1.
          2    1    1    2  501    0  0.58646322776E+01 -0.19975590729E+02 -0.11688337861E+04  0.11690191777E+04  0.00000000000E+00 0. -1.
          2    1    1    2  502    0 -0.58646322776E+01  0.19975590729E+02 -0.11298858228E+02  0.23687176573E+02  0.00000000000E+00 0.  1.
</event>
<event>
 4    1  0.6688462E+003  0.3516543E+02  0.7546771E-02  0.1379404E+00
          2   -1    0    0  501    0  0.00000000000E+00  0.00000000000E+00  0.22363190665E+04  0.22363190665E+04  0.00000000000E+00 0. -1.
          2   -1    0    0  502    0 -0.00000000000E+00 -0.00000000000E+00 -0.12332724651E+02  0.12332724651E+02  0.00000000000E+00 0. -1.
          2    1    1    2  501    0  0.29094854533E+00  0.35164223961E+02  0.13162175646E+02  0.37547971524E+02  0.00000000000E+00 0. -1.
          2    1    1    2  502    0 -0.29094854533E+00 -0.35164223961E+02  0.22108241662E+04  0.22111038197E+04  0.00000000000E+00 0. -1.
</event>
<event>
 4    1  0.6688462E+003  0.2177758E+02  0.7546771E-02  0.1508446E+00
          2   -1    0    0  501    0  0.00000000000E+00  0.00000000000E+00  0.86661065408E+03  0.86661065408E+03  0.00000000000E+00 0.  1.
          2   -1    0    0  502    0 -0.00000000000E+00 -0.00000000000E+00 -0.31608308997E+01  0.31608308997E+01  0.00000000000E+00 0. -1.
          2    1    1    2  501    0  0.28722318280E+01 -0.21587345131E+02  0.36274979503E+02  0.42310014458E+02  0.00000000000E+00 0. -1.
          2    1    1    2  502    0 -0.28722318280E+01  0.21587345131E+02  0.82717484368E+03  0.82746147053E+03  0.00000000000E+00 0.  1.
</event>
<event>
 4    1  0.6688462E+003  0.2070867E+02  0.7546771E-02  0.1523465E+00
          2   -1    0    0  502    0  0.00000000000E+00  0.00000000000E+00  0.13016943893E+04  0.13016943893E+04  0.00000000000E+00 0.  1.
          2   -1    0    0  501    0 -0.00000000000E+00 -0.00000000000E+00 -0.92733376853E+00  0.92733376853E+00  0.00000000000E+00 0. -1.
          2    1    1    2  501    0  0.13296341079E+02 -0.15876276956E+02  0.11733539071E+04  0.11735366377E+04  0.00000000000E+00 0.  1.
          2    1    1    2  502    0 -0.13296341079E+02  0.15876276956E+02  0.12741314842E+03  0.12908508530E+03  0.00000000000E+00 0. -1.
</event>
<event>
 4    1  0.6688462E+003  0.2018304E+02  0.7546771E-02  0.1531256E+00
          2   -1    0    0  502    0  0.00000000000E+00  0.00000000000E+00  0.34804162255E+01  0.34804162255E+01  0.00000000000E+00 0.  1.
          2   -1    0    0  501    0 -0.00000000000E+00 -0.00000000000E+00 -0.25966823447E+03  0.25966823447E+03  0.00000000000E+00 0.  1.
          2    1    1    2  501    0 -0.90737704423E+01 -0.18028362577E+02 -0.30581178057E+02  0.36641010065E+02  0.00000000000E+00 0.  1.
          2    1    1    2  502    0  0.90737704423E+01  0.18028362577E+02 -0.22560664018E+03  0.22650764063E+03  0.00000000000E+00 0.  1.
</event>
<event>
 4    1  0.6688462E+003  0.2329734E+02  0.7546771E-02  0.1488798E+00
          2   -1    0    0  502    0  0.00000000000E+00  0.00000000000E+00  0.79349922318E+03  0.79349922318E+03  0.00000000000E+00 0. -1.
          2   -1    0    0  501    0 -0.00000000000E+00 -0.00000000000E+00 -0.17349490273E+01  0.17349490273E+01  0.00000000000E+00 0. -1.
          2    1    1    2  501    0 -0.12440586962E+02 -0.19697664807E+02  0.70534546304E+03  0.70573011019E+03  0.00000000000E+00 0. -1.
          2    1    1    2  502    0  0.12440586962E+02  0.19697664807E+02  0.86418811114E+02  0.89504062014E+02  0.00000000000E+00 0. -1.
</event>
<event>
 4    1  0.6688462E+003  0.2590656E+02  0.7546771E-02  0.1458912E+00
          2   -1    0    0  501    0  0.00000000000E+00  0.00000000000E+00  0.12581443595E+04  0.12581443595E+04  0.00000000000E+00 0. -1.
          2   -1    0    0  502    0 -0.00000000000E+00 -0.00000000000E+00 -0.22838382150E+02  0.22838382150E+02  0.00000000000E+00 0. -1.
          2    1    1    2  501    0  0.25707597595E+02  0.32045633179E+01 -0.15314093635E+02  0.30094372630E+02  0.00000000000E+00 0. -1.
          2    1    1    2  502    0 -0.25707597595E+02 -0.32045633179E+01  0.12506200710E+04  0.12508883690E+04  0.00000000000E+00 0. -1.
</event>
<event>
 4    1  0.6688462E+003  0.3092473E+02  0.7546771E-02  0.1411727E+00
          2   -1    0    0  501    0  0.00000000000E+00  0.00000000000E+00  0.44723244808E+02  0.44723244808E+02  0.00000000000E+00 0.  1.
          2   -1    0    0  502    0 -0.00000000000E+00 -0.00000000000E+00 -0.31753657908E+03  0.31753657908E+03  0.00000000000E+00 0. -1.
          2    1    1    2  501    0  0.61830868937E+01  0.30300305106E+02 -0.31133148433E+03  0.31286359998E+03  0.00000000000E+00 0. -1.
          2    1    1    2  502    0 -0.61830868937E+01 -0.30300305106E+02  0.38518150059E+02  0.49396223915E+02  0.00000000000E+00 0.  1.
</event>
<event>
 4    1  0.6688462E+003  0.5536112E+02  0.7546771E-02  0.1276464E+00
          2   -1    0    0  502    0  0.00000000000E+00  0.00000000000E+00  0.65036246834E+02  0.65036246834E+02  0.00000000000E+00 0. -1.
          2   -1    0    0  501    0 -0.00000000000E+00 -0.00000000000E+00 -0.14089911414E+03  0.14089911414E+03  0.00000000000E+00 0. -1.
          2    1    1    2  501    0  0.20924818742E+02  0.51254322242E+02  0.46070165737E+02  0.72023008538E+02  0.00000000000E+00 0. -1.
          2    1    1    2  502    0 -0.20924818742E+02 -0.51254322242E+02 -0.12193303305E+03  0.13391235244E+03  0.00000000000E+00 0. -1.
</event>
<event>
 4    1  0.6688462E+003  0.2315047E+02  0.7546771E-02  0.1490617E+00
          2   -1    0    0  501    0  0.00000000000E+00  0.00000000000E+00  0.56848413741E+02  0.56848413741E+02  0.00000000000E+00 0. -1.
          2   -1    0    0  502    0 -0.00000000000E+00 -0.00000000000E+00 -0.34641883292E+02  0.34641883292E+02  0.00000000000E+00 0. -1.
          2    1    1    2  501    0 -0.82228208063E+01 -0.21640923529E+02 -0.27923950703E+02  0.36272460298E+02  0.00000000000E+00 0. -1.
          2    1    1    2  502    0  0.82228208063E+01  0.21640923529E+02  0.50130481152E+02  0.55217836736E+02  0.00000000000E+00 0. -1.
</event>
<event>
 4    1  0.6688462E+003  0.2341374E+02  0.7546771E-02  0.1487367E+00
          2   -1    0    0  502    0  0.00000000000E+00  0.00000000000E+00  0.53727519044E+03  0.53727519044E+03  0.00000000000E+00 0. -1.
          2   -1    0    0  501    0 -0.00000000000E+00 -0.00000000000E+00 -0.16477534201E+01  0.16477534201E+01  0.00000000000E+00 0. -1.
          2    1    1    2  501    0  0.23269513684E+02 -0.25948273556E+01  0.10153852934E+03  0.10420305339E+03  0.00000000000E+00 0. -1.
          2    1    1    2  502    0 -0.23269513684E+02  0.25948273556E+01  0.43408890768E+03  0.43471989046E+03  0.00000000000E+00 0. -1.
</event>
<event>
 4    1  0.6688462E+003  0.2689643E+02  0.7546771E-02  0.1448651E+00
          2   -1    0    0  502    0  0.00000000000E+00  0.00000000000E+00  0.36397532329E+02  0.36397532329E+02  0.00000000000E+00 0.  1.
          2   -1    0    0  501    0 -0.00000000000E+00 -0.00000000000E+00 -0.16519345752E+04  0.16519345752E+04  0.00000000000E+00 0. -1.
          2    1    1    2  501    0 -0.37677326302E+01  0.26631224062E+02  0.31303817713E+02  0.41271623516E+02  0.00000000000E+00 0.  1.
          2    1    1    2  502    0  0.37677326302E+01 -0.26631224062E+02 -0.16468408605E+04  0.16470604840E+04  0.00000000000E+00 0. -1.
</event>
<event>
 4    1  0.6688462E+003  0.2180216E+02  0.7546771E-02  0.1508113E+00
          2   -1    0    0  501    0  0.00000000000E+00  0.00000000000E+00  0.83757763249E+00  0.83757763249E+00  0.00000000000E+00 0. -1.
          2   -1    0    0  502    0 -0.00000000000E+00 -0.00000000000E+00 -0.83255402719E+03  0.83255402719E+03  0.00000000000E+00 0.  1.
          2    1    1    2  501    0 -0.37347467292E+01 -0.21479890893E+02 -0.65096847722E+03  0.65133347249E+03  0.00000000000E+00 0.  1.
          2    1    1    2  502    0  0.37347467292E+01  0.21479890893E+02 -0.18074797233E+03  0.18205813233E+03  0.00000000000E+00 0. -1.
</event>
<event>
 4    1  0.6688462E+003  0.2144211E+02  0.7546771E-02  0.1513045E+00
          2   -1    0    0  501    0  0.00000000000E+00  0.00000000000E+00  0.45977400248E+02  0.45977400248E+02  0.00000000000E+00 0. -1.
          2   -1    0    0  502    0 -0.00000000000E+00 -0.00000000000E+00 -0.48813412141E+02  0.48813412141E+02  0.00000000000E+00 0. -1.
          2    1    1    2  501    0 -0.12800890966E+02 -0.17201780320E+02 -0.43680856746E+02  0.48659853080E+02  0.00000000000E+00 0. -1.
          2    1    1    2  502    0  0.12800890966E+02  0.17201780320E+02  0.40844844852E+02  0.46130959309E+02  0.00000000000E+00 0. -1.
</event>
<event>
 4    1  0.6688462E+003  0.2596387E+02  0.7546771E-02  0.1458303E+00
          2   -1    0    0  502    0  0.00000000000E+00  0.00000000000E+00  0.24750114000E+01  0.24750114000E+01  0.00000000000E+00 0. -1.
          2   -1    0    0  501    0 -0.00000000000E+00 -0.00000000000E+00 -0.41014756949E+03  0.41014756949E+03  0.00000000000E+00 0. -1.
          2    1    1    2  501    0  0.10312453978E+02 -0.23828049332E+02 -0.84261448964E+02  0.88170938656E+02  0.00000000000E+00 0. -1.
          2    1    1    2  502    0 -0.10312453978E+02  0.23828049332E+02 -0.32341110912E+03  0.32445164223E+03  0.00000000000E+00 0. -1.
</event>
<event>
 4    1  0.6688462E+003  0.2133015E+02  0.7546771E-02  0.1514603E+00
          2   -1    0    0  502    0  0.00000000000E+00  0.00000000000E+00  0.65332681995E+02  0.65332681995E+02  0.00000000000E+00 0.  1.
          2   -1    0    0  501    0 -0.00000000000E+00 -0.00000000000E+00 -0.71399942770E+01  0.71399942770E+01  0.00000000000E+00 0.  1.
          2    1    1    2  501    0  0.82962881976E+01  0.19650616547E+02  0.34785870821E+02  0.40804802871E+02  0.00000000000E+00 0.  1.
          2    1    1    2  502    0 -0.82962881976E+01 -0.19650616547E+02  0.23406816896E+02  0.31667873401E+02  0.00000000000E+00 0.  1.
</event>
<event>
 4    1  0.6688462E+003  0.3505457E+02  0.7546771E-02  0.1380180E+00
          2   -1    0    0  502    0  0.00000000000E+00  0.00000000000E+00  0.10745770451E+04  0.10745770451E+04  0.00000000000E+00 0.  1.
          2   -1    0    0  501    0 -0.00000000000E+00 -0.00000000000E+00 -0.26258072817E+01  0.26258072817E+01  0.00000000000E+00 0.  1.
          2    1    1    2  501    0 -0.87034613602E+01  0.33956923255E+02  0.94064392735E+03  0.94129688246E+03  0.00000000000E+00 0.  1.
          2    1    1    2  502    0  0.87034613602E+01 -0.33956923255E+02  0.13130731045E+03  0.13590596990E+03  0.00000000000E+00 0.  1.
</event>
<event>
 4    1  0.6688462E+003  0.2821164E+02  0.7546771E-02  0.1435802E+00
          2   -1    0    0  502    0  0.00000000000E+00  0.00000000000E+00  0.13135171660E+03  0.13135171660E+03  0.00000000000E+00 0. -1.
          2   -1    0    0  501    0 -0.00000000000E+00 -0.00000000000E+00 -0.76788224122E+03  0.76788224122E+03  0.00000000000E+00 0.  1.
          2    1    1    2  501    0  0.26553613290E+02 -0.95290258666E+01  0.12957426276E+03  0.13260990265E+03  0.00000000000E+00 0. -1.
          2    1    1    2  502    0 -0.26553613290E+02  0.95290258666E+01 -0.76610478738E+03  0.76662405517E+03  0.00000000000E+00 0.  1.
</event>
<event>
 4    1  0.6688462E+003  0.5220114E+02  0.7546771E-02  0.1288901E+00
          2   -1    0    0  502    0  0.00000000000E+00  0.00000000000E+00  0.37501974285E+04  0.37501974285E+04  0.00000000000E+00 0. -1.
          2   -1    0    0  501    0 -0.00000000000E+00 -0.00000000000E+00 -0.11192073519E+02  0.11192073519E+02  0.00000000000E+00 0. -1.
          2    1    1    2  501    0  0.44524607721E+02 -0.27249198165E+02  0.36881232998E+04  0.36884927049E+04  0.00000000000E+00 0. -1.
          2    1    1    2  502    0 -0.44524607721E+02  0.27249198165E+02  0.50882055205E+02  0.72896797153E+02  0.00000000000E+00 0. -1.
</event>
<event>
 4    1  0.6688462E+003  0.7140773E+02  0.7546771E-02  0.1225336E+00
          2   -1    0    0  501    0  0.00000000000E+00  0.00000000000E+00  0.45091326879E+03  0.45091326879E+03  0.00000000000E+00 0.  1.
          2   -1    0    0  502    0 -0.00000000000E+00 -0.00000000000E+00 -0.49778745750E+03  0.49778745750E+03  0.00000000000E+00 0.  1.
          2    1    1    2  501    0  0.59530390906E+02  0.39435987733E+02 -0.49236856481E+03  0.49751971638E+03  0.00000000000E+00 0.  1.
          2    1    1    2  502    0 -0.59530390906E+02 -0.39435987733E+02  0.44549437610E+03  0.45118100992E+03  0.00000000000E+00 0.  1.
</event>
<event>
 4    1  0.6688462E+003  0.3535547E+03  0.7546771E-02  0.9801921E-01
          2   -1    0    0  501    0  0.00000000000E+00  0.00000000000E+00  0.41696417527E+03  0.41696417527E+03  0.00000000000E+00 0. -1.
          2   -1    0    0  502    0 -0.00000000000E+00 -0.00000000000E+00 -0.28568161203E+04  0.28568161203E+04  0.00000000000E+00 0.  1.
          2    1    1    2  501    0  0.20662599208E+03  0.28689134863E+03 -0.27685504681E+04  0.27910343318E+04  0.00000000000E+00 0.  1.
          2    1    1    2  502    0 -0.20662599208E+03 -0.28689134863E+03  0.32869852307E+03  0.48274596383E+03  0.00000000000E+00 0. -1.
</event>
<event>
 4    1  0.6688462E+003  0.2483485E+02  0.7546771E-02  0.1470659E+00
          2   -1    0    0  502    0  0.00000000000E+00  0.00000000000E+00  0.78797486574E+02  0.78797486574E+02  0.00000000000E+00 0. -1.
          2   -1    0    0  501    0 -0.00000000000E+00 -0.00000000000E+00 -0.11798351912E+02  0.11798351912E+02  0.00000000000E+00 0.  1.
          2    1    1    2  501    0 -0.20762094512E+02 -0.13627372552E+02  0.59779336906E+02  0.64732827624E+02  0.00000000000E+00 0. -1.
          2    1    1    2  502    0  0.20762094512E+02  0.13627372552E+02  0.72197977561E+01  0.25863010862E+02  0.00000000000E+00 0.  1.
</event>
<event>
 4    1  0.6688462E+003  0.3088336E+02  0.7546771E-02  0.1412072E+00
          2   -1    0    0  502    0  0.00000000000E+00  0.00000000000E+00  0.10887026851E+04  0.10887026851E+04  0.00000000000E+00 0. -1.
          2   -1    0    0  501    0 -0.00000000000E+00 -0.00000000000E+00 -0.99116081588E+00  0.99116081588E+00  0.00000000000E+00 0. -1.
          2    1    1    2  501    0 -0.16813771457E+02  0.25905190957E+02  0.72951612333E+03  0.73016953924E+03  0.00000000000E+00 0. -1.
          2    1    1    2  502    0  0.16813771457E+02 -0.25905190957E+02  0.35819540092E+03  0.35952430665E+03  0.00000000000E+00 0. -1.
</event>
<event>
 4    1  0.6688462E+003  0.3636146E+02  0.7546771E-02  0.1371236E+00
          2   -1    0    0  502    0  0.00000000000E+00  0.00000000000E+00  0.42929968459E+01  0.42929968459E+01  0.00000000000E+00 0.  1.
          2   -1    0    0  501    0 -0.00000000000E+00 -0.00000000000E+00 -0.53697843228E+03  0.53697843228E+03  0.00000000000E+00 0. -1.
          2    1    1    2  501    0  0.21331976467E+01  0.36298827987E+02 -0.89607409422E+02  0.96703894796E+02  0.00000000000E+00 0.  1.
          2    1    1    2  502    0 -0.21331976467E+01 -0.36298827987E+02 -0.44307802601E+03  0.44456753433E+03  0.00000000000E+00 0. -1.
</event>
<event>
 4    1  0.6688462E+003  0.2223746E+02  0.7546771E-02  0.1502302E+00
          2   -1    0    0  502    0  0.00000000000E+00  0.00000000000E+00  0.91528978982E+03  0.91528978982E+03  0.00000000000E+00 0.  1.
          2   -1    0    0  501    0 -0.00000000000E+00 -0.00000000000E+00 -0.27248333412E+01  0.27248333412E+01  0.00000000000E+00 0.  1.
          2    1    1    2  501    0  0.17081864201E+02 -0.14237783396E+02  0.86727304060E+03  0.86755808539E+03  0.00000000000E+00 0.  1.
          2    1    1    2  502    0 -0.17081864201E+02  0.14237783396E+02  0.45291915872E+02  0.50456537772E+02  0.00000000000E+00 0.  1.
</event>
<event>
 4    1  0.6688462E+003  0.2185892E+02  0.7546771E-02  0.1507346E+00
          2   -1    0    0  501    0  0.00000000000E+00  0.00000000000E+00  0.32762845044E+03  0.32762845044E+03  0.00000000000E+00 0.  1.
          2   -1    0    0  502    0 -0.00000000000E+00 -0.00000000000E+00 -0.15966322286E+02  0.15966322286E+02  0.00000000000E+00 0.  1.
          2    1    1    2  501    0  0.19652317012E+02  0.95707276964E+01 -0.79323032967E+01  0.23253684185E+02  0.00000000000E+00 0.  1.
          2    1    1    2  502    0 -0.19652317012E+02 -0.95707276964E+01  0.31959443145E+03  0.32034108854E+03  0.00000000000E+00 0.  1.
</event>
<event>
 4    1  0.6688462E+003  0.2134274E+02  0.7546771E-02  0.1514427E+00
          2   -1    0    0  502    0  0.00000000000E+00  0.00000000000E+00  0.67131289674E+02  0.67131289674E+02  0.00000000000E+00 0.  1.
          2   -1    0    0  501    0 -0.00000000000E+00 -0.00000000000E+00 -0.46012505108E+03  0.46012505108E+03  0.00000000000E+00 0.  1.
          2    1    1    2  501    0 -0.18490732314E+02 -0.10658589565E+02  0.65180225741E+02  0.68585527196E+02  0.00000000000E+00 0.  1.
          2    1    1    2  502    0  0.18490732314E+02  0.10658589565E+02 -0.45817398714E+03  0.45867081355E+03  0.00000000000E+00 0.  1.
</event>
<event>
 4    1  0.6688462E+003  0.3015045E+02  0.7546771E-02  0.1418293E+00
          2   -1    0    0  502    0  0.00000000000E+00  0.00000000000E+00  0.20636930119E+04  0.20636930119E+04  0.00000000000E+00 0.  1.
          2   -1    0    0  501    0 -0.00000000000E+00 -0.00000000000E+00 -0.28243735611E+01  0.28243735611E+01  0.00000000000E+00 0.  1.
          2    1    1    2  501    0  0.66126680178E+01 -0.29416361461E+02  0.19797046768E+04  0.19799342558E+04  0.00000000000E+00 0.  1.
          2    1    1    2  502    0 -0.66126680178E+01  0.29416361461E+02  0.81163961530E+02  0.86583129715E+02  0.00000000000E+00 0.  1.
</event>
<event>
 4    1  0.6688462E+003  0.2514320E+02  0.7546771E-02  0.1467208E+00
          2   -1    0    0  501    0  0.00000000000E+00  0.00000000000E+00  0.59962788196E+01  0.59962788196E+01  0.00000000000E+00 0. -1.
          2   -1    0    0  502    0 -0.00000000000E+00 -0.00000000000E+00 -0.17864846749E+03  0.17864846749E+03  0.00000000000E+00 0.  1.
          2    1    1    2  501    0 -0.24946709765E+02 -0.31372140724E+01 -0.14543068420E+03  0.14758815788E+03  0.00000000000E+00 0.  1.
          2    1    1    2  502    0  0.24946709765E+02  0.31372140724E+01 -0.27221504472E+02  0.37056588428E+02  0.00000000000E+00 0. -1.
</event>
<event>
 4    1  0.6688462E+003  0.3154229E+02  0.7546771E-02  0.1406651E+00
          2   -1    0    0  502    0  0.00000000000E+00  0.00000000000E+00  0.23095142387E+03  0.23095142387E+03  0.00000000000E+00 0.  1.
          2   -1    0    0  501    0 -0.00000000000E+00 -0.00000000000E+00 -0.26633551561E+02  0.26633551561E+02  0.00000000000E+00 0. -1.
          2    1    1    2  501    0 -0.12920582335E+02  0.28774549154E+02  0.22007637589E+03  0.22232527376E+03  0.00000000000E+00 0.  1.
          2    1    1    2  502    0  0.12920582335E+02 -0.28774549154E+02 -0.15758503581E+02  0.35259701673E+02  0.00000000000E+00 0. -1.
</event>
<event>
 4    1  0.6688462E+003  0.2958870E+02  0.7546771E-02  0.1423205E+00
          2   -1    0    0  501    0  0.00000000000E+00  0.00000000000E+00  0.31261907325E+03  0.31261907325E+03  0.00000000000E+00 0. -1.
          2   -1    0    0  502    0 -0.00000000000E+00 -0.00000000000E+00 -0.11189313046E+02  0.11189313046E+02  0.00000000000E+00 0.  1.
          2    1    1    2  501    0 -0.78731125257E+01  0.28522017544E+02  0.10528279698E+02  0.31405987630E+02  0.00000000000E+00 0.  1.
          2    1    1    2  502    0  0.78731125257E+01 -0.28522017544E+02  0.29090148050E+03  0.29240239866E+03  0.00000000000E+00 0. -1.
</event>
<event>
 4    1  0.6688462E+003  0.3120120E+02  0.7546771E-02  0.1409437E+00
          2   -1    0    0  501    0  0.00000000000E+00  0.00000000000E+00  0.11761826466E+03  0.11761826466E+03  0.00000000000E+00 0.  1.
          2   -1    0    0  502    0 -0.00000000000E+00 -0.00000000000E+00 -0.29879465220E+03  0.29879465220E+03  0.00000000000E+00 0.  1.
          2    1    1    2  501    0  0.16702059675E+02  0.26354435087E+02 -0.29589063884E+03  0.29753114997E+03  0.00000000000E+00 0.  1.
          2    1    1    2  502    0 -0.16702059675E+02 -0.26354435087E+02  0.11471425131E+03  0.11888176689E+03  0.00000000000E+00 0.  1.
</event>
<event>
 4    1  0.6688462E+003  0.3433658E+02  0.7546771E-02  0.1385288E+00
          2   -1    0    0  501    0  0.00000000000E+00  0.00000000000E+00  0.27108246268E+02  0.27108246268E+02  0.00000000000E+00 0. -1.
          2   -1    0    0  502    0 -0.00000000000E+00 -0.00000000000E+00 -0.79086407637E+03  0.79086407637E+03  0.00000000000E+00 0. -1.
          2    1    1    2  501    0  0.49009675224E+01 -0.33985013160E+02 -0.77945928762E+03  0.78021521496E+03  0.00000000000E+00 0. -1.
          2    1    1    2  502    0 -0.49009675224E+01  0.33985013160E+02  0.15703457517E+02  0.37757107677E+02  0.00000000000E+00 0. -1.
</event>
<event>
 4    1  0.6688462E+003  0.2811917E+02  0.7546771E-02  0.1436679E+00
          2   -1    0    0  502    0  0.00000000000E+00  0.00000000000E+00  0.47827820715E+02  0.47827820715E+02  0.00000000000E+00 0. -1.
          2   -1    0    0  501    0 -0.00000000000E+00 -0.00000000000E+00 -0.17668599664E+02  0.17668599664E+02  0.00000000000E+00 0.  1.
          2    1    1    2  501    0  0.25618640909E+02 -0.11591929517E+02  0.23385726971E+02  0.36572938327E+02  0.00000000000E+00 0. -1.
          2    1    1    2  502    0 -0.25618640909E+02  0.11591929517E+02  0.67734940801E+01  0.28923482052E+02  0.00000000000E+00 0.  1.
</event>
<event>
 4    1  0.6688462E+003  0.3573041E+02  0.7546771E-02  0.1375500E+00
          2   -1    0    0  502    0  0.00000000000E+00  0.00000000000E+00  0.43573418579E+02  0.43573418579E+02  0.00000000000E+00 0.  1.
          2   -1    0    0  501    0 -0.00000000000E+00 -0.00000000000E+00 -0.22493823795E+03  0.22493823795E+03  0.00000000000E+00 0.  1.
          2    1    1    2  501    0 -0.30904322786E+02  0.17932782396E+02  0.34524811358E+02  0.49685253855E+02  0.00000000000E+00 0.  1.
          2    1    1    2  502    0  0.30904322786E+02 -0.17932782396E+02 -0.21588963072E+03  0.21882640267E+03  0.00000000000E+00 0.  1.
</event>
<event>
 4    1  0.6688462E+003  0.2283119E+02  0.7546771E-02  0.1494629E+00
          2   -1    0    0  501    0  0.00000000000E+00  0.00000000000E+00  0.12383171838E+04  0.12383171838E+04  0.00000000000E+00 0. -1.
          2   -1    0    0  502    0 -0.00000000000E+00 -0.00000000000E+00 -0.21494089957E+03  0.21494089957E+03  0.00000000000E+00 0. -1.
          2    1    1    2  501    0 -0.73920872979E+01 -0.21601400328E+02 -0.21422902765E+03  0.21544219582E+03  0.00000000000E+00 0. -1.
          2    1    1    2  502    0  0.73920872979E+01  0.21601400328E+02  0.12376053118E+04  0.12378158875E+04  0.00000000000E+00 0. -1.
</event>
<event>
 4    1  0.6688462E+003  0.2613022E+02  0.7546771E-02  0.1456546E+00
          2   -1    0    0  502    0  0.00000000000E+00  0.00000000000E+00  0.53272974130E+02  0.53272974130E+02  0.00000000000E+00 0.  1.
          2   -1    0    0  501    0 -0.00000000000E+00 -0.00000000000E+00 -0.51981185254E+02  0.51981185254E+02  0.00000000000E+00 0.  1.
          2    1    1    2  501    0  0.23853578331E+02 -0.10667477764E+02  0.46326507106E+02  0.53187719839E+02  0.00000000000E+00 0.  1.
          2    1    1    2  502    0 -0.23853578331E+02  0.10667477764E+02 -0.45034718229E+02  0.52066439546E+02  0.00000000000E+00 0.  1.
</event>
<event>
 4    1  0.6688462E+003  0.2424008E+02  0.7546771E-02  0.1477487E+00
          2   -1    0    0  502    0  0.00000000000E+00  0.00000000000E+00  0.15918024305E+01  0.15918024305E+01  0.00000000000E+00 0. -1.
          2   -1    0    0  501    0 -0.00000000000E+00 -0.00000000000E+00 -0.97575731153E+03  0.97575731153E+03  0.00000000000E+00 0.  1.
          2    1    1    2  501    0 -0.22036151115E+02  0.10098995884E+02 -0.10177310916E+03  0.10462001444E+03  0.00000000000E+00 0. -1.
          2    1    1    2  502    0  0.22036151115E+02 -0.10098995884E+02 -0.87239239994E+03  0.87272909952E+03  0.00000000000E+00 0.  1.
</event>
<event>
 4    1  0.6688462E+003  0.2143236E+02  0.7546771E-02  0.1513181E+00
          2   -1    0    0  502    0  0.00000000000E+00  0.00000000000E+00  0.10897141743E+03  0.10897141743E+03  0.00000000000E+00 0. -1.
          2   -1    0    0  501    0 -0.00000000000E+00 -0.00000000000E+00 -0.14761146584E+02  0.14761146584E+02  0.00000000000E+00 0. -1.
          2    1    1    2  501    0 -0.20704641601E+02  0.55374953370E+01  0.99397095079E+02  0.10168150544E+03  0.00000000000E+00 0. -1.
          2    1    1    2  502    0  0.20704641601E+02 -0.55374953370E+01 -0.51868242357E+01  0.22051058571E+02  0.00000000000E+00 0. -1.
</event>
<event>
 4    1  0.6688462E+003  0.2536918E+02  0.7546771E-02  0.1464715E+00
          2   -1    0    0  501    0  0.00000000000E+00  0.00000000000E+00  0.26606636426E+03  0.26606636426E+03  0.00000000000E+00 0. -1.
          2   -1    0    0  502    0 -0.00000000000E+00 -0.00000000000E+00 -0.11667531651E+02  0.11667531651E+02  0.00000000000E+00 0.  1.
          2    1    1    2  501    0  0.23899470072E+01  0.25256353785E+02  0.35626915002E+01  0.25618119055E+02  0.00000000000E+00 0.  1.
          2    1    1    2  502    0 -0.23899470072E+01 -0.25256353785E+02  0.25083614111E+03  0.25211577686E+03  0.00000000000E+00 0. -1.
</event>
<event>
 4    1  0.6688462E+003  0.2236188E+02  0.7546771E-02  0.1500670E+00
          2   -1    0    0  502    0  0.00000000000E+00  0.00000000000E+00  0.23082083663E+03  0.23082083663E+03  0.00000000000E+00 0. -1.
          2   -1    0    0  501    0 -0.00000000000E+00 -0.00000000000E+00 -0.62119624657E+03  0.62119624657E+03  0.00000000000E+00 0.  1.
          2    1    1    2  501    0  0.15754998482E+02 -0.15869263562E+02  0.23007733813E+03  0.23116149122E+03  0.00000000000E+00 0. -1.
          2    1    1    2  502    0 -0.15754998482E+02  0.15869263562E+02 -0.62045274807E+03  0.62085559198E+03  0.00000000000E+00 0.  1.
</event>
<event>
 4    1  0.6688462E+003  0.2081082E+02  0.7546771E-02  0.1521983E+00
          2   -1    0    0  501    0  0.00000000000E+00  0.00000000000E+00  0.52007831036E+02  0.52007831036E+02  0.00000000000E+00 0.  1.
          2   -1    0    0  502    0 -0.00000000000E+00 -0.00000000000E+00 -0.85376722438E+01  0.85376722438E+01  0.00000000000E+00 0. -1.
          2    1    1    2  501    0 -0.20803922704E+02 -0.53582564581E+00  0.16984274018E+02  0.26861792064E+02  0.00000000000E+00 0. -1.
          2    1    1    2  502    0  0.20803922704E+02  0.53582564581E+00  0.26485884774E+02  0.33683711215E+02  0.00000000000E+00 0.  1.
</event>
<event>
 4    1  0.6688462E+003  0.2308456E+02  0.7546771E-02  0.1491439E+00
          2   -1    0    0  501    0  0.00000000000E+00  0.00000000000E+00  0.76423687039E+03  0.76423687039E+03  0.00000000000E+00 0.  1.
          2   -1    0    0  502    0 -0.00000000000E+00 -0.00000000000E+00 -0.82715787689E+00  0.82715787689E+00  0.00000000000E+00 0.  1.
          2    1    1    2  501    0  0.20149183707E+02  0.11265304064E+02  0.23013243751E+03  0.23128734396E+03  0.00000000000E+00 0.  1.
          2    1    1    2  502    0 -0.20149183707E+02 -0.11265304064E+02  0.53327727500E+03  0.53377668431E+03  0.00000000000E+00 0.  1.
</event>
<event>
 4    1  0.6688462E+003  0.2043645E+02  0.7546771E-02  0.1527465E+00
          2   -1    0    0  501    0  0.00000000000E+00  0.00000000000E+00  0.42180447484E+03  0.42180447484E+03  0.00000000000E+00 0. -1.
          2   -1    0    0  502    0 -0.00000000000E+00 -0.00000000000E+00 -0.50874325865E+03  0.50874325865E+03  0.00000000000E+00 0. -1.
          2    1    1    2  501    0 -0.19110515532E+02 -0.72413250607E+01 -0.50829026584E+03  0.50870093664E+03  0.00000000000E+00 0. -1.
          2    1    1    2  502    0  0.19110515532E+02  0.72413250607E+01  0.42135148204E+03  0.42184679684E+03  0.00000000000E+00 0. -1.
</event>
<event>
 4    1  0.6688462E+003  0.2413829E+02  0.7546771E-02  0.1478679E+00
          2   -1    0    0  502    0  0.00000000000E+00  0.00000000000E+00  0.10752165026E+02  0.10752165026E+02  0.00000000000E+00 0.  1.
          2   -1    0    0  501    0 -0.00000000000E+00 -0.00000000000E+00 -0.10841409872E+04  0.10841409872E+04  0.00000000000E+00 0. -1.
          2    1    1    2  501    0 -0.20065148079E+02  0.13418146878E+02 -0.31050034261E+01  0.24337170734E+02  0.00000000000E+00 0.  1.
          2    1    1    2  502    0  0.20065148079E+02 -0.13418146878E+02 -0.10702838187E+04  0.10705559815E+04  0.00000000000E+00 0. -1.
</event>
<event>
 4    1  0.6688462E+003  0.2140232E+02  0.7546771E-02  0.1513598E+00
          2   -1    0    0  502    0  0.00000000000E+00  0.00000000000E+00  0.20543686002E+01  0.20543686002E+01  0.00000000000E+00 0.  1.
          2   -1    0    0  501    0 -0.00000000000E+00 -0.00000000000E+00 -0.86135980610E+03  0.86135980610E+03  0.00000000000E+00 0.  1.
          2    1    1    2  501    0 -0.11026331769E+02  0.18343368912E+02 -0.57997350078E+02  0.61820318596E+02  0.00000000000E+00 0.  1.
          2    1    1    2  502    0  0.11026331769E+02 -0.18343368912E+02 -0.80130808742E+03  0.80159385610E+03  0.00000000000E+00 0.  1.
</event>
<event>
 4    1  0.6688462E+003  0.2288738E+02  0.7546771E-02  0.1493917E+00
          2   -1    0    0  502    0  0.00000000000E+00  0.00000000000E+00  0.92208275145E+03  0.92208275145E+03  0.00000000000E+00 0.  1.
          2   -1    0    0  501    0 -0.00000000000E+00 -0.00000000000E+00 -0.14029514324E+01  0.14029514324E+01  0.00000000000E+00 0.  1.
          2    1    1    2  501    0 -0.17481552217E+01 -0.22820515910E+02  0.81653206990E+03  0.81685277325E+03  0.00000000000E+00 0.  1.
          2    1    1    2  502    0  0.17481552217E+01  0.22820515910E+02  0.10414773012E+03  0.10663292963E+03  0.00000000000E+00 0.  1.
</event>
<event>
 4    1  0.6688462E+003  0.2393777E+02  0.7546771E-02  0.1481047E+00
          2   -1    0    0  501    0  0.00000000000E+00  0.00000000000E+00  0.84301850305E+01  0.84301850305E+01  0.00000000000E+00 0.  1.
          2   -1    0    0  502    0 -0.00000000000E+00 -0.00000000000E+00 -0.11583633244E+03  0.11583633244E+03  0.00000000000E+00 0. -1.
          2    1    1    2  501    0 -0.31132362771E+01 -0.23734455872E+02 -0.93643038942E+02  0.96654205175E+02  0.00000000000E+00 0. -1.
          2    1    1    2  502    0  0.31132362771E+01  0.23734455872E+02 -0.13763108469E+02  0.27612312297E+02  0.00000000000E+00 0.  1.
</event>
<event>
 4    1  0.6688462E+003  0.2988200E+02  0.7546771E-02  0.1420625E+00
          2   -1    0    0  501    0  0.00000000000E+00  0.00000000000E+00  0.37760298406E+01  0.37760298406E+01  0.00000000000E+00 0. -1.
          2   -1    0    0  502    0 -0.00000000000E+00 -0.00000000000E+00 -0.24860366759E+03  0.24860366759E+03  0.00000000000E+00 0. -1.
          2    1    1    2  501    0 -0.29687414222E+02 -0.34046210921E+01 -0.15028720674E+03  0.15322916993E+03  0.00000000000E+00 0. -1.
          2    1    1    2  502    0  0.29687414222E+02  0.34046210921E+01 -0.94540431004E+02  0.99150527495E+02  0.00000000000E+00 0. -1.
</event>
<event>
 4    1  0.6688462E+003  0.2341436E+02  0.7546771E-02  0.1487360E+00
          2   -1    0    0  501    0  0.00000000000E+00  0.00000000000E+00  0.37771369023E+02  0.37771369023E+02  0.00000000000E+00 0.  1.
          2   -1    0    0  502    0 -0.00000000000E+00 -0.00000000000E+00 -0.31632555119E+02  0.31632555119E+02  0.00000000000E+00 0. -1.
          2    1    1    2  501    0 -0.23279802118E+02 -0.25065869870E+01 -0.22458442428E+02  0.32444010252E+02  0.00000000000E+00 0. -1.
          2    1    1    2  502    0  0.23279802118E+02  0.25065869870E+01  0.28597256332E+02  0.36959913889E+02  0.00000000000E+00 0.  1.
</event>
<event>
 4    1  0.6688462E+003  0.2762931E+02  0.7546771E-02  0.1441387E+00
          2   -1    0    0  502    0  0.00000000000E+00  0.00000000000E+00  0.46538278477E+03  0.46538278477E+03  0.00000000000E+00 0.  1.
          2   -1    0    0  501    0 -0.00000000000E+00 -0.00000000000E+00 -0.80490409841E+01  0.80490409841E+01  0.00000000000E+00 0. -1.
          2    1    1    2  501    0 -0.39835798031E+01  0.27340623717E+02  0.43988973559E+03  0.44075657464E+03  0.00000000000E+00 0.  1.
          2    1    1    2  502    0  0.39835798031E+01 -0.27340623717E+02  0.17444008196E+02  0.32675251112E+02  0.00000000000E+00 0. -1.
</event>
<event>
 4    1  0.6688462E+003  0.2566875E+02  0.7546771E-02  0.1461459E+00
          2   -1    0    0  502    0  0.00000000000E+00  0.00000000000E+00  0.25054289313E+01  0.25054289313E+01  0.00000000000E+00 0. -1.
          2   -1    0    0  501    0 -0.00000000000E+00 -0.00000000000E+00 -0.27950285281E+03  0.27950285281E+03  0.00000000000E+00 0. -1.
          2    1    1    2  501    0  0.15641461392E+00  0.25668269369E+02 -0.10421834224E+03  0.10733288116E+03  0.00000000000E+00 0. -1.
          2    1    1    2  502    0 -0.15641461392E+00 -0.25668269369E+02 -0.17277908164E+03  0.17467540058E+03  0.00000000000E+00 0. -1.
</event>
<event>
 4    1  0.6688462E+003  0.2079454E+02  0.7546771E-02  0.1522219E+00
          2   -1    0    0  502    0  0.00000000000E+00  0.00000000000E+00  0.14851693276E+03  0.14851693276E+03  0.00000000000E+00 0.  1.
          2   -1    0    0  501    0 -0.00000000000E+00 -0.00000000000E+00 -0.35120746832E+02  0.35120746832E+02  0.00000000000E+00 0.  1.
          2    1    1    2  501    0 -0.13477547590E+02 -0.15835671204E+02  0.14462867636E+03  0.14611593615E+03  0.00000000000E+00 0.  1.
          2    1    1    2  502    0  0.13477547590E+02  0.15835671204E+02 -0.31232490437E+02  0.37521743435E+02  0.00000000000E+00 0.  1.
</event>
<event>
 4    1  0.6688462E+003  0.2090394E+02  0.7546771E-02  0.1520641E+00
          2   -1    0    0  501    0  0.00000000000E+00  0.00000000000E+00  0.12856249629E+02  0.12856249629E+02  0.00000000000E+00 0. -1.
          2   -1    0    0  502    0 -0.00000000000E+00 -0.00000000000E+00 -0.36815204435E+02  0.36815204435E+02  0.00000000000E+00 0. -1.
          2    1    1    2  501    0  0.17957351443E+02 -0.10700853050E+02 -0.50986099414E+01  0.21516750456E+02  0.00000000000E+00 0. -1.
          2    1    1    2  502    0 -0.17957351443E+02  0.10700853050E+02 -0.18860344864E+02  0.28154703608E+02  0.00000000000E+00 0. -1.
</event>
<event>
 4    1  0.6688462E+003  0.2963275E+02  0.7546771E-02  0.1422815E+00
          2   -1    0    0  502    0  0.00000000000E+00  0.00000000000E+00  0.32736214962E+03  0.32736214962E+03  0.00000000000E+00 0. -1.
          2   -1    0    0  501    0 -0.00000000000E+00 -0.00000000000E+00 -0.25987528662E+03  0.25987528662E+03  0.00000000000E+00 0. -1.
          2    1    1    2  501    0  0.29451614929E+02 -0.32713909725E+01  0.32584290008E+03  0.32718755349E+03  0.00000000000E+00 0. -1.
          2    1    1    2  502    0 -0.29451614929E+02  0.32713909725E+01 -0.25835603709E+03  0.26004988276E+03  0.00000000000E+00 0. -1.
</event>
<event>
 4    1  0.6688462E+003  0.4344004E+02  0.7546771E-02  0.1329426E+00
          2   -1    0    0  502    0  0.00000000000E+00  0.00000000000E+00  0.34710779592E+02  0.34710779592E+02  0.00000000000E+00 0. -1.
          2   -1    0    0  501    0 -0.00000000000E+00 -0.00000000000E+00 -0.10783983305E+04  0.10783983305E+04  0.00000000000E+00 0. -1.
          2    1    1    2  501    0  0.37098681874E+02  0.22599230950E+02  0.20500762196E+02  0.48034557216E+02  0.00000000000E+00 0. -1.
          2    1    1    2  502    0 -0.37098681874E+02 -0.22599230950E+02 -0.10641883131E+04  0.10650745529E+04  0.00000000000E+00 0. -1.
</event>
<event>
 4    1  0.6688462E+003  0.2545505E+02  0.7546771E-02  0.1463777E+00
          2   -1    0    0  502    0  0.00000000000E+00  0.00000000000E+00  0.17096527040E+04  0.17096527040E+04  0.00000000000E+00 0. -1.
          2   -1    0    0  501    0 -0.00000000000E+00 -0.00000000000E+00 -0.76119022599E+01  0.76119022599E+01  0.00000000000E+00 0.  1.
          2    1    1    2  501    0 -0.10048355491E+02 -0.23387819622E+02  0.16880039060E+04  0.16881958258E+04  0.00000000000E+00 0. -1.
          2    1    1    2  502    0  0.10048355491E+02  0.23387819622E+02  0.14036895705E+02  0.29068780432E+02  0.00000000000E+00 0.  1.
</event>
<event>
 4    1  0.6688462E+003  0.2058236E+02  0.7546771E-02  0.1525312E+00
          2   -1    0    0  502    0  0.00000000000E+00  0.00000000000E+00  0.34486933155E+02  0.34486933155E+02  0.00000000000E+00 0.  1.
          2   -1    0    0  501    0 -0.00000000000E+00 -0.00000000000E+00 -0.23477622746E+03  0.23477622746E+03  0.00000000000E+00 0.  1.
          2    1    1    2  501    0 -0.17036978303E+02 -0.11548813039E+02  0.30917540399E+02  0.37141998016E+02  0.00000000000E+00 0.  1.
          2    1    1    2  502    0  0.17036978303E+02  0.11548813039E+02 -0.23120683470E+03  0.23212116260E+03  0.00000000000E+00 0.  1.
</event>
<event>
 4    1  0.6688462E+003  0.3859456E+02  0.7546771E-02  0.1356924E+00
          2   -1    0    0  501    0  0.00000000000E+00  0.00000000000E+00  0.19984977555E+03  0.19984977555E+03  0.00000000000E+00 0.  1.
          2   -1    0    0  502    0 -0.00000000000E+00 -0.00000000000E+00 -0.32677716791E+02  0.32677716791E+02  0.00000000000E+00 0. -1.
          2    1    1    2  501    0 -0.27353225241E+02  0.27227580444E+02 -0.18561775537E+02  0.42826155314E+02  0.00000000000E+00 0. -1.
          2    1    1    2  502    0  0.27353225241E+02 -0.27227580444E+02  0.18573383429E+03  0.18970133702E+03  0.00000000000E+00 0.  1.
</event>
<event>
 4    1  0.6688462E+003  0.2239074E+02  0.7546771E-02  0.1500294E+00
          2   -1    0    0  501    0  0.00000000000E+00  0.00000000000E+00  0.13473902392E+03  0.13473902392E+03  0.00000000000E+00 0.  1.
          2   -1    0    0  502    0 -0.00000000000E+00 -0.00000000000E+00 -0.13932723471E+03  0.13932723471E+03  0.00000000000E+00 0. -1.
          2    1    1    2  501    0  0.15791247575E+02 -0.15873936707E+02 -0.13748505410E+03  0.13929639431E+03  0.00000000000E+00 0. -1.
          2    1    1    2  502    0 -0.15791247575E+02  0.15873936707E+02  0.13289684331E+03  0.13476986432E+03  0.00000000000E+00 0.  1.
</event>
<event>
 4    1  0.6688462E+003  0.8685312E+02  0.7546771E-02  0.1188773E+00
          2   -1    0    0  502    0  0.00000000000E+00  0.00000000000E+00  0.84941759308E+03  0.84941759308E+03  0.00000000000E+00 0.  1.
          2   -1    0    0  501    0 -0.00000000000E+00 -0.00000000000E+00 -0.10093187750E+03  0.10093187750E+03  0.00000000000E+00 0. -1.
          2    1    1    2  501    0 -0.86377851950E+02 -0.90736196218E+01  0.82803160844E+03  0.83257420598E+03  0.00000000000E+00 0.  1.
          2    1    1    2  502    0  0.86377851950E+02  0.90736196218E+01 -0.79545892865E+02  0.11777526460E+03  0.00000000000E+00 0. -1.
</event>
<event>
 4    1  0.6688462E+003  0.2329905E+02  0.7546771E-02  0.1488777E+00
          2   -1    0    0  501    0  0.00000000000E+00  0.00000000000E+00  0.37573218085E+03  0.37573218085E+03  0.00000000000E+00 0. -1.
          2   -1    0    0  502    0 -0.00000000000E+00 -0.00000000000E+00 -0.19230228508E+01  0.19230228508E+01  0.00000000000E+00 0. -1.
          2    1    1    2  501    0 -0.66025973642E+00 -0.23289695623E+02  0.92736674509E+02  0.95618704572E+02  0.00000000000E+00 0. -1.
          2    1    1    2  502    0  0.66025973642E+00  0.23289695623E+02  0.28107248349E+03  0.28203649913E+03  0.00000000000E+00 0. -1.
</event>
<event>
 4    1  0.6688462E+003  0.3331263E+02  0.7546771E-02  0.1392830E+00
          2   -1    0    0  501    0  0.00000000000E+00  0.00000000000E+00  0.27549360127E+02  0.27549360127E+02  0.00000000000E+00 0. -1.
          2   -1    0    0  502    0 -0.00000000000E+00 -0.00000000000E+00 -0.82001494218E+02  0.82001494218E+02  0.00000000000E+00 0. -1.
          2    1    1    2  501    0  0.32804747719E+02 -0.57948384711E+01 -0.66296355507E+02  0.74195271947E+02  0.00000000000E+00 0. -1.
          2    1    1    2  502    0 -0.32804747719E+02  0.57948384711E+01  0.11844221416E+02  0.35355582398E+02  0.00000000000E+00 0. -1.
</event>
<event>
 4    1  0.6688462E+003  0.2955517E+02  0.7546771E-02  0.1423502E+00
          2   -1    0    0  502    0  0.00000000000E+00  0.00000000000E+00  0.38270667008E+03  0.38270667008E+03  0.00000000000E+00 0.  1.
          2   -1    0    0  501    0 -0.00000000000E+00 -0.00000000000E+00 -0.82535780206E+01  0.82535780206E+01  0.00000000000E+00 0.  1.
          2    1    1    2  501    0  0.28160044409E+02  0.89733051615E+01  0.35349494593E+03  0.35472832577E+03  0.00000000000E+00 0.  1.
          2    1    1    2  502    0 -0.28160044409E+02 -0.89733051615E+01  0.20958146136E+02  0.36231922335E+02  0.00000000000E+00 0.  1.
</event>
<event>
 4    1  0.6688462E+003  0.2760632E+02  0.7546771E-02  0.1441611E+00
          2   -1    0    0  501    0  0.00000000000E+00  0.00000000000E+00  0.14839372826E+01  0.14839372826E+01  0.00000000000E+00 0. -1.
          2   -1    0    0  502    0 -0.00000000000E+00 -0.00000000000E+00 -0.60405495390E+03  0.60405495390E+03  0.00000000000E+00 0. -1.
          2    1    1    2  501    0 -0.11711694215E+02  0.24998902170E+02 -0.41846639942E+03  0.41937600830E+03  0.00000000000E+00 0. -1.
          2    1    1    2  502    0  0.11711694215E+02 -0.24998902170E+02 -0.18410461719E+03  0.18616288288E+03  0.00000000000E+00 0. -1.
</event>
<event>
 4    1  0.6688462E+003  0.4989526E+02  0.7546771E-02  0.1298627E+00
          2   -1    0    0  502    0  0.00000000000E+00  0.00000000000E+00  0.32686417675E+02  0.32686417675E+02  0.00000000000E+00 0.  1.
          2   -1    0    0  501    0 -0.00000000000E+00 -0.00000000000E+00 -0.42016965682E+03  0.42016965682E+03  0.00000000000E+00 0. -1.
          2    1    1    2  501    0 -0.43762194560E+02 -0.23966785696E+02  0.11138818100E+02  0.51123475606E+02  0.00000000000E+00 0.  1.
          2    1    1    2  502    0  0.43762194560E+02  0.23966785696E+02 -0.39862205724E+03  0.40173259889E+03  0.00000000000E+00 0. -1.
</event>
<event>
 4    1  0.6688462E+003  0.3015329E+02  0.7546771E-02  0.1418269E+00
          2   -1    0    0  502    0  0.00000000000E+00  0.00000000000E+00  0.16560958331E+01  0.16560958331E+01  0.00000000000E+00 0. -1.
          2   -1    0    0  501    0 -0.00000000000E+00 -0.00000000000E+00 -0.92981871289E+03  0.92981871289E+03  0.00000000000E+00 0. -1.
          2    1    1    2  501    0  0.26233761952E+02 -0.14866427289E+02 -0.16602882429E+03  0.16874475228E+03  0.00000000000E+00 0. -1.
          2    1    1    2  502    0 -0.26233761952E+02  0.14866427289E+02 -0.76213379277E+03  0.76273005645E+03  0.00000000000E+00 0. -1.
</event>
<event>
 4    1  0.6688462E+003  0.3048192E+02  0.7546771E-02  0.1415454E+00
          2   -1    0    0  502    0  0.00000000000E+00  0.00000000000E+00  0.14058325686E+03  0.14058325686E+03  0.00000000000E+00 0.  1.
          2   -1    0    0  501    0 -0.00000000000E+00 -0.00000000000E+00 -0.39275833190E+02  0.39275833190E+02  0.00000000000E+00 0.  1.
          2    1    1    2  501    0  0.11631094553E+02 -0.28175612648E+02  0.13266840435E+03  0.13612513736E+03  0.00000000000E+00 0.  1.
          2    1    1    2  502    0 -0.11631094553E+02  0.28175612648E+02 -0.31360980681E+02  0.43733952689E+02  0.00000000000E+00 0.  1.
</event>
<event>
 4    1  0.6688462E+003  0.2320364E+02  0.7546771E-02  0.1489957E+00
          2   -1    0    0  502    0  0.00000000000E+00  0.00000000000E+00  0.17213516352E+04  0.17213516352E+04  0.00000000000E+00 0. -1.
          2   -1    0    0  501    0 -0.00000000000E+00 -0.00000000000E+00 -0.21977925551E+03  0.21977925551E+03  0.00000000000E+00 0. -1.
          2    1    1    2  501    0  0.26307722166E+01 -0.23054025721E+02  0.17206607506E+04  0.17208171976E+04  0.00000000000E+00 0. -1.
          2    1    1    2  502    0 -0.26307722166E+01  0.23054025721E+02 -0.21908837093E+03  0.22031369304E+03  0.00000000000E+00 0. -1.
</event>
<event>
 4    1  0.6688462E+003  0.6970923E+02  0.7546771E-02  0.1229992E+00
          2   -1    0    0  502    0  0.00000000000E+00  0.00000000000E+00  0.22426892237E+02  0.22426892237E+02  0.00000000000E+00 0. -1.
          2   -1    0    0  501    0 -0.00000000000E+00 -0.00000000000E+00 -0.41348580614E+03  0.41348580614E+03  0.00000000000E+00 0. -1.
          2    1    1    2  501    0  0.48203116171E+02  0.50357087266E+02 -0.45159101180E+02  0.83058539994E+02  0.00000000000E+00 0. -1.
          2    1    1    2  502    0 -0.48203116171E+02 -0.50357087266E+02 -0.34589981273E+03  0.35285415839E+03  0.00000000000E+00 0. -1.
</event>
<event>
 4    1  0.6688462E+003  0.3201261E+02  0.7546771E-02  0.1402877E+00
          2   -1    0    0  502    0  0.00000000000E+00  0.00000000000E+00  0.84027603572E+02  0.84027603572E+02  0.00000000000E+00 0. -1.
          2   -1    0    0  501    0 -0.00000000000E+00 -0.00000000000E+00 -0.87702002340E+02  0.87702002340E+02  0.00000000000E+00 0. -1.
          2    1    1    2  501    0  0.10709628227E+02 -0.30168049612E+02  0.77833922447E+02  0.84160126174E+02  0.00000000000E+00 0. -1.
          2    1    1    2  502    0 -0.10709628227E+02  0.30168049612E+02 -0.81508321216E+02  0.87569479738E+02  0.00000000000E+00 0. -1.
</event>
<event>
 4    1  0.6688462E+003  0.2564882E+02  0.7546771E-02  0.1461674E+00
          2   -1    0    0  501    0  0.00000000000E+00  0.00000000000E+00  0.13959618036E+04  0.13959618036E+04  0.00000000000E+00 0. -1.
          2   -1    0    0  502    0 -0.00000000000E+00 -0.00000000000E+00 -0.86497899582E+02  0.86497899582E+02  0.00000000000E+00 0. -1.
          2    1    1    2  501    0  0.25420105035E+02 -0.34175986822E+01 -0.84475946044E+02  0.88283901028E+02  0.00000000000E+00 0. -1.
          2    1    1    2  502    0 -0.25420105035E+02  0.34175986822E+01  0.13939398501E+04  0.13941758022E+04  0.00000000000E+00 0. -1.
</event>
<event>
 4    1  0.6688462E+003  0.3191012E+02  0.7546771E-02  0.1403693E+00
          2   -1    0    0  502    0  0.00000000000E+00  0.00000000000E+00  0.13394337363E+02  0.13394337363E+02  0.00000000000E+00 0.  1.
          2   -1    0    0  501    0 -0.00000000000E+00 -0.00000000000E+00 -0.11319213205E+03  0.11319213205E+03  0.00000000000E+00 0.  1.
          2    1    1    2  501    0 -0.54035992766E+01  0.31449270947E+02 -0.13628688539E+02  0.34698655299E+02  0.00000000000E+00 0.  1.
          2    1    1    2  502    0  0.54035992766E+01 -0.31449270947E+02 -0.86169106146E+02  0.91887814112E+02  0.00000000000E+00 0.  1.
</event>
<event>
 4    1  0.6688462E+003  0.4324224E+02  0.7546771E-02  0.1330467E+00
          2   -1    0    0  502    0  0.00000000000E+00  0.00000000000E+00  0.13255463187E+04  0.13255463187E+04  0.00000000000E+00 0. -1.
          2   -1    0    0  501    0 -0.00000000000E+00 -0.00000000000E+00 -0.59948752675E+01  0.59948752675E+01  0.00000000000E+00 0.  1.
          2    1    1    2  501    0  0.31192181738E+02 -0.29948943279E+02  0.12419689793E+04  0.12427215445E+04  0.00000000000E+00 0. -1.
          2    1    1    2  502    0 -0.31192181738E+02  0.29948943279E+02  0.77582464087E+02  0.88819649509E+02  0.00000000000E+00 0.  1.
</event>
<event>
 4    1  0.6688462E+003  0.2343565E+02  0.7546771E-02  0.1487099E+00
          2   -1    0    0  501    0  0.00000000000E+00  0.00000000000E+00  0.33706772418E+00  0.33706772418E+00  0.00000000000E+00 0.  1.
          2   -1    0    0  502    0 -0.00000000000E+00 -0.00000000000E+00 -0.17136305836E+04  0.17136305836E+04  0.00000000000E+00 0.  1.
          2    1    1    2  501    0 -0.11082134180E+02  0.20649843293E+02 -0.10466059750E+04  0.10468683282E+04  0.00000000000E+00 0.  1.
          2    1    1    2  502    0  0.11082134180E+02 -0.20649843293E+02 -0.66668754084E+03  0.66709932307E+03  0.00000000000E+00 0.  1.
</event>
<event>
 4    1  0.6688462E+003  0.2681620E+02  0.7546771E-02  0.1449463E+00
          2   -1    0    0  502    0  0.00000000000E+00  0.00000000000E+00  0.35266028208E+02  0.35266028208E+02  0.00000000000E+00 0.  1.
          2   -1    0    0  501    0 -0.00000000000E+00 -0.00000000000E+00 -0.28159818639E+02  0.28159818639E+02  0.00000000000E+00 0. -1.
          2    1    1    2  501    0 -0.96487143614E+01 -0.25020214745E+02  0.20210206409E+02  0.33579179230E+02  0.00000000000E+00 0.  1.
          2    1    1    2  502    0  0.96487143614E+01  0.25020214745E+02 -0.13103996839E+02  0.29846667617E+02  0.00000000000E+00 0. -1.
</event>
<event>
 4    1  0.6688462E+003  0.2839984E+02  0.7546771E-02  0.1434031E+00
          2   -1    0    0  502    0  0.00000000000E+00  0.00000000000E+00  0.11360098516E+03  0.11360098516E+03  0.00000000000E+00 0. -1.
          2   -1    0    0  501    0 -0.00000000000E+00 -0.00000000000E+00 -0.34416808976E+03  0.34416808976E+03  0.00000000000E+00 0. -1.
          2    1    1    2  501    0  0.28003562829E+02  0.47277370652E+01  0.11122784763E+03  0.11479627658E+03  0.00000000000E+00 0. -1.
          2    1    1    2  502    0 -0.28003562829E+02 -0.47277370652E+01 -0.34179495223E+03  0.34297279834E+03  0.00000000000E+00 0. -1.
</event>
<event>
 4    1  0.6688462E+003  0.2051635E+02  0.7546771E-02  0.1526283E+00
          2   -1    0    0  502    0  0.00000000000E+00  0.00000000000E+00  0.47636697345E+03  0.47636697345E+03  0.00000000000E+00 0.  1.
          2   -1    0    0  501    0 -0.00000000000E+00 -0.00000000000E+00 -0.35258387530E+02  0.35258387530E+02  0.00000000000E+00 0. -1.
          2    1    1    2  501    0  0.12652824816E+02  0.16150126405E+02  0.47314119155E+03  0.47358579761E+03  0.00000000000E+00 0.  1.
          2    1    1    2  502    0 -0.12652824816E+02 -0.16150126405E+02 -0.32032605623E+02  0.38039563374E+02  0.00000000000E+00 0. -1.
</event>
<event>
 4    1  0.6688462E+003  0.2134677E+02  0.7546771E-02  0.1514371E+00
          2   -1    0    0  501    0  0.00000000000E+00  0.00000000000E+00  0.16606178446E+01  0.16606178446E+01  0.00000000000E+00 0. -1.
          2   -1    0    0  502    0 -0.00000000000E+00 -0.00000000000E+00 -0.30591543001E+03  0.30591543001E+03  0.00000000000E+00 0. -1.
          2    1    1    2  501    0  0.20564042441E+02  0.57275458088E+01 -0.20148312035E+03  0.20261079045E+03  0.00000000000E+00 0. -1.
          2    1    1    2  502    0 -0.20564042441E+02 -0.57275458088E+01 -0.10277169182E+03  0.10496525740E+03  0.00000000000E+00 0. -1.
</event>
<event>
 4    1  0.6688462E+003  0.2697632E+02  0.7546771E-02  0.1447846E+00
          2   -1    0    0  501    0  0.00000000000E+00  0.00000000000E+00  0.62484569617E+02  0.62484569617E+02  0.00000000000E+00 0. -1.
          2   -1    0    0  502    0 -0.00000000000E+00 -0.00000000000E+00 -0.59942557309E+02  0.59942557309E+02  0.00000000000E+00 0. -1.
          2    1    1    2  501    0 -0.21664541400E+02  0.16073882147E+02 -0.53675007698E+02  0.60072693404E+02  0.00000000000E+00 0. -1.
          2    1    1    2  502    0  0.21664541400E+02 -0.16073882147E+02  0.56217020007E+02  0.62354433522E+02  0.00000000000E+00 0. -1.
</event>
<event>
 4    1  0.6688462E+003  0.2415501E+02  0.7546771E-02  0.1478483E+00
          2   -1    0    0  501    0  0.00000000000E+00  0.00000000000E+00  0.31384119254E+03  0.31384119254E+03  0.00000000000E+00 0. -1.
          2   -1    0    0  502    0 -0.00000000000E+00 -0.00000000000E+00 -0.23904968847E+03  0.23904968847E+03  0.00000000000E+00 0. -1.
          2    1    1    2  501    0  0.22296488836E+02 -0.92914449494E+01 -0.23797262201E+03  0.23919538706E+03  0.00000000000E+00 0. -1.
          2    1    1    2  502    0 -0.22296488836E+02  0.92914449494E+01  0.31276412607E+03  0.31369549395E+03  0.00000000000E+00 0. -1.
</event>
<event>
 4    1  0.6688462E+003  0.2041067E+02  0.7546771E-02  0.1527848E+00
          2   -1    0    0  502    0  0.00000000000E+00  0.00000000000E+00  0.44603868073E+00  0.44603868073E+00  0.00000000000E+00 0.  1.
          2   -1    0    0  501    0 -0.00000000000E+00 -0.00000000000E+00 -0.11462008751E+04  0.11462008751E+04  0.00000000000E+00 0.  1.
          2    1    1    2  501    0  0.72967695338E+01 -0.19061806537E+02 -0.32618603978E+03  0.32682400135E+03  0.00000000000E+00 0.  1.
          2    1    1    2  502    0 -0.72967695338E+01  0.19061806537E+02 -0.81956879666E+03  0.81982291245E+03  0.00000000000E+00 0.  1.
</event>
<event>
 4    1  0.6688462E+003  0.2109166E+02  0.7546771E-02  0.1517960E+00
          2   -1    0    0  501    0  0.00000000000E+00  0.00000000000E+00  0.17404541844E+03  0.17404541844E+03  0.00000000000E+00 0.  1.
          2   -1    0    0  502    0 -0.00000000000E+00 -0.00000000000E+00 -0.36202745204E+02  0.36202745204E+02  0.00000000000E+00 0.  1.
          2    1    1    2  501    0  0.16874884724E+02 -0.12652922581E+02 -0.32423835378E+02  0.38680269969E+02  0.00000000000E+00 0.  1.
          2    1    1    2  502    0 -0.16874884724E+02  0.12652922581E+02  0.17026650862E+03  0.17156789368E+03  0.00000000000E+00 0.  1.
</event>
<event>
 4    1  0.6688462E+003  0.5274806E+02  0.7546771E-02  0.1286678E+00
          2   -1    0    0  501    0  0.00000000000E+00  0.00000000000E+00  0.88610060665E+02  0.88610060665E+02  0.00000000000E+00 0.  1.
          2   -1    0    0  502    0 -0.00000000000E+00 -0.00000000000E+00 -0.15908839991E+03  0.15908839991E+03  0.00000000000E+00 0.  1.
          2    1    1    2  501    0 -0.42266713609E+02 -0.31557613413E+02 -0.14619489992E+03  0.15541977611E+03  0.00000000000E+00 0.  1.
          2    1    1    2  502    0  0.42266713609E+02  0.31557613413E+02  0.75716560682E+02  0.92278684457E+02  0.00000000000E+00 0.  1.
</event>
<event>
 4    1  0.6688462E+003  0.1293134E+03  0.7546771E-02  0.1120932E+00
          2   -1    0    0  501    0  0.00000000000E+00  0.00000000000E+00  0.13423719686E+02  0.13423719686E+02  0.00000000000E+00 0.  1.
          2   -1    0    0  502    0 -0.00000000000E+00 -0.00000000000E+00 -0.29718471444E+04  0.29718471444E+04  0.00000000000E+00 0.  1.
          2    1    1    2  501    0  0.36599388312E+02 -0.12402592663E+03 -0.26167846458E+04  0.26199778297E+04  0.00000000000E+00 0.  1.
          2    1    1    2  502    0 -0.36599388312E+02  0.12402592663E+03 -0.34163877889E+03  0.36529303435E+03  0.00000000000E+00 0.  1.
</event>
<event>
 4    1  0.6688462E+003  0.3251131E+02  0.7546771E-02  0.1398958E+00
          2   -1    0    0  502    0  0.00000000000E+00  0.00000000000E+00  0.42908161316E+02  0.42908161316E+02  0.00000000000E+00 0.  1.
          2   -1    0    0  501    0 -0.00000000000E+00 -0.00000000000E+00 -0.55918664206E+02  0.55918664206E+02  0.00000000000E+00 0.  1.
          2    1    1    2  501    0  0.26703975092E+02 -0.18544074209E+02  0.30454971122E+02  0.44547617669E+02  0.00000000000E+00 0.  1.
          2    1    1    2  502    0 -0.26703975092E+02  0.18544074209E+02 -0.43465474012E+02  0.54279207852E+02  0.00000000000E+00 0.  1.
</event>
<event>
 4    1  0.6688462E+003  0.3522380E+02  0.7546771E-02  0.1378997E+00
          2   -1    0    0  502    0  0.00000000000E+00  0.00000000000E+00  0.21938448897E+02  0.21938448897E+02  0.00000000000E+00 0. -1.
          2   -1    0    0  501    0 -0.00000000000E+00 -0.00000000000E+00 -0.13671271834E+04  0.13671271834E+04  0.00000000000E+00 0. -1.
          2    1    1    2  501    0  0.17907222444E+02  0.30332287957E+02  0.74212391734E+01  0.35997098484E+02  0.00000000000E+00 0. -1.
          2    1    1    2  502    0 -0.17907222444E+02 -0.30332287957E+02 -0.13526099737E+04  0.13530685338E+04  0.00000000000E+00 0. -1.
</event>
<event>
 4    1  0.6688462E+003  0.2405187E+02  0.7546771E-02  0.1479696E+00
          2   -1    0    0  502    0  0.00000000000E+00  0.00000000000E+00  0.21609793224E+03  0.21609793224E+03  0.00000000000E+00 0.  1.
          2   -1    0    0  501    0 -0.00000000000E+00 -0.00000000000E+00 -0.18706195931E+03  0.18706195931E+03  0.00000000000E+00 0.  1.
          2    1    1    2  501    0  0.19547217845E+02 -0.14014240008E+02  0.21465035664E+03  0.21599367642E+03  0.00000000000E+00 0.  1.
          2    1    1    2  502    0 -0.19547217845E+02  0.14014240008E+02 -0.18561438370E+03  0.18716621513E+03  0.00000000000E+00 0.  1.
</event>
<event>
 4    1  0.6688462E+003  0.2118997E+02  0.7546771E-02  0.1516570E+00
          2   -1    0    0  502    0  0.00000000000E+00  0.00000000000E+00  0.12545293653E+01  0.12545293653E+01  0.00000000000E+00 0. -1.
          2   -1    0    0  501    0 -0.00000000000E+00 -0.00000000000E+00 -0.13560381438E+04  0.13560381438E+04  0.00000000000E+00 0. -1.
          2    1    1    2  501    0 -0.20927144147E+02  0.33270776968E+01 -0.95155034360E+02  0.97485872680E+02  0.00000000000E+00 0. -1.
          2    1    1    2  502    0  0.20927144147E+02 -0.33270776968E+01 -0.12596285801E+04  0.12598068005E+04  0.00000000000E+00 0. -1.
</event>
<event>
 4    1  0.6688462E+003  0.2316752E+02  0.7546771E-02  0.1490405E+00
          2   -1    0    0  501    0  0.00000000000E+00  0.00000000000E+00  0.96360473642E+01  0.96360473642E+01  0.00000000000E+00 0.  1.
          2   -1    0    0  502    0 -0.00000000000E+00 -0.00000000000E+00 -0.17232994834E+04  0.17232994834E+04  0.00000000000E+00 0. -1.
          2    1    1    2  501    0 -0.16629517335E+02  0.16130503483E+02 -0.17091814413E+04  0.17093384490E+04  0.00000000000E+00 0. -1.
          2    1    1    2  502    0  0.16629517335E+02 -0.16130503483E+02 -0.44819947103E+01  0.23597081726E+02  0.00000000000E+00 0.  1.
</event>
<event>
 4    1  0.6688462E+003  0.2176444E+02  0.7546771E-02  0.1508625E+00
          2   -1    0    0  502    0  0.00000000000E+00  0.00000000000E+00  0.43795162551E+02  0.43795162551E+02  0.00000000000E+00 0. -1.
          2   -1    0    0  501    0 -0.00000000000E+00 -0.00000000000E+00 -0.88857247414E+02  0.88857247414E+02  0.00000000000E+00 0. -1.
          2    1    1    2  501    0  0.47859021614E+01 -0.21231720456E+02  0.39627478791E+02  0.45210926647E+02  0.00000000000E+00 0. -1.
          2    1    1    2  502    0 -0.47859021614E+01  0.21231720456E+02 -0.84689563653E+02  0.87441483317E+02  0.00000000000E+00 0. -1.
</event>
<event>
 4    1  0.6688462E+003  0.3711424E+02  0.7546771E-02  0.1366280E+00
          2   -1    0    0  501    0  0.00000000000E+00  0.00000000000E+00  0.22244815318E+04  0.22244815318E+04  0.00000000000E+00 0. -1.
          2   -1    0    0  502    0 -0.00000000000E+00 -0.00000000000E+00 -0.38561515779E+01  0.38561515779E+01  0.00000000000E+00 0. -1.
          2    1    1    2  501    0 -0.11543206812E+02 -0.35273519373E+02  0.89514205927E+02  0.96903353168E+02  0.00000000000E+00 0. -1.
          2    1    1    2  502    0  0.11543206812E+02  0.35273519373E+02  0.21311111743E+04  0.21314343302E+04  0.00000000000E+00 0. -1.
</event>
<event>
 4    1  0.6688462E+003  0.3550962E+02  0.7546771E-02  0.1377015E+00
          2   -1    0    0  502    0  0.00000000000E+00  0.00000000000E+00  0.10284901802E+03  0.10284901802E+03  0.00000000000E+00 0. -1.
          2   -1    0    0  501    0 -0.00000000000E+00 -0.00000000000E+00 -0.15201460542E+02  0.15201460542E+02  0.00000000000E+00 0. -1.
          2    1    1    2  501    0  0.28181386180E+02 -0.21604223527E+02  0.69787904944E+02  0.78302520251E+02  0.00000000000E+00 0. -1.
          2    1    1    2  502    0 -0.28181386180E+02  0.21604223527E+02  0.17859652532E+02  0.39747958310E+02  0.00000000000E+00 0. -1.
</event>
<event>
 4    1  0.6688462E+003  0.2196260E+02  0.7546771E-02  0.1505952E+00
          2   -1    0    0  501    0  0.00000000000E+00  0.00000000000E+00  0.45180652939E+02  0.45180652939E+02  0.00000000000E+00 0.  1.
          2   -1    0    0  502    0 -0.00000000000E+00 -0.00000000000E+00 -0.39276676798E+03  0.39276676798E+03  0.00000000000E+00 0.  1.
          2    1    1    2  501    0  0.60609239474E+01 -0.21109739094E+02 -0.38977020016E+03  0.39038847936E+03  0.00000000000E+00 0.  1.
          2    1    1    2  502    0 -0.60609239474E+01  0.21109739094E+02  0.42184085126E+02  0.47558941553E+02  0.00000000000E+00 0.  1.
</event>
<event>
 4    1  0.6688462E+003  0.2546289E+02  0.7546771E-02  0.1463691E+00
          2   -1    0    0  501    0  0.00000000000E+00  0.00000000000E+00  0.40810658300E+03  0.40810658300E+03  0.00000000000E+00 0. -1.
          2   -1    0    0  502    0 -0.00000000000E+00 -0.00000000000E+00 -0.69113820023E+01  0.69113820023E+01  0.00000000000E+00 0. -1.
          2    1    1    2  501    0 -0.16202565180E+02  0.19642705331E+02  0.18493507991E+02  0.31470125976E+02  0.00000000000E+00 0. -1.
          2    1    1    2  502    0  0.16202565180E+02 -0.19642705331E+02  0.38270169301E+03  0.38354783903E+03  0.00000000000E+00 0. -1.
</event>
<event>
 4    1  0.6688462E+003  0.2415667E+02  0.7546771E-02  0.1478463E+00
          2   -1    0    0  501    0  0.00000000000E+00  0.00000000000E+00  0.64835311908E+03  0.64835311908E+03  0.00000000000E+00 0. -1.
          2   -1    0    0  502    0 -0.00000000000E+00 -0.00000000000E+00 -0.73570863395E+02  0.73570863395E+02  0.00000000000E+00 0.  1.
          2    1    1    2  501    0 -0.11694064552E+02  0.21137493479E+02 -0.71356124179E+02  0.75334196977E+02  0.00000000000E+00 0.  1.
          2    1    1    2  502    0  0.11694064552E+02 -0.21137493479E+02  0.64613837986E+03  0.64658978549E+03  0.00000000000E+00 0. -1.
</event>
<event>
 4    1  0.6688462E+003  0.2435777E+02  0.7546771E-02  0.1476118E+00
          2   -1    0    0  501    0  0.00000000000E+00  0.00000000000E+00  0.22125159928E+03  0.22125159928E+03  0.00000000000E+00 0. -1.
          2   -1    0    0  502    0 -0.00000000000E+00 -0.00000000000E+00 -0.15393092715E+04  0.15393092715E+04  0.00000000000E+00 0.  1.
          2    1    1    2  501    0 -0.40158875477E+01 -0.24024438936E+02 -0.15385421872E+04  0.15387349878E+04  0.00000000000E+00 0.  1.
          2    1    1    2  502    0  0.40158875477E+01  0.24024438936E+02  0.22048451495E+03  0.22182588296E+03  0.00000000000E+00 0. -1.
</event>
<event>
 4    1  0.6688462E+003  0.2731098E+02  0.7546771E-02  0.1444509E+00
          2   -1    0    0  501    0  0.00000000000E+00  0.00000000000E+00  0.27888615978E+03  0.27888615978E+03  0.00000000000E+00 0.  1.
          2   -1    0    0  502    0 -0.00000000000E+00 -0.00000000000E+00 -0.20528685420E+02  0.20528685420E+02  0.00000000000E+00 0.  1.
          2    1    1    2  501    0 -0.50931454738E+00 -0.27306230715E+02 -0.10436368326E+02  0.29237089817E+02  0.00000000000E+00 0.  1.
          2    1    1    2  502    0  0.50931454738E+00  0.27306230715E+02  0.26879384269E+03  0.27017775538E+03  0.00000000000E+00 0.  1.
</event>
<event>
 4    1  0.6688462E+003  0.2783919E+02  0.7546771E-02  0.1439356E+00
          2   -1    0    0  501    0  0.00000000000E+00  0.00000000000E+00  0.34680959158E+03  0.34680959158E+03  0.00000000000E+00 0.  1.
          2   -1    0    0  502    0 -0.00000000000E+00 -0.00000000000E+00 -0.13030861897E+02  0.13030861897E+02  0.00000000000E+00 0. -1.
          2    1    1    2  501    0  0.27038293177E+02 -0.66295612032E+01  0.31218254405E+01  0.28013678333E+02  0.00000000000E+00 0. -1.
          2    1    1    2  502    0 -0.27038293177E+02  0.66295612032E+01  0.33065690425E+03  0.33182677515E+03  0.00000000000E+00 0.  1.
</event>
<event>
 4    1  0.6688462E+003  0.4159740E+02  0.7546771E-02  0.1339371E+00
          2   -1    0    0  502    0  0.00000000000E+00  0.00000000000E+00  0.31371620970E+01  0.31371620970E+01  0.00000000000E+00 0.  1.
          2   -1    0    0  501    0 -0.00000000000E+00 -0.00000000000E+00 -0.13037100993E+04  0.13037100993E+04  0.00000000000E+00 0. -1.
          2    1    1    2  501    0  0.36584517717E+02  0.19796880230E+02 -0.15397348752E+03  0.15949350539E+03  0.00000000000E+00 0.  1.
          2    1    1    2  502    0 -0.36584517717E+02 -0.19796880230E+02 -0.11465994497E+04  0.11473537560E+04  0.00000000000E+00 0. -1.
</event>
<event>
 4    1  0.6688462E+003  0.2100003E+02  0.7546771E-02  0.1519264E+00
          2   -1    0    0  502    0  0.00000000000E+00  0.00000000000E+00  0.17348950923E+03  0.17348950923E+03  0.00000000000E+00 0. -1.
          2   -1    0    0  501    0 -0.00000000000E+00 -0.00000000000E+00 -0.17516692855E+03  0.17516692855E+03  0.00000000000E+00 0. -1.
          2    1    1    2  501    0 -0.19528984802E+02 -0.77213972689E+01  0.17221999850E+03  0.17349561697E+03  0.00000000000E+00 0. -1.
          2    1    1    2  502    0  0.19528984802E+02  0.77213972689E+01 -0.17389741782E+03  0.17516082082E+03  0.00000000000E+00 0. -1.
</event>
<event>
 4    1  0.6688462E+003  0.2988935E+02  0.7546771E-02  0.1420561E+00
          2   -1    0    0  502    0  0.00000000000E+00  0.00000000000E+00  0.22960839039E+02  0.22960839039E+02  0.00000000000E+00 0. -1.
          2   -1    0    0  501    0 -0.00000000000E+00 -0.00000000000E+00 -0.30579755017E+03  0.30579755017E+03  0.00000000000E+00 0. -1.
          2    1    1    2  501    0  0.29602528752E+02 -0.41308026450E+01  0.12147680646E+02  0.32263592238E+02  0.00000000000E+00 0. -1.
          2    1    1    2  502    0 -0.29602528752E+02  0.41308026450E+01 -0.29498439178E+03  0.29649479698E+03  0.00000000000E+00 0. -1.
</event>
<event>
 4    1  0.6688462E+003  0.2067434E+02  0.7546771E-02  0.1523966E+00
          2   -1    0    0  501    0  0.00000000000E+00  0.00000000000E+00  0.13988443829E+02  0.13988443829E+02  0.00000000000E+00 0.  1.
          2   -1    0    0  502    0 -0.00000000000E+00 -0.00000000000E+00 -0.53632699897E+02  0.53632699897E+02  0.00000000000E+00 0. -1.
          2    1    1    2  501    0 -0.20363258750E+02 -0.35729512470E+01 -0.42000327639E+02  0.46812987613E+02  0.00000000000E+00 0. -1.
          2    1    1    2  502    0  0.20363258750E+02  0.35729512470E+01  0.23560715701E+01  0.20808156112E+02  0.00000000000E+00 0.  1.
</event>
<event>
 4    1  0.6688462E+003  0.2700900E+02  0.7546771E-02  0.1447518E+00
          2   -1    0    0  502    0  0.00000000000E+00  0.00000000000E+00  0.19734255802E+04  0.19734255802E+04  0.00000000000E+00 0.  1.
          2   -1    0    0  501    0 -0.00000000000E+00 -0.00000000000E+00 -0.41994023848E+02  0.41994023848E+02  0.00000000000E+00 0. -1.
          2    1    1    2  501    0  0.22965295498E+02 -0.14215539118E+02  0.19689805644E+04  0.19691658004E+04  0.00000000000E+00 0.  1.
          2    1    1    2  502    0 -0.22965295498E+02  0.14215539118E+02 -0.37549008047E+02  0.46253803682E+02  0.00000000000E+00 0. -1.
</event>
<event>
 4    1  0.6688462E+003  0.2411600E+02  0.7546771E-02  0.1478941E+00
          2   -1    0    0  501    0  0.00000000000E+00  0.00000000000E+00  0.46891778567E+01  0.46891778567E+01  0.00000000000E+00 0.  1.
          2   -1    0    0  502    0 -0.00000000000E+00 -0.00000000000E+00 -0.14899767622E+04  0.14899767622E+04  0.00000000000E+00 0. -1.
          2    1    1    2  501    0  0.18121450900E+02 -0.15912081584E+02 -0.14581968986E+04  0.14583963029E+04  0.00000000000E+00 0. -1.
          2    1    1    2  502    0 -0.18121450900E+02  0.15912081584E+02 -0.27090685746E+02  0.36269637126E+02  0.00000000000E+00 0.  1.
</event>
<event>
 4    1  0.6688462E+003  0.2420480E+02  0.7546771E-02  0.1477899E+00
          2   -1    0    0  501    0  0.00000000000E+00  0.00000000000E+00  0.35733241271E+03  0.35733241271E+03  0.00000000000E+00 0.  1.
          2   -1    0    0  502    0 -0.00000000000E+00 -0.00000000000E+00 -0.64946047613E+02  0.64946047613E+02  0.00000000000E+00 0.  1.
          2    1    1    2  501    0  0.18003764267E+02 -0.16178284476E+02 -0.62263891039E+02  0.66803177647E+02  0.00000000000E+00 0.  1.
          2    1    1    2  502    0 -0.18003764267E+02  0.16178284476E+02  0.35465025614E+03  0.35547528268E+03  0.00000000000E+00 0.  1.
</event>
<event>
 4    1  0.6688462E+003  0.4580587E+02  0.7546771E-02  0.1317458E+00
          2   -1    0    0  501    0  0.00000000000E+00  0.00000000000E+00  0.93180704019E+02  0.93180704019E+02  0.00000000000E+00 0.  1.
          2   -1    0    0  502    0 -0.00000000000E+00 -0.00000000000E+00 -0.40052559539E+02  0.40052559539E+02  0.00000000000E+00 0.  1.
          2    1    1    2  501    0  0.92915744352E+01 -0.44853588115E+02 -0.17514107488E+02  0.49040000850E+02  0.00000000000E+00 0.  1.
          2    1    1    2  502    0 -0.92915744352E+01  0.44853588115E+02  0.70642251968E+02  0.84193262708E+02  0.00000000000E+00 0.  1.
</event>
<event>
 4    1  0.6688462E+003  0.2081579E+02  0.7546771E-02  0.1521911E+00
          2   -1    0    0  502    0  0.00000000000E+00  0.00000000000E+00  0.16376749407E+03  0.16376749407E+03  0.00000000000E+00 0.  1.
          2   -1    0    0  501    0 -0.00000000000E+00 -0.00000000000E+00 -0.12134434761E+04  0.12134434761E+04  0.00000000000E+00 0.  1.
          2    1    1    2  501    0  0.12332193784E+02  0.16769437889E+02  0.16301636271E+03  0.16433998772E+03  0.00000000000E+00 0.  1.
          2    1    1    2  502    0 -0.12332193784E+02 -0.16769437889E+02 -0.12126923447E+04  0.12128709824E+04  0.00000000000E+00 0.  1.
</event>
<event>
 4    1  0.6688462E+003  0.2134623E+02  0.7546771E-02  0.1514379E+00
          2   -1    0    0  501    0  0.00000000000E+00  0.00000000000E+00  0.73153795246E+03  0.73153795246E+03  0.00000000000E+00 0. -1.
          2   -1    0    0  502    0 -0.00000000000E+00 -0.00000000000E+00 -0.12067242443E+03  0.12067242443E+03  0.00000000000E+00 0.  1.
          2    1    1    2  501    0 -0.21272458857E+02  0.17730916605E+01 -0.11957127655E+03  0.12146172869E+03  0.00000000000E+00 0.  1.
          2    1    1    2  502    0  0.21272458857E+02 -0.17730916605E+01  0.73043680458E+03  0.73074864820E+03  0.00000000000E+00 0. -1.
</event>
<event>
 4    1  0.6688462E+003  0.2354964E+02  0.7546771E-02  0.1485709E+00
          2   -1    0    0  501    0  0.00000000000E+00  0.00000000000E+00  0.17884224280E+04  0.17884224280E+04  0.00000000000E+00 0.  1.
          2   -1    0    0  502    0 -0.00000000000E+00 -0.00000000000E+00 -0.20498336703E+01  0.20498336703E+01  0.00000000000E+00 0.  1.
          2    1    1    2  501    0 -0.13823817376E+02 -0.19065350877E+02  0.68440763621E+02  0.72379027735E+02  0.00000000000E+00 0.  1.
          2    1    1    2  502    0  0.13823817376E+02  0.19065350877E+02  0.17179318307E+04  0.17180932340E+04  0.00000000000E+00 0.  1.
</event>
<event>
 4    1  0.6688462E+003  0.2106201E+02  0.7546771E-02  0.1518381E+00
          2   -1    0    0  501    0  0.00000000000E+00  0.00000000000E+00  0.25510277356E+02  0.25510277356E+02  0.00000000000E+00 0. -1.
          2   -1    0    0  502    0 -0.00000000000E+00 -0.00000000000E+00 -0.34930645651E+03  0.34930645651E+03  0.00000000000E+00 0.  1.
          2    1    1    2  501    0  0.20364693001E+02  0.53747316684E+01 -0.34458206499E+03  0.34522515547E+03  0.00000000000E+00 0.  1.
          2    1    1    2  502    0 -0.20364693001E+02 -0.53747316684E+01  0.20785885836E+02  0.29591578388E+02  0.00000000000E+00 0. -1.
</event>
<event>
 4    1  0.6688462E+003  0.2011415E+02  0.7546771E-02  0.1532298E+00
          2   -1    0    0  501    0  0.00000000000E+00  0.00000000000E+00  0.35401496494E+03  0.35401496494E+03  0.00000000000E+00 0.  1.
          2   -1    0    0  502    0 -0.00000000000E+00 -0.00000000000E+00 -0.16686399577E+01  0.16686399577E+01  0.00000000000E+00 0. -1.
          2    1    1    2  501    0 -0.19922211361E+02 -0.27720785067E+01  0.76341815202E+02  0.78947144806E+02  0.00000000000E+00 0. -1.
          2    1    1    2  502    0  0.19922211361E+02  0.27720785067E+01  0.27600450978E+03  0.27673646009E+03  0.00000000000E+00 0.  1.
</event>
<event>
 4    1  0.6688462E+003  0.3568831E+02  0.7546771E-02  0.1375788E+00
          2   -1    0    0  501    0  0.00000000000E+00  0.00000000000E+00  0.22421350097E+04  0.22421350097E+04  0.00000000000E+00 0.  1.
          2   -1    0    0  502    0 -0.00000000000E+00 -0.00000000000E+00 -0.41252772187E+03  0.41252772187E+03  0.00000000000E+00 0.  1.
          2    1    1    2  501    0  0.12090469847E+02 -0.33577912005E+02 -0.41161353270E+03  0.41315778577E+03  0.00000000000E+00 0.  1.
          2    1    1    2  502    0 -0.12090469847E+02  0.33577912005E+02  0.22412208205E+04  0.22415049458E+04  0.00000000000E+00 0.  1.
</event>
<event>
 4    1  0.6688462E+003  0.2108656E+02  0.7546771E-02  0.1518033E+00
          2   -1    0    0  502    0  0.00000000000E+00  0.00000000000E+00  0.17856068989E+02  0.17856068989E+02  0.00000000000E+00 0. -1.
          2   -1    0    0  501    0 -0.00000000000E+00 -0.00000000000E+00 -0.23254770394E+03  0.23254770394E+03  0.00000000000E+00 0.  1.
          2    1    1    2  501    0  0.20804247029E+02 -0.34389240602E+01  0.10962926363E+02  0.23766123949E+02  0.00000000000E+00 0. -1.
          2    1    1    2  502    0 -0.20804247029E+02  0.34389240602E+01 -0.22565456132E+03  0.22663764898E+03  0.00000000000E+00 0.  1.
</event>
<event>
 4    1  0.6688462E+003  0.2116261E+02  0.7546771E-02  0.1516956E+00
          2   -1    0    0  501    0  0.00000000000E+00  0.00000000000E+00  0.23386649381E+03  0.23386649381E+03  0.00000000000E+00 0. -1.
          2   -1    0    0  502    0 -0.00000000000E+00 -0.00000000000E+00 -0.30354601924E+02  0.30354601924E+02  0.00000000000E+00 0. -1.
          2    1    1    2  501    0  0.21097560885E+02  0.16580476358E+01 -0.26119428523E+02  0.33616673596E+02  0.00000000000E+00 0. -1.
          2    1    1    2  502    0 -0.21097560885E+02 -0.16580476358E+01  0.22963132041E+03  0.23060442214E+03  0.00000000000E+00 0. -1.
</event>
<event>
 4    1  0.6688462E+003  0.2685274E+02  0.7546771E-02  0.1449093E+00
          2   -1    0    0  501    0  0.00000000000E+00  0.00000000000E+00  0.75127693235E+03  0.75127693235E+03  0.00000000000E+00 0. -1.
          2   -1    0    0  502    0 -0.00000000000E+00 -0.00000000000E+00 -0.79809494814E+02  0.79809494814E+02  0.00000000000E+00 0.  1.
          2    1    1    2  501    0 -0.10264759074E+02 -0.24813387741E+02 -0.77303268180E+02  0.81834373960E+02  0.00000000000E+00 0.  1.
          2    1    1    2  502    0  0.10264759074E+02  0.24813387741E+02  0.74877070572E+03  0.74925205320E+03  0.00000000000E+00 0. -1.
</event>
<event>
 4    1  0.6688462E+003  0.3173497E+02  0.7546771E-02  0.1405096E+00
          2   -1    0    0  501    0  0.00000000000E+00  0.00000000000E+00  0.47096819128E+02  0.47096819128E+02  0.00000000000E+00 0.  1.
          2   -1    0    0  502    0 -0.00000000000E+00 -0.00000000000E+00 -0.17624145088E+03  0.17624145088E+03  0.00000000000E+00 0. -1.
          2    1    1    2  501    0  0.19888140855E+02  0.24729940297E+02 -0.16924792135E+03  0.17219746506E+03  0.00000000000E+00 0. -1.
          2    1    1    2  502    0 -0.19888140855E+02 -0.24729940297E+02  0.40103289597E+02  0.51140804943E+02  0.00000000000E+00 0.  1.
</event>
<event>
 4    1  0.6688462E+003  0.2128641E+02  0.7546771E-02  0.1515215E+00
          2   -1    0    0  502    0  0.00000000000E+00  0.00000000000E+00  0.10410602823E+01  0.10410602823E+01  0.00000000000E+00 0. -1.
          2   -1    0    0  501    0 -0.00000000000E+00 -0.00000000000E+00 -0.60178418706E+03  0.60178418706E+03  0.00000000000E+00 0. -1.
          2    1    1    2  501    0  0.43430320382E+01  0.20838653084E+02 -0.14180726882E+03  0.14339600023E+03  0.00000000000E+00 0. -1.
          2    1    1    2  502    0 -0.43430320382E+01 -0.20838653084E+02 -0.45893585795E+03  0.45942924711E+03  0.00000000000E+00 0. -1.
</event>
<event>
 4    1  0.6688462E+003  0.2059447E+02  0.7546771E-02  0.1525134E+00
          2   -1    0    0  502    0  0.00000000000E+00  0.00000000000E+00  0.72924301175E+03  0.72924301175E+03  0.00000000000E+00 0. -1.
          2   -1    0    0  501    0 -0.00000000000E+00 -0.00000000000E+00 -0.71553673194E+00  0.71553673194E+00  0.00000000000E+00 0. -1.
          2    1    1    2  501    0  0.20590807878E+02  0.38831849046E+00  0.52216741637E+03  0.52257338516E+03  0.00000000000E+00 0. -1.
          2    1    1    2  502    0 -0.20590807878E+02 -0.38831849046E+00  0.20636005865E+03  0.20738516332E+03  0.00000000000E+00 0. -1.
</event>
<event>
 4    1  0.6688462E+003  0.2043438E+02  0.7546771E-02  0.1527496E+00
          2   -1    0    0  501    0  0.00000000000E+00  0.00000000000E+00  0.39135821031E+02  0.39135821031E+02  0.00000000000E+00 0.  1.
          2   -1    0    0  502    0 -0.00000000000E+00 -0.00000000000E+00 -0.12442944016E+04  0.12442944016E+04  0.00000000000E+00 0.  1.
          2    1    1    2  501    0  0.14534809919E+02  0.14363259868E+02 -0.12415371801E+04  0.12417053328E+04  0.00000000000E+00 0.  1.
          2    1    1    2  502    0 -0.14534809919E+02 -0.14363259868E+02  0.36378599493E+02  0.41724889868E+02  0.00000000000E+00 0.  1.
</event>
<event>
 4    1  0.6688462E+003  0.2762650E+02  0.7546771E-02  0.1441414E+00
          2   -1    0    0  502    0  0.00000000000E+00  0.00000000000E+00  0.19135079331E+02  0.19135079331E+02  0.00000000000E+00 0.  1.
          2   -1    0    0  501    0 -0.00000000000E+00 -0.00000000000E+00 -0.49042667636E+02  0.49042667636E+02  0.00000000000E+00 0.  1.
          2    1    1    2  501    0  0.26396503755E+02  0.81515594463E+01 -0.22414502179E+00  0.27627406192E+02  0.00000000000E+00 0.  1.
          2    1    1    2  502    0 -0.26396503755E+02 -0.81515594463E+01 -0.29683443283E+02  0.40550340776E+02  0.00000000000E+00 0.  1.
</event>
<event>
 4    1  0.1343013E+004  0.2641973E+02  0.7546771E-02  0.1453526E+00
          2   -1    0    0  502    0  0.00000000000E+00  0.00000000000E+00  0.58472462592E+03  0.58472462592E+03  0.00000000000E+00 0. -1.
          2   -1    0    0  501    0 -0.00000000000E+00 -0.00000000000E+00 -0.10090498006E+04  0.10090498006E+04  0.00000000000E+00 0.  1.
          2    1    1    2  501    0 -0.89601292348E+01 -0.24853940131E+02  0.58425311885E+03  0.58485015956E+03  0.00000000000E+00 0. -1.
          2    1    1    2  502    0  0.89601292348E+01  0.24853940131E+02 -0.10085782936E+04  0.10089242670E+04  0.00000000000E+00 0.  1.
</event>
<event>
 4    1  0.6688462E+003  0.2173509E+02  0.7546771E-02  0.1509023E+00
          2   -1    0    0  502    0  0.00000000000E+00  0.00000000000E+00  0.91443981893E+03  0.91443981893E+03  0.00000000000E+00 0.  1.
          2   -1    0    0  501    0 -0.00000000000E+00 -0.00000000000E+00 -0.41914978127E+01  0.41914978127E+01  0.00000000000E+00 0. -1.
          2    1    1    2  501    0  0.18337570147E+02 -0.11668227692E+02  0.88520325426E+03  0.88547005334E+03  0.00000000000E+00 0.  1.
          2    1    1    2  502    0 -0.18337570147E+02  0.11668227692E+02  0.25045066859E+02  0.33161263400E+02  0.00000000000E+00 0. -1.
</event>
<event>
 4    1  0.6688462E+003  0.6509996E+02  0.7546771E-02  0.1243424E+00
          2   -1    0    0  502    0  0.00000000000E+00  0.00000000000E+00  0.14925891222E+04  0.14925891222E+04  0.00000000000E+00 0. -1.
          2   -1    0    0  501    0 -0.00000000000E+00 -0.00000000000E+00 -0.10479080190E+02  0.10479080190E+02  0.00000000000E+00 0. -1.
          2    1    1    2  501    0 -0.60058549545E+02  0.25119224215E+02  0.13827456599E+04  0.13842772716E+04  0.00000000000E+00 0. -1.
          2    1    1    2  502    0  0.60058549545E+02 -0.25119224215E+02  0.99364382153E+02  0.11879093080E+03  0.00000000000E+00 0. -1.
</event>
<event>
 4    1  0.6688462E+003  0.3686019E+02  0.7546771E-02  0.1367937E+00
          2   -1    0    0  502    0  0.00000000000E+00  0.00000000000E+00  0.82061036621E+02  0.82061036621E+02  0.00000000000E+00 0.  1.
          2   -1    0    0  501    0 -0.00000000000E+00 -0.00000000000E+00 -0.16925666564E+03  0.16925666564E+03  0.00000000000E+00 0. -1.
          2    1    1    2  501    0  0.23461785629E+02  0.28429177698E+02  0.75756858924E+02  0.84248294959E+02  0.00000000000E+00 0.  1.
          2    1    1    2  502    0 -0.23461785629E+02 -0.28429177698E+02 -0.16295248794E+03  0.16706940730E+03  0.00000000000E+00 0. -1.
</event>
<event>
 4    1  0.6688462E+003  0.3954155E+02  0.7546771E-02  0.1351193E+00
          2   -1    0    0  501    0  0.00000000000E+00  0.00000000000E+00  0.20575284807E+04  0.20575284807E+04  0.00000000000E+00 0.  1.
          2   -1    0    0  502    0 -0.00000000000E+00 -0.00000000000E+00 -0.14637628258E+01  0.14637628258E+01  0.00000000000E+00 0. -1.
          2    1    1    2  501    0  0.39480986841E+02 -0.21877089935E+01  0.31414350941E+03  0.31662229691E+03  0.00000000000E+00 0. -1.
          2    1    1    2  502    0 -0.39480986841E+02  0.21877089935E+01  0.17419212084E+04  0.17423699466E+04  0.00000000000E+00 0.  1.
</event>
<event>
 4    1  0.6688462E+003  0.2098282E+02  0.7546771E-02  0.1519510E+00
          2   -1    0    0  502    0  0.00000000000E+00  0.00000000000E+00  0.39546820801E+01  0.39546820801E+01  0.00000000000E+00 0. -1.
          2   -1    0    0  501    0 -0.00000000000E+00 -0.00000000000E+00 -0.19922348320E+03  0.19922348320E+03  0.00000000000E+00 0.  1.
          2    1    1    2  501    0  0.14679731878E+02  0.14992801708E+02 -0.30157878266E+02  0.36739301199E+02  0.00000000000E+00 0. -1.
          2    1    1    2  502    0 -0.14679731878E+02 -0.14992801708E+02 -0.16511092285E+03  0.16643886408E+03  0.00000000000E+00 0.  1.
</event>
<event>
 4    1  0.6688462E+003  0.2421243E+02  0.7546771E-02  0.1477810E+00
          2   -1    0    0  502    0  0.00000000000E+00  0.00000000000E+00  0.36241672868E+02  0.36241672868E+02  0.00000000000E+00 0. -1.
          2   -1    0    0  501    0 -0.00000000000E+00 -0.00000000000E+00 -0.13973179096E+04  0.13973179096E+04  0.00000000000E+00 0.  1.
          2    1    1    2  501    0 -0.17649062262E+02  0.16575654396E+02  0.32080733401E+02  0.40192227768E+02  0.00000000000E+00 0. -1.
          2    1    1    2  502    0  0.17649062262E+02 -0.16575654396E+02 -0.13931569702E+04  0.13933673547E+04  0.00000000000E+00 0.  1.
</event>
<event>
 4    1  0.6688462E+003  0.3440254E+02  0.7546771E-02  0.1384813E+00
          2   -1    0    0  502    0  0.00000000000E+00  0.00000000000E+00  0.11515615689E+04  0.11515615689E+04  0.00000000000E+00 0.  1.
          2   -1    0    0  501    0 -0.00000000000E+00 -0.00000000000E+00 -0.17259692248E+01  0.17259692248E+01  0.00000000000E+00 0.  1.
          2    1    1    2  501    0 -0.34342554838E+02 -0.20307426478E+01  0.94167802566E+03  0.94230623419E+03  0.00000000000E+00 0.  1.
          2    1    1    2  502    0  0.34342554838E+02  0.20307426478E+01  0.20815757398E+03  0.21098130389E+03  0.00000000000E+00 0.  1.
</event>
<event>
 4    1  0.6688462E+003  0.2278649E+02  0.7546771E-02  0.1495197E+00
          2   -1    0    0  501    0  0.00000000000E+00  0.00000000000E+00  0.53020787372E+03  0.53020787372E+03  0.00000000000E+00 0. -1.
          2   -1    0    0  502    0 -0.00000000000E+00 -0.00000000000E+00 -0.15013036947E+03  0.15013036947E+03  0.00000000000E+00 0.  1.
          2    1    1    2  501    0 -0.17606390071E+02  0.14465107676E+02 -0.14901911086E+03  0.15075118478E+03  0.00000000000E+00 0.  1.
          2    1    1    2  502    0  0.17606390071E+02 -0.14465107676E+02  0.52909661511E+03  0.52958705841E+03  0.00000000000E+00 0. -1.
</event>
<event>
 4    1  0.6688462E+003  0.2346397E+02  0.7546771E-02  0.1486753E+00
          2   -1    0    0  502    0  0.00000000000E+00  0.00000000000E+00  0.50609329713E+03  0.50609329713E+03  0.00000000000E+00 0. -1.
          2   -1    0    0  501    0 -0.00000000000E+00 -0.00000000000E+00 -0.38906302447E+01  0.38906302447E+01  0.00000000000E+00 0. -1.
          2    1    1    2  501    0 -0.10523086813E+02  0.20971942726E+02  0.46752781718E+03  0.46811624366E+03  0.00000000000E+00 0. -1.
          2    1    1    2  502    0  0.10523086813E+02 -0.20971942726E+02  0.34674849699E+02  0.41867683712E+02  0.00000000000E+00 0. -1.
</event>
<event>
 4    1  0.6688462E+003  0.2184410E+02  0.7546771E-02  0.1507546E+00
          2   -1    0    0  501    0  0.00000000000E+00  0.00000000000E+00  0.72296843330E+03  0.72296843330E+03  0.00000000000E+00 0. -1.
          2   -1    0    0  502    0 -0.00000000000E+00 -0.00000000000E+00 -0.37220901773E+01  0.37220901773E+01  0.00000000000E+00 0.  1.
          2    1    1    2  501    0 -0.20308338046E+02 -0.80458802459E+01  0.30063172568E+02  0.37161258429E+02  0.00000000000E+00 0.  1.
          2    1    1    2  502    0  0.20308338046E+02  0.80458802459E+01  0.68918317056E+03  0.68952926505E+03  0.00000000000E+00 0. -1.
</event>
<event>
 4    1  0.6688462E+003  0.2316487E+02  0.7546771E-02  0.1490438E+00
          2   -1    0    0  502    0  0.00000000000E+00  0.00000000000E+00  0.54230060043E+01  0.54230060043E+01  0.00000000000E+00 0.  1.
          2   -1    0    0  501    0 -0.00000000000E+00 -0.00000000000E+00 -0.13304127101E+04  0.13304127101E+04  0.00000000000E+00 0.  1.
          2    1    1    2  501    0 -0.11573442545E+02 -0.20066550903E+02 -0.19895407122E+02  0.30535852077E+02  0.00000000000E+00 0.  1.
          2    1    1    2  502    0  0.11573442545E+02  0.20066550903E+02 -0.13050942970E+04  0.13052998640E+04  0.00000000000E+00 0.  1.
</event>
<event>
 4    1  0.6688462E+003  0.2177757E+02  0.7546771E-02  0.1508446E+00
          2   -1    0    0  501    0  0.00000000000E+00  0.00000000000E+00  0.32983165466E+01  0.32983165466E+01  0.00000000000E+00 0.  1.
          2   -1    0    0  502    0 -0.00000000000E+00 -0.00000000000E+00 -0.73742366659E+03  0.73742366659E+03  0.00000000000E+00 0.  1.
          2    1    1    2  501    0  0.21524517139E+02  0.33102416116E+01 -0.69935952921E+03  0.69969851624E+03  0.00000000000E+00 0.  1.
          2    1    1    2  502    0 -0.21524517139E+02 -0.33102416116E+01 -0.34765820828E+02  0.41023466887E+02  0.00000000000E+00 0.  1.
</event>
<event>
 4    1  0.6688462E+003  0.2027692E+02  0.7546771E-02  0.1529844E+00
          2   -1    0    0  501    0  0.00000000000E+00  0.00000000000E+00  0.17214809868E+02  0.17214809868E+02  0.00000000000E+00 0.  1.
          2   -1    0    0  502    0 -0.00000000000E+00 -0.00000000000E+00 -0.51686899008E+02  0.51686899008E+02  0.00000000000E+00 0.  1.
          2    1    1    2  501    0 -0.18286919604E+02 -0.87602628240E+01 -0.42503238673E+02  0.47092238543E+02  0.00000000000E+00 0.  1.
          2    1    1    2  502    0  0.18286919604E+02  0.87602628240E+01  0.80311495329E+01  0.21809470332E+02  0.00000000000E+00 0.  1.
</event>
<event>
 4    1  0.6688462E+003  0.2669851E+02  0.7546771E-02  0.1450660E+00
          2   -1    0    0  501    0  0.00000000000E+00  0.00000000000E+00  0.29914785968E+02  0.29914785968E+02  0.00000000000E+00 0. -1.
          2   -1    0    0  502    0 -0.00000000000E+00 -0.00000000000E+00 -0.13872750415E+03  0.13872750415E+03  0.00000000000E+00 0. -1.
          2    1    1    2  501    0 -0.21307622650E+02  0.16087135094E+02 -0.13114501918E+03  0.13383507296E+03  0.00000000000E+00 0. -1.
          2    1    1    2  502    0  0.21307622650E+02 -0.16087135094E+02  0.22332300997E+02  0.34807217159E+02  0.00000000000E+00 0. -1.
</event>
<event>
 4    1  0.6688462E+003  0.2536675E+02  0.7546771E-02  0.1464742E+00
          2   -1    0    0  501    0  0.00000000000E+00  0.00000000000E+00  0.12607487102E+04  0.12607487102E+04  0.00000000000E+00 0. -1.
          2   -1    0    0  502    0 -0.00000000000E+00 -0.00000000000E+00 -0.23998724967E+01  0.23998724967E+01  0.00000000000E+00 0. -1.
          2    1    1    2  501    0  0.22666948974E+02 -0.11387778494E+02  0.68769512656E+02  0.73298826359E+02  0.00000000000E+00 0. -1.
          2    1    1    2  502    0 -0.22666948974E+02  0.11387778494E+02  0.11895793250E+04  0.11898497563E+04  0.00000000000E+00 0. -1.
</event>
<event>
 4    1  0.6688462E+003  0.2158002E+02  0.7546771E-02  0.1511142E+00
          2   -1    0    0  502    0  0.00000000000E+00  0.00000000000E+00  0.71743945698E+02  0.71743945698E+02  0.00000000000E+00 0.  1.
          2   -1    0    0  501    0 -0.00000000000E+00 -0.00000000000E+00 -0.67899548740E+01  0.67899548740E+01  0.00000000000E+00 0.  1.
          2    1    1    2  501    0  0.19519213574E+02  0.92031300155E+01  0.40715001922E+02  0.46080458788E+02  0.00000000000E+00 0.  1.
          2    1    1    2  502    0 -0.19519213574E+02 -0.92031300155E+01  0.24238988902E+02  0.32453441784E+02  0.00000000000E+00 0.  1.
</event>
<event>
 4    1  0.6688462E+003  0.2333045E+02  0.7546771E-02  0.1488390E+00
          2   -1    0    0  501    0  0.00000000000E+00  0.00000000000E+00  0.26113963485E+02  0.26113963485E+02  0.00000000000E+00 0.  1.
          2   -1    0    0  502    0 -0.00000000000E+00 -0.00000000000E+00 -0.18366964613E+03  0.18366964613E+03  0.00000000000E+00 0. -1.
          2    1    1    2  501    0 -0.23057646102E+02  0.35573502770E+01 -0.17753867844E+03  0.17906504998E+03  0.00000000000E+00 0. -1.
          2    1    1    2  502    0  0.23057646102E+02 -0.35573502770E+01  0.19982995794E+02  0.30718559629E+02  0.00000000000E+00 0.  1.
</event>
<event>
 4    1  0.6688462E+003  0.2872058E+02  0.7546771E-02  0.1431050E+00
          2   -1    0    0  502    0  0.00000000000E+00  0.00000000000E+00  0.12605081593E+02  0.12605081593E+02  0.00000000000E+00 0.  1.
          2   -1    0    0  501    0 -0.00000000000E+00 -0.00000000000E+00 -0.80305184617E+02  0.80305184617E+02  0.00000000000E+00 0.  1.
          2    1    1    2  501    0 -0.22860458742E+02  0.17385950267E+02 -0.13862825872E+02  0.31891217941E+02  0.00000000000E+00 0.  1.
          2    1    1    2  502    0  0.22860458742E+02 -0.17385950267E+02 -0.53837277152E+02  0.61019048269E+02  0.00000000000E+00 0.  1.
</event>
<event>
 4    1  0.6688462E+003  0.3617706E+02  0.7546771E-02  0.1372472E+00
          2   -1    0    0  502    0  0.00000000000E+00  0.00000000000E+00  0.17344188846E+04  0.17344188846E+04  0.00000000000E+00 0. -1.
          2   -1    0    0  501    0 -0.00000000000E+00 -0.00000000000E+00 -0.97976830889E+00  0.97976830889E+00  0.00000000000E+00 0.  1.
          2    1    1    2  501    0 -0.18754716261E+02 -0.30936061970E+02  0.12826957996E+04  0.12832058657E+04  0.00000000000E+00 0. -1.
          2    1    1    2  502    0  0.18754716261E+02  0.30936061970E+02  0.45074331661E+03  0.45219278719E+03  0.00000000000E+00 0.  1.
</event>
<event>
 4    1  0.6688462E+003  0.2632376E+02  0.7546771E-02  0.1454522E+00
          2   -1    0    0  501    0  0.00000000000E+00  0.00000000000E+00  0.15497324225E+03  0.15497324225E+03  0.00000000000E+00 0.  1.
          2   -1    0    0  502    0 -0.00000000000E+00 -0.00000000000E+00 -0.92710419045E+02  0.92710419045E+02  0.00000000000E+00 0.  1.
          2    1    1    2  501    0  0.23789563128E+02 -0.11269291099E+02 -0.89687116325E+02  0.93470418157E+02  0.00000000000E+00 0.  1.
          2    1    1    2  502    0 -0.23789563128E+02  0.11269291099E+02  0.15194993953E+03  0.15421324314E+03  0.00000000000E+00 0.  1.
</event>
<event>
 4    1  0.6688462E+003  0.2066384E+02  0.7546771E-02  0.1524119E+00
          2   -1    0    0  502    0  0.00000000000E+00  0.00000000000E+00  0.12292629148E+03  0.12292629148E+03  0.00000000000E+00 0. -1.
          2   -1    0    0  501    0 -0.00000000000E+00 -0.00000000000E+00 -0.60556490262E+03  0.60556490262E+03  0.00000000000E+00 0.  1.
          2    1    1    2  501    0 -0.20208761955E+02  0.43128113726E+01  0.12188011452E+03  0.12361940267E+03  0.00000000000E+00 0. -1.
          2    1    1    2  502    0  0.20208761955E+02 -0.43128113726E+01 -0.60451872565E+03  0.60487179143E+03  0.00000000000E+00 0.  1.
</event>
<event>
 4    1  0.6688462E+003  0.2169916E+02  0.7546771E-02  0.1509512E+00
          2   -1    0    0  501    0  0.00000000000E+00  0.00000000000E+00  0.67299288969E+03  0.67299288969E+03  0.00000000000E+00 0.  1.
          2   -1    0    0  502    0 -0.00000000000E+00 -0.00000000000E+00 -0.82213612207E+00  0.82213612207E+00  0.00000000000E+00 0.  1.
          2    1    1    2  501    0  0.18373247272E+02 -0.11544585088E+02  0.20603919939E+03  0.20717867976E+03  0.00000000000E+00 0.  1.
          2    1    1    2  502    0 -0.18373247272E+02  0.11544585088E+02  0.46613155418E+03  0.46663634605E+03  0.00000000000E+00 0.  1.
</event>
<event>
 4    1  0.6688462E+003  0.2825590E+02  0.7546771E-02  0.1435385E+00
          2   -1    0    0  501    0  0.00000000000E+00  0.00000000000E+00  0.28400319246E+03  0.28400319246E+03  0.00000000000E+00 0.  1.
          2   -1    0    0  502    0 -0.00000000000E+00 -0.00000000000E+00 -0.30873666486E+01  0.30873666486E+01  0.00000000000E+00 0.  1.
          2    1    1    2  501    0 -0.18306663204E+02 -0.21523516870E+02  0.97527602236E+02  0.10153831244E+03  0.00000000000E+00 0.  1.
          2    1    1    2  502    0  0.18306663204E+02  0.21523516870E+02  0.18338822358E+03  0.18555224667E+03  0.00000000000E+00 0.  1.
</event>
<event>
 4    1  0.6688462E+003  0.3188588E+02  0.7546771E-02  0.1403886E+00
          2   -1    0    0  501    0  0.00000000000E+00  0.00000000000E+00  0.18198647492E+03  0.18198647492E+03  0.00000000000E+00 0.  1.
          2   -1    0    0  502    0 -0.00000000000E+00 -0.00000000000E+00 -0.11675861837E+03  0.11675861837E+03  0.00000000000E+00 0. -1.
          2    1    1    2  501    0  0.31785717830E+02 -0.25253427560E+01 -0.11314118655E+03  0.11754844665E+03  0.00000000000E+00 0. -1.
          2    1    1    2  502    0 -0.31785717830E+02  0.25253427560E+01  0.17836904310E+03  0.18119664663E+03  0.00000000000E+00 0.  1.
</event>
<event>
 4    1  0.6688462E+003  0.2072790E+02  0.7546771E-02  0.1523185E+00
          2   -1    0    0  501    0  0.00000000000E+00  0.00000000000E+00  0.21011014109E+02  0.21011014109E+02  0.00000000000E+00 0.  1.
          2   -1    0    0  502    0 -0.00000000000E+00 -0.00000000000E+00 -0.77076138287E+02  0.77076138287E+02  0.00000000000E+00 0. -1.
          2    1    1    2  501    0  0.11409393467E+02  0.17305253107E+02 -0.70069972819E+02  0.73071520686E+02  0.00000000000E+00 0. -1.
          2    1    1    2  502    0 -0.11409393467E+02 -0.17305253107E+02  0.14004848642E+02  0.25015631710E+02  0.00000000000E+00 0.  1.
</event>
<event>
 4    1  0.6688462E+003  0.4033253E+02  0.7546771E-02  0.1346548E+00
          2   -1    0    0  501    0  0.00000000000E+00  0.00000000000E+00  0.11788441376E+04  0.11788441376E+04  0.00000000000E+00 0. -1.
          2   -1    0    0  502    0 -0.00000000000E+00 -0.00000000000E+00 -0.25862887543E+02  0.25862887543E+02  0.00000000000E+00 0.  1.
          2    1    1    2  501    0 -0.37651078342E+02  0.14460616824E+02 -0.95732480525E+01  0.41453108659E+02  0.00000000000E+00 0.  1.
          2    1    1    2  502    0  0.37651078342E+02 -0.14460616824E+02  0.11625544982E+04  0.11632539165E+04  0.00000000000E+00 0. -1.
</event>
<event>
 4    1  0.6688462E+003  0.2904501E+02  0.7546771E-02  0.1428081E+00
          2   -1    0    0  501    0  0.00000000000E+00  0.00000000000E+00  0.48645695658E+02  0.48645695658E+02  0.00000000000E+00 0. -1.
          2   -1    0    0  502    0 -0.00000000000E+00 -0.00000000000E+00 -0.17349413486E+02  0.17349413486E+02  0.00000000000E+00 0. -1.
          2    1    1    2  501    0 -0.11062088863E+02  0.26855962356E+02  0.14964969226E+02  0.32673579969E+02  0.00000000000E+00 0. -1.
          2    1    1    2  502    0  0.11062088863E+02 -0.26855962356E+02  0.16331312946E+02  0.33321529176E+02  0.00000000000E+00 0. -1.
</event>
<event>
 4    1  0.6688462E+003  0.4287823E+02  0.7546771E-02  0.1332398E+00
          2   -1    0    0  501    0  0.00000000000E+00  0.00000000000E+00  0.32032812835E+02  0.32032812835E+02  0.00000000000E+00 0.  1.
          2   -1    0    0  502    0 -0.00000000000E+00 -0.00000000000E+00 -0.82469987936E+03  0.82469987936E+03  0.00000000000E+00 0. -1.
          2    1    1    2  501    0 -0.36634628414E+02 -0.22281077581E+02 -0.80952485300E+03  0.81065962650E+03  0.00000000000E+00 0. -1.
          2    1    1    2  502    0  0.36634628414E+02  0.22281077581E+02  0.16857786477E+02  0.46073065690E+02  0.00000000000E+00 0.  1.
</event>
<event>
 4    1  0.6688462E+003  0.2481448E+02  0.7546771E-02  0.1470890E+00
          2   -1    0    0  502    0  0.00000000000E+00  0.00000000000E+00  0.16159744757E+02  0.16159744757E+02  0.00000000000E+00 0. -1.
          2   -1    0    0  501    0 -0.00000000000E+00 -0.00000000000E+00 -0.47235935088E+03  0.47235935088E+03  0.00000000000E+00 0. -1.
          2    1    1    2  501    0  0.17908723406E+02 -0.17176609966E+02  0.61006068212E+01  0.25553389356E+02  0.00000000000E+00 0. -1.
          2    1    1    2  502    0 -0.17908723406E+02  0.17176609966E+02 -0.46230021294E+03  0.46296570628E+03  0.00000000000E+00 0. -1.
</event>
<event>
 4    1  0.6688462E+003  0.2019549E+02  0.7546771E-02  0.1531068E+00
          2   -1    0    0  502    0  0.00000000000E+00  0.00000000000E+00  0.10127135480E+04  0.10127135480E+04  0.00000000000E+00 0.  1.
          2   -1    0    0  501    0 -0.00000000000E+00 -0.00000000000E+00 -0.73567775781E+00  0.73567775781E+00  0.00000000000E+00 0. -1.
          2    1    1    2  501    0 -0.96049350690E+01  0.17765219353E+02  0.84687660660E+03  0.84711737357E+03  0.00000000000E+00 0.  1.
          2    1    1    2  502    0  0.96049350690E+01 -0.17765219353E+02  0.16510126367E+03  0.16633185222E+03  0.00000000000E+00 0. -1.
</event>
<event>
 4    1  0.6688462E+003  0.3121071E+02  0.7546771E-02  0.1409359E+00
          2   -1    0    0  502    0  0.00000000000E+00  0.00000000000E+00  0.57299417576E+02  0.57299417576E+02  0.00000000000E+00 0.  1.
          2   -1    0    0  501    0 -0.00000000000E+00 -0.00000000000E+00 -0.17100876026E+02  0.17100876026E+02  0.00000000000E+00 0.  1.
          2    1    1    2  501    0 -0.26410747931E+02  0.16630726951E+02  0.22951799856E+02  0.38741370676E+02  0.00000000000E+00 0.  1.
          2    1    1    2  502    0  0.26410747931E+02 -0.16630726951E+02  0.17246741693E+02  0.35658922926E+02  0.00000000000E+00 0.  1.
</event>
<event>
 4    1  0.6688462E+003  0.3467377E+02  0.7546771E-02  0.1382871E+00
          2   -1    0    0  501    0  0.00000000000E+00  0.00000000000E+00  0.14449495498E+03  0.14449495498E+03  0.00000000000E+00 0. -1.
          2   -1    0    0  502    0 -0.00000000000E+00 -0.00000000000E+00 -0.11312015471E+02  0.11312015471E+02  0.00000000000E+00 0. -1.
          2    1    1    2  501    0  0.33020689762E+02 -0.10578492145E+02  0.26529487832E+02  0.43658723906E+02  0.00000000000E+00 0. -1.
          2    1    1    2  502    0 -0.33020689762E+02  0.10578492145E+02  0.10665345167E+03  0.11214824654E+03  0.00000000000E+00 0. -1.
</event>
<event>
 4    1  0.6688462E+003  0.2068439E+02  0.7546771E-02  0.1523819E+00
          2   -1    0    0  501    0  0.00000000000E+00  0.00000000000E+00  0.14625169654E+02  0.14625169654E+02  0.00000000000E+00 0. -1.
          2   -1    0    0  502    0 -0.00000000000E+00 -0.00000000000E+00 -0.24307631537E+03  0.24307631537E+03  0.00000000000E+00 0. -1.
          2    1    1    2  501    0 -0.89246909583E+01  0.18659948572E+02 -0.23507432808E+03  0.23598259154E+03  0.00000000000E+00 0. -1.
          2    1    1    2  502    0  0.89246909583E+01 -0.18659948572E+02  0.66231823630E+01  0.21718893481E+02  0.00000000000E+00 0. -1.
</event>
<event>
 4    1  0.6688462E+003  0.2046278E+02  0.7546771E-02  0.1527075E+00
          2   -1    0    0  501    0  0.00000000000E+00  0.00000000000E+00  0.60161470894E+02  0.60161470894E+02  0.00000000000E+00 0. -1.
          2   -1    0    0  502    0 -0.00000000000E+00 -0.00000000000E+00 -0.15605649993E+03  0.15605649993E+03  0.00000000000E+00 0.  1.
          2    1    1    2  501    0  0.63624245528E+01 -0.19448514799E+02 -0.15361820672E+03  0.15497509029E+03  0.00000000000E+00 0.  1.
          2    1    1    2  502    0 -0.63624245528E+01  0.19448514799E+02  0.57723177685E+02  0.61242880534E+02  0.00000000000E+00 0. -1.
</event>
<event>
 4    1  0.6688462E+003  0.2102565E+02  0.7546771E-02  0.1518899E+00
          2   -1    0    0  502    0  0.00000000000E+00  0.00000000000E+00  0.20895488919E+01  0.20895488919E+01  0.00000000000E+00 0.  1.
          2   -1    0    0  501    0 -0.00000000000E+00 -0.00000000000E+00 -0.10890354395E+04  0.10890354395E+04  0.00000000000E+00 0. -1.
          2    1    1    2  501    0 -0.20555558396E+02  0.44212013201E+01 -0.53762417784E+02  0.57727597976E+02  0.00000000000E+00 0.  1.
          2    1    1    2  502    0  0.20555558396E+02 -0.44212013201E+01 -0.10331834728E+04  0.10333973904E+04  0.00000000000E+00 0. -1.
</event>
<event>
 4    1  0.6688462E+003  0.2094370E+02  0.7546771E-02  0.1520070E+00
          2   -1    0    0  501    0  0.00000000000E+00  0.00000000000E+00  0.49017547777E+03  0.49017547777E+03  0.00000000000E+00 0. -1.
          2   -1    0    0  502    0 -0.00000000000E+00 -0.00000000000E+00 -0.22462275941E+03  0.22462275941E+03  0.00000000000E+00 0. -1.
          2    1    1    2  501    0 -0.70134779886E+01 -0.19734479227E+02 -0.22391013922E+03  0.22488750296E+03  0.00000000000E+00 0. -1.
          2    1    1    2  502    0  0.70134779886E+01  0.19734479227E+02  0.48946285758E+03  0.48991073421E+03  0.00000000000E+00 0. -1.
</event>
<event>
 4    1  0.6688462E+003  0.3740340E+02  0.7546771E-02  0.1364412E+00
          2   -1    0    0  501    0  0.00000000000E+00  0.00000000000E+00  0.29666762856E+02  0.29666762856E+02  0.00000000000E+00 0. -1.
          2   -1    0    0  502    0 -0.00000000000E+00 -0.00000000000E+00 -0.11364177314E+04  0.11364177314E+04  0.00000000000E+00 0.  1.
          2    1    1    2  501    0  0.11593335374E+02  0.35561341314E+02 -0.11241923819E+04  0.11248144407E+04  0.00000000000E+00 0.  1.
          2    1    1    2  502    0 -0.11593335374E+02 -0.35561341314E+02  0.17441413372E+02  0.41270053568E+02  0.00000000000E+00 0. -1.
</event>
<event>
 4    1  0.6688462E+003  0.2392628E+02  0.7546771E-02  0.1481183E+00
          2   -1    0    0  502    0  0.00000000000E+00  0.00000000000E+00  0.14700636204E+04  0.14700636204E+04  0.00000000000E+00 0. -1.
          2   -1    0    0  501    0 -0.00000000000E+00 -0.00000000000E+00 -0.11104867907E+02  0.11104867907E+02  0.00000000000E+00 0. -1.
          2    1    1    2  501    0 -0.23468285866E+02 -0.46590138159E+01  0.14569626422E+04  0.14571590879E+04  0.00000000000E+00 0. -1.
          2    1    1    2  502    0  0.23468285866E+02  0.46590138159E+01  0.19961103467E+01  0.24009400404E+02  0.00000000000E+00 0. -1.
</event>
<event>
 4    1  0.6688462E+003  0.3349677E+02  0.7546771E-02  0.1391451E+00
          2   -1    0    0  501    0  0.00000000000E+00  0.00000000000E+00  0.38751758755E+03  0.38751758755E+03  0.00000000000E+00 0.  1.
          2   -1    0    0  502    0 -0.00000000000E+00 -0.00000000000E+00 -0.26277174787E+02  0.26277174787E+02  0.00000000000E+00 0.  1.
          2    1    1    2  501    0 -0.94872238169E+01  0.32125165871E+02 -0.14545734260E+02  0.36518653907E+02  0.00000000000E+00 0.  1.
          2    1    1    2  502    0  0.94872238169E+01 -0.32125165871E+02  0.37578614702E+03  0.37727610843E+03  0.00000000000E+00 0.  1.
</event>
<event>
 4    1  0.6688462E+003  0.2049290E+02  0.7546771E-02  0.1526630E+00
          2   -1    0    0  502    0  0.00000000000E+00  0.00000000000E+00  0.10979900527E+04  0.10979900527E+04  0.00000000000E+00 0.  1.
          2   -1    0    0  501    0 -0.00000000000E+00 -0.00000000000E+00 -0.20735674895E+01  0.20735674895E+01  0.00000000000E+00 0. -1.
          2    1    1    2  501    0 -0.17396693384E+02 -0.10831161669E+02  0.10446784003E+04  0.10448793802E+04  0.00000000000E+00 0.  1.
          2    1    1    2  502    0  0.17396693384E+02  0.10831161669E+02  0.51238084916E+02  0.55184240048E+02  0.00000000000E+00 0. -1.
</event>
<event>
 4    1  0.6688462E+003  0.2384933E+02  0.7546771E-02  0.1482100E+00
          2   -1    0    0  501    0  0.00000000000E+00  0.00000000000E+00  0.23221604767E+01  0.23221604767E+01  0.00000000000E+00 0. -1.
          2   -1    0    0  502    0 -0.00000000000E+00 -0.00000000000E+00 -0.29732030857E+03  0.29732030857E+03  0.00000000000E+00 0. -1.
          2    1    1    2  501    0  0.12398111995E+02 -0.20373445420E+02 -0.21038366890E+03  0.21173114697E+03  0.00000000000E+00 0. -1.
          2    1    1    2  502    0 -0.12398111995E+02  0.20373445420E+02 -0.84614479198E+02  0.87911322077E+02  0.00000000000E+00 0. -1.
</event>
<event>
 4    1  0.6688462E+003  0.3624301E+02  0.7546771E-02  0.1372029E+00
          2   -1    0    0  501    0  0.00000000000E+00  0.00000000000E+00  0.88510704846E+00  0.88510704846E+00  0.00000000000E+00 0.  1.
          2   -1    0    0  502    0 -0.00000000000E+00 -0.00000000000E+00 -0.15577325711E+04  0.15577325711E+04  0.00000000000E+00 0. -1.
          2    1    1    2  501    0  0.34874210173E+02 -0.98663824803E+01 -0.94789750726E+03  0.94859013294E+03  0.00000000000E+00 0. -1.
          2    1    1    2  502    0 -0.34874210173E+02  0.98663824803E+01 -0.60894995675E+03  0.61002754517E+03  0.00000000000E+00 0.  1.
</event>
<event>
 4    1  0.6688462E+003  0.2290887E+02  0.7546771E-02  0.1493646E+00
          2   -1    0    0  501    0  0.00000000000E+00  0.00000000000E+00  0.29244192644E+01  0.29244192644E+01  0.00000000000E+00 0.  1.
          2   -1    0    0  502    0 -0.00000000000E+00 -0.00000000000E+00 -0.27017572985E+03  0.27017572985E+03  0.00000000000E+00 0. -1.
          2    1    1    2  501    0  0.59312720449E+01  0.22127725561E+02 -0.21274999870E+03  0.21397985460E+03  0.00000000000E+00 0. -1.
          2    1    1    2  502    0 -0.59312720449E+01 -0.22127725561E+02 -0.54501311886E+02  0.59120294518E+02  0.00000000000E+00 0.  1.
</event>
<event>
 4    1  0.6688462E+003  0.3173852E+02  0.7546771E-02  0.1405067E+00
          2   -1    0    0  501    0  0.00000000000E+00  0.00000000000E+00  0.29223211898E+00  0.29223211898E+00  0.00000000000E+00 0. -1.
          2   -1    0    0  502    0 -0.00000000000E+00 -0.00000000000E+00 -0.35441945228E+04  0.35441945228E+04  0.00000000000E+00 0. -1.
          2    1    1    2  501    0 -0.13785623668E+02 -0.28588284343E+02 -0.20653877675E+04  0.20656316137E+04  0.00000000000E+00 0. -1.
          2    1    1    2  502    0  0.13785623668E+02  0.28588284343E+02 -0.14785145233E+04  0.14788551413E+04  0.00000000000E+00 0. -1.
</event>
<event>
 4    1  0.6688462E+003  0.3627028E+02  0.7546771E-02  0.1371846E+00
          2   -1    0    0  501    0  0.00000000000E+00  0.00000000000E+00  0.86713130518E+00  0.86713130518E+00  0.00000000000E+00 0. -1.
          2   -1    0    0  502    0 -0.00000000000E+00 -0.00000000000E+00 -0.16912468165E+04  0.16912468165E+04  0.00000000000E+00 0. -1.
          2    1    1    2  501    0  0.20269703489E+02  0.30077775313E+02 -0.11166721906E+04  0.11172610772E+04  0.00000000000E+00 0. -1.
          2    1    1    2  502    0 -0.20269703489E+02 -0.30077775313E+02 -0.57370749460E+03  0.57485287057E+03  0.00000000000E+00 0. -1.
</event>
<event>
 4    1  0.6688462E+003  0.2401030E+02  0.7546771E-02  0.1480187E+00
          2   -1    0    0  502    0  0.00000000000E+00  0.00000000000E+00  0.23135174262E+02  0.23135174262E+02  0.00000000000E+00 0.  1.
          2   -1    0    0  501    0 -0.00000000000E+00 -0.00000000000E+00 -0.13133534258E+04  0.13133534258E+04  0.00000000000E+00 0.  1.
          2    1    1    2  501    0 -0.15014201137E+01  0.23963313183E+02  0.16765445210E+02  0.29284377988E+02  0.00000000000E+00 0.  1.
          2    1    1    2  502    0  0.15014201137E+01 -0.23963313183E+02 -0.13069836967E+04  0.13072042221E+04  0.00000000000E+00 0.  1.
</event>
<event>
 4    1  0.6688462E+003  0.3025576E+02  0.7546771E-02  0.1417387E+00
          2   -1    0    0  502    0  0.00000000000E+00  0.00000000000E+00  0.32504145969E+01  0.32504145969E+01  0.00000000000E+00 0.  1.
          2   -1    0    0  501    0 -0.00000000000E+00 -0.00000000000E+00 -0.31946206534E+03  0.31946206534E+03  0.00000000000E+00 0. -1.
          2    1    1    2  501    0  0.29855613690E+02 -0.49044124645E+01 -0.10257782585E+03  0.10694681522E+03  0.00000000000E+00 0.  1.
          2    1    1    2  502    0 -0.29855613690E+02  0.49044124645E+01 -0.21363382490E+03  0.21576566472E+03  0.00000000000E+00 0. -1.
</event>
<event>
 4    1  0.6688462E+003  0.2459826E+02  0.7546771E-02  0.1473348E+00
          2   -1    0    0  502    0  0.00000000000E+00  0.00000000000E+00  0.23248786114E+03  0.23248786114E+03  0.00000000000E+00 0.  1.
          2   -1    0    0  501    0 -0.00000000000E+00 -0.00000000000E+00 -0.24532055420E+03  0.24532055420E+03  0.00000000000E+00 0. -1.
          2    1    1    2  501    0 -0.24384172133E+02 -0.32382757365E+01  0.23121721464E+03  0.23252198741E+03  0.00000000000E+00 0.  1.
          2    1    1    2  502    0  0.24384172133E+02  0.32382757365E+01 -0.24404990770E+03  0.24528642793E+03  0.00000000000E+00 0. -1.
</event>
<event>
 4    1  0.6688462E+003  0.2508619E+02  0.7546771E-02  0.1467841E+00
          2   -1    0    0  501    0  0.00000000000E+00  0.00000000000E+00  0.85402423300E+02  0.85402423300E+02  0.00000000000E+00 0.  1.
          2   -1    0    0  502    0 -0.00000000000E+00 -0.00000000000E+00 -0.14498259385E+02  0.14498259385E+02  0.00000000000E+00 0.  1.
          2    1    1    2  501    0 -0.19698634067E+02  0.15533221276E+02  0.42471577025E+00  0.25089789373E+02  0.00000000000E+00 0.  1.
          2    1    1    2  502    0  0.19698634067E+02 -0.15533221276E+02  0.70479448144E+02  0.74810893311E+02  0.00000000000E+00 0.  1.
</event>
<event>
 4    1  0.6688462E+003  0.2539002E+02  0.7546771E-02  0.1464487E+00
          2   -1    0    0  502    0  0.00000000000E+00  0.00000000000E+00  0.16397051190E+04  0.16397051190E+04  0.00000000000E+00 0.  1.
          2   -1    0    0  501    0 -0.00000000000E+00 -0.00000000000E+00 -0.43519921597E+01  0.43519921597E+01  0.00000000000E+00 0. -1.
          2    1    1    2  501    0  0.24005094329E+02 -0.82709597785E+01  0.16016960126E+04  0.16018972408E+04  0.00000000000E+00 0.  1.
          2    1    1    2  502    0 -0.24005094329E+02  0.82709597785E+01  0.33657114258E+02  0.42159870369E+02  0.00000000000E+00 0. -1.
</event>
<event>
 4    1  0.6688462E+003  0.3132250E+02  0.7546771E-02  0.1408442E+00
          2   -1    0    0  501    0  0.00000000000E+00  0.00000000000E+00  0.23299011924E+01  0.23299011924E+01  0.00000000000E+00 0. -1.
          2   -1    0    0  502    0 -0.00000000000E+00 -0.00000000000E+00 -0.60558620323E+03  0.60558620323E+03  0.00000000000E+00 0.  1.
          2    1    1    2  501    0  0.22443826320E+02 -0.21848879341E+02 -0.46939996169E+03  0.47044385734E+03  0.00000000000E+00 0.  1.
          2    1    1    2  502    0 -0.22443826320E+02  0.21848879341E+02 -0.13385634034E+03  0.13747224708E+03  0.00000000000E+00 0. -1.
</event>
<event>
 4    1  0.6688462E+003  0.2184989E+02  0.7546771E-02  0.1507468E+00
          2   -1    0    0  501    0  0.00000000000E+00  0.00000000000E+00  0.36192765275E+01  0.36192765275E+01  0.00000000000E+00 0.  1.
          2   -1    0    0  502    0 -0.00000000000E+00 -0.00000000000E+00 -0.15276778481E+04  0.15276778481E+04  0.00000000000E+00 0.  1.
          2    1    1    2  501    0 -0.16865081708E+02  0.13891960789E+02 -0.14938761694E+04  0.14940359524E+04  0.00000000000E+00 0.  1.
          2    1    1    2  502    0  0.16865081708E+02 -0.13891960789E+02 -0.30182402211E+02  0.37261172268E+02  0.00000000000E+00 0.  1.
</event>
<event>
 4    1  0.6688462E+003  0.3566850E+02  0.7546771E-02  0.1375923E+00
          2   -1    0    0  502    0  0.00000000000E+00  0.00000000000E+00  0.10274824425E+01  0.10274824425E+01  0.00000000000E+00 0. -1.
          2   -1    0    0  501    0 -0.00000000000E+00 -0.00000000000E+00 -0.24156740799E+04  0.24156740799E+04  0.00000000000E+00 0. -1.
          2    1    1    2  501    0 -0.76918030719E+01  0.34829269829E+02 -0.36370268700E+03  0.36544751525E+03  0.00000000000E+00 0. -1.
          2    1    1    2  502    0  0.76918030719E+01 -0.34829269829E+02 -0.20509439105E+04  0.20512540471E+04  0.00000000000E+00 0. -1.
</event>
<event>
 4    1  0.6688462E+003  0.3199934E+02  0.7546771E-02  0.1402982E+00
          2   -1    0    0  501    0  0.00000000000E+00  0.00000000000E+00  0.63883459563E+00  0.63883459563E+00  0.00000000000E+00 0.  1.
          2   -1    0    0  502    0 -0.00000000000E+00 -0.00000000000E+00 -0.17641246975E+04  0.17641246975E+04  0.00000000000E+00 0.  1.
          2    1    1    2  501    0 -0.29301037534E+02  0.12861055144E+02 -0.11485343300E+04  0.11489800106E+04  0.00000000000E+00 0.  1.
          2    1    1    2  502    0  0.29301037534E+02 -0.12861055144E+02 -0.61495153284E+03  0.61578352144E+03  0.00000000000E+00 0.  1.
</event>
<event>
 4    1  0.6688462E+003  0.4457873E+02  0.7546771E-02  0.1323559E+00
          2   -1    0    0  502    0  0.00000000000E+00  0.00000000000E+00  0.29002355002E+03  0.29002355002E+03  0.00000000000E+00 0. -1.
          2   -1    0    0  501    0 -0.00000000000E+00 -0.00000000000E+00 -0.76805891055E+01  0.76805891055E+01  0.00000000000E+00 0. -1.
          2    1    1    2  501    0 -0.37673508348E+02  0.23832126812E+02  0.19006003741E+03  0.19521803534E+03  0.00000000000E+00 0. -1.
          2    1    1    2  502    0  0.37673508348E+02 -0.23832126812E+02  0.92282923499E+02  0.10248610379E+03  0.00000000000E+00 0. -1.
</event>
<event>
 4    1  0.6688462E+003  0.2068872E+02  0.7546771E-02  0.1523756E+00
          2   -1    0    0  502    0  0.00000000000E+00  0.00000000000E+00  0.11877259900E+01  0.11877259900E+01  0.00000000000E+00 0.  1.
          2   -1    0    0  501    0 -0.00000000000E+00 -0.00000000000E+00 -0.47194560593E+03  0.47194560593E+03  0.00000000000E+00 0. -1.
          2    1    1    2  501    0  0.46501911506E+01  0.20159338060E+02 -0.35040289942E+03  0.35101312669E+03  0.00000000000E+00 0. -1.
          2    1    1    2  502    0 -0.46501911506E+01 -0.20159338060E+02 -0.12035498052E+03  0.12212020523E+03  0.00000000000E+00 0.  1.
</event>
<event>
 4    1  0.6688462E+003  0.3775171E+02  0.7546771E-02  0.1362189E+00
          2   -1    0    0  502    0  0.00000000000E+00  0.00000000000E+00  0.18334164916E+03  0.18334164916E+03  0.00000000000E+00 0. -1.
          2   -1    0    0  501    0 -0.00000000000E+00 -0.00000000000E+00 -0.13807578888E+04  0.13807578888E+04  0.00000000000E+00 0. -1.
          2    1    1    2  501    0 -0.69504180526E+01  0.37106374065E+02  0.18113714237E+03  0.18502933728E+03  0.00000000000E+00 0. -1.
          2    1    1    2  502    0  0.69504180526E+01 -0.37106374065E+02 -0.13785533821E+04  0.13790702007E+04  0.00000000000E+00 0. -1.
</event>
<event>
 4    1  0.6688462E+003  0.2125798E+02  0.7546771E-02  0.1515613E+00
          2   -1    0    0  502    0  0.00000000000E+00  0.00000000000E+00  0.14595011739E+04  0.14595011739E+04  0.00000000000E+00 0. -1.
          2   -1    0    0  501    0 -0.00000000000E+00 -0.00000000000E+00 -0.31667965110E+01  0.31667965110E+01  0.00000000000E+00 0. -1.
          2    1    1    2  501    0  0.19803462105E+02 -0.77281727354E+01  0.14228293430E+04  0.14229881381E+04  0.00000000000E+00 0. -1.
          2    1    1    2  502    0 -0.19803462105E+02  0.77281727354E+01  0.33505034339E+02  0.39679832298E+02  0.00000000000E+00 0. -1.
</event>
<event>
 4    1  0.6688462E+003  0.2905732E+02  0.7546771E-02  0.1427969E+00
          2   -1    0    0  502    0  0.00000000000E+00  0.00000000000E+00  0.82405144515E+01  0.82405144515E+01  0.00000000000E+00 0.  1.
          2   -1    0    0  501    0 -0.00000000000E+00 -0.00000000000E+00 -0.11797889609E+03  0.11797889609E+03  0.00000000000E+00 0.  1.
          2    1    1    2  501    0  0.45183896156E+01  0.28703867446E+02 -0.31980742519E+02  0.43209903300E+02  0.00000000000E+00 0.  1.
          2    1    1    2  502    0 -0.45183896156E+01 -0.28703867446E+02 -0.77757639115E+02  0.83009507237E+02  0.00000000000E+00 0.  1.
</event>
<event>
 4    1  0.6688462E+003  0.2714880E+02  0.7546771E-02  0.1446119E+00
          2   -1    0    0  502    0  0.00000000000E+00  0.00000000000E+00  0.31984854336E+02  0.31984854336E+02  0.00000000000E+00 0. -1.
          2   -1    0    0  501    0 -0.00000000000E+00 -0.00000000000E+00 -0.30497800530E+02  0.30497800530E+02  0.00000000000E+00 0.  1.
          2    1    1    2  501    0  0.27061816591E+02 -0.21714449308E+01  0.16188452704E+02  0.31608908416E+02  0.00000000000E+00 0. -1.
          2    1    1    2  502    0 -0.27061816591E+02  0.21714449308E+01 -0.14701398898E+02  0.30873746450E+02  0.00000000000E+00 0.  1.
</event>
<event>
 4    1  0.6688462E+003  0.2106958E+02  0.7546771E-02  0.1518274E+00
          2   -1    0    0  502    0  0.00000000000E+00  0.00000000000E+00  0.42313600374E+01  0.42313600374E+01  0.00000000000E+00 0.  1.
          2   -1    0    0  501    0 -0.00000000000E+00 -0.00000000000E+00 -0.49448722789E+03  0.49448722789E+03  0.00000000000E+00 0.  1.
          2    1    1    2  501    0 -0.21049262743E+02 -0.92515205768E+00 -0.23796664519E+02  0.31783779049E+02  0.00000000000E+00 0.  1.
          2    1    1    2  502    0  0.21049262743E+02  0.92515205768E+00 -0.46645920334E+03  0.46693480888E+03  0.00000000000E+00 0.  1.
</event>
<event>
 4    1  0.6688462E+003  0.5337432E+02  0.7546771E-02  0.1284170E+00
          2   -1    0    0  502    0  0.00000000000E+00  0.00000000000E+00  0.12946716001E+04  0.12946716001E+04  0.00000000000E+00 0.  1.
          2   -1    0    0  501    0 -0.00000000000E+00 -0.00000000000E+00 -0.95276735096E+01  0.95276735096E+01  0.00000000000E+00 0. -1.
          2    1    1    2  501    0 -0.10978664721E+02  0.52233004237E+02  0.12144339298E+04  0.12156062634E+04  0.00000000000E+00 0.  1.
          2    1    1    2  502    0  0.10978664721E+02 -0.52233004237E+02  0.70709996844E+02  0.88593010245E+02  0.00000000000E+00 0. -1.
</event>
<event>
 4    1  0.6688462E+003  0.2943158E+02  0.7546771E-02  0.1424601E+00
          2   -1    0    0  502    0  0.00000000000E+00  0.00000000000E+00  0.24401247728E+01  0.24401247728E+01  0.00000000000E+00 0. -1.
          2   -1    0    0  501    0 -0.00000000000E+00 -0.00000000000E+00 -0.14471488812E+04  0.14471488812E+04  0.00000000000E+00 0. -1.
          2    1    1    2  501    0 -0.24494348376E+02 -0.16317002395E+02 -0.92701234072E+02  0.97261176571E+02  0.00000000000E+00 0. -1.
          2    1    1    2  502    0  0.24494348376E+02  0.16317002395E+02 -0.13520075224E+04  0.13523278294E+04  0.00000000000E+00 0. -1.
</event>
<event>
 4    1  0.6688462E+003  0.4622705E+02  0.7546771E-02  0.1315415E+00
          2   -1    0    0  501    0  0.00000000000E+00  0.00000000000E+00  0.49976708496E+02  0.49976708496E+02  0.00000000000E+00 0.  1.
          2   -1    0    0  502    0 -0.00000000000E+00 -0.00000000000E+00 -0.71476051773E+02  0.71476051773E+02  0.00000000000E+00 0. -1.
          2    1    1    2  501    0  0.38922853887E+02 -0.24938959969E+02 -0.49241552238E+02  0.67540141736E+02  0.00000000000E+00 0. -1.
          2    1    1    2  502    0 -0.38922853887E+02  0.24938959969E+02  0.27742208961E+02  0.53912618532E+02  0.00000000000E+00 0.  1.
</event>
<event>
 4    1  0.6688462E+003  0.2164575E+02  0.7546771E-02  0.1510242E+00
          2   -1    0    0  501    0  0.00000000000E+00  0.00000000000E+00  0.83334275837E+03  0.83334275837E+03  0.00000000000E+00 0.  1.
          2   -1    0    0  502    0 -0.00000000000E+00 -0.00000000000E+00 -0.56413876843E+00  0.56413876843E+00  0.00000000000E+00 0. -1.
          2    1    1    2  501    0 -0.20465859514E+02 -0.70489169684E+01  0.44057898858E+03  0.44111039867E+03  0.00000000000E+00 0.  1.
          2    1    1    2  502    0  0.20465859514E+02  0.70489169684E+01  0.39219963102E+03  0.39279649846E+03  0.00000000000E+00 0. -1.
</event>
<event>
 4    1  0.6688462E+003  0.3677581E+02  0.7546771E-02  0.1368491E+00
          2   -1    0    0  502    0  0.00000000000E+00  0.00000000000E+00  0.24995319214E+03  0.24995319214E+03  0.00000000000E+00 0. -1.
          2   -1    0    0  501    0 -0.00000000000E+00 -0.00000000000E+00 -0.12195147467E+02  0.12195147467E+02  0.00000000000E+00 0.  1.
          2    1    1    2  501    0  0.72593196679E+00  0.36768647837E+02  0.21664232698E+03  0.21974157158E+03  0.00000000000E+00 0. -1.
          2    1    1    2  502    0 -0.72593196679E+00 -0.36768647837E+02  0.21115717697E+02  0.42406768031E+02  0.00000000000E+00 0.  1.
</event>
<event>
 4    1  0.6688462E+003  0.2005565E+02  0.7546771E-02  0.1533187E+00
          2   -1    0    0  501    0  0.00000000000E+00  0.00000000000E+00  0.40056685705E+00  0.40056685705E+00  0.00000000000E+00 0.  1.
          2   -1    0    0  502    0 -0.00000000000E+00 -0.00000000000E+00 -0.10379454187E+04  0.10379454187E+04  0.00000000000E+00 0.  1.
          2    1    1    2  501    0  0.43490580318E+01  0.19578430900E+02 -0.61245372479E+03  0.61278201203E+03  0.00000000000E+00 0.  1.
          2    1    1    2  502    0 -0.43490580318E+01 -0.19578430900E+02 -0.42509112705E+03  0.42556397352E+03  0.00000000000E+00 0.  1.
</event>
<event>
 4    1  0.6688462E+003  0.2340495E+02  0.7546771E-02  0.1487475E+00
          2   -1    0    0  501    0  0.00000000000E+00  0.00000000000E+00  0.26187741214E+03  0.26187741214E+03  0.00000000000E+00 0. -1.
          2   -1    0    0  502    0 -0.00000000000E+00 -0.00000000000E+00 -0.14798661890E+02  0.14798661890E+02  0.00000000000E+00 0. -1.
          2    1    1    2  501    0  0.21462749689E+02  0.93349837694E+01 -0.46493346226E+01  0.23862268513E+02  0.00000000000E+00 0. -1.
          2    1    1    2  502    0 -0.21462749689E+02 -0.93349837694E+01  0.25172808487E+03  0.25281380551E+03  0.00000000000E+00 0. -1.
</event>
<event>
 4    1  0.6688462E+003  0.3105370E+02  0.7546771E-02  0.1410655E+00
          2   -1    0    0  501    0  0.00000000000E+00  0.00000000000E+00  0.65508731951E+02  0.65508731951E+02  0.00000000000E+00 0. -1.
          2   -1    0    0  502    0 -0.00000000000E+00 -0.00000000000E+00 -0.43005385916E+02  0.43005385916E+02  0.00000000000E+00 0.  1.
          2    1    1    2  501    0 -0.29236572155E+02 -0.10466850193E+02 -0.32750160365E+02  0.45132085131E+02  0.00000000000E+00 0.  1.
          2    1    1    2  502    0  0.29236572155E+02  0.10466850193E+02  0.55253506400E+02  0.63382032736E+02  0.00000000000E+00 0. -1.
</event>
<event>
 4    1  0.6688462E+003  0.3063928E+02  0.7546771E-02  0.1414121E+00
          2   -1    0    0  502    0  0.00000000000E+00  0.00000000000E+00  0.40691298609E+02  0.40691298609E+02  0.00000000000E+00 0. -1.
          2   -1    0    0  501    0 -0.00000000000E+00 -0.00000000000E+00 -0.11170294310E+04  0.11170294310E+04  0.00000000000E+00 0.  1.
          2    1    1    2  501    0 -0.30636179126E+02  0.43591550512E+00  0.34682401728E+02  0.46277796873E+02  0.00000000000E+00 0. -1.
          2    1    1    2  502    0  0.30636179126E+02 -0.43591550512E+00 -0.11110205341E+04  0.11114429328E+04  0.00000000000E+00 0.  1.
</event>
<event>
 4    1  0.6688462E+003  0.2026288E+02  0.7546771E-02  0.1530054E+00
          2   -1    0    0  501    0  0.00000000000E+00  0.00000000000E+00  0.82976979003E+03  0.82976979003E+03  0.00000000000E+00 0.  1.
          2   -1    0    0  502    0 -0.00000000000E+00 -0.00000000000E+00 -0.13604270389E+02  0.13604270389E+02  0.00000000000E+00 0.  1.
          2    1    1    2  501    0 -0.52651123192E+01 -0.19566884439E+02 -0.58643974533E+01  0.21094443152E+02  0.00000000000E+00 0.  1.
          2    1    1    2  502    0  0.52651123192E+01  0.19566884439E+02  0.82202991710E+03  0.82227961727E+03  0.00000000000E+00 0.  1.
</event>
<event>
 4    1  0.6688462E+003  0.2757426E+02  0.7546771E-02  0.1441923E+00
          2   -1    0    0  502    0  0.00000000000E+00  0.00000000000E+00  0.21385999134E+03  0.21385999134E+03  0.00000000000E+00 0. -1.
          2   -1    0    0  501    0 -0.00000000000E+00 -0.00000000000E+00 -0.90113806406E+02  0.90113806406E+02  0.00000000000E+00 0.  1.
          2    1    1    2  501    0 -0.24775100099E+02 -0.12105140596E+02  0.21083160310E+03  0.21262714991E+03  0.00000000000E+00 0. -1.
          2    1    1    2  502    0  0.24775100099E+02  0.12105140596E+02 -0.87085418165E+02  0.91346647835E+02  0.00000000000E+00 0.  1.
</event>
<event>
 4    1  0.6688462E+003  0.3344262E+02  0.7546771E-02  0.1391855E+00
          2   -1    0    0  501    0  0.00000000000E+00  0.00000000000E+00  0.11242755450E+03  0.11242755450E+03  0.00000000000E+00 0.  1.
          2   -1    0    0  502    0 -0.00000000000E+00 -0.00000000000E+00 -0.18300421347E+02  0.18300421347E+02  0.00000000000E+00 0. -1.
          2    1    1    2  501    0 -0.32970322758E+02  0.56005904026E+01  0.29045962531E+01  0.33568519107E+02  0.00000000000E+00 0. -1.
          2    1    1    2  502    0  0.32970322758E+02 -0.56005904026E+01  0.91222536903E+02  0.97159456743E+02  0.00000000000E+00 0.  1.
</event>
<event>
 4    1  0.6688462E+003  0.3170349E+02  0.7546771E-02  0.1405349E+00
          2   -1    0    0  501    0  0.00000000000E+00  0.00000000000E+00  0.87853003090E+02  0.87853003090E+02  0.00000000000E+00 0. -1.
          2   -1    0    0  502    0 -0.00000000000E+00 -0.00000000000E+00 -0.10887359334E+04  0.10887359334E+04  0.00000000000E+00 0.  1.
          2    1    1    2  501    0 -0.33516872098E+01 -0.31525819968E+02 -0.10856367653E+04  0.10860995798E+04  0.00000000000E+00 0.  1.
          2    1    1    2  502    0  0.33516872098E+01  0.31525819968E+02  0.84753834966E+02  0.90489356685E+02  0.00000000000E+00 0. -1.
</event>
<event>
 4    1  0.6688462E+003  0.3089290E+02  0.7546771E-02  0.1411992E+00
          2   -1    0    0  501    0  0.00000000000E+00  0.00000000000E+00  0.28996557599E+02  0.28996557599E+02  0.00000000000E+00 0. -1.
          2   -1    0    0  502    0 -0.00000000000E+00 -0.00000000000E+00 -0.39842157127E+03  0.39842157127E+03  0.00000000000E+00 0. -1.
          2    1    1    2  501    0 -0.29736006790E+01  0.30749459017E+02 -0.38940416473E+03  0.39062766804E+03  0.00000000000E+00 0. -1.
          2    1    1    2  502    0  0.29736006790E+01 -0.30749459017E+02  0.19979151059E+02  0.36790460827E+02  0.00000000000E+00 0. -1.
</event>
<event>
 4    1  0.6688462E+003  0.2091776E+02  0.7546771E-02  0.1520442E+00
          2   -1    0    0  501    0  0.00000000000E+00  0.00000000000E+00  0.10238327466E+03  0.10238327466E+03  0.00000000000E+00 0. -1.
          2   -1    0    0  502    0 -0.00000000000E+00 -0.00000000000E+00 -0.32866789202E+02  0.32866789202E+02  0.00000000000E+00 0. -1.
          2    1    1    2  501    0  0.17891858406E+02  0.10836702263E+02 -0.28317094689E+02  0.35205263311E+02  0.00000000000E+00 0. -1.
          2    1    1    2  502    0 -0.17891858406E+02 -0.10836702263E+02  0.97833580149E+02  0.10004480055E+03  0.00000000000E+00 0. -1.
</event>
<event>
 4    1  0.6688462E+003  0.2246840E+02  0.7546771E-02  0.1499284E+00
          2   -1    0    0  502    0  0.00000000000E+00  0.00000000000E+00  0.15527665852E+04  0.15527665852E+04  0.00000000000E+00 0. -1.
          2   -1    0    0  501    0 -0.00000000000E+00 -0.00000000000E+00 -0.11011280359E+01  0.11011280359E+01  0.00000000000E+00 0.  1.
          2    1    1    2  501    0 -0.22208349944E+02  0.34085736339E+01  0.14280606399E+04  0.14282373823E+04  0.00000000000E+00 0. -1.
          2    1    1    2  502    0  0.22208349944E+02 -0.34085736339E+01  0.12360481729E+03  0.12563033089E+03  0.00000000000E+00 0.  1.
</event>
<event>
 4    1  0.6688462E+003  0.2650476E+02  0.7546771E-02  0.1452647E+00
          2   -1    0    0  502    0  0.00000000000E+00  0.00000000000E+00  0.52526941809E+03  0.52526941809E+03  0.00000000000E+00 0. -1.
          2   -1    0    0  501    0 -0.00000000000E+00 -0.00000000000E+00 -0.24321485761E+03  0.24321485761E+03  0.00000000000E+00 0. -1.
          2    1    1    2  501    0  0.18421889738E+02  0.19056138119E+02  0.52421150773E+03  0.52488113631E+03  0.00000000000E+00 0. -1.
          2    1    1    2  502    0 -0.18421889738E+02 -0.19056138119E+02 -0.24215694724E+03  0.24360313939E+03  0.00000000000E+00 0. -1.
</event>
<event>
 4    1  0.6688462E+003  0.7423423E+02  0.7546771E-02  0.1217905E+00
          2   -1    0    0  502    0  0.00000000000E+00  0.00000000000E+00  0.11468695735E+03  0.11468695735E+03  0.00000000000E+00 0. -1.
          2   -1    0    0  501    0 -0.00000000000E+00 -0.00000000000E+00 -0.11992023463E+03  0.11992023463E+03  0.00000000000E+00 0.  1.
          2    1    1    2  501    0 -0.71986285052E+02  0.18129953435E+02  0.88194537898E+02  0.11527791186E+03  0.00000000000E+00 0. -1.
          2    1    1    2  502    0  0.71986285052E+02 -0.18129953435E+02 -0.93427815174E+02  0.11932928013E+03  0.00000000000E+00 0.  1.
</event>
<event>
 4    1  0.6688462E+003  0.2139394E+02  0.7546771E-02  0.1513714E+00
          2   -1    0    0  502    0  0.00000000000E+00  0.00000000000E+00  0.91156414655E+01  0.91156414655E+01  0.00000000000E+00 0.  1.
          2   -1    0    0  501    0 -0.00000000000E+00 -0.00000000000E+00 -0.31563823069E+03  0.31563823069E+03  0.00000000000E+00 0. -1.
          2    1    1    2  501    0 -0.10231384885E+02 -0.18788813991E+02 -0.43585501171E+01  0.21833408506E+02  0.00000000000E+00 0.  1.
          2    1    1    2  502    0  0.10231384885E+02  0.18788813991E+02 -0.30216403911E+03  0.30292046365E+03  0.00000000000E+00 0. -1.
</event>
<event>
 4    1  0.6688462E+003  0.2973792E+02  0.7546771E-02  0.1421888E+00
          2   -1    0    0  502    0  0.00000000000E+00  0.00000000000E+00  0.10195975353E+04  0.10195975353E+04  0.00000000000E+00 0. -1.
          2   -1    0    0  501    0 -0.00000000000E+00 -0.00000000000E+00 -0.25101498019E+01  0.25101498019E+01  0.00000000000E+00 0.  1.
          2    1    1    2  501    0 -0.15580918672E+02 -0.25329410092E+02  0.92198099852E+03  0.92246046293E+03  0.00000000000E+00 0. -1.
          2    1    1    2  502    0  0.15580918672E+02  0.25329410092E+02  0.95106387008E+02  0.99647222199E+02  0.00000000000E+00 0.  1.
</event>
<event>
 4    1  0.6688462E+003  0.3062008E+02  0.7546771E-02  0.1414283E+00
          2   -1    0    0  501    0  0.00000000000E+00  0.00000000000E+00  0.39858161254E+03  0.39858161254E+03  0.00000000000E+00 0.  1.
          2   -1    0    0  502    0 -0.00000000000E+00 -0.00000000000E+00 -0.94219949716E+02  0.94219949716E+02  0.00000000000E+00 0. -1.
          2    1    1    2  501    0  0.13764440938E+02 -0.27351957804E+02 -0.91124661695E+02  0.96131646189E+02  0.00000000000E+00 0. -1.
          2    1    1    2  502    0 -0.13764440938E+02  0.27351957804E+02  0.39548632452E+03  0.39666991607E+03  0.00000000000E+00 0.  1.
</event>
<event>
 4    1  0.6688462E+003  0.2138445E+02  0.7546771E-02  0.1513846E+00
          2   -1    0    0  502    0  0.00000000000E+00  0.00000000000E+00  0.12531610420E+02  0.12531610420E+02  0.00000000000E+00 0. -1.
          2   -1    0    0  501    0 -0.00000000000E+00 -0.00000000000E+00 -0.40406826811E+02  0.40406826811E+02  0.00000000000E+00 0.  1.
          2    1    1    2  501    0  0.24213121837E+01 -0.21246928798E+02 -0.56979549722E+01  0.22130554148E+02  0.00000000000E+00 0. -1.
          2    1    1    2  502    0 -0.24213121837E+01  0.21246928798E+02 -0.22177261419E+02  0.30807883083E+02  0.00000000000E+00 0.  1.
</event>
<event>
 4    1  0.6688462E+003  0.2686607E+02  0.7546771E-02  0.1448958E+00
          2   -1    0    0  502    0  0.00000000000E+00  0.00000000000E+00  0.68141850615E+00  0.68141850615E+00  0.00000000000E+00 0. -1.
          2   -1    0    0  501    0 -0.00000000000E+00 -0.00000000000E+00 -0.14517299110E+04  0.14517299110E+04  0.00000000000E+00 0. -1.
          2    1    1    2  501    0  0.70701543865E+01  0.25919083232E+02 -0.34792528594E+03  0.34896101581E+03  0.00000000000E+00 0. -1.
          2    1    1    2  502    0 -0.70701543865E+01 -0.25919083232E+02 -0.11031232066E+04  0.11034503137E+04  0.00000000000E+00 0. -1.
</event>
<event>
 4    1  0.6688462E+003  0.5473192E+02  0.7546771E-02  0.1278864E+00
          2   -1    0    0  502    0  0.00000000000E+00  0.00000000000E+00  0.78348034242E+03  0.78348034242E+03  0.00000000000E+00 0.  1.
          2   -1    0    0  501    0 -0.00000000000E+00 -0.00000000000E+00 -0.63791714941E+02  0.63791714941E+02  0.00000000000E+00 0. -1.
          2    1    1    2  501    0 -0.26914318059E+01  0.54665709573E+02  0.77058862500E+03  0.77252987812E+03  0.00000000000E+00 0.  1.
          2    1    1    2  502    0  0.26914318059E+01 -0.54665709573E+02 -0.50899997529E+02  0.74742179234E+02  0.00000000000E+00 0. -1.
</event>
<event>
 4    1  0.6688462E+003  0.2213597E+02  0.7546771E-02  0.1503642E+00
          2   -1    0    0  501    0  0.00000000000E+00  0.00000000000E+00  0.10143922706E+04  0.10143922706E+04  0.00000000000E+00 0. -1.
          2   -1    0    0  502    0 -0.00000000000E+00 -0.00000000000E+00 -0.65440812102E+00  0.65440812102E+00  0.00000000000E+00 0. -1.
          2    1    1    2  501    0  0.19548599636E+02 -0.10385255522E+02  0.76657682895E+03  0.76689636586E+03  0.00000000000E+00 0. -1.
          2    1    1    2  502    0 -0.19548599636E+02  0.10385255522E+02  0.24716103356E+03  0.24815031290E+03  0.00000000000E+00 0. -1.
</event>
<event>
 4    1  0.6688462E+003  0.2042841E+02  0.7546771E-02  0.1527584E+00
          2   -1    0    0  501    0  0.00000000000E+00  0.00000000000E+00  0.20317043171E+03  0.20317043171E+03  0.00000000000E+00 0.  1.
          2   -1    0    0  502    0 -0.00000000000E+00 -0.00000000000E+00 -0.24083564710E+02  0.24083564710E+02  0.00000000000E+00 0. -1.
          2    1    1    2  501    0 -0.20161451874E+02 -0.32917590842E+01 -0.19130085640E+02  0.27987139835E+02  0.00000000000E+00 0. -1.
          2    1    1    2  502    0  0.20161451874E+02  0.32917590842E+01  0.19821695264E+03  0.19926685658E+03  0.00000000000E+00 0.  1.
</event>
<event>
 4    1  0.6688462E+003  0.2229436E+02  0.7546771E-02  0.1501554E+00
          2   -1    0    0  502    0  0.00000000000E+00  0.00000000000E+00  0.36107024037E+01  0.36107024037E+01  0.00000000000E+00 0. -1.
          2   -1    0    0  501    0 -0.00000000000E+00 -0.00000000000E+00 -0.14100028191E+04  0.14100028191E+04  0.00000000000E+00 0.  1.
          2    1    1    2  501    0 -0.20145029471E+02 -0.95507312781E+01 -0.31777598257E+02  0.38818222928E+02  0.00000000000E+00 0. -1.
          2    1    1    2  502    0  0.20145029471E+02  0.95507312781E+01 -0.13746145185E+04  0.13747952986E+04  0.00000000000E+00 0.  1.
</event>
<event>
 4    1  0.6688462E+003  0.3236468E+02  0.7546771E-02  0.1400101E+00
          2   -1    0    0  502    0  0.00000000000E+00  0.00000000000E+00  0.77509084990E+03  0.77509084990E+03  0.00000000000E+00 0.  1.
          2   -1    0    0  501    0 -0.00000000000E+00 -0.00000000000E+00 -0.12407943912E+02  0.12407943912E+02  0.00000000000E+00 0.  1.
          2    1    1    2  501    0 -0.13034352141E+02  0.29623941065E+02  0.75303012247E+03  0.75372530644E+03  0.00000000000E+00 0.  1.
          2    1    1    2  502    0  0.13034352141E+02 -0.29623941065E+02  0.96527835228E+01  0.33773487378E+02  0.00000000000E+00 0.  1.
</event>
<event>
 4    1  0.6688462E+003  0.2003901E+02  0.7546771E-02  0.1533440E+00
          2   -1    0    0  501    0  0.00000000000E+00  0.00000000000E+00  0.98719501726E+03  0.98719501726E+03  0.00000000000E+00 0.  1.
          2   -1    0    0  502    0 -0.00000000000E+00 -0.00000000000E+00 -0.55324469664E+01  0.55324469664E+01  0.00000000000E+00 0. -1.
          2    1    1    2  501    0 -0.79416516740E+01 -0.18398153256E+02  0.13063344932E+02  0.23920971037E+02  0.00000000000E+00 0. -1.
          2    1    1    2  502    0  0.79416516740E+01  0.18398153256E+02  0.96859922536E+03  0.96880649319E+03  0.00000000000E+00 0.  1.
</event>
<event>
 4    1  0.6688462E+003  0.2830025E+02  0.7546771E-02  0.1434967E+00
          2   -1    0    0  502    0  0.00000000000E+00  0.00000000000E+00  0.35101223924E+03  0.35101223924E+03  0.00000000000E+00 0. -1.
          2   -1    0    0  501    0 -0.00000000000E+00 -0.00000000000E+00 -0.71843017021E+02  0.71843017021E+02  0.00000000000E+00 0.  1.
          2    1    1    2  501    0 -0.21115807285E+02 -0.18842151315E+02  0.34762773217E+03  0.34877778622E+03  0.00000000000E+00 0. -1.
          2    1    1    2  502    0  0.21115807285E+02  0.18842151315E+02 -0.68458509952E+02  0.74077470046E+02  0.00000000000E+00 0.  1.
</event>
<event>
 4    1  0.6688462E+003  0.2864809E+02  0.7546771E-02  0.1431720E+00
          2   -1    0    0  502    0  0.00000000000E+00  0.00000000000E+00  0.32795922120E+02  0.32795922120E+02  0.00000000000E+00 0. -1.
          2   -1    0    0  501    0 -0.00000000000E+00 -0.00000000000E+00 -0.13751988877E+03  0.13751988877E+03  0.00000000000E+00 0. -1.
          2    1    1    2  501    0 -0.53261355925E+01 -0.28148627962E+02  0.24658972313E+02  0.37799178457E+02  0.00000000000E+00 0. -1.
          2    1    1    2  502    0  0.53261355925E+01  0.28148627962E+02 -0.12938293896E+03  0.13251663243E+03  0.00000000000E+00 0. -1.
</event>
<event>
 4    1  0.6688462E+003  0.2768816E+02  0.7546771E-02  0.1440815E+00
          2   -1    0    0  502    0  0.00000000000E+00  0.00000000000E+00  0.13237049138E+04  0.13237049138E+04  0.00000000000E+00 0.  1.
          2   -1    0    0  501    0 -0.00000000000E+00 -0.00000000000E+00 -0.22725912317E+02  0.22725912317E+02  0.00000000000E+00 0.  1.
          2    1    1    2  501    0  0.14138416538E+02 -0.23806286681E+02  0.13150712835E+04  0.13153627312E+04  0.00000000000E+00 0.  1.
          2    1    1    2  502    0 -0.14138416538E+02  0.23806286681E+02 -0.14092281992E+02  0.31068094880E+02  0.00000000000E+00 0.  1.
</event>
<event>
 4    1  0.6688462E+003  0.3477139E+02  0.7546771E-02  0.1382178E+00
          2   -1    0    0  501    0  0.00000000000E+00  0.00000000000E+00  0.38092804283E+02  0.38092804283E+02  0.00000000000E+00 0.  1.
          2   -1    0    0  502    0 -0.00000000000E+00 -0.00000000000E+00 -0.12989858155E+03  0.12989858155E+03  0.00000000000E+00 0.  1.
          2    1    1    2  501    0  0.32348202372E+02 -0.12753176939E+02 -0.11891919713E+03  0.12389844699E+03  0.00000000000E+00 0.  1.
          2    1    1    2  502    0 -0.32348202372E+02  0.12753176939E+02  0.27113419870E+02  0.44092938843E+02  0.00000000000E+00 0.  1.
</event>
<event>
 4    1  0.6688462E+003  0.2021444E+02  0.7546771E-02  0.1530783E+00
          2   -1    0    0  501    0  0.00000000000E+00  0.00000000000E+00  0.99743016347E+02  0.99743016347E+02  0.00000000000E+00 0. -1.
          2   -1    0    0  502    0 -0.00000000000E+00 -0.00000000000E+00 -0.29417798945E+03  0.29417798945E+03  0.00000000000E+00 0. -1.
          2    1    1    2  501    0  0.20197093180E+02  0.83727844322E+00 -0.29280173131E+03  0.29349868393E+03  0.00000000000E+00 0. -1.
          2    1    1    2  502    0 -0.20197093180E+02 -0.83727844322E+00  0.98366758211E+02  0.10042232187E+03  0.00000000000E+00 0. -1.
</event>
<event>
 4    1  0.6688462E+003  0.2616583E+02  0.7546771E-02  0.1456172E+00
          2   -1    0    0  501    0  0.00000000000E+00  0.00000000000E+00  0.11102074101E+04  0.11102074101E+04  0.00000000000E+00 0. -1.
          2   -1    0    0  502    0 -0.00000000000E+00 -0.00000000000E+00 -0.37516889198E+01  0.37516889198E+01  0.00000000000E+00 0.  1.
          2    1    1    2  501    0 -0.16780464886E+02 -0.20076525502E+02  0.44079066131E+02  0.51260266767E+02  0.00000000000E+00 0.  1.
          2    1    1    2  502    0  0.16780464886E+02  0.20076525502E+02  0.10623766550E+04  0.10626988322E+04  0.00000000000E+00 0. -1.
</event>
<event>
 4    1  0.6688462E+003  0.8057923E+02  0.7546771E-02  0.1202509E+00
          2   -1    0    0  502    0  0.00000000000E+00  0.00000000000E+00  0.45672461665E+01  0.45672461665E+01  0.00000000000E+00 0.  1.
          2   -1    0    0  501    0 -0.00000000000E+00 -0.00000000000E+00 -0.23602231525E+04  0.23602231525E+04  0.00000000000E+00 0.  1.
          2    1    1    2  501    0  0.67840086278E+02 -0.43482580480E+02 -0.43220225595E+03  0.43964963568E+03  0.00000000000E+00 0.  1.
          2    1    1    2  502    0 -0.67840086278E+02  0.43482580480E+02 -0.19234536504E+04  0.19251407630E+04  0.00000000000E+00 0.  1.
</event>
<event>
 4    1  0.6688462E+003  0.5816120E+02  0.7546771E-02  0.1266212E+00
          2   -1    0    0  501    0  0.00000000000E+00  0.00000000000E+00  0.24492239609E+03  0.24492239609E+03  0.00000000000E+00 0.  1.
          2   -1    0    0  502    0 -0.00000000000E+00 -0.00000000000E+00 -0.21221306632E+02  0.21221306632E+02  0.00000000000E+00 0. -1.
          2    1    1    2  501    0 -0.58083555650E+02  0.30042103997E+01  0.33217320509E+02  0.66978467427E+02  0.00000000000E+00 0. -1.
          2    1    1    2  502    0  0.58083555650E+02 -0.30042103997E+01  0.19048376895E+03  0.19916523530E+03  0.00000000000E+00 0.  1.
</event>
<event>
 4    1  0.6688462E+003  0.2915883E+02  0.7546771E-02  0.1427050E+00
          2   -1    0    0  501    0  0.00000000000E+00  0.00000000000E+00  0.10557100714E+04  0.10557100714E+04  0.00000000000E+00 0.  1.
          2   -1    0    0  502    0 -0.00000000000E+00 -0.00000000000E+00 -0.30689025486E+01  0.30689025486E+01  0.00000000000E+00 0. -1.
          2    1    1    2  501    0  0.18491515782E+02  0.22545530277E+02  0.71670634916E+02  0.77375170440E+02  0.00000000000E+00 0. -1.
          2    1    1    2  502    0 -0.18491515782E+02 -0.22545530277E+02  0.98097053393E+03  0.98140380350E+03  0.00000000000E+00 0.  1.
</event>
<event>
 4    1  0.6688462E+003  0.2467772E+02  0.7546771E-02  0.1472441E+00
          2   -1    0    0  501    0  0.00000000000E+00  0.00000000000E+00  0.83394782457E+02  0.83394782457E+02  0.00000000000E+00 0. -1.
          2   -1    0    0  502    0 -0.00000000000E+00 -0.00000000000E+00 -0.28541199168E+02  0.28541199168E+02  0.00000000000E+00 0.  1.
          2    1    1    2  501    0 -0.24572346826E+02 -0.22780846065E+01 -0.20853248947E+02  0.32308634909E+02  0.00000000000E+00 0.  1.
          2    1    1    2  502    0  0.24572346826E+02  0.22780846065E+01  0.75706832236E+02  0.79627346717E+02  0.00000000000E+00 0. -1.
</event>
<event>
 4    1  0.6688462E+003  0.2882448E+02  0.7546771E-02  0.1430094E+00
          2   -1    0    0  502    0  0.00000000000E+00  0.00000000000E+00  0.13805087652E+04  0.13805087652E+04  0.00000000000E+00 0. -1.
          2   -1    0    0  501    0 -0.00000000000E+00 -0.00000000000E+00 -0.19755358345E+01  0.19755358345E+01  0.00000000000E+00 0.  1.
          2    1    1    2  501    0  0.68239969126E+01 -0.28005062509E+02  0.12656778899E+04  0.12660060708E+04  0.00000000000E+00 0. -1.
          2    1    1    2  502    0 -0.68239969126E+01  0.28005062509E+02  0.11285533948E+03  0.11647823020E+03  0.00000000000E+00 0.  1.
</event>
<event>
 4    1  0.6688462E+003  0.2135570E+02  0.7546771E-02  0.1514247E+00
          2   -1    0    0  501    0  0.00000000000E+00  0.00000000000E+00  0.49849509249E+03  0.49849509249E+03  0.00000000000E+00 0.  1.
          2   -1    0    0  502    0 -0.00000000000E+00 -0.00000000000E+00 -0.12033814802E+02  0.12033814802E+02  0.00000000000E+00 0.  1.
          2    1    1    2  501    0 -0.16071919124E+02 -0.14062689668E+02 -0.21386301403E+01  0.21462515321E+02  0.00000000000E+00 0.  1.
          2    1    1    2  502    0  0.16071919124E+02  0.14062689668E+02  0.48859990783E+03  0.48906639197E+03  0.00000000000E+00 0.  1.
</event>
<event>
 4    1  0.6688462E+003  0.2196325E+02  0.7546771E-02  0.1505944E+00
          2   -1    0    0  502    0  0.00000000000E+00  0.00000000000E+00  0.60631386898E+01  0.60631386898E+01  0.00000000000E+00 0. -1.
          2   -1    0    0  501    0 -0.00000000000E+00 -0.00000000000E+00 -0.68458358148E+03  0.68458358148E+03  0.00000000000E+00 0. -1.
          2    1    1    2  501    0 -0.14792417847E+02 -0.16234805471E+02 -0.14622637633E+02  0.26385717079E+02  0.00000000000E+00 0. -1.
          2    1    1    2  502    0  0.14792417847E+02  0.16234805471E+02 -0.66389780515E+03  0.66426100309E+03  0.00000000000E+00 0. -1.
</event>
<event>
 4    1  0.6688462E+003  0.6265190E+02  0.7546771E-02  0.1251079E+00
          2   -1    0    0  501    0  0.00000000000E+00  0.00000000000E+00  0.87078654846E+03  0.87078654846E+03  0.00000000000E+00 0.  1.
          2   -1    0    0  502    0 -0.00000000000E+00 -0.00000000000E+00 -0.13662863017E+04  0.13662863017E+04  0.00000000000E+00 0.  1.
          2    1    1    2  501    0  0.48571815281E+02 -0.39573214266E+02 -0.13644396123E+04  0.13658772698E+04  0.00000000000E+00 0.  1.
          2    1    1    2  502    0 -0.48571815281E+02  0.39573214266E+02  0.86893985908E+03  0.87119558035E+03  0.00000000000E+00 0.  1.
</event>
<event>
 4    1  0.6688462E+003  0.2790635E+02  0.7546771E-02  0.1438710E+00
          2   -1    0    0  502    0  0.00000000000E+00  0.00000000000E+00  0.80896098823E+03  0.80896098823E+03  0.00000000000E+00 0.  1.
          2   -1    0    0  501    0 -0.00000000000E+00 -0.00000000000E+00 -0.30230202661E+03  0.30230202661E+03  0.00000000000E+00 0. -1.
          2    1    1    2  501    0 -0.26757186905E+02 -0.79257320907E+01  0.80807558640E+03  0.80855730632E+03  0.00000000000E+00 0.  1.
          2    1    1    2  502    0  0.26757186905E+02  0.79257320907E+01 -0.30141662477E+03  0.30270570852E+03  0.00000000000E+00 0. -1.
</event>
<event>
 4    1  0.6688462E+003  0.7725629E+02  0.7546771E-02  0.1210364E+00
          2   -1    0    0  501    0  0.00000000000E+00  0.00000000000E+00  0.12015760583E+04  0.12015760583E+04  0.00000000000E+00 0.  1.
          2   -1    0    0  502    0 -0.00000000000E+00 -0.00000000000E+00 -0.12452265832E+02  0.12452265832E+02  0.00000000000E+00 0. -1.
          2    1    1    2  501    0 -0.76905319330E+02  0.73557042097E+01  0.12394138394E+03  0.14604794137E+03  0.00000000000E+00 0. -1.
          2    1    1    2  502    0  0.76905319330E+02 -0.73557042097E+01  0.10651824086E+04  0.10679803828E+04  0.00000000000E+00 0.  1.
</event>
<event>
 4    1  0.6688462E+003  0.2777291E+02  0.7546771E-02  0.1439995E+00
          2   -1    0    0  502    0  0.00000000000E+00  0.00000000000E+00  0.98863849477E+03  0.98863849477E+03  0.00000000000E+00 0.  1.
          2   -1    0    0  501    0 -0.00000000000E+00 -0.00000000000E+00 -0.38073181100E+01  0.38073181100E+01  0.00000000000E+00 0. -1.
          2    1    1    2  501    0  0.16966968812E+02 -0.21987649881E+02  0.93488370291E+03  0.93529614173E+03  0.00000000000E+00 0.  1.
          2    1    1    2  502    0 -0.16966968812E+02  0.21987649881E+02  0.49947473749E+02  0.57149671144E+02  0.00000000000E+00 0. -1.
</event>
<event>
 4    1  0.6688462E+003  0.2098630E+02  0.7546771E-02  0.1519460E+00
          2   -1    0    0  501    0  0.00000000000E+00  0.00000000000E+00  0.39433904638E+02  0.39433904638E+02  0.00000000000E+00 0. -1.
          2   -1    0    0  502    0 -0.00000000000E+00 -0.00000000000E+00 -0.32419136096E+03  0.32419136096E+03  0.00000000000E+00 0.  1.
          2    1    1    2  501    0 -0.12325229621E+02 -0.16985689909E+02 -0.32103210741E+03  0.32171732769E+03  0.00000000000E+00 0.  1.
          2    1    1    2  502    0  0.12325229621E+02  0.16985689909E+02  0.36274651096E+02  0.41907937900E+02  0.00000000000E+00 0. -1.
</event>
<event>
 4    1  0.6688462E+003  0.2251188E+02  0.7546771E-02  0.1498720E+00
          2   -1    0    0  501    0  0.00000000000E+00  0.00000000000E+00  0.43766143565E+01  0.43766143565E+01  0.00000000000E+00 0.  1.
          2   -1    0    0  502    0 -0.00000000000E+00 -0.00000000000E+00 -0.64857826710E+03  0.64857826710E+03  0.00000000000E+00 0. -1.
          2    1    1    2  501    0 -0.14064328561E+02  0.17577804284E+02 -0.61800274663E+03  0.61841262873E+03  0.00000000000E+00 0. -1.
          2    1    1    2  502    0  0.14064328561E+02 -0.17577804284E+02 -0.26198906117E+02  0.34542252721E+02  0.00000000000E+00 0.  1.
</event>
<event>
 4    1  0.6688462E+003  0.2688797E+02  0.7546771E-02  0.1448737E+00
          2   -1    0    0  502    0  0.00000000000E+00  0.00000000000E+00  0.49790059525E+03  0.49790059525E+03  0.00000000000E+00 0.  1.
          2   -1    0    0  501    0 -0.00000000000E+00 -0.00000000000E+00 -0.95710628133E+02  0.95710628133E+02  0.00000000000E+00 0. -1.
          2    1    1    2  501    0 -0.13163502781E+02 -0.23445367317E+02  0.49564057661E+03  0.49636936271E+03  0.00000000000E+00 0.  1.
          2    1    1    2  502    0  0.13163502781E+02  0.23445367317E+02 -0.93450609489E+02  0.97241860677E+02  0.00000000000E+00 0. -1.
</event>
<event>
 4    1  0.6688462E+003  0.4163235E+02  0.7546771E-02  0.1339177E+00
          2   -1    0    0  502    0  0.00000000000E+00  0.00000000000E+00  0.15218245320E+02  0.15218245320E+02  0.00000000000E+00 0. -1.
          2   -1    0    0  501    0 -0.00000000000E+00 -0.00000000000E+00 -0.20931415086E+03  0.20931415086E+03  0.00000000000E+00 0. -1.
          2    1    1    2  501    0 -0.10622683522E+02  0.40254330718E+02 -0.21247481452E+02  0.46740860228E+02  0.00000000000E+00 0. -1.
          2    1    1    2  502    0  0.10622683522E+02 -0.40254330718E+02 -0.17284842409E+03  0.17779153596E+03  0.00000000000E+00 0. -1.
</event>
<event>
 4    1  0.6688462E+003  0.2046447E+02  0.7546771E-02  0.1527050E+00
          2   -1    0    0  501    0  0.00000000000E+00  0.00000000000E+00  0.70472693474E+00  0.70472693474E+00  0.00000000000E+00 0.  1.
          2   -1    0    0  502    0 -0.00000000000E+00 -0.00000000000E+00 -0.59681997565E+03  0.59681997565E+03  0.00000000000E+00 0. -1.
          2    1    1    2  501    0 -0.70170123464E+01  0.19223845451E+02 -0.27851062174E+03  0.27926145656E+03  0.00000000000E+00 0.  1.
          2    1    1    2  502    0  0.70170123464E+01 -0.19223845451E+02 -0.31760462697E+03  0.31826324602E+03  0.00000000000E+00 0. -1.
</event>
<event>
 4    1  0.1023331E+004  0.2081586E+02  0.7546771E-02  0.1521910E+00
          2   -1    0    0  502    0  0.00000000000E+00  0.00000000000E+00  0.11305851358E+04  0.11305851358E+04  0.00000000000E+00 0.  1.
          2   -1    0    0  501    0 -0.00000000000E+00 -0.00000000000E+00 -0.56255647589E+03  0.56255647589E+03  0.00000000000E+00 0. -1.
          2    1    1    2  501    0 -0.56900315299E+01 -0.20023078145E+02  0.11302967149E+04  0.11304883740E+04  0.00000000000E+00 0.  1.
          2    1    1    2  502    0  0.56900315299E+01  0.20023078145E+02 -0.56226805502E+03  0.56265323763E+03  0.00000000000E+00 0. -1.
</event>
<event>
 4    1  0.6688462E+003  0.3397905E+02  0.7546771E-02  0.1387886E+00
          2   -1    0    0  502    0  0.00000000000E+00  0.00000000000E+00  0.38942618611E+01  0.38942618611E+01  0.00000000000E+00 0.  1.
          2   -1    0    0  501    0 -0.00000000000E+00 -0.00000000000E+00 -0.60556964327E+03  0.60556964327E+03  0.00000000000E+00 0. -1.
          2    1    1    2  501    0  0.27464131679E+02  0.20007436180E+02 -0.83128270418E+02  0.89804706859E+02  0.00000000000E+00 0.  1.
          2    1    1    2  502    0 -0.27464131679E+02 -0.20007436180E+02 -0.51854711099E+03  0.51965919827E+03  0.00000000000E+00 0. -1.
</event>
<event>
 4    1  0.6688462E+003  0.3929264E+02  0.7546771E-02  0.1352681E+00
          2   -1    0    0  501    0  0.00000000000E+00  0.00000000000E+00  0.56384505694E+03  0.56384505694E+03  0.00000000000E+00 0. -1.
          2   -1    0    0  502    0 -0.00000000000E+00 -0.00000000000E+00 -0.29317209421E+01  0.29317209421E+01  0.00000000000E+00 0.  1.
          2    1    1    2  501    0 -0.38565516710E+02  0.75241257107E+01  0.35326860901E+03  0.35544707293E+03  0.00000000000E+00 0. -1.
          2    1    1    2  502    0  0.38565516710E+02 -0.75241257107E+01  0.20764472699E+03  0.21132970495E+03  0.00000000000E+00 0.  1.
</event>
<event>
 4    1  0.6688462E+003  0.2726482E+02  0.7546771E-02  0.1444966E+00
          2   -1    0    0  502    0  0.00000000000E+00  0.00000000000E+00  0.50694780846E+01  0.50694780846E+01  0.00000000000E+00 0. -1.
          2   -1    0    0  501    0 -0.00000000000E+00 -0.00000000000E+00 -0.57551518256E+03  0.57551518256E+03  0.00000000000E+00 0.  1.
          2    1    1    2  501    0 -0.60191220792E+01 -0.26592111642E+02 -0.34626682757E+02  0.44072410769E+02  0.00000000000E+00 0. -1.
          2    1    1    2  502    0  0.60191220792E+01  0.26592111642E+02 -0.53581902172E+03  0.53651224987E+03  0.00000000000E+00 0.  1.
</event>
<event>
 4    1  0.6688462E+003  0.2052850E+02  0.7546771E-02  0.1526104E+00
          2   -1    0    0  501    0  0.00000000000E+00  0.00000000000E+00  0.21661487693E+03  0.21661487693E+03  0.00000000000E+00 0. -1.
          2   -1    0    0  502    0 -0.00000000000E+00 -0.00000000000E+00 -0.14018654222E+04  0.14018654222E+04  0.00000000000E+00 0. -1.
          2    1    1    2  501    0  0.15434139579E+02 -0.13535384157E+02 -0.14013037047E+04  0.14014540635E+04  0.00000000000E+00 0. -1.
          2    1    1    2  502    0 -0.15434139579E+02  0.13535384157E+02  0.21605315938E+03  0.21702623567E+03  0.00000000000E+00 0. -1.
</event>
<event>
 4    1  0.6688462E+003  0.3525377E+02  0.7546771E-02  0.1378788E+00
          2   -1    0    0  502    0  0.00000000000E+00  0.00000000000E+00  0.13275940824E+03  0.13275940824E+03  0.00000000000E+00 0.  1.
          2   -1    0    0  501    0 -0.00000000000E+00 -0.00000000000E+00 -0.17518645280E+04  0.17518645280E+04  0.00000000000E+00 0. -1.
          2    1    1    2  501    0  0.17232676652E+02  0.30754892140E+02  0.13023830021E+03  0.13492532519E+03  0.00000000000E+00 0.  1.
          2    1    1    2  502    0 -0.17232676652E+02 -0.30754892140E+02 -0.17493434200E+04  0.17496986111E+04  0.00000000000E+00 0. -1.
</event>
<event>
 4    1  0.6688462E+003  0.2716863E+02  0.7546771E-02  0.1445922E+00
          2   -1    0    0  502    0  0.00000000000E+00  0.00000000000E+00  0.15482078962E+03  0.15482078962E+03  0.00000000000E+00 0. -1.
          2   -1    0    0  501    0 -0.00000000000E+00 -0.00000000000E+00 -0.40760161307E+02  0.40760161307E+02  0.00000000000E+00 0. -1.
          2    1    1    2  501    0  0.34739104903E+01  0.26945617320E+02  0.14892376659E+03  0.15138171159E+03  0.00000000000E+00 0. -1.
          2    1    1    2  502    0 -0.34739104903E+01 -0.26945617320E+02 -0.34863138284E+02  0.44199239335E+02  0.00000000000E+00 0. -1.
</event>
<event>
 4    1  0.6688462E+003  0.2628221E+02  0.7546771E-02  0.1454955E+00
          2   -1    0    0  501    0  0.00000000000E+00  0.00000000000E+00  0.32496085272E+03  0.32496085272E+03  0.00000000000E+00 0. -1.
          2   -1    0    0  502    0 -0.00000000000E+00 -0.00000000000E+00 -0.10762269737E+02  0.10762269737E+02  0.00000000000E+00 0. -1.
          2    1    1    2  501    0 -0.21790173775E+02 -0.14694991785E+02  0.67258597664E+01  0.27129165972E+02  0.00000000000E+00 0. -1.
          2    1    1    2  502    0  0.21790173775E+02  0.14694991785E+02  0.30747272322E+03  0.30859395649E+03  0.00000000000E+00 0. -1.
</event>
<event>
 4    1  0.6688462E+003  0.2564682E+02  0.7546771E-02  0.1461696E+00
          2   -1    0    0  502    0  0.00000000000E+00  0.00000000000E+00  0.98190587274E+01  0.98190587274E+01  0.00000000000E+00 0.  1.
          2   -1    0    0  501    0 -0.00000000000E+00 -0.00000000000E+00 -0.20871579136E+03  0.20871579136E+03  0.00000000000E+00 0.  1.
          2    1    1    2  501    0 -0.70128331824E+01 -0.24669404144E+02 -0.94073208371E+01  0.27317705164E+02  0.00000000000E+00 0.  1.
          2    1    1    2  502    0  0.70128331824E+01  0.24669404144E+02 -0.18948941179E+03  0.19121714492E+03  0.00000000000E+00 0.  1.
</event>
<event>
 4    1  0.6688462E+003  0.3439102E+02  0.7546771E-02  0.1384896E+00
          2   -1    0    0  502    0  0.00000000000E+00  0.00000000000E+00  0.75486465447E+01  0.75486465447E+01  0.00000000000E+00 0. -1.
          2   -1    0    0  501    0 -0.00000000000E+00 -0.00000000000E+00 -0.67343821390E+03  0.67343821390E+03  0.00000000000E+00 0.  1.
          2    1    1    2  501    0  0.13440066352E+02 -0.31656070567E+02 -0.34679693277E+02  0.48840795582E+02  0.00000000000E+00 0. -1.
          2    1    1    2  502    0 -0.13440066352E+02  0.31656070567E+02 -0.63120987408E+03  0.63214606486E+03  0.00000000000E+00 0.  1.
</event>
<event>
 4    1  0.6688462E+003  0.2114444E+02  0.7546771E-02  0.1517212E+00
          2   -1    0    0  501    0  0.00000000000E+00  0.00000000000E+00  0.12363318546E+02  0.12363318546E+02  0.00000000000E+00 0.  1.
          2   -1    0    0  502    0 -0.00000000000E+00 -0.00000000000E+00 -0.31828014033E+03  0.31828014033E+03  0.00000000000E+00 0. -1.
          2    1    1    2  501    0 -0.61459597948E+01 -0.20231525539E+02 -0.30860526838E+03  0.30932878805E+03  0.00000000000E+00 0. -1.
          2    1    1    2  502    0  0.61459597948E+01  0.20231525539E+02  0.26884465907E+01  0.21314670828E+02  0.00000000000E+00 0.  1.
</event>
<event>
 4    1  0.6688462E+003  0.2474578E+02  0.7546771E-02  0.1471667E+00
          2   -1    0    0  502    0  0.00000000000E+00  0.00000000000E+00  0.35605119340E+02  0.35605119340E+02  0.00000000000E+00 0. -1.
          2   -1    0    0  501    0 -0.00000000000E+00 -0.00000000000E+00 -0.11374921815E+04  0.11374921815E+04  0.00000000000E+00 0. -1.
          2    1    1    2  501    0  0.12857542643E+02  0.21143258498E+02  0.31154027408E+02  0.39786017726E+02  0.00000000000E+00 0. -1.
          2    1    1    2  502    0 -0.12857542643E+02 -0.21143258498E+02 -0.11330410895E+04  0.11333112831E+04  0.00000000000E+00 0. -1.
</event>
<event>
 4    1  0.6688462E+003  0.3998170E+02  0.7546771E-02  0.1348593E+00
          2   -1    0    0  501    0  0.00000000000E+00  0.00000000000E+00  0.23089795197E+03  0.23089795197E+03  0.00000000000E+00 0.  1.
          2   -1    0    0  502    0 -0.00000000000E+00 -0.00000000000E+00 -0.48905955117E+02  0.48905955117E+02  0.00000000000E+00 0.  1.
          2    1    1    2  501    0  0.33198436750E+02 -0.22280033266E+02 -0.38626010043E+02  0.55592308252E+02  0.00000000000E+00 0.  1.
          2    1    1    2  502    0 -0.33198436750E+02  0.22280033266E+02  0.22061800689E+03  0.22421159883E+03  0.00000000000E+00 0.  1.
</event>
<event>
 4    1  0.6688462E+003  0.3816397E+02  0.7546771E-02  0.1359594E+00
          2   -1    0    0  501    0  0.00000000000E+00  0.00000000000E+00  0.56409473316E+01  0.56409473316E+01  0.00000000000E+00 0.  1.
          2   -1    0    0  502    0 -0.00000000000E+00 -0.00000000000E+00 -0.98635981503E+03  0.98635981503E+03  0.00000000000E+00 0. -1.
          2    1    1    2  501    0 -0.28198644061E+02 -0.25716238937E+02 -0.91652454966E+03  0.91731877698E+03  0.00000000000E+00 0. -1.
          2    1    1    2  502    0  0.28198644061E+02  0.25716238937E+02 -0.64194318035E+02  0.74681985377E+02  0.00000000000E+00 0.  1.
</event>
<event>
 4    1  0.6688462E+003  0.2489235E+02  0.7546771E-02  0.1470011E+00
          2   -1    0    0  501    0  0.00000000000E+00  0.00000000000E+00  0.85958800745E+03  0.85958800745E+03  0.00000000000E+00 0.  1.
          2   -1    0    0  502    0 -0.00000000000E+00 -0.00000000000E+00 -0.72746290825E+00  0.72746290825E+00  0.00000000000E+00 0.  1.
          2    1    1    2  501    0 -0.24769047115E+02  0.24745358950E+01  0.38839954806E+03  0.38919640023E+03  0.00000000000E+00 0.  1.
          2    1    1    2  502    0  0.24769047115E+02 -0.24745358950E+01  0.47046099648E+03  0.47111907012E+03  0.00000000000E+00 0.  1.
</event>
<event>
 4    1  0.6688462E+003  0.3543414E+02  0.7546771E-02  0.1377537E+00
          2   -1    0    0  501    0  0.00000000000E+00  0.00000000000E+00  0.20959592220E+03  0.20959592220E+03  0.00000000000E+00 0.  1.
          2   -1    0    0  502    0 -0.00000000000E+00 -0.00000000000E+00 -0.77710196490E+02  0.77710196490E+02  0.00000000000E+00 0. -1.
          2    1    1    2  501    0  0.10123357209E+02  0.33957267903E+02 -0.72062252252E+02  0.80302843065E+02  0.00000000000E+00 0. -1.
          2    1    1    2  502    0 -0.10123357209E+02 -0.33957267903E+02  0.20394797796E+03  0.20700327562E+03  0.00000000000E+00 0.  1.
</event>
<event>
 4    1  0.6688462E+003  0.2962286E+02  0.7546771E-02  0.1422903E+00
          2   -1    0    0  501    0  0.00000000000E+00  0.00000000000E+00  0.53617698467E+01  0.53617698467E+01  0.00000000000E+00 0.  1.
          2   -1    0    0  502    0 -0.00000000000E+00 -0.00000000000E+00 -0.63685258699E+03  0.63685258699E+03  0.00000000000E+00 0. -1.
          2    1    1    2  501    0  0.26177197895E+02  0.13866070022E+02 -0.59253450620E+03  0.59327451877E+03  0.00000000000E+00 0. -1.
          2    1    1    2  502    0 -0.26177197895E+02 -0.13866070022E+02 -0.38956310947E+02  0.48939838068E+02  0.00000000000E+00 0.  1.
</event>
<event>
 4    1  0.6688462E+003  0.2498934E+02  0.7546771E-02  0.1468923E+00
          2   -1    0    0  502    0  0.00000000000E+00  0.00000000000E+00  0.13967710232E+03  0.13967710232E+03  0.00000000000E+00 0. -1.
          2   -1    0    0  501    0 -0.00000000000E+00 -0.00000000000E+00 -0.28577002424E+02  0.28577002424E+02  0.00000000000E+00 0. -1.
          2    1    1    2  501    0 -0.91642083469E+01  0.23248317033E+02  0.13281665460E+03  0.13514707063E+03  0.00000000000E+00 0. -1.
          2    1    1    2  502    0  0.91642083469E+01 -0.23248317033E+02 -0.21716554708E+02  0.33107034115E+02  0.00000000000E+00 0. -1.
</event>
<event>
 4    1  0.6688462E+003  0.4621926E+02  0.7546771E-02  0.1315453E+00
          2   -1    0    0  502    0  0.00000000000E+00  0.00000000000E+00  0.34467173213E+03  0.34467173213E+03  0.00000000000E+00 0.  1.
          2   -1    0    0  501    0 -0.00000000000E+00 -0.00000000000E+00 -0.66019469168E+01  0.66019469168E+01  0.00000000000E+00 0.  1.
          2    1    1    2  501    0 -0.22814108132E+02  0.40196221364E+02  0.21248876966E+03  0.21745734518E+03  0.00000000000E+00 0.  1.
          2    1    1    2  502    0  0.22814108132E+02 -0.40196221364E+02  0.12558101556E+03  0.13381633387E+03  0.00000000000E+00 0.  1.
</event>
<event>
 4    1  0.6688462E+003  0.2313953E+02  0.7546771E-02  0.1490753E+00
          2   -1    0    0  501    0  0.00000000000E+00  0.00000000000E+00  0.21063752693E+02  0.21063752693E+02  0.00000000000E+00 0. -1.
          2   -1    0    0  502    0 -0.00000000000E+00 -0.00000000000E+00 -0.45986228395E+02  0.45986228395E+02  0.00000000000E+00 0. -1.
          2    1    1    2  501    0  0.11052462624E+02  0.20329316578E+02 -0.34881122506E+02  0.41858460912E+02  0.00000000000E+00 0. -1.
          2    1    1    2  502    0 -0.11052462624E+02 -0.20329316578E+02  0.99586468048E+01  0.25191520176E+02  0.00000000000E+00 0. -1.
</event>
<event>
 4    1  0.6688462E+003  0.2283884E+02  0.7546771E-02  0.1494532E+00
          2   -1    0    0  501    0  0.00000000000E+00  0.00000000000E+00  0.31243067863E+00  0.31243067863E+00  0.00000000000E+00 0.  1.
          2   -1    0    0  502    0 -0.00000000000E+00 -0.00000000000E+00 -0.17531996795E+04  0.17531996795E+04  0.00000000000E+00 0.  1.
          2    1    1    2  501    0  0.13606352165E+02 -0.18343387833E+02 -0.68491018955E+03  0.68529087288E+03  0.00000000000E+00 0.  1.
          2    1    1    2  502    0 -0.13606352165E+02  0.18343387833E+02 -0.10679770593E+04  0.10682212373E+04  0.00000000000E+00 0.  1.
</event>
<event>
 4    1  0.6688462E+003  0.2100852E+02  0.7546771E-02  0.1519143E+00
          2   -1    0    0  501    0  0.00000000000E+00  0.00000000000E+00  0.16459653379E+01  0.16459653379E+01  0.00000000000E+00 0. -1.
          2   -1    0    0  502    0 -0.00000000000E+00 -0.00000000000E+00 -0.33305511921E+03  0.33305511921E+03  0.00000000000E+00 0.  1.
          2    1    1    2  501    0 -0.20752364305E+02  0.32706621976E+01 -0.23958413607E+03  0.24050346383E+03  0.00000000000E+00 0.  1.
          2    1    1    2  502    0  0.20752364305E+02 -0.32706621976E+01 -0.91825017793E+02  0.94197620714E+02  0.00000000000E+00 0. -1.
</event>
<event>
 4    1  0.6688462E+003  0.2239515E+02  0.7546771E-02  0.1500236E+00
          2   -1    0    0  501    0  0.00000000000E+00  0.00000000000E+00  0.25161609532E+00  0.25161609532E+00  0.00000000000E+00 0.  1.
          2   -1    0    0  502    0 -0.00000000000E+00 -0.00000000000E+00 -0.22114345067E+04  0.22114345067E+04  0.00000000000E+00 0. -1.
          2    1    1    2  501    0 -0.17030209142E+02  0.14543545579E+02 -0.75826890462E+03  0.75859954816E+03  0.00000000000E+00 0.  1.
          2    1    1    2  502    0  0.17030209142E+02 -0.14543545579E+02 -0.14529139860E+04  0.14530865746E+04  0.00000000000E+00 0. -1.
</event>
<event>
 4    1  0.6688462E+003  0.2148884E+02  0.7546771E-02  0.1512399E+00
          2   -1    0    0  502    0  0.00000000000E+00  0.00000000000E+00  0.71763755695E+02  0.71763755695E+02  0.00000000000E+00 0. -1.
          2   -1    0    0  501    0 -0.00000000000E+00 -0.00000000000E+00 -0.33052300439E+02  0.33052300439E+02  0.00000000000E+00 0.  1.
          2    1    1    2  501    0  0.21366042425E+02 -0.22939699914E+01  0.66386526177E+02  0.69777796791E+02  0.00000000000E+00 0. -1.
          2    1    1    2  502    0 -0.21366042425E+02  0.22939699914E+01 -0.27675070922E+02  0.35038259343E+02  0.00000000000E+00 0.  1.
</event>
<event>
 4    1  0.6688462E+003  0.2677513E+02  0.7546771E-02  0.1449880E+00
          2   -1    0    0  501    0  0.00000000000E+00  0.00000000000E+00  0.30913114084E+02  0.30913114084E+02  0.00000000000E+00 0. -1.
          2   -1    0    0  502    0 -0.00000000000E+00 -0.00000000000E+00 -0.36450763574E+02  0.36450763574E+02  0.00000000000E+00 0. -1.
          2    1    1    2  501    0  0.25629007761E+02 -0.77499510784E+01 -0.23083539556E+02  0.35351910542E+02  0.00000000000E+00 0. -1.
          2    1    1    2  502    0 -0.25629007761E+02  0.77499510784E+01  0.17545890065E+02  0.32011967117E+02  0.00000000000E+00 0. -1.
</event>
<event>
 4    1  0.6688462E+003  0.2021338E+02  0.7546771E-02  0.1530798E+00
          2   -1    0    0  502    0  0.00000000000E+00  0.00000000000E+00  0.68257966188E+00  0.68257966188E+00  0.00000000000E+00 0. -1.
          2   -1    0    0  501    0 -0.00000000000E+00 -0.00000000000E+00 -0.86038212543E+03  0.86038212543E+03  0.00000000000E+00 0. -1.
          2    1    1    2  501    0  0.20591542091E+01  0.20108224754E+02 -0.19236054789E+03  0.19341965051E+03  0.00000000000E+00 0. -1.
          2    1    1    2  502    0 -0.20591542091E+01 -0.20108224754E+02 -0.66733899788E+03  0.66764505458E+03  0.00000000000E+00 0. -1.
</event>
<event>
 4    1  0.6688462E+003  0.2132075E+02  0.7546771E-02  0.1514734E+00
          2   -1    0    0  501    0  0.00000000000E+00  0.00000000000E+00  0.20821265112E+03  0.20821265112E+03  0.00000000000E+00 0.  1.
          2   -1    0    0  502    0 -0.00000000000E+00 -0.00000000000E+00 -0.14248850886E+03  0.14248850886E+03  0.00000000000E+00 0. -1.
          2    1    1    2  501    0  0.98480734327E+01 -0.18910044528E+02 -0.14113995474E+03  0.14274123846E+03  0.00000000000E+00 0. -1.
          2    1    1    2  502    0 -0.98480734327E+01  0.18910044528E+02  0.20686409699E+03  0.20795992152E+03  0.00000000000E+00 0.  1.
</event>
<event>
 4    1  0.6688462E+003  0.2462233E+02  0.7546771E-02  0.1473073E+00
          2   -1    0    0  501    0  0.00000000000E+00  0.00000000000E+00  0.51181375857E+03  0.51181375857E+03  0.00000000000E+00 0.  1.
          2   -1    0    0  502    0 -0.00000000000E+00 -0.00000000000E+00 -0.31738603327E+01  0.31738603327E+01  0.00000000000E+00 0. -1.
          2    1    1    2  501    0  0.23668476407E+02 -0.67869092068E+01  0.50462631815E+02  0.56149230820E+02  0.00000000000E+00 0. -1.
          2    1    1    2  502    0 -0.23668476407E+02  0.67869092068E+01  0.45817726643E+03  0.45883838809E+03  0.00000000000E+00 0.  1.
</event>
<event>
 4    1  0.6688462E+003  0.2232593E+02  0.7546771E-02  0.1501141E+00
          2   -1    0    0  502    0  0.00000000000E+00  0.00000000000E+00  0.11276758627E+02  0.11276758627E+02  0.00000000000E+00 0.  1.
          2   -1    0    0  501    0 -0.00000000000E+00 -0.00000000000E+00 -0.39492157838E+03  0.39492157838E+03  0.00000000000E+00 0. -1.
          2    1    1    2  501    0  0.22145666707E+02 -0.28313338470E+01 -0.42627063869E+00  0.22329995788E+02  0.00000000000E+00 0.  1.
          2    1    1    2  502    0 -0.22145666707E+02  0.28313338470E+01 -0.38321854911E+03  0.38386834122E+03  0.00000000000E+00 0. -1.
</event>
<event>
 4    1  0.6688462E+003  0.2028657E+02  0.7546771E-02  0.1529699E+00
          2   -1    0    0  501    0  0.00000000000E+00  0.00000000000E+00  0.68516209501E+02  0.68516209501E+02  0.00000000000E+00 0. -1.
          2   -1    0    0  502    0 -0.00000000000E+00 -0.00000000000E+00 -0.21428881130E+02  0.21428881130E+02  0.00000000000E+00 0. -1.
          2    1    1    2  501    0  0.12235752397E+02 -0.16181205634E+02 -0.14608829974E+02  0.24999259303E+02  0.00000000000E+00 0. -1.
          2    1    1    2  502    0 -0.12235752397E+02  0.16181205634E+02  0.61696158344E+02  0.64945831328E+02  0.00000000000E+00 0. -1.
</event>
<event>
 4    1  0.6688462E+003  0.2217558E+02  0.7546771E-02  0.1503118E+00
          2   -1    0    0  502    0  0.00000000000E+00  0.00000000000E+00  0.97514301306E+02  0.97514301306E+02  0.00000000000E+00 0. -1.
          2   -1    0    0  501    0 -0.00000000000E+00 -0.00000000000E+00 -0.16016649183E+04  0.16016649183E+04  0.00000000000E+00 0. -1.
          2    1    1    2  501    0 -0.10989029332E+02 -0.19261298626E+02  0.96175760899E+02  0.98699206557E+02  0.00000000000E+00 0. -1.
          2    1    1    2  502    0  0.10989029332E+02  0.19261298626E+02 -0.16003263779E+04  0.16004800130E+04  0.00000000000E+00 0. -1.
</event>
<event>
 4    1  0.6688462E+003  0.3342594E+02  0.7546771E-02  0.1391980E+00
          2   -1    0    0  502    0  0.00000000000E+00  0.00000000000E+00  0.32706987715E+03  0.32706987715E+03  0.00000000000E+00 0.  1.
          2   -1    0    0  501    0 -0.00000000000E+00 -0.00000000000E+00 -0.23766004341E+02  0.23766004341E+02  0.00000000000E+00 0.  1.
          2    1    1    2  501    0 -0.14909429642E+02  0.29916585492E+02  0.31397395772E+03  0.31574822139E+03  0.00000000000E+00 0.  1.
          2    1    1    2  502    0  0.14909429642E+02 -0.29916585492E+02 -0.10670084913E+02  0.35087660107E+02  0.00000000000E+00 0.  1.
</event>
<event>
 4    1  0.6688462E+003  0.2960363E+02  0.7546771E-02  0.1423073E+00
          2   -1    0    0  501    0  0.00000000000E+00  0.00000000000E+00  0.25947181396E+02  0.25947181396E+02  0.00000000000E+00 0.  1.
          2   -1    0    0  502    0 -0.00000000000E+00 -0.00000000000E+00 -0.26790874733E+03  0.26790874733E+03  0.00000000000E+00 0. -1.
          2    1    1    2  501    0 -0.93001805722E+01  0.28104832162E+02 -0.25833522366E+03  0.26002588858E+03  0.00000000000E+00 0. -1.
          2    1    1    2  502    0  0.93001805722E+01 -0.28104832162E+02  0.16373657718E+02  0.33830040151E+02  0.00000000000E+00 0.  1.
</event>
<event>
 4    1  0.6688462E+003  0.4451144E+02  0.7546771E-02  0.1323901E+00
          2   -1    0    0  502    0  0.00000000000E+00  0.00000000000E+00  0.26964938292E+03  0.26964938292E+03  0.00000000000E+00 0. -1.
          2   -1    0    0  501    0 -0.00000000000E+00 -0.00000000000E+00 -0.67975219764E+03  0.67975219764E+03  0.00000000000E+00 0. -1.
          2    1    1    2  501    0 -0.23360060662E+01  0.44450101801E+02  0.26707684600E+03  0.27076061409E+03  0.00000000000E+00 0. -1.
          2    1    1    2  502    0  0.23360060662E+01 -0.44450101801E+02 -0.67717966073E+03  0.67864096647E+03  0.00000000000E+00 0. -1.
</event>
<event>
 4    1  0.6688462E+003  0.2431957E+02  0.7546771E-02  0.1476561E+00
          2   -1    0    0  501    0  0.00000000000E+00  0.00000000000E+00  0.17125403195E+02  0.17125403195E+02  0.00000000000E+00 0.  1.
          2   -1    0    0  502    0 -0.00000000000E+00 -0.00000000000E+00 -0.15071584449E+03  0.15071584449E+03  0.00000000000E+00 0.  1.
          2    1    1    2  501    0  0.10570623009E+02  0.21902130066E+02 -0.14047610211E+03  0.14256569235E+03  0.00000000000E+00 0.  1.
          2    1    1    2  502    0 -0.10570623009E+02 -0.21902130066E+02  0.68856608186E+01  0.25275555328E+02  0.00000000000E+00 0.  1.
</event>
<event>
 4    1  0.6688462E+003  0.2862671E+02  0.7546771E-02  0.1431918E+00
          2   -1    0    0  501    0  0.00000000000E+00  0.00000000000E+00  0.22229967258E+03  0.22229967258E+03  0.00000000000E+00 0. -1.
          2   -1    0    0  502    0 -0.00000000000E+00 -0.00000000000E+00 -0.11335174446E+02  0.11335174446E+02  0.00000000000E+00 0. -1.
          2    1    1    2  501    0 -0.28214880224E+02 -0.48383175399E+01  0.95225165337E+01  0.30168975850E+02  0.00000000000E+00 0. -1.
          2    1    1    2  502    0  0.28214880224E+02  0.48383175399E+01  0.20144198160E+03  0.20346587117E+03  0.00000000000E+00 0. -1.
</event>
<event>
 4    1  0.6688462E+003  0.2051697E+02  0.7546771E-02  0.1526274E+00
          2   -1    0    0  502    0  0.00000000000E+00  0.00000000000E+00  0.40556532113E+03  0.40556532113E+03  0.00000000000E+00 0. -1.
          2   -1    0    0  501    0 -0.00000000000E+00 -0.00000000000E+00 -0.14395615134E+01  0.14395615134E+01  0.00000000000E+00 0. -1.
          2    1    1    2  501    0 -0.20332060016E+02 -0.27483480246E+01  0.94572026593E+02  0.96771970607E+02  0.00000000000E+00 0. -1.
          2    1    1    2  502    0  0.20332060016E+02  0.27483480246E+01  0.30955373302E+03  0.31023291203E+03  0.00000000000E+00 0. -1.
</event>
<event>
 4    1  0.6688462E+003  0.2624923E+02  0.7546771E-02  0.1455299E+00
          2   -1    0    0  502    0  0.00000000000E+00  0.00000000000E+00  0.60434844034E+01  0.60434844034E+01  0.00000000000E+00 0. -1.
          2   -1    0    0  501    0 -0.00000000000E+00 -0.00000000000E+00 -0.26866723857E+03  0.26866723857E+03  0.00000000000E+00 0.  1.
          2    1    1    2  501    0 -0.17352243848E+02 -0.19695732935E+02 -0.27098776783E+02  0.37727522654E+02  0.00000000000E+00 0. -1.
          2    1    1    2  502    0  0.17352243848E+02  0.19695732935E+02 -0.23552497738E+03  0.23698320032E+03  0.00000000000E+00 0.  1.
</event>
<event>
 4    1  0.6688462E+003  0.2163529E+02  0.7546771E-02  0.1510385E+00
          2   -1    0    0  502    0  0.00000000000E+00  0.00000000000E+00  0.11348528158E+03  0.11348528158E+03  0.00000000000E+00 0. -1.
          2   -1    0    0  501    0 -0.00000000000E+00 -0.00000000000E+00 -0.47544076133E+01  0.47544076133E+01  0.00000000000E+00 0. -1.
          2    1    1    2  501    0  0.22422469388E+01  0.21518781573E+02  0.75882161057E+02  0.78906197465E+02  0.00000000000E+00 0. -1.
          2    1    1    2  502    0 -0.22422469388E+01 -0.21518781573E+02  0.32848712911E+02  0.39333491730E+02  0.00000000000E+00 0. -1.
</event>
<event>
 4    1  0.6688462E+003  0.3271467E+02  0.7546771E-02  0.1397383E+00
          2   -1    0    0  502    0  0.00000000000E+00  0.00000000000E+00  0.16410360589E+04  0.16410360589E+04  0.00000000000E+00 0.  1.
          2   -1    0    0  501    0 -0.00000000000E+00 -0.00000000000E+00 -0.33269605409E+02  0.33269605409E+02  0.00000000000E+00 0. -1.
          2    1    1    2  501    0 -0.28298580849E+02  0.16414621796E+02  0.16327901567E+04  0.16331178602E+04  0.00000000000E+00 0.  1.
          2    1    1    2  502    0  0.28298580849E+02 -0.16414621796E+02 -0.25023703196E+02  0.41187804122E+02  0.00000000000E+00 0. -1.
</event>
<event>
 4    1  0.6688462E+003  0.2840254E+02  0.7546771E-02  0.1434006E+00
          2   -1    0    0  501    0  0.00000000000E+00  0.00000000000E+00  0.31209229118E+03  0.31209229118E+03  0.00000000000E+00 0. -1.
          2   -1    0    0  502    0 -0.00000000000E+00 -0.00000000000E+00 -0.15919890364E+02  0.15919890364E+02  0.00000000000E+00 0. -1.
          2    1    1    2  501    0  0.15376869644E+02 -0.23880036412E+02 -0.20161522478E+01  0.28474007954E+02  0.00000000000E+00 0. -1.
          2    1    1    2  502    0 -0.15376869644E+02  0.23880036412E+02  0.29818855306E+03  0.29953817358E+03  0.00000000000E+00 0. -1.
</event>
<event>
 4    1  0.1332043E+004  0.2982635E+02  0.7546771E-02  0.1421112E+00
          2   -1    0    0  501    0  0.00000000000E+00  0.00000000000E+00  0.58402136853E+03  0.58402136853E+03  0.00000000000E+00 0.  1.
          2   -1    0    0  502    0 -0.00000000000E+00 -0.00000000000E+00 -0.96187690925E+03  0.96187690925E+03  0.00000000000E+00 0.  1.
          2    1    1    2  501    0 -0.96044509363E+01  0.28237661439E+02 -0.96126463658E+03  0.96172725476E+03  0.00000000000E+00 0.  1.
          2    1    1    2  502    0  0.96044509363E+01 -0.28237661439E+02  0.58340909586E+03  0.58417102302E+03  0.00000000000E+00 0.  1.
</event>
<event>
 4    1  0.6688462E+003  0.2115105E+02  0.7546771E-02  0.1517119E+00
          2   -1    0    0  502    0  0.00000000000E+00  0.00000000000E+00  0.58454239535E+02  0.58454239535E+02  0.00000000000E+00 0. -1.
          2   -1    0    0  501    0 -0.00000000000E+00 -0.00000000000E+00 -0.84963405544E+03  0.84963405544E+03  0.00000000000E+00 0. -1.
          2    1    1    2  501    0  0.83053285907E+01  0.19452211572E+02  0.56404656837E+02  0.60239956266E+02  0.00000000000E+00 0. -1.
          2    1    1    2  502    0 -0.83053285907E+01 -0.19452211572E+02 -0.84758447275E+03  0.84784833871E+03  0.00000000000E+00 0. -1.
</event>
<event>
 4    1  0.6688462E+003  0.5250459E+02  0.7546771E-02  0.1287664E+00
          2   -1    0    0  502    0  0.00000000000E+00  0.00000000000E+00  0.37054726647E+02  0.37054726647E+02  0.00000000000E+00 0. -1.
          2   -1    0    0  501    0 -0.00000000000E+00 -0.00000000000E+00 -0.28636762266E+04  0.28636762266E+04  0.00000000000E+00 0.  1.
          2    1    1    2  501    0 -0.51033150559E+02 -0.12342996256E+02  0.18091028823E+02  0.55533929596E+02  0.00000000000E+00 0. -1.
          2    1    1    2  502    0  0.51033150559E+02  0.12342996256E+02 -0.28447125288E+04  0.28451970236E+04  0.00000000000E+00 0.  1.
</event>
<event>
 4    1  0.6688462E+003  0.2075038E+02  0.7546771E-02  0.1522859E+00
          2   -1    0    0  502    0  0.00000000000E+00  0.00000000000E+00  0.23041653296E+02  0.23041653296E+02  0.00000000000E+00 0.  1.
          2   -1    0    0  501    0 -0.00000000000E+00 -0.00000000000E+00 -0.11100297263E+03  0.11100297263E+03  0.00000000000E+00 0.  1.
          2    1    1    2  501    0  0.20635807875E+02  0.21775365847E+01  0.17140368088E+02  0.26914131055E+02  0.00000000000E+00 0.  1.
          2    1    1    2  502    0 -0.20635807875E+02 -0.21775365847E+01 -0.10510168742E+03  0.10713049487E+03  0.00000000000E+00 0.  1.
</event>
<event>
 4    1  0.6688462E+003  0.2797594E+02  0.7546771E-02  0.1438043E+00
          2   -1    0    0  502    0  0.00000000000E+00  0.00000000000E+00  0.69232368034E+02  0.69232368034E+02  0.00000000000E+00 0. -1.
          2   -1    0    0  501    0 -0.00000000000E+00 -0.00000000000E+00 -0.31100985973E+02  0.31100985973E+02  0.00000000000E+00 0. -1.
          2    1    1    2  501    0 -0.26913447037E+01  0.27846185610E+02  0.59089623841E+02  0.65377649353E+02  0.00000000000E+00 0. -1.
          2    1    1    2  502    0  0.26913447037E+01 -0.27846185610E+02 -0.20958241780E+02  0.34955704654E+02  0.00000000000E+00 0. -1.
</event>
<event>
 4    1  0.6688462E+003  0.3988999E+02  0.7546771E-02  0.1349132E+00
          2   -1    0    0  502    0  0.00000000000E+00  0.00000000000E+00  0.20144061070E+04  0.20144061070E+04  0.00000000000E+00 0.  1.
          2   -1    0    0  501    0 -0.00000000000E+00 -0.00000000000E+00 -0.16917935819E+01  0.16917935819E+01  0.00000000000E+00 0.  1.
          2    1    1    2  501    0  0.34130821527E+02  0.20646998728E+02  0.17423638106E+04  0.17428203752E+04  0.00000000000E+00 0.  1.
          2    1    1    2  502    0 -0.34130821527E+02 -0.20646998728E+02  0.27035050282E+03  0.27327752544E+03  0.00000000000E+00 0.  1.
</event>
<event>
 4    1  0.6688462E+003  0.2073110E+02  0.7546771E-02  0.1523139E+00
          2   -1    0    0  501    0  0.00000000000E+00  0.00000000000E+00  0.39749962658E+03  0.39749962658E+03  0.00000000000E+00 0.  1.
          2   -1    0    0  502    0 -0.00000000000E+00 -0.00000000000E+00 -0.15864312318E+02  0.15864312318E+02  0.00000000000E+00 0. -1.
          2    1    1    2  501    0 -0.55194463200E+01 -0.19982843530E+02 -0.86970155942E+01  0.22481468001E+02  0.00000000000E+00 0. -1.
          2    1    1    2  502    0  0.55194463200E+01  0.19982843530E+02  0.39033232985E+03  0.39088247089E+03  0.00000000000E+00 0.  1.
</event>
<event>
 4    1  0.6688462E+003  0.2284740E+02  0.7546771E-02  0.1494423E+00
          2   -1    0    0  501    0  0.00000000000E+00  0.00000000000E+00  0.30574461085E+03  0.30574461085E+03  0.00000000000E+00 0. -1.
          2   -1    0    0  502    0 -0.00000000000E+00 -0.00000000000E+00 -0.22031541080E+01  0.22031541080E+01  0.00000000000E+00 0. -1.
          2    1    1    2  501    0 -0.20156818537E+02  0.10756690221E+02  0.78725295612E+02  0.81973629219E+02  0.00000000000E+00 0. -1.
          2    1    1    2  502    0  0.20156818537E+02 -0.10756690221E+02  0.22481616113E+03  0.22597413574E+03  0.00000000000E+00 0. -1.
</event>
<event>
 4    1  0.6688462E+003  0.2500343E+02  0.7546771E-02  0.1468765E+00
          2   -1    0    0  502    0  0.00000000000E+00  0.00000000000E+00  0.92461415301E+02  0.92461415301E+02  0.00000000000E+00 0.  1.
          2   -1    0    0  501    0 -0.00000000000E+00 -0.00000000000E+00 -0.36180454942E+02  0.36180454942E+02  0.00000000000E+00 0.  1.
          2    1    1    2  501    0  0.19350389948E+02 -0.15834581889E+02  0.86140676055E+02  0.89696084898E+02  0.00000000000E+00 0.  1.
          2    1    1    2  502    0 -0.19350389948E+02  0.15834581889E+02 -0.29859715696E+02  0.38945785345E+02  0.00000000000E+00 0.  1.
</event>
<event>
 4    1  0.6688462E+003  0.2904320E+02  0.7546771E-02  0.1428097E+00
          2   -1    0    0  501    0  0.00000000000E+00  0.00000000000E+00  0.25663939397E+04  0.25663939397E+04  0.00000000000E+00 0.  1.
          2   -1    0    0  502    0 -0.00000000000E+00 -0.00000000000E+00 -0.32987882413E+00  0.32987882413E+00  0.00000000000E+00 0.  1.
          2    1    1    2  501    0  0.28465981630E+02  0.57615600668E+01  0.12054818191E+04  0.12058316317E+04  0.00000000000E+00 0.  1.
          2    1    1    2  502    0 -0.28465981630E+02 -0.57615600668E+01  0.13605822418E+04  0.13608921869E+04  0.00000000000E+00 0.  1.
</event>
<event>
 4    1  0.6688462E+003  0.2832611E+02  0.7546771E-02  0.1434723E+00
          2   -1    0    0  502    0  0.00000000000E+00  0.00000000000E+00  0.63724362913E+02  0.63724362913E+02  0.00000000000E+00 0.  1.
          2   -1    0    0  501    0 -0.00000000000E+00 -0.00000000000E+00 -0.10837266439E+03  0.10837266439E+03  0.00000000000E+00 0. -1.
          2    1    1    2  501    0 -0.26258132330E+02  0.10624459418E+02  0.58571308838E+02  0.65061254755E+02  0.00000000000E+00 0.  1.
          2    1    1    2  502    0  0.26258132330E+02 -0.10624459418E+02 -0.10321961031E+03  0.10703577254E+03  0.00000000000E+00 0. -1.
</event>
<event>
 4    1  0.6688462E+003  0.3073797E+02  0.7546771E-02  0.1413290E+00
          2   -1    0    0  501    0  0.00000000000E+00  0.00000000000E+00  0.53001185738E+01  0.53001185738E+01  0.00000000000E+00 0. -1.
          2   -1    0    0  502    0 -0.00000000000E+00 -0.00000000000E+00 -0.82540940422E+03  0.82540940422E+03  0.00000000000E+00 0. -1.
          2    1    1    2  501    0  0.24958852217E+02  0.17940972435E+02 -0.77783223658E+03  0.77843934321E+03  0.00000000000E+00 0. -1.
          2    1    1    2  502    0 -0.24958852217E+02 -0.17940972435E+02 -0.42277049067E+02  0.52270179583E+02  0.00000000000E+00 0. -1.
</event>
<event>
 4    1  0.6688462E+003  0.5254811E+02  0.7546771E-02  0.1287487E+00
          2   -1    0    0  501    0  0.00000000000E+00  0.00000000000E+00  0.25592393252E+04  0.25592393252E+04  0.00000000000E+00 0.  1.
          2   -1    0    0  502    0 -0.00000000000E+00 -0.00000000000E+00 -0.10179266232E+02  0.10179266232E+02  0.00000000000E+00 0. -1.
          2    1    1    2  501    0 -0.16359139191E+02 -0.49936781457E+02  0.59814014701E+02  0.79617962370E+02  0.00000000000E+00 0. -1.
          2    1    1    2  502    0  0.16359139191E+02  0.49936781457E+02  0.24892460443E+04  0.24898006291E+04  0.00000000000E+00 0.  1.
</event>
<event>
 4    1  0.6688462E+003  0.2053712E+02  0.7546771E-02  0.1525977E+00
          2   -1    0    0  502    0  0.00000000000E+00  0.00000000000E+00  0.10844699987E+02  0.10844699987E+02  0.00000000000E+00 0. -1.
          2   -1    0    0  501    0 -0.00000000000E+00 -0.00000000000E+00 -0.18430210718E+03  0.18430210718E+03  0.00000000000E+00 0. -1.
          2    1    1    2  501    0  0.13731872989E+02 -0.15271182825E+02 -0.59775782349E-01  0.20537208520E+02  0.00000000000E+00 0. -1.
          2    1    1    2  502    0 -0.13731872989E+02  0.15271182825E+02 -0.17339763141E+03  0.17460959864E+03  0.00000000000E+00 0. -1.
</event>
<event>
 4    1  0.6688462E+003  0.2979510E+02  0.7546771E-02  0.1421386E+00
          2   -1    0    0  501    0  0.00000000000E+00  0.00000000000E+00  0.57719918382E+02  0.57719918382E+02  0.00000000000E+00 0.  1.
          2   -1    0    0  502    0 -0.00000000000E+00 -0.00000000000E+00 -0.16688997404E+02  0.16688997404E+02  0.00000000000E+00 0.  1.
          2    1    1    2  501    0  0.21777024376E+02  0.20334922095E+02  0.30933948364E+02  0.42949470411E+02  0.00000000000E+00 0.  1.
          2    1    1    2  502    0 -0.21777024376E+02 -0.20334922095E+02  0.10096972615E+02  0.31459445374E+02  0.00000000000E+00 0.  1.
</event>
<event>
 4    1  0.6688462E+003  0.2044500E+02  0.7546771E-02  0.1527338E+00
          2   -1    0    0  502    0  0.00000000000E+00  0.00000000000E+00  0.11842339937E+04  0.11842339937E+04  0.00000000000E+00 0. -1.
          2   -1    0    0  501    0 -0.00000000000E+00 -0.00000000000E+00 -0.21088134765E+02  0.21088134765E+02  0.00000000000E+00 0. -1.
          2    1    1    2  501    0 -0.81385630853E+01 -0.18755318888E+02  0.11791690963E+04  0.11793463257E+04  0.00000000000E+00 0. -1.
          2    1    1    2  502    0  0.81385630853E+01  0.18755318888E+02 -0.16023237361E+02  0.25975802802E+02  0.00000000000E+00 0. -1.
</event>
<event>
 4    1  0.6688462E+003  0.4301075E+02  0.7546771E-02  0.1331692E+00
          2   -1    0    0  502    0  0.00000000000E+00  0.00000000000E+00  0.49254273157E+03  0.49254273157E+03  0.00000000000E+00 0.  1.
          2   -1    0    0  501    0 -0.00000000000E+00 -0.00000000000E+00 -0.10463082421E+04  0.10463082421E+04  0.00000000000E+00 0. -1.
          2    1    1    2  501    0 -0.42932890956E+02 -0.25868511362E+01  0.49116051091E+03  0.49304013265E+03  0.00000000000E+00 0.  1.
          2    1    1    2  502    0  0.42932890956E+02  0.25868511362E+01 -0.10449260215E+04  0.10458108410E+04  0.00000000000E+00 0. -1.
</event>
<event>
 4    1  0.6688462E+003  0.2491160E+02  0.7546771E-02  0.1469795E+00
          2   -1    0    0  501    0  0.00000000000E+00  0.00000000000E+00  0.26503446154E+02  0.26503446154E+02  0.00000000000E+00 0.  1.
          2   -1    0    0  502    0 -0.00000000000E+00 -0.00000000000E+00 -0.24624398258E+02  0.24624398258E+02  0.00000000000E+00 0.  1.
          2    1    1    2  501    0 -0.17711693597E+02  0.17518100029E+02 -0.47250002573E+01  0.25355739905E+02  0.00000000000E+00 0.  1.
          2    1    1    2  502    0  0.17711693597E+02 -0.17518100029E+02  0.66040481534E+01  0.25772104507E+02  0.00000000000E+00 0.  1.
</event>
<event>
 4    1  0.6688462E+003  0.2376469E+02  0.7546771E-02  0.1483113E+00
          2   -1    0    0  501    0  0.00000000000E+00  0.00000000000E+00  0.17011522381E+03  0.17011522381E+03  0.00000000000E+00 0.  1.
          2   -1    0    0  502    0 -0.00000000000E+00 -0.00000000000E+00 -0.26914754147E+03  0.26914754147E+03  0.00000000000E+00 0.  1.
          2    1    1    2  501    0 -0.23011143554E+02 -0.59370002762E+01 -0.26778878778E+03  0.26884120882E+03  0.00000000000E+00 0.  1.
          2    1    1    2  502    0  0.23011143554E+02  0.59370002762E+01  0.16875647012E+03  0.17042155646E+03  0.00000000000E+00 0.  1.
</event>
<event>
 4    1  0.6688462E+003  0.2264063E+02  0.7546771E-02  0.1497061E+00
          2   -1    0    0  502    0  0.00000000000E+00  0.00000000000E+00  0.13647485435E+04  0.13647485435E+04  0.00000000000E+00 0.  1.
          2   -1    0    0  501    0 -0.00000000000E+00 -0.00000000000E+00 -0.34057634996E+01  0.34057634996E+01  0.00000000000E+00 0. -1.
          2    1    1    2  501    0 -0.56974996854E+01 -0.21912018069E+02  0.13259257588E+04  0.13261190429E+04  0.00000000000E+00 0.  1.
          2    1    1    2  502    0  0.56974996854E+01  0.21912018069E+02  0.35417021170E+02  0.42035264089E+02  0.00000000000E+00 0. -1.
</event>
<event>
 4    1  0.6688462E+003  0.3181553E+02  0.7546771E-02  0.1404449E+00
          2   -1    0    0  502    0  0.00000000000E+00  0.00000000000E+00  0.90808494359E+03  0.90808494359E+03  0.00000000000E+00 0. -1.
          2   -1    0    0  501    0 -0.00000000000E+00 -0.00000000000E+00 -0.64973310292E+01  0.64973310292E+01  0.00000000000E+00 0.  1.
          2    1    1    2  501    0  0.28722329210E+02 -0.13684147874E+02  0.86701407294E+03  0.86759762032E+03  0.00000000000E+00 0. -1.
          2    1    1    2  502    0 -0.28722329210E+02  0.13684147874E+02  0.34573539621E+02  0.46984654306E+02  0.00000000000E+00 0.  1.
</event>
<event>
 4    1  0.7118140E+003  0.2393591E+02  0.7546771E-02  0.1481069E+00
          2   -1    0    0  502    0  0.00000000000E+00  0.00000000000E+00  0.12652913843E+04  0.12652913843E+04  0.00000000000E+00 0.  1.
          2   -1    0    0  501    0 -0.00000000000E+00 -0.00000000000E+00 -0.22721306642E+03  0.22721306642E+03  0.00000000000E+00 0. -1.
          2    1    1    2  501    0  0.14486092442E+02 -0.19054687718E+02  0.12645474264E+04  0.12647739409E+04  0.00000000000E+00 0.  1.
          2    1    1    2  502    0 -0.14486092442E+02  0.19054687718E+02 -0.22646910850E+03  0.22773050983E+03  0.00000000000E+00 0. -1.
</event>
<event>
 4    1  0.6688462E+003  0.2953454E+02  0.7546771E-02  0.1423685E+00
          2   -1    0    0  501    0  0.00000000000E+00  0.00000000000E+00  0.22461087492E+03  0.22461087492E+03  0.00000000000E+00 0. -1.
          2   -1    0    0  502    0 -0.00000000000E+00 -0.00000000000E+00 -0.44114713918E+01  0.44114713918E+01  0.00000000000E+00 0. -1.
          2    1    1    2  501    0 -0.16503042391E+02 -0.24493648185E+02  0.70486700687E+02  0.76424238193E+02  0.00000000000E+00 0. -1.
          2    1    1    2  502    0  0.16503042391E+02  0.24493648185E+02  0.14971270284E+03  0.15259810812E+03  0.00000000000E+00 0. -1.
</event>
<event>
 4    1  0.6688462E+003  0.3971374E+02  0.7546771E-02  0.1350171E+00
          2   -1    0    0  502    0  0.00000000000E+00  0.00000000000E+00  0.10384028539E+04  0.10384028539E+04  0.00000000000E+00 0. -1.
          2   -1    0    0  501    0 -0.00000000000E+00 -0.00000000000E+00 -0.32895968152E+03  0.32895968152E+03  0.00000000000E+00 0. -1.
          2    1    1    2  501    0  0.39667796474E+02  0.19096854566E+01  0.10368227020E+04  0.10375830070E+04  0.00000000000E+00 0. -1.
          2    1    1    2  502    0 -0.39667796474E+02 -0.19096854566E+01 -0.32737952961E+03  0.32977952845E+03  0.00000000000E+00 0. -1.
</event>
<event>
 4    1  0.6688462E+003  0.2502985E+02  0.7546771E-02  0.1468470E+00
          2   -1    0    0  502    0  0.00000000000E+00  0.00000000000E+00  0.45573772192E+03  0.45573772192E+03  0.00000000000E+00 0.  1.
          2   -1    0    0  501    0 -0.00000000000E+00 -0.00000000000E+00 -0.31788658886E+01  0.31788658886E+01  0.00000000000E+00 0. -1.
          2    1    1    2  501    0 -0.11852991799E+02 -0.22045411178E+02  0.39914491268E+03  0.39992893730E+03  0.00000000000E+00 0.  1.
          2    1    1    2  502    0  0.11852991799E+02  0.22045411178E+02  0.53413943347E+02  0.58987650508E+02  0.00000000000E+00 0. -1.
</event>
<event>
 4    1  0.6688462E+003  0.2626268E+02  0.7546771E-02  0.1455159E+00
          2   -1    0    0  502    0  0.00000000000E+00  0.00000000000E+00  0.21672479203E+04  0.21672479203E+04  0.00000000000E+00 0. -1.
          2   -1    0    0  501    0 -0.00000000000E+00 -0.00000000000E+00 -0.33468367125E+00  0.33468367125E+00  0.00000000000E+00 0. -1.
          2    1    1    2  501    0  0.19098586955E+02  0.18026984691E+02  0.13236086391E+04  0.13238691619E+04  0.00000000000E+00 0. -1.
          2    1    1    2  502    0 -0.19098586955E+02 -0.18026984691E+02  0.84330459746E+03  0.84371344205E+03  0.00000000000E+00 0. -1.
</event>
<event>
 4    1  0.6688462E+003  0.2057595E+02  0.7546771E-02  0.1525406E+00
          2   -1    0    0  501    0  0.00000000000E+00  0.00000000000E+00  0.17909522748E+03  0.17909522748E+03  0.00000000000E+00 0.  1.
          2   -1    0    0  502    0 -0.00000000000E+00 -0.00000000000E+00 -0.30966491991E+03  0.30966491991E+03  0.00000000000E+00 0. -1.
          2    1    1    2  501    0 -0.19864906724E+02  0.53623755398E+01 -0.30873035245E+03  0.30941525515E+03  0.00000000000E+00 0. -1.
          2    1    1    2  502    0  0.19864906724E+02 -0.53623755398E+01  0.17816066003E+03  0.17934489224E+03  0.00000000000E+00 0.  1.
</event>
<event>
 4    1  0.6688462E+003  0.3398407E+02  0.7546771E-02  0.1387850E+00
          2   -1    0    0  501    0  0.00000000000E+00  0.00000000000E+00  0.71718043505E+03  0.71718043505E+03  0.00000000000E+00 0.  1.
          2   -1    0    0  502    0 -0.00000000000E+00 -0.00000000000E+00 -0.47975381547E+02  0.47975381547E+02  0.00000000000E+00 0.  1.
          2    1    1    2  501    0  0.29957311512E+02 -0.16046073807E+02 -0.41499707776E+02  0.53639003935E+02  0.00000000000E+00 0.  1.
          2    1    1    2  502    0 -0.29957311512E+02  0.16046073807E+02  0.71070476128E+03  0.71151681266E+03  0.00000000000E+00 0.  1.
</event>
<event>
 4    1  0.6688462E+003  0.4196609E+02  0.7546771E-02  0.1337334E+00
          2   -1    0    0  502    0  0.00000000000E+00  0.00000000000E+00  0.32725888384E+03  0.32725888384E+03  0.00000000000E+00 0. -1.
          2   -1    0    0  501    0 -0.00000000000E+00 -0.00000000000E+00 -0.12299587226E+03  0.12299587226E+03  0.00000000000E+00 0. -1.
          2    1    1    2  501    0  0.17893033371E+02 -0.37960397710E+02  0.32227871944E+03  0.32499957760E+03  0.00000000000E+00 0. -1.
          2    1    1    2  502    0 -0.17893033371E+02  0.37960397710E+02 -0.11801570786E+03  0.12525517849E+03  0.00000000000E+00 0. -1.
</event>
<event>
 4    1  0.6688462E+003  0.2135481E+02  0.7546771E-02  0.1514259E+00
          2   -1    0    0  502    0  0.00000000000E+00  0.00000000000E+00  0.13216247881E+04  0.13216247881E+04  0.00000000000E+00 0. -1.
          2   -1    0    0  501    0 -0.00000000000E+00 -0.00000000000E+00 -0.17845192520E+02  0.17845192520E+02  0.00000000000E+00 0.  1.
          2    1    1    2  501    0  0.17087025934E+02  0.12808651118E+02  0.13151182521E+04  0.13152916198E+04  0.00000000000E+00 0. -1.
          2    1    1    2  502    0 -0.17087025934E+02 -0.12808651118E+02 -0.11338656570E+02  0.24178360811E+02  0.00000000000E+00 0.  1.
</event>
<event>
 4    1  0.6688462E+003  0.2249606E+02  0.7546771E-02  0.1498925E+00
          2   -1    0    0  501    0  0.00000000000E+00  0.00000000000E+00  0.74291493253E+03  0.74291493253E+03  0.00000000000E+00 0. -1.
          2   -1    0    0  502    0 -0.00000000000E+00 -0.00000000000E+00 -0.58348919275E+02  0.58348919275E+02  0.00000000000E+00 0.  1.
          2    1    1    2  501    0  0.84086614633E+01 -0.20865454862E+02 -0.56003449817E+02  0.60352789377E+02  0.00000000000E+00 0.  1.
          2    1    1    2  502    0 -0.84086614633E+01  0.20865454862E+02  0.74056946307E+03  0.74091106243E+03  0.00000000000E+00 0. -1.
</event>
<event>
 4    1  0.6688462E+003  0.2203998E+02  0.7546771E-02  0.1504918E+00
          2   -1    0    0  501    0  0.00000000000E+00  0.00000000000E+00  0.46674497614E+02  0.46674497614E+02  0.00000000000E+00 0. -1.
          2   -1    0    0  502    0 -0.00000000000E+00 -0.00000000000E+00 -0.17075905151E+03  0.17075905151E+03  0.00000000000E+00 0. -1.
          2    1    1    2  501    0 -0.50553985478E+01 -0.21452354125E+02 -0.16739394098E+03  0.16883865679E+03  0.00000000000E+00 0. -1.
          2    1    1    2  502    0  0.50553985478E+01  0.21452354125E+02  0.43309387078E+02  0.48594892335E+02  0.00000000000E+00 0. -1.
</event>
<event>
 4    1  0.6688462E+003  0.2151786E+02  0.7546771E-02  0.1511998E+00
          2   -1    0    0  501    0  0.00000000000E+00  0.00000000000E+00  0.50588809994E+03  0.50588809994E+03  0.00000000000E+00 0.  1.
          2   -1    0    0  502    0 -0.00000000000E+00 -0.00000000000E+00 -0.46602704933E+03  0.46602704933E+03  0.00000000000E+00 0. -1.
          2    1    1    2  501    0 -0.21385900266E+02  0.23793858549E+01 -0.46554961435E+03  0.46604663032E+03  0.00000000000E+00 0. -1.
          2    1    1    2  502    0  0.21385900266E+02 -0.23793858549E+01  0.50541066497E+03  0.50586851895E+03  0.00000000000E+00 0.  1.
</event>
<event>
 4    1  0.6688462E+003  0.2543669E+02  0.7546771E-02  0.1463977E+00
          2   -1    0    0  502    0  0.00000000000E+00  0.00000000000E+00  0.11778683631E+02  0.11778683631E+02  0.00000000000E+00 0. -1.
          2   -1    0    0  501    0 -0.00000000000E+00 -0.00000000000E+00 -0.27112746375E+03  0.27112746375E+03  0.00000000000E+00 0. -1.
          2    1    1    2  501    0 -0.26274601454E+01 -0.25300625937E+02 -0.33611010544E+01  0.25657790628E+02  0.00000000000E+00 0. -1.
          2    1    1    2  502    0  0.26274601454E+01  0.25300625937E+02 -0.25598767906E+03  0.25724835675E+03  0.00000000000E+00 0. -1.
</event>
<event>
 4    1  0.6688462E+003  0.2205278E+02  0.7546771E-02  0.1504748E+00
          2   -1    0    0  501    0  0.00000000000E+00  0.00000000000E+00  0.15704103018E+03  0.15704103018E+03  0.00000000000E+00 0.  1.
          2   -1    0    0  502    0 -0.00000000000E+00 -0.00000000000E+00 -0.31300017556E+03  0.31300017556E+03  0.00000000000E+00 0. -1.
          2    1    1    2  501    0 -0.18710997619E+02  0.11671488936E+02 -0.31183464646E+03  0.31261345431E+03  0.00000000000E+00 0. -1.
          2    1    1    2  502    0  0.18710997619E+02 -0.11671488936E+02  0.15587550108E+03  0.15742775144E+03  0.00000000000E+00 0.  1.
</event>
<event>
 4    1  0.6688462E+003  0.5378474E+02  0.7546771E-02  0.1282547E+00
          2   -1    0    0  502    0  0.00000000000E+00  0.00000000000E+00  0.77925020353E+02  0.77925020353E+02  0.00000000000E+00 0.  1.
          2   -1    0    0  501    0 -0.00000000000E+00 -0.00000000000E+00 -0.10630202361E+03  0.10630202361E+03  0.00000000000E+00 0.  1.
          2    1    1    2  501    0 -0.53744981298E+02  0.20675679540E+01  0.60120315261E+02  0.80667528529E+02  0.00000000000E+00 0.  1.
          2    1    1    2  502    0  0.53744981298E+02 -0.20675679540E+01 -0.88497318520E+02  0.10355951544E+03  0.00000000000E+00 0.  1.
</event>
<event>
 4    1  0.6688462E+003  0.3148883E+02  0.7546771E-02  0.1407085E+00
          2   -1    0    0  501    0  0.00000000000E+00  0.00000000000E+00  0.10967588723E+04  0.10967588723E+04  0.00000000000E+00 0. -1.
          2   -1    0    0  502    0 -0.00000000000E+00 -0.00000000000E+00 -0.29572126890E+01  0.29572126890E+01  0.00000000000E+00 0.  1.
          2    1    1    2  501    0 -0.28560329901E+02 -0.13261004296E+02  0.88739027355E+02  0.94160297658E+02  0.00000000000E+00 0.  1.
          2    1    1    2  502    0  0.28560329901E+02  0.13261004296E+02  0.10050626322E+04  0.10055557873E+04  0.00000000000E+00 0. -1.
</event>
<event>
 4    1  0.6688462E+003  0.2327074E+02  0.7546771E-02  0.1489126E+00
          2   -1    0    0  501    0  0.00000000000E+00  0.00000000000E+00  0.44750408321E+01  0.44750408321E+01  0.00000000000E+00 0.  1.
          2   -1    0    0  502    0 -0.00000000000E+00 -0.00000000000E+00 -0.54259587845E+03  0.54259587845E+03  0.00000000000E+00 0.  1.
          2    1    1    2  501    0  0.22219942417E+01  0.23164409800E+02 -0.51017203512E+03  0.51070248928E+03  0.00000000000E+00 0.  1.
          2    1    1    2  502    0 -0.22219942417E+01 -0.23164409800E+02 -0.27948802507E+02  0.36368430010E+02  0.00000000000E+00 0.  1.
</event>
<event>
 4    1  0.6688462E+003  0.5571754E+02  0.7546771E-02  0.1275121E+00
          2   -1    0    0  502    0  0.00000000000E+00  0.00000000000E+00  0.10291755901E+03  0.10291755901E+03  0.00000000000E+00 0. -1.
          2   -1    0    0  501    0 -0.00000000000E+00 -0.00000000000E+00 -0.28304080124E+03  0.28304080124E+03  0.00000000000E+00 0. -1.
          2    1    1    2  501    0  0.59543193764E+01 -0.55398473248E+02  0.92344790365E+02  0.10785177358E+03  0.00000000000E+00 0. -1.
          2    1    1    2  502    0 -0.59543193764E+01  0.55398473248E+02 -0.27246803260E+03  0.27810658666E+03  0.00000000000E+00 0. -1.
</event>
<event>
 4    1  0.6688462E+003  0.2164937E+02  0.7546771E-02  0.1510192E+00
          2   -1    0    0  501    0  0.00000000000E+00  0.00000000000E+00  0.48952069671E+00  0.48952069671E+00  0.00000000000E+00 0. -1.
          2   -1    0    0  502    0 -0.00000000000E+00 -0.00000000000E+00 -0.13004746797E+04  0.13004746797E+04  0.00000000000E+00 0. -1.
          2    1    1    2  501    0 -0.51262320262E+01 -0.21033713578E+02 -0.98406621830E+03  0.98430433168E+03  0.00000000000E+00 0. -1.
          2    1    1    2  502    0  0.51262320262E+01  0.21033713578E+02 -0.31591894074E+03  0.31665986876E+03  0.00000000000E+00 0. -1.
</event>
<event>
 4    1  0.6688462E+003  0.2319308E+02  0.7546771E-02  0.1490088E+00
          2   -1    0    0  501    0  0.00000000000E+00  0.00000000000E+00  0.45596707332E+03  0.45596707332E+03  0.00000000000E+00 0.  1.
          2   -1    0    0  502    0 -0.00000000000E+00 -0.00000000000E+00 -0.57924157487E+03  0.57924157487E+03  0.00000000000E+00 0. -1.
          2    1    1    2  501    0  0.42692907081E+01 -0.22796760940E+02 -0.57871420781E+03  0.57917877505E+03  0.00000000000E+00 0. -1.
          2    1    1    2  502    0 -0.42692907081E+01  0.22796760940E+02  0.45543970626E+03  0.45602987313E+03  0.00000000000E+00 0.  1.
</event>
<event>
 4    1  0.6688462E+003  0.2176081E+02  0.7546771E-02  0.1508674E+00
          2   -1    0    0  501    0  0.00000000000E+00  0.00000000000E+00  0.59332043213E+00  0.59332043213E+00  0.00000000000E+00 0. -1.
          2   -1    0    0  502    0 -0.00000000000E+00 -0.00000000000E+00 -0.91614932469E+03  0.91614932469E+03  0.00000000000E+00 0. -1.
          2    1    1    2  501    0 -0.82583061830E+01  0.20132886856E+02 -0.62231157721E+03  0.62269192373E+03  0.00000000000E+00 0. -1.
          2    1    1    2  502    0  0.82583061830E+01 -0.20132886856E+02 -0.29324442705E+03  0.29405072139E+03  0.00000000000E+00 0. -1.
</event>
<event>
 4    1  0.6688462E+003  0.4641743E+02  0.7546771E-02  0.1314500E+00
          2   -1    0    0  502    0  0.00000000000E+00  0.00000000000E+00  0.17661636203E+04  0.17661636203E+04  0.00000000000E+00 0. -1.
          2   -1    0    0  501    0 -0.00000000000E+00 -0.00000000000E+00 -0.50768444338E+03  0.50768444338E+03  0.00000000000E+00 0.  1.
          2    1    1    2  501    0  0.26687653773E+02  0.37978241489E+02  0.17647968361E+04  0.17654071627E+04  0.00000000000E+00 0. -1.
          2    1    1    2  502    0 -0.26687653773E+02 -0.37978241489E+02 -0.50631765919E+03  0.50844090089E+03  0.00000000000E+00 0.  1.
</event>
<event>
 4    1  0.6688462E+003  0.3476886E+02  0.7546771E-02  0.1382195E+00
          2   -1    0    0  502    0  0.00000000000E+00  0.00000000000E+00  0.87963089302E+01  0.87963089302E+01  0.00000000000E+00 0. -1.
          2   -1    0    0  501    0 -0.00000000000E+00 -0.00000000000E+00 -0.45838978155E+03  0.45838978155E+03  0.00000000000E+00 0. -1.
          2    1    1    2  501    0  0.15926351898E+02 -0.30906716411E+02 -0.29332198049E+02  0.45489027759E+02  0.00000000000E+00 0. -1.
          2    1    1    2  502    0 -0.15926351898E+02  0.30906716411E+02 -0.42026127457E+03  0.42169706272E+03  0.00000000000E+00 0. -1.
</event>
<event>
 4    1  0.6688462E+003  0.2641911E+02  0.7546771E-02  0.1453532E+00
          2   -1    0    0  501    0  0.00000000000E+00  0.00000000000E+00  0.44365979088E+01  0.44365979088E+01  0.00000000000E+00 0.  1.
          2   -1    0    0  502    0 -0.00000000000E+00 -0.00000000000E+00 -0.14824318397E+04  0.14824318397E+04  0.00000000000E+00 0. -1.
          2    1    1    2  501    0  0.87200734768E+01  0.24938517632E+02 -0.14418778187E+04  0.14421198332E+04  0.00000000000E+00 0. -1.
          2    1    1    2  502    0 -0.87200734768E+01 -0.24938517632E+02 -0.36117423105E+02  0.44748604390E+02  0.00000000000E+00 0.  1.
</event>
<event>
 4    1  0.6688462E+003  0.2541353E+02  0.7546771E-02  0.1464230E+00
          2   -1    0    0  501    0  0.00000000000E+00  0.00000000000E+00  0.17104611608E+02  0.17104611608E+02  0.00000000000E+00 0.  1.
          2   -1    0    0  502    0 -0.00000000000E+00 -0.00000000000E+00 -0.56819068682E+03  0.56819068682E+03  0.00000000000E+00 0.  1.
          2    1    1    2  501    0  0.11549722060E+02  0.22637388145E+02 -0.55829970124E+03  0.55887780759E+03  0.00000000000E+00 0.  1.
          2    1    1    2  502    0 -0.11549722060E+02 -0.22637388145E+02  0.72136260207E+01  0.26417490836E+02  0.00000000000E+00 0.  1.
</event>
<event>
 4    1  0.6688462E+003  0.2100874E+02  0.7546771E-02  0.1519140E+00
          2   -1    0    0  502    0  0.00000000000E+00  0.00000000000E+00  0.48891504172E+01  0.48891504172E+01  0.00000000000E+00 0. -1.
          2   -1    0    0  501    0 -0.00000000000E+00 -0.00000000000E+00 -0.15876036248E+03  0.15876036248E+03  0.00000000000E+00 0. -1.
          2    1    1    2  501    0  0.38901252311E+01  0.20645436007E+02 -0.23193686176E+02  0.31293995921E+02  0.00000000000E+00 0. -1.
          2    1    1    2  502    0 -0.38901252311E+01 -0.20645436007E+02 -0.13067752589E+03  0.13235551697E+03  0.00000000000E+00 0. -1.
</event>
<event>
 4    1  0.6688462E+003  0.3708192E+02  0.7546771E-02  0.1366490E+00
          2   -1    0    0  501    0  0.00000000000E+00  0.00000000000E+00  0.33410288174E+03  0.33410288174E+03  0.00000000000E+00 0.  1.
          2   -1    0    0  502    0 -0.00000000000E+00 -0.00000000000E+00 -0.16347764880E+03  0.16347764880E+03  0.00000000000E+00 0.  1.
          2    1    1    2  501    0 -0.20134956481E+02 -0.31139240035E+02 -0.16032592022E+03  0.16455840737E+03  0.00000000000E+00 0.  1.
          2    1    1    2  502    0  0.20134956481E+02  0.31139240035E+02  0.33095115316E+03  0.33302212317E+03  0.00000000000E+00 0.  1.
</event>
<event>
 4    1  0.6688462E+003  0.2182184E+02  0.7546771E-02  0.1507847E+00
          2   -1    0    0  501    0  0.00000000000E+00  0.00000000000E+00  0.97431816396E+02  0.97431816396E+02  0.00000000000E+00 0. -1.
          2   -1    0    0  502    0 -0.00000000000E+00 -0.00000000000E+00 -0.18371473916E+02  0.18371473916E+02  0.00000000000E+00 0.  1.
          2    1    1    2  501    0  0.40334703828E+01 -0.21445835221E+02 -0.10075202528E+02  0.24035441282E+02  0.00000000000E+00 0.  1.
          2    1    1    2  502    0 -0.40334703828E+01  0.21445835221E+02  0.89135545008E+02  0.91767849030E+02  0.00000000000E+00 0. -1.
</event>
<event>
 4    1  0.6688462E+003  0.2371191E+02  0.7546771E-02  0.1483747E+00
          2   -1    0    0  502    0  0.00000000000E+00  0.00000000000E+00  0.27645238465E+01  0.27645238465E+01  0.00000000000E+00 0. -1.
          2   -1    0    0  501    0 -0.00000000000E+00 -0.00000000000E+00 -0.75515709322E+03  0.75515709322E+03  0.00000000000E+00 0. -1.
          2    1    1    2  501    0  0.21633755606E+02 -0.97074829297E+01 -0.52262190029E+02  0.57389817155E+02  0.00000000000E+00 0. -1.
          2    1    1    2  502    0 -0.21633755606E+02  0.97074829297E+01 -0.70013037934E+03  0.70053179991E+03  0.00000000000E+00 0. -1.
</event>
<event>
 4    1  0.6688462E+003  0.2141993E+02  0.7546771E-02  0.1513353E+00
          2   -1    0    0  501    0  0.00000000000E+00  0.00000000000E+00  0.40792197917E+02  0.40792197917E+02  0.00000000000E+00 0.  1.
          2   -1    0    0  502    0 -0.00000000000E+00 -0.00000000000E+00 -0.69735013966E+02  0.69735013966E+02  0.00000000000E+00 0. -1.
          2    1    1    2  501    0  0.20716656931E+02 -0.54436604729E+01 -0.65082426247E+02  0.68516680596E+02  0.00000000000E+00 0. -1.
          2    1    1    2  502    0 -0.20716656931E+02  0.54436604729E+01  0.36139610198E+02  0.42010531287E+02  0.00000000000E+00 0.  1.
</event>
<event>
 4    1  0.6688462E+003  0.2127888E+02  0.7546771E-02  0.1515320E+00
          2   -1    0    0  502    0  0.00000000000E+00  0.00000000000E+00  0.18570990865E+03  0.18570990865E+03  0.00000000000E+00 0. -1.
          2   -1    0    0  501    0 -0.00000000000E+00 -0.00000000000E+00 -0.17304343691E+02  0.17304343691E+02  0.00000000000E+00 0. -1.
          2    1    1    2  501    0 -0.48823962961E+01  0.20711175105E+02  0.17828741782E+03  0.17955276083E+03  0.00000000000E+00 0. -1.
          2    1    1    2  502    0  0.48823962961E+01 -0.20711175105E+02 -0.98818528647E+01  0.23461491510E+02  0.00000000000E+00 0. -1.
</event>
<event>
 4    1  0.6688462E+003  0.2430878E+02  0.7546771E-02  0.1476687E+00
          2   -1    0    0  502    0  0.00000000000E+00  0.00000000000E+00  0.80354594401E+01  0.80354594401E+01  0.00000000000E+00 0. -1.
          2   -1    0    0  501    0 -0.00000000000E+00 -0.00000000000E+00 -0.98336212094E+03  0.98336212094E+03  0.00000000000E+00 0.  1.
          2    1    1    2  501    0 -0.85713479260E+01 -0.22747499603E+02 -0.10859547950E+02  0.26624171821E+02  0.00000000000E+00 0. -1.
          2    1    1    2  502    0  0.85713479260E+01  0.22747499603E+02 -0.96446711355E+03  0.96477340856E+03  0.00000000000E+00 0.  1.
</event>
<event>
 4    1  0.6688462E+003  0.2435893E+02  0.7546771E-02  0.1476104E+00
          2   -1    0    0  501    0  0.00000000000E+00  0.00000000000E+00  0.52088185556E+01  0.52088185556E+01  0.00000000000E+00 0. -1.
          2   -1    0    0  502    0 -0.00000000000E+00 -0.00000000000E+00 -0.19020219208E+03  0.19020219208E+03  0.00000000000E+00 0.  1.
          2    1    1    2  501    0  0.23107483532E+02 -0.77072582961E+01 -0.15437518868E+03  0.15628517686E+03  0.00000000000E+00 0.  1.
          2    1    1    2  502    0 -0.23107483532E+02  0.77072582961E+01 -0.30618184847E+02  0.39125833780E+02  0.00000000000E+00 0. -1.
</event>
<event>
 4    1  0.6688462E+003  0.2177430E+02  0.7546771E-02  0.1508491E+00
          2   -1    0    0  502    0  0.00000000000E+00  0.00000000000E+00  0.23231801327E+01  0.23231801327E+01  0.00000000000E+00 0. -1.
          2   -1    0    0  501    0 -0.00000000000E+00 -0.00000000000E+00 -0.12123546899E+04  0.12123546899E+04  0.00000000000E+00 0.  1.
          2    1    1    2  501    0 -0.14610835006E+02 -0.16144465538E+02 -0.51149147032E+02  0.55590966075E+02  0.00000000000E+00 0. -1.
          2    1    1    2  502    0  0.14610835006E+02  0.16144465538E+02 -0.11588823627E+04  0.11590869039E+04  0.00000000000E+00 0.  1.
</event>
<event>
 4    1  0.6688462E+003  0.2368259E+02  0.7546771E-02  0.1484100E+00
          2   -1    0    0  501    0  0.00000000000E+00  0.00000000000E+00  0.55239303506E+03  0.55239303506E+03  0.00000000000E+00 0.  1.
          2   -1    0    0  502    0 -0.00000000000E+00 -0.00000000000E+00 -0.24289812880E+01  0.24289812880E+01  0.00000000000E+00 0.  1.
          2    1    1    2  501    0 -0.23259743052E+02  0.44552602702E+01  0.63349847575E+02  0.67631857721E+02  0.00000000000E+00 0.  1.
          2    1    1    2  502    0  0.23259743052E+02 -0.44552602702E+01  0.48661420620E+03  0.48719015863E+03  0.00000000000E+00 0.  1.
</event>
<event>
 4    1  0.6688462E+003  0.6291793E+02  0.7546771E-02  0.1250228E+00
          2   -1    0    0  502    0  0.00000000000E+00  0.00000000000E+00  0.76174216176E+03  0.76174216176E+03  0.00000000000E+00 0.  1.
          2   -1    0    0  501    0 -0.00000000000E+00 -0.00000000000E+00 -0.45164015444E+02  0.45164015444E+02  0.00000000000E+00 0.  1.
          2    1    1    2  501    0  0.42605374094E+02  0.46297385079E+02  0.73782107587E+03  0.74049888978E+03  0.00000000000E+00 0.  1.
          2    1    1    2  502    0 -0.42605374094E+02 -0.46297385079E+02 -0.21242929556E+02  0.66407287424E+02  0.00000000000E+00 0.  1.
</event>
<event>
 4    1  0.6688462E+003  0.2251430E+02  0.7546771E-02  0.1498689E+00
          2   -1    0    0  501    0  0.00000000000E+00  0.00000000000E+00  0.26496352389E+03  0.26496352389E+03  0.00000000000E+00 0.  1.
          2   -1    0    0  502    0 -0.00000000000E+00 -0.00000000000E+00 -0.35162268000E+01  0.35162268000E+01  0.00000000000E+00 0.  1.
          2    1    1    2  501    0 -0.87012373233E+01  0.20764929448E+02  0.40081316234E+02  0.45971792840E+02  0.00000000000E+00 0.  1.
          2    1    1    2  502    0  0.87012373233E+01 -0.20764929448E+02  0.22136598085E+03  0.22250795784E+03  0.00000000000E+00 0.  1.
</event>
<event>
 4    1  0.6688462E+003  0.3250177E+02  0.7546771E-02  0.1399032E+00
          2   -1    0    0  502    0  0.00000000000E+00  0.00000000000E+00  0.15117018585E+02  0.15117018585E+02  0.00000000000E+00 0. -1.
          2   -1    0    0  501    0 -0.00000000000E+00 -0.00000000000E+00 -0.10911615838E+03  0.10911615838E+03  0.00000000000E+00 0.  1.
          2    1    1    2  501    0  0.66541882641E+01  0.31813312878E+02 -0.97509013458E+01  0.33932951165E+02  0.00000000000E+00 0. -1.
          2    1    1    2  502    0 -0.66541882641E+01 -0.31813312878E+02 -0.84248238444E+02  0.90300225795E+02  0.00000000000E+00 0.  1.
</event>
<event>
 4    1  0.6688462E+003  0.2184689E+02  0.7546771E-02  0.1507509E+00
          2   -1    0    0  501    0  0.00000000000E+00  0.00000000000E+00  0.16436114483E+03  0.16436114483E+03  0.00000000000E+00 0.  1.
          2   -1    0    0  502    0 -0.00000000000E+00 -0.00000000000E+00 -0.27706504076E+02  0.27706504076E+02  0.00000000000E+00 0. -1.
          2    1    1    2  501    0  0.10484915042E+02  0.19166454020E+02 -0.22534639832E+02  0.31386245324E+02  0.00000000000E+00 0. -1.
          2    1    1    2  502    0 -0.10484915042E+02 -0.19166454020E+02  0.15918928058E+03  0.16068140358E+03  0.00000000000E+00 0.  1.
</event>
<event>
 4    1  0.6688462E+003  0.2388306E+02  0.7546771E-02  0.1481697E+00
          2   -1    0    0  502    0  0.00000000000E+00  0.00000000000E+00  0.44287651505E+03  0.44287651505E+03  0.00000000000E+00 0. -1.
          2   -1    0    0  501    0 -0.00000000000E+00 -0.00000000000E+00 -0.20130152312E+01  0.20130152312E+01  0.00000000000E+00 0.  1.
          2    1    1    2  501    0  0.19908986935E+02 -0.13192155447E+02  0.35393400658E+03  0.35473889234E+03  0.00000000000E+00 0. -1.
          2    1    1    2  502    0 -0.19908986935E+02  0.13192155447E+02  0.86929493238E+02  0.90150637939E+02  0.00000000000E+00 0.  1.
</event>
<event>
 4    1  0.6688462E+003  0.2170115E+02  0.7546771E-02  0.1509485E+00
          2   -1    0    0  502    0  0.00000000000E+00  0.00000000000E+00  0.83423705054E+00  0.83423705054E+00  0.00000000000E+00 0.  1.
          2   -1    0    0  501    0 -0.00000000000E+00 -0.00000000000E+00 -0.12819844262E+04  0.12819844262E+04  0.00000000000E+00 0.  1.
          2    1    1    2  501    0 -0.51320702080E+01  0.21085584416E+02 -0.16073630825E+03  0.16219463864E+03  0.00000000000E+00 0.  1.
          2    1    1    2  502    0  0.51320702080E+01 -0.21085584416E+02 -0.11204138809E+04  0.11206240246E+04  0.00000000000E+00 0.  1.
</event>
<event>
 4    1  0.6688462E+003  0.2038682E+02  0.7546771E-02  0.1528202E+00
          2   -1    0    0  502    0  0.00000000000E+00  0.00000000000E+00  0.13755264851E+03  0.13755264851E+03  0.00000000000E+00 0.  1.
          2   -1    0    0  501    0 -0.00000000000E+00 -0.00000000000E+00 -0.51726978062E+02  0.51726978062E+02  0.00000000000E+00 0.  1.
          2    1    1    2  501    0 -0.26482038254E+01  0.20214089551E+02  0.13474694009E+03  0.13628044711E+03  0.00000000000E+00 0.  1.
          2    1    1    2  502    0  0.26482038254E+01 -0.20214089551E+02 -0.48921269646E+02  0.52999179462E+02  0.00000000000E+00 0.  1.
</event>
<event>
 4    1  0.6688462E+003  0.3777221E+02  0.7546771E-02  0.1362059E+00
          2   -1    0    0  501    0  0.00000000000E+00  0.00000000000E+00  0.62867153505E+02  0.62867153505E+02  0.00000000000E+00 0. -1.
          2   -1    0    0  502    0 -0.00000000000E+00 -0.00000000000E+00 -0.13833527206E+03  0.13833527206E+03  0.00000000000E+00 0.  1.
          2    1    1    2  501    0  0.31326290010E+02  0.21104575598E+02 -0.12971380724E+03  0.13510148535E+03  0.00000000000E+00 0.  1.
          2    1    1    2  502    0 -0.31326290010E+02 -0.21104575598E+02  0.54245688678E+02  0.66100940214E+02  0.00000000000E+00 0. -1.
</event>
<event>
 4    1  0.6688462E+003  0.2003155E+02  0.7546771E-02  0.1533554E+00
          2   -1    0    0  502    0  0.00000000000E+00  0.00000000000E+00  0.25072004945E+02  0.25072004945E+02  0.00000000000E+00 0. -1.
          2   -1    0    0  501    0 -0.00000000000E+00 -0.00000000000E+00 -0.16005327889E+02  0.16005327889E+02  0.00000000000E+00 0. -1.
          2    1    1    2  501    0  0.19410121342E+02  0.49507674750E+01  0.43786904815E+01  0.20504532168E+02  0.00000000000E+00 0. -1.
          2    1    1    2  502    0 -0.19410121342E+02 -0.49507674750E+01  0.46879865749E+01  0.20572800666E+02  0.00000000000E+00 0. -1.
</event>
<event>
 4    1  0.6688462E+003  0.2148044E+02  0.7546771E-02  0.1512515E+00
          2   -1    0    0  502    0  0.00000000000E+00  0.00000000000E+00  0.61137327243E+01  0.61137327243E+01  0.00000000000E+00 0.  1.
          2   -1    0    0  501    0 -0.00000000000E+00 -0.00000000000E+00 -0.94310343193E+02  0.94310343193E+02  0.00000000000E+00 0. -1.
          2    1    1    2  501    0  0.62101852550E+01 -0.20563145589E+02 -0.66540295817E+02  0.69921529766E+02  0.00000000000E+00 0. -1.
          2    1    1    2  502    0 -0.62101852550E+01  0.20563145589E+02 -0.21656314651E+02  0.30502546151E+02  0.00000000000E+00 0.  1.
</event>
<event>
 4    1  0.6688462E+003  0.3058187E+02  0.7546771E-02  0.1414606E+00
          2   -1    0    0  502    0  0.00000000000E+00  0.00000000000E+00  0.34295680422E+03  0.34295680422E+03  0.00000000000E+00 0. -1.
          2   -1    0    0  501    0 -0.00000000000E+00 -0.00000000000E+00 -0.10752809929E+02  0.10752809929E+02  0.00000000000E+00 0.  1.
          2    1    1    2  501    0 -0.15268584856E+02 -0.26497566385E+02  0.31889368468E+03  0.32035672747E+03  0.00000000000E+00 0. -1.
          2    1    1    2  502    0  0.15268584856E+02  0.26497566385E+02  0.13310309615E+02  0.33352886680E+02  0.00000000000E+00 0.  1.
</event>
<event>
 4    1  0.6688462E+003  0.2176771E+02  0.7546771E-02  0.1508580E+00
          2   -1    0    0  501    0  0.00000000000E+00  0.00000000000E+00  0.54437392128E+03  0.54437392128E+03  0.00000000000E+00 0. -1.
          2   -1    0    0  502    0 -0.00000000000E+00 -0.00000000000E+00 -0.31078617578E+03  0.31078617578E+03  0.00000000000E+00 0.  1.
          2    1    1    2  501    0  0.75120346851E+01  0.20430434613E+02 -0.31018699423E+03  0.31094984276E+03  0.00000000000E+00 0.  1.
          2    1    1    2  502    0 -0.75120346851E+01 -0.20430434613E+02  0.54377473972E+03  0.54421025430E+03  0.00000000000E+00 0. -1.
</event>
<event>
 4    1  0.6688462E+003  0.2076237E+02  0.7546771E-02  0.1522685E+00
          2   -1    0    0  502    0  0.00000000000E+00  0.00000000000E+00  0.30856992639E+00  0.30856992639E+00  0.00000000000E+00 0. -1.
          2   -1    0    0  501    0 -0.00000000000E+00 -0.00000000000E+00 -0.18621249069E+04  0.18621249069E+04  0.00000000000E+00 0. -1.
          2    1    1    2  501    0 -0.69517391564E+01  0.19563982729E+02 -0.46550937732E+03  0.46597216276E+03  0.00000000000E+00 0. -1.
          2    1    1    2  502    0  0.69517391564E+01 -0.19563982729E+02 -0.13963069597E+04  0.13964613141E+04  0.00000000000E+00 0. -1.
</event>
<event>
 4    1  0.6688462E+003  0.2047790E+02  0.7546771E-02  0.1526851E+00
          2   -1    0    0  501    0  0.00000000000E+00  0.00000000000E+00  0.16314373712E+02  0.16314373712E+02  0.00000000000E+00 0.  1.
          2   -1    0    0  502    0 -0.00000000000E+00 -0.00000000000E+00 -0.29317898806E+03  0.29317898806E+03  0.00000000000E+00 0.  1.
          2    1    1    2  501    0 -0.13405568212E+02 -0.15480156116E+02 -0.28623982330E+03  0.28697139394E+03  0.00000000000E+00 0.  1.
          2    1    1    2  502    0  0.13405568212E+02  0.15480156116E+02  0.93752089523E+01  0.22521967839E+02  0.00000000000E+00 0.  1.
</event>
<event>
 4    1  0.6688462E+003  0.3856193E+02  0.7546771E-02  0.1357125E+00
          2   -1    0    0  502    0  0.00000000000E+00  0.00000000000E+00  0.35086654172E+02  0.35086654172E+02  0.00000000000E+00 0.  1.
          2   -1    0    0  501    0 -0.00000000000E+00 -0.00000000000E+00 -0.87855296139E+03  0.87855296139E+03  0.00000000000E+00 0.  1.
          2    1    1    2  501    0 -0.32978296409E+02  0.19986346273E+02  0.23931966695E+02  0.45384591012E+02  0.00000000000E+00 0.  1.
          2    1    1    2  502    0  0.32978296409E+02 -0.19986346273E+02 -0.86739827391E+03  0.86825502455E+03  0.00000000000E+00 0.  1.
</event>
<event>
 4    1  0.6688462E+003  0.2238086E+02  0.7546771E-02  0.1500423E+00
          2   -1    0    0  501    0  0.00000000000E+00  0.00000000000E+00  0.27387084345E+01  0.27387084345E+01  0.00000000000E+00 0. -1.
          2   -1    0    0  502    0 -0.00000000000E+00 -0.00000000000E+00 -0.22499680129E+03  0.22499680129E+03  0.00000000000E+00 0. -1.
          2    1    1    2  501    0 -0.20960949616E+02  0.78448252581E+01 -0.16038406306E+03  0.16193810662E+03  0.00000000000E+00 0. -1.
          2    1    1    2  502    0  0.20960949616E+02 -0.78448252581E+01 -0.61874029794E+02  0.65797403102E+02  0.00000000000E+00 0. -1.
</event>
<event>
 4    1  0.6688462E+003  0.2109126E+02  0.7546771E-02  0.1517966E+00
          2   -1    0    0  502    0  0.00000000000E+00  0.00000000000E+00  0.59004084798E+01  0.59004084798E+01  0.00000000000E+00 0. -1.
          2   -1    0    0  501    0 -0.00000000000E+00 -0.00000000000E+00 -0.11410102554E+04  0.11410102554E+04  0.00000000000E+00 0. -1.
          2    1    1    2  501    0  0.18723505769E+02  0.97093554013E+01 -0.13368696536E+02  0.24971249422E+02  0.00000000000E+00 0. -1.
          2    1    1    2  502    0 -0.18723505769E+02 -0.97093554013E+01 -0.11217411504E+04  0.11219394145E+04  0.00000000000E+00 0. -1.
</event>
<event>
 4    1  0.6688462E+003  0.2202604E+02  0.7546771E-02  0.1505104E+00
          2   -1    0    0  502    0  0.00000000000E+00  0.00000000000E+00  0.96968261832E+01  0.96968261832E+01  0.00000000000E+00 0. -1.
          2   -1    0    0  501    0 -0.00000000000E+00 -0.00000000000E+00 -0.37603567899E+03  0.37603567899E+03  0.00000000000E+00 0. -1.
          2    1    1    2  501    0 -0.18663496618E+02 -0.11697014350E+02 -0.35913422503E+01  0.22316899199E+02  0.00000000000E+00 0. -1.
          2    1    1    2  502    0  0.18663496618E+02  0.11697014350E+02 -0.36274751055E+03  0.36341560597E+03  0.00000000000E+00 0. -1.
</event>
<event>
 4    1  0.6688462E+003  0.2139187E+02  0.7546771E-02  0.1513743E+00
          2   -1    0    0  502    0  0.00000000000E+00  0.00000000000E+00  0.31830165847E+01  0.31830165847E+01  0.00000000000E+00 0. -1.
          2   -1    0    0  501    0 -0.00000000000E+00 -0.00000000000E+00 -0.18480707826E+03  0.18480707826E+03  0.00000000000E+00 0. -1.
          2    1    1    2  501    0  0.20660443172E+02  0.55459990527E+01 -0.13510664987E+03  0.13678968842E+03  0.00000000000E+00 0. -1.
          2    1    1    2  502    0 -0.20660443172E+02 -0.55459990527E+01 -0.46517411808E+02  0.51200406433E+02  0.00000000000E+00 0. -1.
</event>
<event>
 4    1  0.6688462E+003  0.2097292E+02  0.7546771E-02  0.1519652E+00
          2   -1    0    0  501    0  0.00000000000E+00  0.00000000000E+00  0.46519709539E+03  0.46519709539E+03  0.00000000000E+00 0. -1.
          2   -1    0    0  502    0 -0.00000000000E+00 -0.00000000000E+00 -0.97765483742E+00  0.97765483742E+00  0.00000000000E+00 0. -1.
          2    1    1    2  501    0 -0.19228548476E+01 -0.20884591844E+02  0.18986591254E+03  0.19102075356E+03  0.00000000000E+00 0. -1.
          2    1    1    2  502    0  0.19228548476E+01  0.20884591844E+02  0.27435352802E+03  0.27515399667E+03  0.00000000000E+00 0. -1.
</event>
<event>
 4    1  0.6688462E+003  0.2658787E+02  0.7546771E-02  0.1451792E+00
          2   -1    0    0  502    0  0.00000000000E+00  0.00000000000E+00  0.22256299357E+03  0.22256299357E+03  0.00000000000E+00 0.  1.
          2   -1    0    0  501    0 -0.00000000000E+00 -0.00000000000E+00 -0.39806092832E+02  0.39806092832E+02  0.00000000000E+00 0. -1.
          2    1    1    2  501    0 -0.35250491342E+01  0.26353160020E+02  0.21722039990E+03  0.21884153433E+03  0.00000000000E+00 0.  1.
          2    1    1    2  502    0  0.35250491342E+01 -0.26353160020E+02 -0.34463499166E+02  0.43527552070E+02  0.00000000000E+00 0. -1.
</event>
<event>
 4    1  0.6688462E+003  0.2866696E+02  0.7546771E-02  0.1431545E+00
          2   -1    0    0  502    0  0.00000000000E+00  0.00000000000E+00  0.27077129900E+01  0.27077129900E+01  0.00000000000E+00 0. -1.
          2   -1    0    0  501    0 -0.00000000000E+00 -0.00000000000E+00 -0.30940495525E+03  0.30940495525E+03  0.00000000000E+00 0. -1.
          2    1    1    2  501    0  0.11537907163E+02  0.26242546246E+02 -0.13179220315E+03  0.13487393872E+03  0.00000000000E+00 0. -1.
          2    1    1    2  502    0 -0.11537907163E+02 -0.26242546246E+02 -0.17490503911E+03  0.17723872952E+03  0.00000000000E+00 0. -1.
</event>
<event>
 4    1  0.6688462E+003  0.2688323E+02  0.7546771E-02  0.1448785E+00
          2   -1    0    0  501    0  0.00000000000E+00  0.00000000000E+00  0.38313050064E+02  0.38313050064E+02  0.00000000000E+00 0. -1.
          2   -1    0    0  502    0 -0.00000000000E+00 -0.00000000000E+00 -0.52666235365E+03  0.52666235365E+03  0.00000000000E+00 0.  1.
          2    1    1    2  501    0  0.21081352134E+02 -0.16681861746E+02 -0.52155735786E+03  0.52224973476E+03  0.00000000000E+00 0.  1.
          2    1    1    2  502    0 -0.21081352134E+02  0.16681861746E+02  0.33208054273E+02  0.42725668956E+02  0.00000000000E+00 0. -1.
</event>
<event>
 4    1  0.6688462E+003  0.2002682E+02  0.7546771E-02  0.1533626E+00
          2   -1    0    0  501    0  0.00000000000E+00  0.00000000000E+00  0.12761159295E+01  0.12761159295E+01  0.00000000000E+00 0. -1.
          2   -1    0    0  502    0 -0.00000000000E+00 -0.00000000000E+00 -0.38172897719E+03  0.38172897719E+03  0.00000000000E+00 0. -1.
          2    1    1    2  501    0 -0.13316696821E+02  0.14957905331E+02 -0.27071704335E+03  0.27145679381E+03  0.00000000000E+00 0. -1.
          2    1    1    2  502    0  0.13316696821E+02 -0.14957905331E+02 -0.10973581791E+03  0.11154829931E+03  0.00000000000E+00 0. -1.
</event>
<event>
 4    1  0.6688462E+003  0.2384087E+02  0.7546771E-02  0.1482201E+00
          2   -1    0    0  501    0  0.00000000000E+00  0.00000000000E+00  0.56517804277E+01  0.56517804277E+01  0.00000000000E+00 0. -1.
          2   -1    0    0  502    0 -0.00000000000E+00 -0.00000000000E+00 -0.95757766606E+03  0.95757766606E+03  0.00000000000E+00 0. -1.
          2    1    1    2  501    0  0.23291913686E+02  0.50866522285E+01 -0.93158595931E+03  0.93189097370E+03  0.00000000000E+00 0. -1.
          2    1    1    2  502    0 -0.23291913686E+02 -0.50866522285E+01 -0.20339926322E+02  0.31338472790E+02  0.00000000000E+00 0. -1.
</event>
<event>
 4    1  0.6688462E+003  0.2196069E+02  0.7546771E-02  0.1505978E+00
          2   -1    0    0  502    0  0.00000000000E+00  0.00000000000E+00  0.15086724035E+02  0.15086724035E+02  0.00000000000E+00 0.  1.
          2   -1    0    0  501    0 -0.00000000000E+00 -0.00000000000E+00 -0.48464191746E+02  0.48464191746E+02  0.00000000000E+00 0.  1.
          2    1    1    2  501    0 -0.15678813998E+02 -0.15376828912E+02  0.18504625647E+01  0.22038518269E+02  0.00000000000E+00 0.  1.
          2    1    1    2  502    0  0.15678813998E+02  0.15376828912E+02 -0.35227930275E+02  0.41512397512E+02  0.00000000000E+00 0.  1.
</event>
<event>
 4    1  0.6688462E+003  0.2046170E+02  0.7546771E-02  0.1527091E+00
          2   -1    0    0  501    0  0.00000000000E+00  0.00000000000E+00  0.69825265512E+01  0.69825265512E+01  0.00000000000E+00 0.  1.
          2   -1    0    0  502    0 -0.00000000000E+00 -0.00000000000E+00 -0.10438287126E+04  0.10438287126E+04  0.00000000000E+00 0.  1.
          2    1    1    2  501    0  0.15384087947E+02  0.13491144279E+02 -0.10285149489E+04  0.10287184655E+04  0.00000000000E+00 0.  1.
          2    1    1    2  502    0 -0.15384087947E+02 -0.13491144279E+02 -0.83312371654E+01  0.22092773675E+02  0.00000000000E+00 0.  1.
</event>
<event>
 4    1  0.6688462E+003  0.2229494E+02  0.7546771E-02  0.1501547E+00
          2   -1    0    0  502    0  0.00000000000E+00  0.00000000000E+00  0.72470519775E+03  0.72470519775E+03  0.00000000000E+00 0.  1.
          2   -1    0    0  501    0 -0.00000000000E+00 -0.00000000000E+00 -0.75098973078E+00  0.75098973078E+00  0.00000000000E+00 0.  1.
          2    1    1    2  501    0  0.18663926849E+02 -0.12195178695E+02  0.46877677038E+03  0.46930664282E+03  0.00000000000E+00 0.  1.
          2    1    1    2  502    0 -0.18663926849E+02  0.12195178695E+02  0.25517743763E+03  0.25614954465E+03  0.00000000000E+00 0.  1.
</event>
<event>
 4    1  0.6688462E+003  0.4016556E+02  0.7546771E-02  0.1347518E+00
          2   -1    0    0  502    0  0.00000000000E+00  0.00000000000E+00  0.29038215464E+01  0.29038215464E+01  0.00000000000E+00 0.  1.
          2   -1    0    0  501    0 -0.00000000000E+00 -0.00000000000E+00 -0.87684667403E+03  0.87684667403E+03  0.00000000000E+00 0.  1.
          2    1    1    2  501    0  0.22407112828E+02 -0.33334573224E+02 -0.17071006725E+03  0.17537160414E+03  0.00000000000E+00 0.  1.
          2    1    1    2  502    0 -0.22407112828E+02  0.33334573224E+02 -0.70323278523E+03  0.70437889143E+03  0.00000000000E+00 0.  1.
</event>
<event>
 4    1  0.6688462E+003  0.2071113E+02  0.7546771E-02  0.1523429E+00
          2   -1    0    0  501    0  0.00000000000E+00  0.00000000000E+00  0.42650124658E+02  0.42650124658E+02  0.00000000000E+00 0. -1.
          2   -1    0    0  502    0 -0.00000000000E+00 -0.00000000000E+00 -0.32531779442E+03  0.32531779442E+03  0.00000000000E+00 0.  1.
          2    1    1    2  501    0  0.18750784869E+02  0.87954015379E+01 -0.32245146713E+03  0.32311592297E+03  0.00000000000E+00 0.  1.
          2    1    1    2  502    0 -0.18750784869E+02 -0.87954015379E+01  0.39783797371E+02  0.44851996106E+02  0.00000000000E+00 0. -1.
</event>
<event>
 4    1  0.6688462E+003  0.2133004E+02  0.7546771E-02  0.1514604E+00
          2   -1    0    0  501    0  0.00000000000E+00  0.00000000000E+00  0.85764410100E+02  0.85764410100E+02  0.00000000000E+00 0.  1.
          2   -1    0    0  502    0 -0.00000000000E+00 -0.00000000000E+00 -0.82704575570E+01  0.82704575570E+01  0.00000000000E+00 0. -1.
          2    1    1    2  501    0  0.21322650201E+02  0.56160044016E+00  0.10592462868E+02  0.23815353792E+02  0.00000000000E+00 0. -1.
          2    1    1    2  502    0 -0.21322650201E+02 -0.56160044016E+00  0.66901489676E+02  0.70219513865E+02  0.00000000000E+00 0.  1.
</event>
<event>
 4    1  0.6688462E+003  0.3549406E+02  0.7546771E-02  0.1377123E+00
          2   -1    0    0  501    0  0.00000000000E+00  0.00000000000E+00  0.15200409372E+03  0.15200409372E+03  0.00000000000E+00 0. -1.
          2   -1    0    0  502    0 -0.00000000000E+00 -0.00000000000E+00 -0.12924580067E+03  0.12924580067E+03  0.00000000000E+00 0. -1.
          2    1    1    2  501    0  0.22470536321E+02 -0.27475500684E+02 -0.12466218607E+03  0.12961669945E+03  0.00000000000E+00 0. -1.
          2    1    1    2  502    0 -0.22470536321E+02  0.27475500684E+02  0.14742047913E+03  0.15163319494E+03  0.00000000000E+00 0. -1.
</event>
<event>
 4    1  0.6688462E+003  0.4839828E+02  0.7546771E-02  0.1305270E+00
          2   -1    0    0  502    0  0.00000000000E+00  0.00000000000E+00  0.65171092376E+02  0.65171092376E+02  0.00000000000E+00 0. -1.
          2   -1    0    0  501    0 -0.00000000000E+00 -0.00000000000E+00 -0.23361963318E+03  0.23361963318E+03  0.00000000000E+00 0.  1.
          2    1    1    2  501    0 -0.22688029920E+01  0.48345073513E+02  0.53199220129E+02  0.71920446483E+02  0.00000000000E+00 0. -1.
          2    1    1    2  502    0  0.22688029920E+01 -0.48345073513E+02 -0.22164776093E+03  0.22687027907E+03  0.00000000000E+00 0.  1.
</event>
<event>
 4    1  0.6688462E+003  0.2267492E+02  0.7546771E-02  0.1496621E+00
          2   -1    0    0  502    0  0.00000000000E+00  0.00000000000E+00  0.12063977698E+01  0.12063977698E+01  0.00000000000E+00 0. -1.
          2   -1    0    0  501    0 -0.00000000000E+00 -0.00000000000E+00 -0.14602940978E+04  0.14602940978E+04  0.00000000000E+00 0.  1.
          2    1    1    2  501    0 -0.15685393046E+02  0.16374379368E+02 -0.11460571675E+03  0.11682731773E+03  0.00000000000E+00 0. -1.
          2    1    1    2  502    0  0.15685393046E+02 -0.16374379368E+02 -0.13444819833E+04  0.13446731779E+04  0.00000000000E+00 0.  1.
</event>
<event>
 4    1  0.6688462E+003  0.2153445E+02  0.7546771E-02  0.1511769E+00
          2   -1    0    0  502    0  0.00000000000E+00  0.00000000000E+00  0.10367196632E+04  0.10367196632E+04  0.00000000000E+00 0. -1.
          2   -1    0    0  501    0 -0.00000000000E+00 -0.00000000000E+00 -0.28645827912E+02  0.28645827912E+02  0.00000000000E+00 0. -1.
          2    1    1    2  501    0  0.42798820659E+00  0.21530196222E+02  0.10325443518E+04  0.10327688855E+04  0.00000000000E+00 0. -1.
          2    1    1    2  502    0 -0.42798820659E+00 -0.21530196222E+02 -0.24470516447E+02  0.32596605628E+02  0.00000000000E+00 0. -1.
</event>
<event>
 4    1  0.6688462E+003  0.2247256E+02  0.7546771E-02  0.1499230E+00
          2   -1    0    0  501    0  0.00000000000E+00  0.00000000000E+00  0.32213408010E+01  0.32213408010E+01  0.00000000000E+00 0. -1.
          2   -1    0    0  502    0 -0.00000000000E+00 -0.00000000000E+00 -0.18813974491E+03  0.18813974491E+03  0.00000000000E+00 0. -1.
          2    1    1    2  501    0  0.39399398093E+01 -0.22124482723E+02 -0.13152758066E+03  0.13343358024E+03  0.00000000000E+00 0. -1.
          2    1    1    2  502    0 -0.39399398093E+01  0.22124482723E+02 -0.53390823441E+02  0.57927505463E+02  0.00000000000E+00 0. -1.
</event>
<event>
 4    1  0.6688462E+003  0.1740269E+03  0.7546771E-02  0.1075254E+00
          2   -1    0    0  501    0  0.00000000000E+00  0.00000000000E+00  0.59192709594E+03  0.59192709594E+03  0.00000000000E+00 0. -1.
          2   -1    0    0  502    0 -0.00000000000E+00 -0.00000000000E+00 -0.14332017774E+04  0.14332017774E+04  0.00000000000E+00 0. -1.
          2    1    1    2  501    0 -0.41985950861E+02  0.16888620015E+03 -0.14149637064E+04  0.14256253572E+04  0.00000000000E+00 0. -1.
          2    1    1    2  502    0  0.41985950861E+02 -0.16888620015E+03  0.57368902488E+03  0.59950351620E+03  0.00000000000E+00 0. -1.
</event>
<event>
 4    1  0.6688462E+003  0.5557118E+02  0.7546771E-02  0.1275671E+00
          2   -1    0    0  502    0  0.00000000000E+00  0.00000000000E+00  0.10046634353E+02  0.10046634353E+02  0.00000000000E+00 0.  1.
          2   -1    0    0  501    0 -0.00000000000E+00 -0.00000000000E+00 -0.70015512582E+03  0.70015512582E+03  0.00000000000E+00 0.  1.
          2    1    1    2  501    0  0.29836979261E+02  0.46881884693E+02 -0.79088693121E+02  0.96660114956E+02  0.00000000000E+00 0.  1.
          2    1    1    2  502    0 -0.29836979261E+02 -0.46881884693E+02 -0.61101979835E+03  0.61354164522E+03  0.00000000000E+00 0.  1.
</event>
<event>
 4    1  0.6688462E+003  0.3284335E+02  0.7546771E-02  0.1396394E+00
          2   -1    0    0  502    0  0.00000000000E+00  0.00000000000E+00  0.46993123941E+03  0.46993123941E+03  0.00000000000E+00 0. -1.
          2   -1    0    0  501    0 -0.00000000000E+00 -0.00000000000E+00 -0.26305617761E+03  0.26305617761E+03  0.00000000000E+00 0. -1.
          2    1    1    2  501    0  0.23746021190E+02 -0.22689477776E+02  0.46832873498E+03  0.46947895579E+03  0.00000000000E+00 0. -1.
          2    1    1    2  502    0 -0.23746021190E+02  0.22689477776E+02 -0.26145367317E+03  0.26350846123E+03  0.00000000000E+00 0. -1.
</event>
<event>
 4    1  0.6688462E+003  0.2037717E+02  0.7546771E-02  0.1528346E+00
          2   -1    0    0  502    0  0.00000000000E+00  0.00000000000E+00  0.12287276367E+04  0.12287276367E+04  0.00000000000E+00 0.  1.
          2   -1    0    0  501    0 -0.00000000000E+00 -0.00000000000E+00 -0.18497616040E+01  0.18497616040E+01  0.00000000000E+00 0. -1.
          2    1    1    2  501    0  0.18600055051E+02  0.83226871270E+01  0.11696916681E+04  0.11698691498E+04  0.00000000000E+00 0.  1.
          2    1    1    2  502    0 -0.18600055051E+02 -0.83226871270E+01  0.57186206974E+02  0.60708248508E+02  0.00000000000E+00 0. -1.
</event>
<event>
 4    1  0.6688462E+003  0.2032748E+02  0.7546771E-02  0.1529087E+00
          2   -1    0    0  502    0  0.00000000000E+00  0.00000000000E+00  0.44001830439E+03  0.44001830439E+03  0.00000000000E+00 0. -1.
          2   -1    0    0  501    0 -0.00000000000E+00 -0.00000000000E+00 -0.16855848008E+02  0.16855848008E+02  0.00000000000E+00 0. -1.
          2    1    1    2  501    0  0.37043303946E+01 -0.19987105443E+02  0.43356381963E+03  0.43404008126E+03  0.00000000000E+00 0. -1.
          2    1    1    2  502    0 -0.37043303946E+01  0.19987105443E+02 -0.10401363243E+02  0.22834071143E+02  0.00000000000E+00 0. -1.
</event>
<event>
 4    1  0.6688462E+003  0.2652817E+02  0.7546771E-02  0.1452406E+00
          2   -1    0    0  501    0  0.00000000000E+00  0.00000000000E+00  0.33030851148E+02  0.33030851148E+02  0.00000000000E+00 0. -1.
          2   -1    0    0  502    0 -0.00000000000E+00 -0.00000000000E+00 -0.35183876220E+03  0.35183876220E+03  0.00000000000E+00 0. -1.
          2    1    1    2  501    0  0.26056610950E+02  0.49796675788E+01 -0.34592131825E+03  0.34693702956E+03  0.00000000000E+00 0. -1.
          2    1    1    2  502    0 -0.26056610950E+02 -0.49796675788E+01  0.27113407192E+02  0.37932583790E+02  0.00000000000E+00 0. -1.
</event>
<event>
 4    1  0.6688462E+003  0.3375484E+02  0.7546771E-02  0.1389535E+00
          2   -1    0    0  502    0  0.00000000000E+00  0.00000000000E+00  0.89317336017E+00  0.89317336017E+00  0.00000000000E+00 0. -1.
          2   -1    0    0  501    0 -0.00000000000E+00 -0.00000000000E+00 -0.14966982186E+04  0.14966982186E+04  0.00000000000E+00 0. -1.
          2    1    1    2  501    0  0.26973404954E+02  0.20293459662E+02 -0.46014545547E+03  0.46138186925E+03  0.00000000000E+00 0. -1.
          2    1    1    2  502    0 -0.26973404954E+02 -0.20293459662E+02 -0.10356595898E+04  0.10362095227E+04  0.00000000000E+00 0. -1.
</event>
<event>
 4    1  0.6688462E+003  0.2403836E+02  0.7546771E-02  0.1479855E+00
          2   -1    0    0  501    0  0.00000000000E+00  0.00000000000E+00  0.95893965376E+03  0.95893965376E+03  0.00000000000E+00 0.  1.
          2   -1    0    0  502    0 -0.00000000000E+00 -0.00000000000E+00 -0.15499650652E+01  0.15499650652E+01  0.00000000000E+00 0. -1.
          2    1    1    2  501    0 -0.21798150989E+02  0.10133288796E+02  0.10323475466E+03  0.10599649757E+03  0.00000000000E+00 0. -1.
          2    1    1    2  502    0  0.21798150989E+02 -0.10133288796E+02  0.85415493404E+03  0.85449312125E+03  0.00000000000E+00 0.  1.
</event>
<event>
 4    1  0.6688462E+003  0.2037432E+02  0.7546771E-02  0.1528388E+00
          2   -1    0    0  502    0  0.00000000000E+00  0.00000000000E+00  0.30811694339E+00  0.30811694339E+00  0.00000000000E+00 0. -1.
          2   -1    0    0  501    0 -0.00000000000E+00 -0.00000000000E+00 -0.15464053898E+04  0.15464053898E+04  0.00000000000E+00 0. -1.
          2    1    1    2  501    0 -0.76431874435E+01  0.18886363269E+02 -0.49552149552E+03  0.49594018345E+03  0.00000000000E+00 0. -1.
          2    1    1    2  502    0  0.76431874435E+01 -0.18886363269E+02 -0.10505757773E+04  0.10507733233E+04  0.00000000000E+00 0. -1.
</event>
<event>
 4    1  0.6688462E+003  0.2267400E+02  0.7546771E-02  0.1496633E+00
          2   -1    0    0  502    0  0.00000000000E+00  0.00000000000E+00  0.90339162938E+03  0.90339162938E+03  0.00000000000E+00 0.  1.
          2   -1    0    0  501    0 -0.00000000000E+00 -0.00000000000E+00 -0.24268445134E+01  0.24268445134E+01  0.00000000000E+00 0.  1.
          2    1    1    2  501    0  0.15140535611E+02  0.16878227265E+02  0.84674625081E+03  0.84704977637E+03  0.00000000000E+00 0.  1.
          2    1    1    2  502    0 -0.15140535611E+02 -0.16878227265E+02  0.54218534048E+02  0.58768697522E+02  0.00000000000E+00 0.  1.
</event>
<event>
 4    1  0.6688462E+003  0.8503517E+02  0.7546771E-02  0.1192617E+00
          2   -1    0    0  502    0  0.00000000000E+00  0.00000000000E+00  0.11068521513E+04  0.11068521513E+04  0.00000000000E+00 0.  1.
          2   -1    0    0  501    0 -0.00000000000E+00 -0.00000000000E+00 -0.20513744391E+03  0.20513744391E+03  0.00000000000E+00 0. -1.
          2    1    1    2  501    0 -0.59414781814E+02 -0.60834730148E+02  0.10963220443E+04  0.10996149351E+04  0.00000000000E+00 0.  1.
          2    1    1    2  502    0  0.59414781814E+02  0.60834730148E+02 -0.19460733689E+03  0.21237466012E+03  0.00000000000E+00 0. -1.
</event>
<event>
 4    1  0.6688462E+003  0.7678670E+02  0.7546771E-02  0.1211510E+00
          2   -1    0    0  502    0  0.00000000000E+00  0.00000000000E+00  0.12154030292E+04  0.12154030292E+04  0.00000000000E+00 0.  1.
          2   -1    0    0  501    0 -0.00000000000E+00 -0.00000000000E+00 -0.97832004085E+02  0.97832004085E+02  0.00000000000E+00 0.  1.
          2    1    1    2  501    0 -0.24440909527E+02 -0.72793122678E+02  0.11989160908E+04  0.12013725441E+04  0.00000000000E+00 0.  1.
          2    1    1    2  502    0  0.24440909527E+02  0.72793122678E+02 -0.81345065746E+02  0.11186248920E+03  0.00000000000E+00 0.  1.
</event>
<event>
 4    1  0.6688462E+003  0.2595406E+02  0.7546771E-02  0.1458407E+00
          2   -1    0    0  501    0  0.00000000000E+00  0.00000000000E+00  0.19254223742E+03  0.19254223742E+03  0.00000000000E+00 0. -1.
          2   -1    0    0  502    0 -0.00000000000E+00 -0.00000000000E+00 -0.51964857407E+02  0.51964857407E+02  0.00000000000E+00 0. -1.
          2    1    1    2  501    0  0.25825264790E+02 -0.25823904021E+01 -0.47777812029E+02  0.54372165341E+02  0.00000000000E+00 0. -1.
          2    1    1    2  502    0 -0.25825264790E+02  0.25823904021E+01  0.18835519204E+03  0.19013492948E+03  0.00000000000E+00 0. -1.
</event>
<event>
 4    1  0.6688462E+003  0.3383441E+02  0.7546771E-02  0.1388948E+00
          2   -1    0    0  501    0  0.00000000000E+00  0.00000000000E+00  0.29992478283E+02  0.29992478283E+02  0.00000000000E+00 0. -1.
          2   -1    0    0  502    0 -0.00000000000E+00 -0.00000000000E+00 -0.45323939086E+03  0.45323939086E+03  0.00000000000E+00 0.  1.
          2    1    1    2  501    0  0.29061224835E+02 -0.17326636120E+02 -0.44284212777E+03  0.44413276983E+03  0.00000000000E+00 0.  1.
          2    1    1    2  502    0 -0.29061224835E+02  0.17326636120E+02  0.19595215197E+02  0.39099099309E+02  0.00000000000E+00 0. -1.
</event>
<event>
 4    1  0.6688462E+003  0.2023645E+02  0.7546771E-02  0.1530451E+00
          2   -1    0    0  501    0  0.00000000000E+00  0.00000000000E+00  0.10397532805E+04  0.10397532805E+04  0.00000000000E+00 0.  1.
          2   -1    0    0  502    0 -0.00000000000E+00 -0.00000000000E+00 -0.15595262377E+02  0.15595262377E+02  0.00000000000E+00 0. -1.
          2    1    1    2  501    0 -0.10682640900E+02 -0.17187065679E+02 -0.88894701391E+01  0.22102866841E+02  0.00000000000E+00 0. -1.
          2    1    1    2  502    0  0.10682640900E+02  0.17187065679E+02  0.10330474883E+04  0.10332456761E+04  0.00000000000E+00 0.  1.
</event>
<event>
 4    1  0.6688462E+003  0.2522721E+02  0.7546771E-02  0.1466277E+00
          2   -1    0    0  501    0  0.00000000000E+00  0.00000000000E+00  0.96489123700E+00  0.96489123700E+00  0.00000000000E+00 0. -1.
          2   -1    0    0  502    0 -0.00000000000E+00 -0.00000000000E+00 -0.15843788099E+04  0.15843788099E+04  0.00000000000E+00 0. -1.
          2    1    1    2  501    0 -0.21872299575E+02 -0.12570395631E+02 -0.13973129189E+04  0.13975406276E+04  0.00000000000E+00 0. -1.
          2    1    1    2  502    0  0.21872299575E+02  0.12570395631E+02 -0.18610099977E+03  0.18780307359E+03  0.00000000000E+00 0. -1.
</event>
<event>
 4    1  0.6688462E+003  0.4198668E+02  0.7546771E-02  0.1337221E+00
          2   -1    0    0  501    0  0.00000000000E+00  0.00000000000E+00  0.18485794088E+04  0.18485794088E+04  0.00000000000E+00 0.  1.
          2   -1    0    0  502    0 -0.00000000000E+00 -0.00000000000E+00 -0.12200187360E+02  0.12200187360E+02  0.00000000000E+00 0. -1.
          2    1    1    2  501    0 -0.20343622524E+02  0.36728984370E+02  0.24902069680E+02  0.48815923064E+02  0.00000000000E+00 0. -1.
          2    1    1    2  502    0  0.20343622524E+02 -0.36728984370E+02  0.18114771518E+04  0.18119636731E+04  0.00000000000E+00 0.  1.
</event>
<event>
 4    1  0.6688462E+003  0.2816855E+02  0.7546771E-02  0.1436210E+00
          2   -1    0    0  501    0  0.00000000000E+00  0.00000000000E+00  0.16598496786E+02  0.16598496786E+02  0.00000000000E+00 0. -1.
          2   -1    0    0  502    0 -0.00000000000E+00 -0.00000000000E+00 -0.36216722918E+03  0.36216722918E+03  0.00000000000E+00 0.  1.
          2    1    1    2  501    0 -0.15258484403E+02  0.23677959070E+02 -0.34922649259E+03  0.35036068589E+03  0.00000000000E+00 0.  1.
          2    1    1    2  502    0  0.15258484403E+02 -0.23677959070E+02  0.36577601953E+01  0.28405040074E+02  0.00000000000E+00 0. -1.
</event>
<event>
 4    1  0.6688462E+003  0.2798628E+02  0.7546771E-02  0.1437945E+00
          2   -1    0    0  502    0  0.00000000000E+00  0.00000000000E+00  0.53663433820E+03  0.53663433820E+03  0.00000000000E+00 0. -1.
          2   -1    0    0  501    0 -0.00000000000E+00 -0.00000000000E+00 -0.23441262407E+01  0.23441262407E+01  0.00000000000E+00 0.  1.
          2    1    1    2  501    0 -0.17067632083E+02  0.22179440900E+02  0.43269331767E+03  0.43359743867E+03  0.00000000000E+00 0. -1.
          2    1    1    2  502    0  0.17067632083E+02 -0.22179440900E+02  0.10159689429E+03  0.10538102577E+03  0.00000000000E+00 0.  1.
</event>
<event>
 4    1  0.6688462E+003  0.2179008E+02  0.7546771E-02  0.1508277E+00
          2   -1    0    0  502    0  0.00000000000E+00  0.00000000000E+00  0.37513189415E+01  0.37513189415E+01  0.00000000000E+00 0.  1.
          2   -1    0    0  501    0 -0.00000000000E+00 -0.00000000000E+00 -0.38713737255E+03  0.38713737255E+03  0.00000000000E+00 0.  1.
          2    1    1    2  501    0 -0.83697077744E+01 -0.20118537328E+02 -0.31350070470E+02  0.38178979438E+02  0.00000000000E+00 0.  1.
          2    1    1    2  502    0  0.83697077744E+01  0.20118537328E+02 -0.35203598314E+03  0.35270971205E+03  0.00000000000E+00 0.  1.
</event>
<event>
 4    1  0.6688462E+003  0.2383152E+02  0.7546771E-02  0.1482313E+00
          2   -1    0    0  502    0  0.00000000000E+00  0.00000000000E+00  0.18515527612E+03  0.18515527612E+03  0.00000000000E+00 0.  1.
          2   -1    0    0  501    0 -0.00000000000E+00 -0.00000000000E+00 -0.11162354556E+03  0.11162354556E+03  0.00000000000E+00 0.  1.
          2    1    1    2  501    0 -0.22066529142E+02 -0.90005297021E+01  0.18310222762E+03  0.18464660030E+03  0.00000000000E+00 0.  1.
          2    1    1    2  502    0  0.22066529142E+02  0.90005297021E+01 -0.10957049707E+03  0.11213222138E+03  0.00000000000E+00 0.  1.
</event>
<event>
 4    1  0.6688462E+003  0.2828039E+02  0.7546771E-02  0.1435154E+00
          2   -1    0    0  501    0  0.00000000000E+00  0.00000000000E+00  0.65292537539E+03  0.65292537539E+03  0.00000000000E+00 0. -1.
          2   -1    0    0  502    0 -0.00000000000E+00 -0.00000000000E+00 -0.62345673384E+01  0.62345673384E+01  0.00000000000E+00 0.  1.
          2    1    1    2  501    0 -0.17023096980E+02 -0.22583060606E+02  0.27910850666E+02  0.39734066518E+02  0.00000000000E+00 0.  1.
          2    1    1    2  502    0  0.17023096980E+02  0.22583060606E+02  0.61877995739E+03  0.61942587621E+03  0.00000000000E+00 0. -1.
</event>
<event>
 4    1  0.6688462E+003  0.3725397E+02  0.7546771E-02  0.1365375E+00
          2   -1    0    0  502    0  0.00000000000E+00  0.00000000000E+00  0.17120447878E+03  0.17120447878E+03  0.00000000000E+00 0. -1.
          2   -1    0    0  501    0 -0.00000000000E+00 -0.00000000000E+00 -0.23860621433E+02  0.23860621433E+02  0.00000000000E+00 0. -1.
          2    1    1    2  501    0 -0.25739542071E+01 -0.37164941778E+02  0.15292328104E+03  0.15739564168E+03  0.00000000000E+00 0. -1.
          2    1    1    2  502    0  0.25739542071E+01  0.37164941778E+02 -0.55794236851E+01  0.37669458535E+02  0.00000000000E+00 0. -1.
</event>
<event>
 4    1  0.6688462E+003  0.3211253E+02  0.7546771E-02  0.1402085E+00
          2   -1    0    0  501    0  0.00000000000E+00  0.00000000000E+00  0.18473244128E+01  0.18473244128E+01  0.00000000000E+00 0. -1.
          2   -1    0    0  502    0 -0.00000000000E+00 -0.00000000000E+00 -0.83816886812E+03  0.83816886812E+03  0.00000000000E+00 0. -1.
          2    1    1    2  501    0 -0.20368270862E+02 -0.24826360374E+02 -0.66089485193E+03  0.66167455742E+03  0.00000000000E+00 0. -1.
          2    1    1    2  502    0  0.20368270862E+02  0.24826360374E+02 -0.17542669178E+03  0.17834163511E+03  0.00000000000E+00 0. -1.
</event>
<event>
 4    1  0.6688462E+003  0.2105827E+02  0.7546771E-02  0.1518434E+00
          2   -1    0    0  501    0  0.00000000000E+00  0.00000000000E+00  0.66263216451E+02  0.66263216451E+02  0.00000000000E+00 0. -1.
          2   -1    0    0  502    0 -0.00000000000E+00 -0.00000000000E+00 -0.91951366287E+01  0.91951366287E+01  0.00000000000E+00 0. -1.
          2    1    1    2  501    0  0.85720995100E+01 -0.19234598287E+02  0.48218249020E+02  0.52616064085E+02  0.00000000000E+00 0. -1.
          2    1    1    2  502    0 -0.85720995100E+01  0.19234598287E+02  0.88498308023E+01  0.22842288994E+02  0.00000000000E+00 0. -1.
</event>
<event>
 4    1  0.6688462E+003  0.3305062E+02  0.7546771E-02  0.1394811E+00
          2   -1    0    0  502    0  0.00000000000E+00  0.00000000000E+00  0.91392000936E+03  0.91392000936E+03  0.00000000000E+00 0.  1.
          2   -1    0    0  501    0 -0.00000000000E+00 -0.00000000000E+00 -0.57913012455E+02  0.57913012455E+02  0.00000000000E+00 0. -1.
          2    1    1    2  501    0  0.44314202350E+01  0.32752186613E+02  0.90887961222E+03  0.90948034213E+03  0.00000000000E+00 0.  1.
          2    1    1    2  502    0 -0.44314202350E+01 -0.32752186613E+02 -0.52872615316E+02  0.62352679682E+02  0.00000000000E+00 0. -1.
</event>
<event>
 4    1  0.6688462E+003  0.2201404E+02  0.7546771E-02  0.1505264E+00
          2   -1    0    0  501    0  0.00000000000E+00  0.00000000000E+00  0.56363836627E+02  0.56363836627E+02  0.00000000000E+00 0. -1.
          2   -1    0    0  502    0 -0.00000000000E+00 -0.00000000000E+00 -0.12739291681E+02  0.12739291681E+02  0.00000000000E+00 0. -1.
          2    1    1    2  501    0  0.91511842155E+01  0.20021835248E+02  0.21124952457E+01  0.22115168898E+02  0.00000000000E+00 0. -1.
          2    1    1    2  502    0 -0.91511842155E+01 -0.20021835248E+02  0.41512049700E+02  0.46987959410E+02  0.00000000000E+00 0. -1.
</event>
<event>
 4    1  0.6688462E+003  0.2303543E+02  0.7546771E-02  0.1492054E+00
          2   -1    0    0  501    0  0.00000000000E+00  0.00000000000E+00  0.13410540771E+04  0.13410540771E+04  0.00000000000E+00 0. -1.
          2   -1    0    0  502    0 -0.00000000000E+00 -0.00000000000E+00 -0.10207871739E+01  0.10207871739E+01  0.00000000000E+00 0.  1.
          2    1    1    2  501    0 -0.15047304173E+02 -0.17441605712E+02  0.14490011695E+03  0.14671971533E+03  0.00000000000E+00 0.  1.
          2    1    1    2  502    0  0.15047304173E+02  0.17441605712E+02  0.11951331730E+04  0.11953551489E+04  0.00000000000E+00 0. -1.
</event>
<event>
 4    1  0.6688462E+003  0.2578799E+02  0.7546771E-02  0.1460178E+00
          2   -1    0    0  502    0  0.00000000000E+00  0.00000000000E+00  0.21564954103E+02  0.21564954103E+02  0.00000000000E+00 0. -1.
          2   -1    0    0  501    0 -0.00000000000E+00 -0.00000000000E+00 -0.15185945147E+04  0.15185945147E+04  0.00000000000E+00 0. -1.
          2    1    1    2  501    0 -0.21736495545E+02 -0.13876063696E+02  0.13705867575E+02  0.29203958434E+02  0.00000000000E+00 0. -1.
          2    1    1    2  502    0  0.21736495545E+02  0.13876063696E+02 -0.15107354282E+04  0.15109555103E+04  0.00000000000E+00 0. -1.
</event>
<event>
 4    1  0.6688462E+003  0.3176436E+02  0.7546771E-02  0.1404859E+00
          2   -1    0    0  502    0  0.00000000000E+00  0.00000000000E+00  0.69212059827E+01  0.69212059827E+01  0.00000000000E+00 0.  1.
          2   -1    0    0  501    0 -0.00000000000E+00 -0.00000000000E+00 -0.19008348056E+04  0.19008348056E+04  0.00000000000E+00 0. -1.
          2    1    1    2  501    0  0.13118499055E+02 -0.28928874608E+02 -0.30386113075E+02  0.43957828329E+02  0.00000000000E+00 0.  1.
          2    1    1    2  502    0 -0.13118499055E+02  0.28928874608E+02 -0.18635274866E+04  0.18637981833E+04  0.00000000000E+00 0. -1.
</event>
<event>
 4    1  0.6688462E+003  0.2602466E+02  0.7546771E-02  0.1457659E+00
          2   -1    0    0  501    0  0.00000000000E+00  0.00000000000E+00  0.24894147704E+01  0.24894147704E+01  0.00000000000E+00 0. -1.
          2   -1    0    0  502    0 -0.00000000000E+00 -0.00000000000E+00 -0.60440568351E+03  0.60440568351E+03  0.00000000000E+00 0. -1.
          2    1    1    2  501    0 -0.10899516325E+02  0.23632255722E+02 -0.52597290648E+03  0.52661635117E+03  0.00000000000E+00 0. -1.
          2    1    1    2  502    0  0.10899516325E+02 -0.23632255722E+02 -0.75943362257E+02  0.80278747110E+02  0.00000000000E+00 0. -1.
</event>
<event>
 4    1  0.6688462E+003  0.2283116E+02  0.7546771E-02  0.1494629E+00
          2   -1    0    0  501    0  0.00000000000E+00  0.00000000000E+00  0.50170606116E+03  0.50170606116E+03  0.00000000000E+00 0.  1.
          2   -1    0    0  502    0 -0.00000000000E+00 -0.00000000000E+00 -0.11260430137E+01  0.11260430137E+01  0.00000000000E+00 0. -1.
          2    1    1    2  501    0  0.17104766863E+02  0.15122459152E+02  0.18038053175E+03  0.18181968556E+03  0.00000000000E+00 0. -1.
          2    1    1    2  502    0 -0.17104766863E+02 -0.15122459152E+02  0.32019948639E+03  0.32101241861E+03  0.00000000000E+00 0.  1.
</event>
<event>
 4    1  0.6688462E+003  0.2118033E+02  0.7546771E-02  0.1516706E+00
          2   -1    0    0  501    0  0.00000000000E+00  0.00000000000E+00  0.35893029202E+02  0.35893029202E+02  0.00000000000E+00 0.  1.
          2   -1    0    0  502    0 -0.00000000000E+00 -0.00000000000E+00 -0.34076510281E+03  0.34076510281E+03  0.00000000000E+00 0.  1.
          2    1    1    2  501    0 -0.14352275179E+02 -0.15576224623E+02 -0.33727911473E+03  0.33794349795E+03  0.00000000000E+00 0.  1.
          2    1    1    2  502    0  0.14352275179E+02  0.15576224623E+02  0.32407041119E+02  0.38714634060E+02  0.00000000000E+00 0.  1.
</event>
<event>
 4    1  0.6688462E+003  0.2330301E+02  0.7546771E-02  0.1488728E+00
          2   -1    0    0  501    0  0.00000000000E+00  0.00000000000E+00  0.57346884041E+01  0.57346884041E+01  0.00000000000E+00 0. -1.
          2   -1    0    0  502    0 -0.00000000000E+00 -0.00000000000E+00 -0.99559469264E+02  0.99559469264E+02  0.00000000000E+00 0. -1.
          2    1    1    2  501    0 -0.19808358645E+02  0.12274338503E+02 -0.58552957824E+02  0.63019674133E+02  0.00000000000E+00 0. -1.
          2    1    1    2  502    0  0.19808358645E+02 -0.12274338503E+02 -0.35271823035E+02  0.42274483535E+02  0.00000000000E+00 0. -1.
</event>
<event>
 4    1  0.6688462E+003  0.2719358E+02  0.7546771E-02  0.1445673E+00
          2   -1    0    0  502    0  0.00000000000E+00  0.00000000000E+00  0.17368849340E+03  0.17368849340E+03  0.00000000000E+00 0. -1.
          2   -1    0    0  501    0 -0.00000000000E+00 -0.00000000000E+00 -0.62989038312E+02  0.62989038312E+02  0.00000000000E+00 0.  1.
          2    1    1    2  501    0 -0.17254354810E+02 -0.21018512046E+02  0.16961913694E+03  0.17178516300E+03  0.00000000000E+00 0. -1.
          2    1    1    2  502    0  0.17254354810E+02  0.21018512046E+02 -0.58919681851E+02  0.64892368719E+02  0.00000000000E+00 0.  1.
</event>
<event>
 4    1  0.6688462E+003  0.3407500E+02  0.7546771E-02  0.1387185E+00
          2   -1    0    0  501    0  0.00000000000E+00  0.00000000000E+00  0.23473594497E+02  0.23473594497E+02  0.00000000000E+00 0.  1.
          2   -1    0    0  502    0 -0.00000000000E+00 -0.00000000000E+00 -0.83900933848E+03  0.83900933848E+03  0.00000000000E+00 0. -1.
          2    1    1    2  501    0 -0.27129277785E+02  0.20618143904E+02 -0.82610418422E+03  0.82680664533E+03  0.00000000000E+00 0. -1.
          2    1    1    2  502    0  0.27129277785E+02 -0.20618143904E+02  0.10568440239E+02  0.35676287647E+02  0.00000000000E+00 0.  1.
</event>
<event>
 4    1  0.6688462E+003  0.2737688E+02  0.7546771E-02  0.1443859E+00
          2   -1    0    0  501    0  0.00000000000E+00  0.00000000000E+00  0.42395256422E+03  0.42395256422E+03  0.00000000000E+00 0. -1.
          2   -1    0    0  502    0 -0.00000000000E+00 -0.00000000000E+00 -0.13626487943E+03  0.13626487943E+03  0.00000000000E+00 0.  1.
          2    1    1    2  501    0 -0.73474102090E+01 -0.26372504974E+02 -0.13444191250E+03  0.13720102511E+03  0.00000000000E+00 0.  1.
          2    1    1    2  502    0  0.73474102090E+01  0.26372504974E+02  0.42212959728E+03  0.42301641855E+03  0.00000000000E+00 0. -1.
</event>
<event>
 4    1  0.6688462E+003  0.2138413E+02  0.7546771E-02  0.1513851E+00
          2   -1    0    0  502    0  0.00000000000E+00  0.00000000000E+00  0.27144380279E+01  0.27144380279E+01  0.00000000000E+00 0. -1.
          2   -1    0    0  501    0 -0.00000000000E+00 -0.00000000000E+00 -0.39530646707E+03  0.39530646707E+03  0.00000000000E+00 0. -1.
          2    1    1    2  501    0  0.33525419782E+01  0.21119692638E+02 -0.45540722551E+02  0.50311413867E+02  0.00000000000E+00 0. -1.
          2    1    1    2  502    0 -0.33525419782E+01 -0.21119692638E+02 -0.34705130649E+03  0.34770949123E+03  0.00000000000E+00 0. -1.
</event>
<event>
 4    1  0.6688462E+003  0.3038865E+02  0.7546771E-02  0.1416249E+00
          2   -1    0    0  502    0  0.00000000000E+00  0.00000000000E+00  0.11432374462E+04  0.11432374462E+04  0.00000000000E+00 0. -1.
          2   -1    0    0  501    0 -0.00000000000E+00 -0.00000000000E+00 -0.12054681112E+01  0.12054681112E+01  0.00000000000E+00 0. -1.
          2    1    1    2  501    0  0.29988108771E+02 -0.49176788503E+01  0.24234276916E+03  0.24424063543E+03  0.00000000000E+00 0. -1.
          2    1    1    2  502    0 -0.29988108771E+02  0.49176788503E+01  0.89968920893E+03  0.90020227888E+03  0.00000000000E+00 0. -1.
</event>
<event>
 4    1  0.6688462E+003  0.2121667E+02  0.7546771E-02  0.1516194E+00
          2   -1    0    0  501    0  0.00000000000E+00  0.00000000000E+00  0.91347049921E+03  0.91347049921E+03  0.00000000000E+00 0. -1.
          2   -1    0    0  502    0 -0.00000000000E+00 -0.00000000000E+00 -0.30157830503E+02  0.30157830503E+02  0.00000000000E+00 0.  1.
          2    1    1    2  501    0 -0.33538808091E+00  0.21214014448E+02 -0.26287164391E+02  0.33781087992E+02  0.00000000000E+00 0.  1.
          2    1    1    2  502    0  0.33538808091E+00 -0.21214014448E+02  0.90959983310E+03  0.90984724172E+03  0.00000000000E+00 0. -1.
</event>
<event>
 4    1  0.6688462E+003  0.2124336E+02  0.7546771E-02  0.1515819E+00
          2   -1    0    0  501    0  0.00000000000E+00  0.00000000000E+00  0.28322346689E+02  0.28322346689E+02  0.00000000000E+00 0.  1.
          2   -1    0    0  502    0 -0.00000000000E+00 -0.00000000000E+00 -0.17069931794E+02  0.17069931794E+02  0.00000000000E+00 0. -1.
          2    1    1    2  501    0 -0.21241851801E+02  0.25311762854E+00  0.11481731608E+02  0.24147680990E+02  0.00000000000E+00 0.  1.
          2    1    1    2  502    0  0.21241851801E+02 -0.25311762854E+00 -0.22931671291E+00  0.21244597493E+02  0.00000000000E+00 0. -1.
</event>
<event>
 4    1  0.6688462E+003  0.2976409E+02  0.7546771E-02  0.1421658E+00
          2   -1    0    0  502    0  0.00000000000E+00  0.00000000000E+00  0.47361155823E+03  0.47361155823E+03  0.00000000000E+00 0.  1.
          2   -1    0    0  501    0 -0.00000000000E+00 -0.00000000000E+00 -0.37182661345E+02  0.37182661345E+02  0.00000000000E+00 0.  1.
          2    1    1    2  501    0  0.27365374267E+02 -0.11706290336E+02  0.46710462520E+03  0.46805195419E+03  0.00000000000E+00 0.  1.
          2    1    1    2  502    0 -0.27365374267E+02  0.11706290336E+02 -0.30675728314E+02  0.42742265380E+02  0.00000000000E+00 0.  1.
</event>
<event>
 4    1  0.6688462E+003  0.2041132E+02  0.7546771E-02  0.1527838E+00
          2   -1    0    0  501    0  0.00000000000E+00  0.00000000000E+00  0.67098330274E+01  0.67098330274E+01  0.00000000000E+00 0.  1.
          2   -1    0    0  502    0 -0.00000000000E+00 -0.00000000000E+00 -0.88313262081E+03  0.88313262081E+03  0.00000000000E+00 0. -1.
          2    1    1    2  501    0  0.14676355104E+02  0.14185441906E+02 -0.86720683176E+03  0.86744700772E+03  0.00000000000E+00 0. -1.
          2    1    1    2  502    0 -0.14676355104E+02 -0.14185441906E+02 -0.92159560256E+01  0.22395446115E+02  0.00000000000E+00 0.  1.
</event>
<event>
 4    1  0.6688462E+003  0.1181012E+03  0.7546771E-02  0.1135682E+00
          2   -1    0    0  501    0  0.00000000000E+00  0.00000000000E+00  0.60171693887E+03  0.60171693887E+03  0.00000000000E+00 0.  1.
          2   -1    0    0  502    0 -0.00000000000E+00 -0.00000000000E+00 -0.57114095354E+03  0.57114095354E+03  0.00000000000E+00 0.  1.
          2    1    1    2  501    0 -0.32271438956E+02  0.11360651205E+03 -0.55911738492E+03  0.57145440367E+03  0.00000000000E+00 0.  1.
          2    1    1    2  502    0  0.32271438956E+02 -0.11360651205E+03  0.58969337025E+03  0.60140348874E+03  0.00000000000E+00 0.  1.
</event>
<event>
 4    1  0.6688462E+003  0.2108298E+02  0.7546771E-02  0.1518083E+00
          2   -1    0    0  502    0  0.00000000000E+00  0.00000000000E+00  0.68108228110E+01  0.68108228110E+01  0.00000000000E+00 0. -1.
          2   -1    0    0  501    0 -0.00000000000E+00 -0.00000000000E+00 -0.93553838480E+03  0.93553838480E+03  0.00000000000E+00 0. -1.
          2    1    1    2  501    0 -0.10588072452E+02 -0.18231419732E+02 -0.99206739265E+01  0.23300465979E+02  0.00000000000E+00 0. -1.
          2    1    1    2  502    0  0.10588072452E+02  0.18231419732E+02 -0.91880688806E+03  0.91904874163E+03  0.00000000000E+00 0. -1.
</event>
<event>
 4    1  0.6688462E+003  0.5075698E+02  0.7546771E-02  0.1294923E+00
          2   -1    0    0  501    0  0.00000000000E+00  0.00000000000E+00  0.54850356377E+03  0.54850356377E+03  0.00000000000E+00 0.  1.
          2   -1    0    0  502    0 -0.00000000000E+00 -0.00000000000E+00 -0.49710059457E+01  0.49710059457E+01  0.00000000000E+00 0.  1.
          2    1    1    2  501    0  0.23032767255E+02  0.45230105292E+02  0.20678348162E+03  0.21292176747E+03  0.00000000000E+00 0.  1.
          2    1    1    2  502    0 -0.23032767255E+02 -0.45230105292E+02  0.33674907621E+03  0.34055280225E+03  0.00000000000E+00 0.  1.
</event>
<event>
 4    1  0.6688462E+003  0.2942834E+02  0.7546771E-02  0.1424630E+00
          2   -1    0    0  502    0  0.00000000000E+00  0.00000000000E+00  0.88251947781E+02  0.88251947781E+02  0.00000000000E+00 0.  1.
          2   -1    0    0  501    0 -0.00000000000E+00 -0.00000000000E+00 -0.55422363980E+03  0.55422363980E+03  0.00000000000E+00 0. -1.
          2    1    1    2  501    0  0.29209763646E+02  0.35800468910E+01  0.85395317452E+02  0.90323791278E+02  0.00000000000E+00 0.  1.
          2    1    1    2  502    0 -0.29209763646E+02 -0.35800468910E+01 -0.55136700948E+03  0.55215179631E+03  0.00000000000E+00 0. -1.
</event>
<event>
 4    1  0.6688462E+003  0.2229707E+02  0.7546771E-02  0.1501519E+00
          2   -1    0    0  502    0  0.00000000000E+00  0.00000000000E+00  0.55892383001E+03  0.55892383001E+03  0.00000000000E+00 0.  1.
          2   -1    0    0  501    0 -0.00000000000E+00 -0.00000000000E+00 -0.14939021157E+02  0.14939021157E+02  0.00000000000E+00 0.  1.
          2    1    1    2  501    0 -0.13728784565E+02  0.17569281014E+02  0.55025056211E+03  0.55070213389E+03  0.00000000000E+00 0.  1.
          2    1    1    2  502    0  0.13728784565E+02 -0.17569281014E+02 -0.62657532610E+01  0.23160717280E+02  0.00000000000E+00 0.  1.
</event>
<event>
 4    1  0.6688462E+003  0.2376501E+02  0.7546771E-02  0.1483109E+00
          2   -1    0    0  502    0  0.00000000000E+00  0.00000000000E+00  0.24809091626E+01  0.24809091626E+01  0.00000000000E+00 0.  1.
          2   -1    0    0  501    0 -0.00000000000E+00 -0.00000000000E+00 -0.29450863896E+03  0.29450863896E+03  0.00000000000E+00 0. -1.
          2    1    1    2  501    0  0.48356255037E+01 -0.23267841350E+02 -0.75260812871E+02  0.78923796596E+02  0.00000000000E+00 0.  1.
          2    1    1    2  502    0 -0.48356255037E+01  0.23267841350E+02 -0.21676691692E+03  0.21806575152E+03  0.00000000000E+00 0. -1.
</event>
<event>
 4    1  0.6688462E+003  0.2762444E+02  0.7546771E-02  0.1441434E+00
          2   -1    0    0  502    0  0.00000000000E+00  0.00000000000E+00  0.12876185036E+04  0.12876185036E+04  0.00000000000E+00 0.  1.
          2   -1    0    0  501    0 -0.00000000000E+00 -0.00000000000E+00 -0.59272712282E+00  0.59272712282E+00  0.00000000000E+00 0.  1.
          2    1    1    2  501    0  0.93199245129E+01 -0.26004785097E+02  0.65075820328E+03  0.65134426302E+03  0.00000000000E+00 0.  1.
          2    1    1    2  502    0 -0.93199245129E+01  0.26004785097E+02  0.63626757317E+03  0.63686696767E+03  0.00000000000E+00 0.  1.
</event>
<event>
 4    1  0.6688462E+003  0.2005795E+02  0.7546771E-02  0.1533152E+00
          2   -1    0    0  501    0  0.00000000000E+00  0.00000000000E+00  0.43423535895E+03  0.43423535895E+03  0.00000000000E+00 0.  1.
          2   -1    0    0  502    0 -0.00000000000E+00 -0.00000000000E+00 -0.12476843554E+02  0.12476843554E+02  0.00000000000E+00 0. -1.
          2    1    1    2  501    0  0.13393984418E+02 -0.14930590775E+02 -0.40239050032E+01  0.20457594457E+02  0.00000000000E+00 0. -1.
          2    1    1    2  502    0 -0.13393984418E+02  0.14930590775E+02  0.42578242040E+03  0.42625460805E+03  0.00000000000E+00 0.  1.
</event>
<event>
 4    1  0.6688462E+003  0.2852649E+02  0.7546771E-02  0.1432849E+00
          2   -1    0    0  501    0  0.00000000000E+00  0.00000000000E+00  0.80984439916E+00  0.80984439916E+00  0.00000000000E+00 0.  1.
          2   -1    0    0  502    0 -0.00000000000E+00 -0.00000000000E+00 -0.16869312837E+04  0.16869312837E+04  0.00000000000E+00 0.  1.
          2    1    1    2  501    0  0.76282739487E+01 -0.27487633660E+02 -0.13796595964E+04  0.13799544785E+04  0.00000000000E+00 0.  1.
          2    1    1    2  502    0 -0.76282739487E+01  0.27487633660E+02 -0.30646184288E+03  0.30778664966E+03  0.00000000000E+00 0.  1.
</event>
<event>
 4    1  0.6688462E+003  0.2160902E+02  0.7546771E-02  0.1510744E+00
          2   -1    0    0  501    0  0.00000000000E+00  0.00000000000E+00  0.34415369193E+02  0.34415369193E+02  0.00000000000E+00 0.  1.
          2   -1    0    0  502    0 -0.00000000000E+00 -0.00000000000E+00 -0.75370959055E+02  0.75370959055E+02  0.00000000000E+00 0. -1.
          2    1    1    2  501    0  0.10419291296E+02 -0.18931145991E+02 -0.70185150018E+02  0.73436402436E+02  0.00000000000E+00 0. -1.
          2    1    1    2  502    0 -0.10419291296E+02  0.18931145991E+02  0.29229560156E+02  0.36349925812E+02  0.00000000000E+00 0.  1.
</event>
<event>
 4    1  0.6688462E+003  0.3444172E+02  0.7546771E-02  0.1384531E+00
          2   -1    0    0  501    0  0.00000000000E+00  0.00000000000E+00  0.12992352545E+04  0.12992352545E+04  0.00000000000E+00 0.  1.
          2   -1    0    0  502    0 -0.00000000000E+00 -0.00000000000E+00 -0.18804015355E+01  0.18804015355E+01  0.00000000000E+00 0.  1.
          2    1    1    2  501    0  0.17112367512E+01  0.34399183954E+02  0.18206237634E+03  0.18529150295E+03  0.00000000000E+00 0.  1.
          2    1    1    2  502    0 -0.17112367512E+01 -0.34399183954E+02  0.11152924767E+04  0.11158241531E+04  0.00000000000E+00 0.  1.
</event>
<event>
 4    1  0.6688462E+003  0.2017053E+02  0.7546771E-02  0.1531445E+00
          2   -1    0    0  501    0  0.00000000000E+00  0.00000000000E+00  0.21046550465E+03  0.21046550465E+03  0.00000000000E+00 0.  1.
          2   -1    0    0  502    0 -0.00000000000E+00 -0.00000000000E+00 -0.10874616349E+04  0.10874616349E+04  0.00000000000E+00 0.  1.
          2    1    1    2  501    0  0.19911434674E+02  0.32225999911E+01 -0.10868845718E+04  0.10870717192E+04  0.00000000000E+00 0.  1.
          2    1    1    2  502    0 -0.19911434674E+02 -0.32225999911E+01  0.20988844154E+03  0.21085542031E+03  0.00000000000E+00 0.  1.
</event>
<event>
 4    1  0.6688462E+003  0.3689338E+02  0.7546771E-02  0.1367720E+00
          2   -1    0    0  502    0  0.00000000000E+00  0.00000000000E+00  0.24669146445E+04  0.24669146445E+04  0.00000000000E+00 0.  1.
          2   -1    0    0  501    0 -0.00000000000E+00 -0.00000000000E+00 -0.30651554669E+03  0.30651554669E+03  0.00000000000E+00 0. -1.
          2    1    1    2  501    0 -0.31611372468E+02 -0.19022167680E+02  0.24656659875E+04  0.24659419871E+04  0.00000000000E+00 0.  1.
          2    1    1    2  502    0  0.31611372468E+02  0.19022167680E+02 -0.30526688968E+03  0.30748820411E+03  0.00000000000E+00 0. -1.
</event>
<event>
 4    1  0.6688462E+003  0.2845912E+02  0.7546771E-02  0.1433477E+00
          2   -1    0    0  501    0  0.00000000000E+00  0.00000000000E+00  0.60769258146E+02  0.60769258146E+02  0.00000000000E+00 0. -1.
          2   -1    0    0  502    0 -0.00000000000E+00 -0.00000000000E+00 -0.32153127184E+02  0.32153127184E+02  0.00000000000E+00 0.  1.
          2    1    1    2  501    0 -0.14382090926E+02 -0.24557628280E+02  0.49858899795E+02  0.57409333169E+02  0.00000000000E+00 0. -1.
          2    1    1    2  502    0  0.14382090926E+02  0.24557628280E+02 -0.21242768833E+02  0.35513052162E+02  0.00000000000E+00 0.  1.
</event>
<event>
 4    1  0.6688462E+003  0.2203118E+02  0.7546771E-02  0.1505036E+00
          2   -1    0    0  502    0  0.00000000000E+00  0.00000000000E+00  0.14708848261E+04  0.14708848261E+04  0.00000000000E+00 0. -1.
          2   -1    0    0  501    0 -0.00000000000E+00 -0.00000000000E+00 -0.34266717925E+01  0.34266717925E+01  0.00000000000E+00 0.  1.
          2    1    1    2  501    0 -0.20969865278E+02  0.67555670891E+01  0.14344926201E+04  0.14346617894E+04  0.00000000000E+00 0. -1.
          2    1    1    2  502    0  0.20969865278E+02 -0.67555670891E+01  0.32965534290E+02  0.39649708542E+02  0.00000000000E+00 0.  1.
</event>
<event>
 4    1  0.6688462E+003  0.3112728E+02  0.7546771E-02  0.1410047E+00
          2   -1    0    0  502    0  0.00000000000E+00  0.00000000000E+00  0.11665982202E+01  0.11665982202E+01  0.00000000000E+00 0.  1.
          2   -1    0    0  501    0 -0.00000000000E+00 -0.00000000000E+00 -0.99580256987E+03  0.99580256987E+03  0.00000000000E+00 0. -1.
          2    1    1    2  501    0  0.30908331883E+02  0.36854458441E+01 -0.29424543244E+03  0.29588727922E+03  0.00000000000E+00 0.  1.
          2    1    1    2  502    0 -0.30908331883E+02 -0.36854458441E+01 -0.70039053921E+03  0.70108188888E+03  0.00000000000E+00 0. -1.
</event>
<event>
 4    1  0.6688462E+003  0.2500680E+02  0.7546771E-02  0.1468727E+00
          2   -1    0    0  501    0  0.00000000000E+00  0.00000000000E+00  0.37117815880E+03  0.37117815880E+03  0.00000000000E+00 0.  1.
          2   -1    0    0  502    0 -0.00000000000E+00 -0.00000000000E+00 -0.29471831679E+01  0.29471831679E+01  0.00000000000E+00 0.  1.
          2    1    1    2  501    0  0.51076101827E+01 -0.24479631944E+02  0.61685205741E+02  0.66561285063E+02  0.00000000000E+00 0.  1.
          2    1    1    2  502    0 -0.51076101827E+01  0.24479631944E+02  0.30654576989E+03  0.30756405690E+03  0.00000000000E+00 0.  1.
</event>
<event>
 4    1  0.6688462E+003  0.2508690E+02  0.7546771E-02  0.1467834E+00
          2   -1    0    0  502    0  0.00000000000E+00  0.00000000000E+00  0.12016979206E+02  0.12016979206E+02  0.00000000000E+00 0.  1.
          2   -1    0    0  501    0 -0.00000000000E+00 -0.00000000000E+00 -0.78152052350E+02  0.78152052350E+02  0.00000000000E+00 0.  1.
          2    1    1    2  501    0  0.14083113408E+02 -0.20760986274E+02 -0.71735132818E+01  0.26092372969E+02  0.00000000000E+00 0.  1.
          2    1    1    2  502    0 -0.14083113408E+02  0.20760986274E+02 -0.58961559863E+02  0.64076658588E+02  0.00000000000E+00 0.  1.
</event>
<event>
 4    1  0.6688462E+003  0.2375934E+02  0.7546771E-02  0.1483177E+00
          2   -1    0    0  501    0  0.00000000000E+00  0.00000000000E+00  0.83568087578E+02  0.83568087578E+02  0.00000000000E+00 0. -1.
          2   -1    0    0  502    0 -0.00000000000E+00 -0.00000000000E+00 -0.51073580708E+02  0.51073580708E+02  0.00000000000E+00 0.  1.
          2    1    1    2  501    0 -0.23453098938E+02  0.38024288653E+01 -0.46463790335E+02  0.52186110483E+02  0.00000000000E+00 0.  1.
          2    1    1    2  502    0  0.23453098938E+02 -0.38024288653E+01  0.78958297205E+02  0.82455557803E+02  0.00000000000E+00 0. -1.
</event>
<event>
 4    1  0.6688462E+003  0.2246928E+02  0.7546771E-02  0.1499272E+00
          2   -1    0    0  502    0  0.00000000000E+00  0.00000000000E+00  0.41123244734E+02  0.41123244734E+02  0.00000000000E+00 0.  1.
          2   -1    0    0  501    0 -0.00000000000E+00 -0.00000000000E+00 -0.36244819037E+03  0.36244819037E+03  0.00000000000E+00 0.  1.
          2    1    1    2  501    0 -0.16599497707E+02  0.15143488750E+02  0.37676328640E+02  0.43867691020E+02  0.00000000000E+00 0.  1.
          2    1    1    2  502    0  0.16599497707E+02 -0.15143488750E+02 -0.35900127427E+03  0.35970374408E+03  0.00000000000E+00 0.  1.
</event>
<event>
 4    1  0.6688462E+003  0.2209536E+02  0.7546771E-02  0.1504181E+00
          2   -1    0    0  502    0  0.00000000000E+00  0.00000000000E+00  0.18033063922E+01  0.18033063922E+01  0.00000000000E+00 0.  1.
          2   -1    0    0  501    0 -0.00000000000E+00 -0.00000000000E+00 -0.49283359003E+03  0.49283359003E+03  0.00000000000E+00 0.  1.
          2    1    1    2  501    0  0.20270998540E+02  0.87915653776E+01 -0.79485208198E+02  0.82499111062E+02  0.00000000000E+00 0.  1.
          2    1    1    2  502    0 -0.20270998540E+02 -0.87915653776E+01 -0.41154507544E+03  0.41213778537E+03  0.00000000000E+00 0.  1.
</event>
<event>
 4    1  0.6688462E+003  0.2471636E+02  0.7546771E-02  0.1472002E+00
          2   -1    0    0  502    0  0.00000000000E+00  0.00000000000E+00  0.79923365226E+00  0.79923365226E+00  0.00000000000E+00 0.  1.
          2   -1    0    0  501    0 -0.00000000000E+00 -0.00000000000E+00 -0.17217876055E+04  0.17217876055E+04  0.00000000000E+00 0. -1.
          2    1    1    2  501    0  0.24662691838E+02  0.16279641067E+01 -0.21822759099E+03  0.21962281326E+03  0.00000000000E+00 0.  1.
          2    1    1    2  502    0 -0.24662691838E+02 -0.16279641067E+01 -0.15027607809E+04  0.15029640259E+04  0.00000000000E+00 0. -1.
</event>
<event>
 4    1  0.6688462E+003  0.2099966E+02  0.7546771E-02  0.1519270E+00
          2   -1    0    0  502    0  0.00000000000E+00  0.00000000000E+00  0.10897598011E+04  0.10897598011E+04  0.00000000000E+00 0. -1.
          2   -1    0    0  501    0 -0.00000000000E+00 -0.00000000000E+00 -0.15697146317E+01  0.15697146317E+01  0.00000000000E+00 0. -1.
          2    1    1    2  501    0 -0.13583355983E+02 -0.16014933045E+02  0.10141927249E+04  0.10144101089E+04  0.00000000000E+00 0. -1.
          2    1    1    2  502    0  0.13583355983E+02  0.16014933045E+02  0.73997361554E+02  0.76919406895E+02  0.00000000000E+00 0. -1.
</event>
<event>
 4    1  0.6688462E+003  0.2865485E+02  0.7546771E-02  0.1431657E+00
          2   -1    0    0  501    0  0.00000000000E+00  0.00000000000E+00  0.38728826731E+01  0.38728826731E+01  0.00000000000E+00 0. -1.
          2   -1    0    0  502    0 -0.00000000000E+00 -0.00000000000E+00 -0.23130941688E+03  0.23130941688E+03  0.00000000000E+00 0. -1.
          2    1    1    2  501    0  0.49114475185E+01 -0.28230804532E+02 -0.14768225962E+03  0.15043653296E+03  0.00000000000E+00 0. -1.
          2    1    1    2  502    0 -0.49114475185E+01  0.28230804532E+02 -0.79754274583E+02  0.84745766594E+02  0.00000000000E+00 0. -1.
</event>
<event>
 4    1  0.6688462E+003  0.2200282E+02  0.7546771E-02  0.1505414E+00
          2   -1    0    0  501    0  0.00000000000E+00  0.00000000000E+00  0.19444858703E+04  0.19444858703E+04  0.00000000000E+00 0. -1.
          2   -1    0    0  502    0 -0.00000000000E+00 -0.00000000000E+00 -0.31434458172E+00  0.31434458172E+00  0.00000000000E+00 0. -1.
          2    1    1    2  501    0  0.15620228766E+02  0.15496214781E+02  0.52864363277E+03  0.52910132743E+03  0.00000000000E+00 0. -1.
          2    1    1    2  502    0 -0.15620228766E+02 -0.15496214781E+02  0.14155278929E+04  0.14156988874E+04  0.00000000000E+00 0. -1.
</event>
<event>
 4    1  0.6688462E+003  0.2948972E+02  0.7546771E-02  0.1424083E+00
          2   -1    0    0  502    0  0.00000000000E+00  0.00000000000E+00  0.87122063533E+03  0.87122063533E+03  0.00000000000E+00 0.  1.
          2   -1    0    0  501    0 -0.00000000000E+00 -0.00000000000E+00 -0.69842692026E+02  0.69842692026E+02  0.00000000000E+00 0.  1.
          2    1    1    2  501    0 -0.24989638269E+02  0.15657642072E+02  0.86784612127E+03  0.86834701242E+03  0.00000000000E+00 0.  1.
          2    1    1    2  502    0  0.24989638269E+02 -0.15657642072E+02 -0.66468177964E+02  0.72716314937E+02  0.00000000000E+00 0.  1.
</event>
<event>
 4    1  0.6688462E+003  0.2237025E+02  0.7546771E-02  0.1500561E+00
          2   -1    0    0  502    0  0.00000000000E+00  0.00000000000E+00  0.10123314508E+03  0.10123314508E+03  0.00000000000E+00 0. -1.
          2   -1    0    0  501    0 -0.00000000000E+00 -0.00000000000E+00 -0.41679742246E+03  0.41679742246E+03  0.00000000000E+00 0.  1.
          2    1    1    2  501    0 -0.10435377043E+02  0.19787137517E+02  0.99692570828E+02  0.10217160361E+03  0.00000000000E+00 0. -1.
          2    1    1    2  502    0  0.10435377043E+02 -0.19787137517E+02 -0.41525684821E+03  0.41585896394E+03  0.00000000000E+00 0.  1.
</event>
<event>
 4    1  0.6688462E+003  0.2579439E+02  0.7546771E-02  0.1460110E+00
          2   -1    0    0  501    0  0.00000000000E+00  0.00000000000E+00  0.41600559873E+03  0.41600559873E+03  0.00000000000E+00 0.  1.
          2   -1    0    0  502    0 -0.00000000000E+00 -0.00000000000E+00 -0.22404260453E+03  0.22404260453E+03  0.00000000000E+00 0.  1.
          2    1    1    2  501    0 -0.22466878093E+02 -0.12672413950E+02 -0.22289827614E+03  0.22438581103E+03  0.00000000000E+00 0.  1.
          2    1    1    2  502    0  0.22466878093E+02  0.12672413950E+02  0.41486127034E+03  0.41566239223E+03  0.00000000000E+00 0.  1.
</event>
<event>
 4    1  0.6688462E+003  0.3726431E+02  0.7546771E-02  0.1365308E+00
          2   -1    0    0  502    0  0.00000000000E+00  0.00000000000E+00  0.64376012615E+03  0.64376012615E+03  0.00000000000E+00 0. -1.
          2   -1    0    0  501    0 -0.00000000000E+00 -0.00000000000E+00 -0.39588495734E+01  0.39588495734E+01  0.00000000000E+00 0. -1.
          2    1    1    2  501    0 -0.37263661917E+02  0.22000977323E+00  0.53838694240E+03  0.53967502134E+03  0.00000000000E+00 0. -1.
          2    1    1    2  502    0  0.37263661917E+02 -0.22000977323E+00  0.10141433417E+03  0.10804395438E+03  0.00000000000E+00 0. -1.
</event>
<event>
 4    1  0.6688462E+003  0.3618735E+02  0.7546771E-02  0.1372403E+00
          2   -1    0    0  502    0  0.00000000000E+00  0.00000000000E+00  0.16699701053E+03  0.16699701053E+03  0.00000000000E+00 0. -1.
          2   -1    0    0  501    0 -0.00000000000E+00 -0.00000000000E+00 -0.10084947665E+03  0.10084947665E+03  0.00000000000E+00 0. -1.
          2    1    1    2  501    0  0.36112351821E+02  0.23286541842E+01  0.16168502550E+03  0.16568515943E+03  0.00000000000E+00 0. -1.
          2    1    1    2  502    0 -0.36112351821E+02 -0.23286541842E+01 -0.95537491620E+02  0.10216132776E+03  0.00000000000E+00 0. -1.
</event>
<event>
 4    1  0.6688462E+003  0.2257493E+02  0.7546771E-02  0.1497906E+00
          2   -1    0    0  501    0  0.00000000000E+00  0.00000000000E+00  0.10857193405E+03  0.10857193405E+03  0.00000000000E+00 0. -1.
          2   -1    0    0  502    0 -0.00000000000E+00 -0.00000000000E+00 -0.55303001332E+03  0.55303001332E+03  0.00000000000E+00 0. -1.
          2    1    1    2  501    0  0.14658712812E+02  0.17168276407E+02 -0.55162316296E+03  0.55208490424E+03  0.00000000000E+00 0. -1.
          2    1    1    2  502    0 -0.14658712812E+02 -0.17168276407E+02  0.10716508368E+03  0.10951704313E+03  0.00000000000E+00 0. -1.
</event>
<event>
 4    1  0.6688462E+003  0.2128892E+02  0.7546771E-02  0.1515180E+00
          2   -1    0    0  501    0  0.00000000000E+00  0.00000000000E+00  0.37513399626E+00  0.37513399626E+00  0.00000000000E+00 0.  1.
          2   -1    0    0  502    0 -0.00000000000E+00 -0.00000000000E+00 -0.12275989283E+04  0.12275989283E+04  0.00000000000E+00 0.  1.
          2    1    1    2  501    0  0.14054357171E+02  0.15990404835E+02 -0.53632910349E+03  0.53675145575E+03  0.00000000000E+00 0.  1.
          2    1    1    2  502    0 -0.14054357171E+02 -0.15990404835E+02 -0.69089469086E+03  0.69122260659E+03  0.00000000000E+00 0.  1.
</event>
<event>
 4    1  0.6688462E+003  0.2711116E+02  0.7546771E-02  0.1446495E+00
          2   -1    0    0  501    0  0.00000000000E+00  0.00000000000E+00  0.63022294386E+02  0.63022294386E+02  0.00000000000E+00 0.  1.
          2   -1    0    0  502    0 -0.00000000000E+00 -0.00000000000E+00 -0.22517014853E+02  0.22517014853E+02  0.00000000000E+00 0.  1.
          2    1    1    2  501    0  0.62221150858E+01  0.26387507372E+02 -0.94421263613E+01  0.28708343938E+02  0.00000000000E+00 0.  1.
          2    1    1    2  502    0 -0.62221150858E+01 -0.26387507372E+02  0.49947405894E+02  0.56830965300E+02  0.00000000000E+00 0.  1.
</event>
<event>
 4    1  0.6688462E+003  0.2082626E+02  0.7546771E-02  0.1521760E+00
          2   -1    0    0  502    0  0.00000000000E+00  0.00000000000E+00  0.91674031717E+03  0.91674031717E+03  0.00000000000E+00 0.  1.
          2   -1    0    0  501    0 -0.00000000000E+00 -0.00000000000E+00 -0.44469021663E+01  0.44469021663E+01  0.00000000000E+00 0.  1.
          2    1    1    2  501    0 -0.10610949432E+02  0.17920407342E+02  0.89154913582E+03  0.89179234961E+03  0.00000000000E+00 0.  1.
          2    1    1    2  502    0  0.10610949432E+02 -0.17920407342E+02  0.20744279181E+02  0.29394869721E+02  0.00000000000E+00 0.  1.
</event>
<event>
 4    1  0.6688462E+003  0.2223275E+02  0.7546771E-02  0.1502364E+00
          2   -1    0    0  502    0  0.00000000000E+00  0.00000000000E+00  0.56660350954E+03  0.56660350954E+03  0.00000000000E+00 0. -1.
          2   -1    0    0  501    0 -0.00000000000E+00 -0.00000000000E+00 -0.43706939825E+02  0.43706939825E+02  0.00000000000E+00 0. -1.
          2    1    1    2  501    0 -0.51232589819E+01  0.21634404959E+02  0.56354273659E+03  0.56398112666E+03  0.00000000000E+00 0. -1.
          2    1    1    2  502    0  0.51232589819E+01 -0.21634404959E+02 -0.40646166878E+02  0.46329322706E+02  0.00000000000E+00 0. -1.
</event>
<event>
 4    1  0.6688462E+003  0.2128450E+02  0.7546771E-02  0.1515241E+00
          2   -1    0    0  502    0  0.00000000000E+00  0.00000000000E+00  0.25031634616E+02  0.25031634616E+02  0.00000000000E+00 0. -1.
          2   -1    0    0  501    0 -0.00000000000E+00 -0.00000000000E+00 -0.47010893806E+02  0.47010893806E+02  0.00000000000E+00 0. -1.
          2    1    1    2  501    0 -0.67209085598E+01  0.20195530909E+02  0.17259378933E+02  0.27402850978E+02  0.00000000000E+00 0. -1.
          2    1    1    2  502    0  0.67209085598E+01 -0.20195530909E+02 -0.39238638123E+02  0.44639677444E+02  0.00000000000E+00 0. -1.
</event>
<event>
 4    1  0.6688462E+003  0.2794019E+02  0.7546771E-02  0.1438386E+00
          2   -1    0    0  502    0  0.00000000000E+00  0.00000000000E+00  0.16858415054E+01  0.16858415054E+01  0.00000000000E+00 0. -1.
          2   -1    0    0  501    0 -0.00000000000E+00 -0.00000000000E+00 -0.16054102618E+04  0.16054102618E+04  0.00000000000E+00 0.  1.
          2    1    1    2  501    0 -0.12731555402E+02  0.24870895393E+02 -0.12403725143E+03  0.12714516776E+03  0.00000000000E+00 0. -1.
          2    1    1    2  502    0  0.12731555402E+02 -0.24870895393E+02 -0.14796871689E+04  0.14799509356E+04  0.00000000000E+00 0.  1.
</event>
<event>
 4    1  0.6688462E+003  0.2894937E+02  0.7546771E-02  0.1428951E+00
          2   -1    0    0  501    0  0.00000000000E+00  0.00000000000E+00  0.24684727096E+03  0.24684727096E+03  0.00000000000E+00 0.  1.
          2   -1    0    0  502    0 -0.00000000000E+00 -0.00000000000E+00 -0.15219337405E+03  0.15219337405E+03  0.00000000000E+00 0.  1.
          2    1    1    2  501    0 -0.68411969766E+01  0.28129420523E+02 -0.14995540553E+03  0.15272422834E+03  0.00000000000E+00 0.  1.
          2    1    1    2  502    0  0.68411969766E+01 -0.28129420523E+02  0.24460930244E+03  0.24631641666E+03  0.00000000000E+00 0.  1.
</event>
<event>
 4    1  0.6688462E+003  0.2837640E+02  0.7546771E-02  0.1434251E+00
          2   -1    0    0  502    0  0.00000000000E+00  0.00000000000E+00  0.21892721868E+02  0.21892721868E+02  0.00000000000E+00 0. -1.
          2   -1    0    0  501    0 -0.00000000000E+00 -0.00000000000E+00 -0.72871760684E+02  0.72871760684E+02  0.00000000000E+00 0. -1.
          2    1    1    2  501    0 -0.67960210083E+00  0.28368263053E+02  0.78560687695E+01  0.29443811305E+02  0.00000000000E+00 0. -1.
          2    1    1    2  502    0  0.67960210083E+00 -0.28368263053E+02 -0.58835107585E+02  0.65320671247E+02  0.00000000000E+00 0. -1.
</event>
<event>
 4    1  0.6688462E+003  0.2430394E+02  0.7546771E-02  0.1476743E+00
          2   -1    0    0  501    0  0.00000000000E+00  0.00000000000E+00  0.16058516340E+04  0.16058516340E+04  0.00000000000E+00 0. -1.
          2   -1    0    0  502    0 -0.00000000000E+00 -0.00000000000E+00 -0.53956054666E+01  0.53956054666E+01  0.00000000000E+00 0. -1.
          2    1    1    2  501    0 -0.10285278848E+02 -0.22020326326E+02  0.22549681256E+02  0.33153730668E+02  0.00000000000E+00 0. -1.
          2    1    1    2  502    0  0.10285278848E+02  0.22020326326E+02  0.15779063473E+04  0.15780935088E+04  0.00000000000E+00 0. -1.
</event>
<event>
 4    1  0.6688462E+003  0.5805339E+02  0.7546771E-02  0.1266594E+00
          2   -1    0    0  501    0  0.00000000000E+00  0.00000000000E+00  0.20088023786E+02  0.20088023786E+02  0.00000000000E+00 0. -1.
          2   -1    0    0  502    0 -0.00000000000E+00 -0.00000000000E+00 -0.25949179376E+03  0.25949179376E+03  0.00000000000E+00 0.  1.
          2    1    1    2  501    0  0.14598227462E+01 -0.58035031513E+02 -0.20281067356E+03  0.21095583726E+03  0.00000000000E+00 0.  1.
          2    1    1    2  502    0 -0.14598227462E+01  0.58035031513E+02 -0.36593096419E+02  0.68623980289E+02  0.00000000000E+00 0. -1.
</event>
<event>
 4    1  0.6688462E+003  0.2199074E+02  0.7546771E-02  0.1505576E+00
          2   -1    0    0  501    0  0.00000000000E+00  0.00000000000E+00  0.12071441537E+04  0.12071441537E+04  0.00000000000E+00 0.  1.
          2   -1    0    0  502    0 -0.00000000000E+00 -0.00000000000E+00 -0.84507303630E+01  0.84507303630E+01  0.00000000000E+00 0.  1.
          2    1    1    2  501    0  0.18652677448E+02 -0.11647755806E+02  0.61305638441E+01  0.22829288301E+02  0.00000000000E+00 0.  1.
          2    1    1    2  502    0 -0.18652677448E+02  0.11647755806E+02  0.11925628595E+04  0.11927655957E+04  0.00000000000E+00 0.  1.
</event>
<event>
 4    1  0.6688462E+003  0.2269307E+02  0.7546771E-02  0.1496389E+00
          2   -1    0    0  502    0  0.00000000000E+00  0.00000000000E+00  0.12226920572E+04  0.12226920572E+04  0.00000000000E+00 0. -1.
          2   -1    0    0  501    0 -0.00000000000E+00 -0.00000000000E+00 -0.44616664384E+00  0.44616664384E+00  0.00000000000E+00 0. -1.
          2    1    1    2  501    0 -0.18232475683E+02  0.13511188539E+02  0.46640008597E+03  0.46695183433E+03  0.00000000000E+00 0. -1.
          2    1    1    2  502    0  0.18232475683E+02 -0.13511188539E+02  0.75584580455E+03  0.75618638949E+03  0.00000000000E+00 0. -1.
</event>
<event>
 4    1  0.6688462E+003  0.2068916E+02  0.7546771E-02  0.1523749E+00
          2   -1    0    0  501    0  0.00000000000E+00  0.00000000000E+00  0.17509127053E+04  0.17509127053E+04  0.00000000000E+00 0. -1.
          2   -1    0    0  502    0 -0.00000000000E+00 -0.00000000000E+00 -0.25843270425E+00  0.25843270425E+00  0.00000000000E+00 0. -1.
          2    1    1    2  501    0  0.14663168678E+02 -0.14595642925E+02  0.67178796357E+03  0.67210647170E+03  0.00000000000E+00 0. -1.
          2    1    1    2  502    0 -0.14663168678E+02  0.14595642925E+02  0.10788663090E+04  0.10790646663E+04  0.00000000000E+00 0. -1.
</event>
<event>
 4    1  0.6688462E+003  0.2010771E+02  0.7546771E-02  0.1532396E+00
          2   -1    0    0  502    0  0.00000000000E+00  0.00000000000E+00  0.34893628475E+03  0.34893628475E+03  0.00000000000E+00 0. -1.
          2   -1    0    0  501    0 -0.00000000000E+00 -0.00000000000E+00 -0.14006364002E+02  0.14006364002E+02  0.00000000000E+00 0.  1.
          2    1    1    2  501    0 -0.13827880349E+02 -0.14598273049E+02  0.34126786576E+03  0.34185973155E+03  0.00000000000E+00 0. -1.
          2    1    1    2  502    0  0.13827880349E+02  0.14598273049E+02 -0.63379450129E+01  0.21082917207E+02  0.00000000000E+00 0.  1.
</event>
<event>
 4    1  0.6688462E+003  0.2958806E+02  0.7546771E-02  0.1423210E+00
          2   -1    0    0  502    0  0.00000000000E+00  0.00000000000E+00  0.13464316009E+04  0.13464316009E+04  0.00000000000E+00 0.  1.
          2   -1    0    0  501    0 -0.00000000000E+00 -0.00000000000E+00 -0.33560463074E+01  0.33560463074E+01  0.00000000000E+00 0.  1.
          2    1    1    2  501    0 -0.28493787145E+02 -0.79722804286E+01  0.12775380855E+04  0.12778806725E+04  0.00000000000E+00 0.  1.
          2    1    1    2  502    0  0.28493787145E+02  0.79722804286E+01  0.65537469076E+02  0.71906974725E+02  0.00000000000E+00 0.  1.
</event>
<event>
 4    1  0.6688462E+003  0.3065770E+02  0.7546771E-02  0.1413965E+00
          2   -1    0    0  502    0  0.00000000000E+00  0.00000000000E+00  0.57982187190E+03  0.57982187190E+03  0.00000000000E+00 0.  1.
          2   -1    0    0  501    0 -0.00000000000E+00 -0.00000000000E+00 -0.89124110787E+01  0.89124110787E+01  0.00000000000E+00 0.  1.
          2    1    1    2  501    0  0.15074762414E+02  0.26695431682E+02  0.55170947105E+03  0.55256061657E+03  0.00000000000E+00 0.  1.
          2    1    1    2  502    0 -0.15074762414E+02 -0.26695431682E+02  0.19199989773E+02  0.36173666413E+02  0.00000000000E+00 0.  1.
</event>
<event>
 4    1  0.6688462E+003  0.4679198E+02  0.7546771E-02  0.1312714E+00
          2   -1    0    0  502    0  0.00000000000E+00  0.00000000000E+00  0.45426028256E+03  0.45426028256E+03  0.00000000000E+00 0.  1.
          2   -1    0    0  501    0 -0.00000000000E+00 -0.00000000000E+00 -0.40409703001E+02  0.40409703001E+02  0.00000000000E+00 0. -1.
          2    1    1    2  501    0 -0.35778702960E+02 -0.30155820412E+02  0.43904153024E+03  0.44152797688E+03  0.00000000000E+00 0.  1.
          2    1    1    2  502    0  0.35778702960E+02  0.30155820412E+02 -0.25190950684E+02  0.53142008681E+02  0.00000000000E+00 0. -1.
</event>
<event>
 4    1  0.6688462E+003  0.2150539E+02  0.7546771E-02  0.1512170E+00
          2   -1    0    0  502    0  0.00000000000E+00  0.00000000000E+00  0.22660372672E+03  0.22660372672E+03  0.00000000000E+00 0. -1.
          2   -1    0    0  501    0 -0.00000000000E+00 -0.00000000000E+00 -0.83167877393E+01  0.83167877393E+01  0.00000000000E+00 0. -1.
          2    1    1    2  501    0 -0.79867824175E+01 -0.19967297673E+02  0.21117861473E+03  0.21227079165E+03  0.00000000000E+00 0. -1.
          2    1    1    2  502    0  0.79867824175E+01  0.19967297673E+02  0.71083242575E+01  0.22649722813E+02  0.00000000000E+00 0. -1.
</event>
<event>
 4    1  0.6688462E+003  0.2427802E+02  0.7546771E-02  0.1477045E+00
          2   -1    0    0  501    0  0.00000000000E+00  0.00000000000E+00  0.41922459112E+01  0.41922459112E+01  0.00000000000E+00 0. -1.
          2   -1    0    0  502    0 -0.00000000000E+00 -0.00000000000E+00 -0.21522593749E+03  0.21522593749E+03  0.00000000000E+00 0. -1.
          2    1    1    2  501    0 -0.19850900479E+02 -0.13977266704E+02 -0.17011876932E+03  0.17184242174E+03  0.00000000000E+00 0. -1.
          2    1    1    2  502    0  0.19850900479E+02  0.13977266704E+02 -0.40914922266E+02  0.47575761669E+02  0.00000000000E+00 0. -1.
</event>
<event>
 4    1  0.6688462E+003  0.2323704E+02  0.7546771E-02  0.1489543E+00
          2   -1    0    0  501    0  0.00000000000E+00  0.00000000000E+00  0.31538465455E+02  0.31538465455E+02  0.00000000000E+00 0. -1.
          2   -1    0    0  502    0 -0.00000000000E+00 -0.00000000000E+00 -0.10356277135E+03  0.10356277135E+03  0.00000000000E+00 0. -1.
          2    1    1    2  501    0  0.16797341020E+02  0.16056438878E+02 -0.97727068131E+02  0.10045167863E+03  0.00000000000E+00 0. -1.
          2    1    1    2  502    0 -0.16797341020E+02 -0.16056438878E+02  0.25702762238E+02  0.34649558171E+02  0.00000000000E+00 0. -1.
</event>
<event>
 4    1  0.6688462E+003  0.2111211E+02  0.7546771E-02  0.1517670E+00
          2   -1    0    0  502    0  0.00000000000E+00  0.00000000000E+00  0.13842520737E+04  0.13842520737E+04  0.00000000000E+00 0.  1.
          2   -1    0    0  501    0 -0.00000000000E+00 -0.00000000000E+00 -0.97675181088E+00  0.97675181088E+00  0.00000000000E+00 0. -1.
          2    1    1    2  501    0 -0.20936150499E+02  0.27200349115E+01  0.12587116485E+04  0.12588886905E+04  0.00000000000E+00 0.  1.
          2    1    1    2  502    0  0.20936150499E+02 -0.27200349115E+01  0.12456367342E+03  0.12634013505E+03  0.00000000000E+00 0. -1.
</event>
<event>
 4    1  0.6688462E+003  0.2361626E+02  0.7546771E-02  0.1484901E+00
          2   -1    0    0  502    0  0.00000000000E+00  0.00000000000E+00  0.11760524592E+02  0.11760524592E+02  0.00000000000E+00 0.  1.
          2   -1    0    0  501    0 -0.00000000000E+00 -0.00000000000E+00 -0.10033381855E+04  0.10033381855E+04  0.00000000000E+00 0. -1.
          2    1    1    2  501    0  0.16235093108E+02 -0.17150785963E+02 -0.37956041704E+00  0.23619309335E+02  0.00000000000E+00 0.  1.
          2    1    1    2  502    0 -0.16235093108E+02  0.17150785963E+02 -0.99119810045E+03  0.99147940072E+03  0.00000000000E+00 0. -1.
</event>
<event>
 4    1  0.6688462E+003  0.3740997E+02  0.7546771E-02  0.1364370E+00
          2   -1    0    0  501    0  0.00000000000E+00  0.00000000000E+00  0.42378150674E+03  0.42378150674E+03  0.00000000000E+00 0. -1.
          2   -1    0    0  502    0 -0.00000000000E+00 -0.00000000000E+00 -0.18019719223E+03  0.18019719223E+03  0.00000000000E+00 0.  1.
          2    1    1    2  501    0 -0.17472423440E+02 -0.33079000148E+02 -0.17741715933E+03  0.18131837815E+03  0.00000000000E+00 0.  1.
          2    1    1    2  502    0  0.17472423440E+02  0.33079000148E+02  0.42100147384E+03  0.42266032083E+03  0.00000000000E+00 0. -1.
</event>
<event>
 4    1  0.6688462E+003  0.2208266E+02  0.7546771E-02  0.1504350E+00
          2   -1    0    0  502    0  0.00000000000E+00  0.00000000000E+00  0.52895252879E+02  0.52895252879E+02  0.00000000000E+00 0. -1.
          2   -1    0    0  501    0 -0.00000000000E+00 -0.00000000000E+00 -0.80689758755E+02  0.80689758755E+02  0.00000000000E+00 0.  1.
          2    1    1    2  501    0  0.71460159130E+01 -0.20894461588E+02  0.48963932670E+02  0.53713227151E+02  0.00000000000E+00 0. -1.
          2    1    1    2  502    0 -0.71460159130E+01  0.20894461588E+02 -0.76758438546E+02  0.79871784483E+02  0.00000000000E+00 0.  1.
</event>
<event>
 4    1  0.6688462E+003  0.6405013E+02  0.7546771E-02  0.1246660E+00
          2   -1    0    0  501    0  0.00000000000E+00  0.00000000000E+00  0.24463907572E+04  0.24463907572E+04  0.00000000000E+00 0.  1.
          2   -1    0    0  502    0 -0.00000000000E+00 -0.00000000000E+00 -0.37347042209E+01  0.37347042209E+01  0.00000000000E+00 0. -1.
          2    1    1    2  501    0  0.60543913771E+02  0.20901057944E+02  0.31198161791E+03  0.31848853924E+03  0.00000000000E+00 0. -1.
          2    1    1    2  502    0 -0.60543913771E+02 -0.20901057944E+02  0.21306744351E+04  0.21316369222E+04  0.00000000000E+00 0.  1.
</event>
<event>
 4    1  0.6688462E+003  0.2459281E+02  0.7546771E-02  0.1473410E+00
          2   -1    0    0  502    0  0.00000000000E+00  0.00000000000E+00  0.20156525596E+02  0.20156525596E+02  0.00000000000E+00 0.  1.
          2   -1    0    0  501    0 -0.00000000000E+00 -0.00000000000E+00 -0.88849789965E+03  0.88849789965E+03  0.00000000000E+00 0.  1.
          2    1    1    2  501    0 -0.15313479936E+02 -0.19243274672E+02  0.12419091900E+02  0.27550682958E+02  0.00000000000E+00 0.  1.
          2    1    1    2  502    0  0.15313479936E+02  0.19243274672E+02 -0.88076046595E+03  0.88110374229E+03  0.00000000000E+00 0.  1.
</event>
<event>
 4    1  0.6688462E+003  0.2119844E+02  0.7546771E-02  0.1516450E+00
          2   -1    0    0  501    0  0.00000000000E+00  0.00000000000E+00  0.10603824758E+03  0.10603824758E+03  0.00000000000E+00 0. -1.
          2   -1    0    0  502    0 -0.00000000000E+00 -0.00000000000E+00 -0.34941543085E+02  0.34941543085E+02  0.00000000000E+00 0.  1.
          2    1    1    2  501    0 -0.16989835855E+01  0.21130244097E+02 -0.30528776315E+02  0.37166920024E+02  0.00000000000E+00 0.  1.
          2    1    1    2  502    0  0.16989835855E+01 -0.21130244097E+02  0.10162548081E+03  0.10381287064E+03  0.00000000000E+00 0. -1.
</event>
<event>
 4    1  0.6688462E+003  0.5341034E+02  0.7546771E-02  0.1284027E+00
          2   -1    0    0  502    0  0.00000000000E+00  0.00000000000E+00  0.86133948538E+03  0.86133948538E+03  0.00000000000E+00 0.  1.
          2   -1    0    0  501    0 -0.00000000000E+00 -0.00000000000E+00 -0.26041974511E+02  0.26041974511E+02  0.00000000000E+00 0. -1.
          2    1    1    2  501    0 -0.53275013263E+02 -0.37996984324E+01  0.83216722971E+03  0.83387946548E+03  0.00000000000E+00 0.  1.
          2    1    1    2  502    0  0.53275013263E+02  0.37996984324E+01  0.31302811633E+01  0.53501994416E+02  0.00000000000E+00 0. -1.
</event>
<event>
 4    1  0.6688462E+003  0.3769672E+02  0.7546771E-02  0.1362538E+00
          2   -1    0    0  502    0  0.00000000000E+00  0.00000000000E+00  0.67537878044E+03  0.67537878044E+03  0.00000000000E+00 0. -1.
          2   -1    0    0  501    0 -0.00000000000E+00 -0.00000000000E+00 -0.50458009524E+01  0.50458009524E+01  0.00000000000E+00 0.  1.
          2    1    1    2  501    0  0.37641860632E+02  0.20329155129E+01  0.59493506664E+03  0.59612815395E+03  0.00000000000E+00 0. -1.
          2    1    1    2  502    0 -0.37641860632E+02 -0.20329155129E+01  0.75397912850E+02  0.84296427442E+02  0.00000000000E+00 0.  1.
</event>
<event>
 4    1  0.6688462E+003  0.2057350E+02  0.7546771E-02  0.1525442E+00
          2   -1    0    0  501    0  0.00000000000E+00  0.00000000000E+00  0.62147324821E+00  0.62147324821E+00  0.00000000000E+00 0. -1.
          2   -1    0    0  502    0 -0.00000000000E+00 -0.00000000000E+00 -0.10812522538E+04  0.10812522538E+04  0.00000000000E+00 0. -1.
          2    1    1    2  501    0  0.60728115564E+01  0.19656800246E+02 -0.86940198201E+03  0.86964537322E+03  0.00000000000E+00 0. -1.
          2    1    1    2  502    0 -0.60728115564E+01 -0.19656800246E+02 -0.21122879850E+03  0.21222835379E+03  0.00000000000E+00 0. -1.
</event>
<event>
 4    1  0.6688462E+003  0.2552494E+02  0.7546771E-02  0.1463016E+00
          2   -1    0    0  501    0  0.00000000000E+00  0.00000000000E+00  0.29768719900E+02  0.29768719900E+02  0.00000000000E+00 0. -1.
          2   -1    0    0  502    0 -0.00000000000E+00 -0.00000000000E+00 -0.58122052497E+02  0.58122052497E+02  0.00000000000E+00 0. -1.
          2    1    1    2  501    0 -0.67992417155E+01  0.24602704622E+02 -0.48875296991E+02  0.55139073429E+02  0.00000000000E+00 0. -1.
          2    1    1    2  502    0  0.67992417155E+01 -0.24602704622E+02  0.20521964395E+02  0.32751698968E+02  0.00000000000E+00 0. -1.
</event>
<event>
 4    1  0.7939367E+003  0.2353499E+02  0.7546771E-02  0.1485887E+00
          2   -1    0    0  502    0  0.00000000000E+00  0.00000000000E+00  0.47385719350E+03  0.47385719350E+03  0.00000000000E+00 0.  1.
          2   -1    0    0  501    0 -0.00000000000E+00 -0.00000000000E+00 -0.14125814125E+04  0.14125814125E+04  0.00000000000E+00 0. -1.
          2    1    1    2  501    0 -0.19888127442E+02 -0.12584034953E+02  0.47346685672E+03  0.47405143177E+03  0.00000000000E+00 0.  1.
          2    1    1    2  502    0  0.19888127442E+02  0.12584034953E+02 -0.14121910758E+04  0.14123871742E+04  0.00000000000E+00 0. -1.
</event>
<event>
 4    1  0.6688462E+003  0.2343180E+02  0.7546771E-02  0.1487146E+00
          2   -1    0    0  501    0  0.00000000000E+00  0.00000000000E+00  0.96964204733E+01  0.96964204733E+01  0.00000000000E+00 0.  1.
          2   -1    0    0  502    0 -0.00000000000E+00 -0.00000000000E+00 -0.56626950744E+02  0.56626950744E+02  0.00000000000E+00 0.  1.
          2    1    1    2  501    0 -0.19538746817E+02  0.12933931129E+02 -0.23222101338E+02  0.32989622492E+02  0.00000000000E+00 0.  1.
          2    1    1    2  502    0  0.19538746817E+02 -0.12933931129E+02 -0.23708428933E+02  0.33333748725E+02  0.00000000000E+00 0.  1.
</event>
<event>
 4    1  0.6688462E+003  0.2836098E+02  0.7546771E-02  0.1434396E+00
          2   -1    0    0  501    0  0.00000000000E+00  0.00000000000E+00  0.21648179376E+02  0.21648179376E+02  0.00000000000E+00 0. -1.
          2   -1    0    0  502    0 -0.00000000000E+00 -0.00000000000E+00 -0.14777947519E+04  0.14777947519E+04  0.00000000000E+00 0. -1.
          2    1    1    2  501    0 -0.16878203581E+02  0.22791918017E+02 -0.14683098493E+04  0.14685837255E+04  0.00000000000E+00 0. -1.
          2    1    1    2  502    0  0.16878203581E+02 -0.22791918017E+02  0.12163276724E+02  0.30859205817E+02  0.00000000000E+00 0. -1.
</event>
<event>
 4    1  0.6688462E+003  0.2054797E+02  0.7546771E-02  0.1525818E+00
          2   -1    0    0  502    0  0.00000000000E+00  0.00000000000E+00  0.32947880515E+03  0.32947880515E+03  0.00000000000E+00 0.  1.
          2   -1    0    0  501    0 -0.00000000000E+00 -0.00000000000E+00 -0.78403559622E+01  0.78403559622E+01  0.00000000000E+00 0. -1.
          2    1    1    2  501    0 -0.17032115827E+02  0.11494603749E+02  0.31508088327E+03  0.31575018905E+03  0.00000000000E+00 0.  1.
          2    1    1    2  502    0  0.17032115827E+02 -0.11494603749E+02  0.65575659175E+01  0.21568972059E+02  0.00000000000E+00 0. -1.
</event>
<event>
 4    1  0.6688462E+003  0.2301196E+02  0.7546771E-02  0.1492348E+00
          2   -1    0    0  501    0  0.00000000000E+00  0.00000000000E+00  0.43469675713E+00  0.43469675713E+00  0.00000000000E+00 0. -1.
          2   -1    0    0  502    0 -0.00000000000E+00 -0.00000000000E+00 -0.16814056207E+04  0.16814056207E+04  0.00000000000E+00 0. -1.
          2    1    1    2  501    0  0.21398217500E+02 -0.84656079118E+01 -0.12818552269E+04  0.12820617664E+04  0.00000000000E+00 0. -1.
          2    1    1    2  502    0 -0.21398217500E+02  0.84656079118E+01 -0.39911569704E+03  0.39977855102E+03  0.00000000000E+00 0. -1.
</event>
<event>
 4    1  0.6688462E+003  0.5547353E+02  0.7546771E-02  0.1276039E+00
          2   -1    0    0  502    0  0.00000000000E+00  0.00000000000E+00  0.16915291737E+02  0.16915291737E+02  0.00000000000E+00 0.  1.
          2   -1    0    0  501    0 -0.00000000000E+00 -0.00000000000E+00 -0.87089354229E+03  0.87089354229E+03  0.00000000000E+00 0. -1.
          2    1    1    2  501    0  0.30558115299E+02 -0.46298095448E+02 -0.32162281266E+02  0.64122729113E+02  0.00000000000E+00 0.  1.
          2    1    1    2  502    0 -0.30558115299E+02  0.46298095448E+02 -0.82181596929E+03  0.82368610492E+03  0.00000000000E+00 0. -1.
</event>
<event>
 4    1  0.6688462E+003  0.2358015E+02  0.7546771E-02  0.1485339E+00
          2   -1    0    0  501    0  0.00000000000E+00  0.00000000000E+00  0.90704066430E+01  0.90704066430E+01  0.00000000000E+00 0.  1.
          2   -1    0    0  502    0 -0.00000000000E+00 -0.00000000000E+00 -0.63551136392E+02  0.63551136392E+02  0.00000000000E+00 0. -1.
          2    1    1    2  501    0  0.23206725570E+02 -0.41798776701E+01 -0.34073095327E+02  0.41436690434E+02  0.00000000000E+00 0. -1.
          2    1    1    2  502    0 -0.23206725570E+02  0.41798776701E+01 -0.20407634422E+02  0.31184852600E+02  0.00000000000E+00 0.  1.
</event>
<event>
 4    1  0.6688462E+003  0.2678880E+02  0.7546771E-02  0.1449741E+00
          2   -1    0    0  502    0  0.00000000000E+00  0.00000000000E+00  0.32892596311E+03  0.32892596311E+03  0.00000000000E+00 0.  1.
          2   -1    0    0  501    0 -0.00000000000E+00 -0.00000000000E+00 -0.22004457356E+01  0.22004457356E+01  0.00000000000E+00 0. -1.
          2    1    1    2  501    0  0.25933889196E+02  0.67136730813E+01  0.17861645318E+03  0.18061416711E+03  0.00000000000E+00 0.  1.
          2    1    1    2  502    0 -0.25933889196E+02 -0.67136730813E+01  0.14810906420E+03  0.15051224174E+03  0.00000000000E+00 0. -1.
</event>
<event>
 4    1  0.6688462E+003  0.6738649E+02  0.7546771E-02  0.1236610E+00
          2   -1    0    0  501    0  0.00000000000E+00  0.00000000000E+00  0.71779669729E+01  0.71779669729E+01  0.00000000000E+00 0. -1.
          2   -1    0    0  502    0 -0.00000000000E+00 -0.00000000000E+00 -0.76160522144E+03  0.76160522144E+03  0.00000000000E+00 0.  1.
          2    1    1    2  501    0 -0.67069003196E+02 -0.65335785574E+01 -0.53540243983E+03  0.53962645544E+03  0.00000000000E+00 0.  1.
          2    1    1    2  502    0  0.67069003196E+02  0.65335785574E+01 -0.21902481464E+03  0.22915673297E+03  0.00000000000E+00 0. -1.
</event>
<event>
 4    1  0.6688462E+003  0.2180344E+02  0.7546771E-02  0.1508096E+00
          2   -1    0    0  501    0  0.00000000000E+00  0.00000000000E+00  0.19459798041E+02  0.19459798041E+02  0.00000000000E+00 0. -1.
          2   -1    0    0  502    0 -0.00000000000E+00 -0.00000000000E+00 -0.52442224664E+03  0.52442224664E+03  0.00000000000E+00 0. -1.
          2    1    1    2  501    0 -0.53959431490E+01 -0.21125197320E+02 -0.51801275004E+03  0.51847140651E+03  0.00000000000E+00 0. -1.
          2    1    1    2  502    0  0.53959431490E+01  0.21125197320E+02  0.13050301445E+02  0.25410638167E+02  0.00000000000E+00 0. -1.
</event>
<event>
 4    1  0.6688462E+003  0.2163847E+02  0.7546771E-02  0.1510341E+00
          2   -1    0    0  502    0  0.00000000000E+00  0.00000000000E+00  0.78564494309E+03  0.78564494309E+03  0.00000000000E+00 0. -1.
          2   -1    0    0  501    0 -0.00000000000E+00 -0.00000000000E+00 -0.10850432059E+01  0.10850432059E+01  0.00000000000E+00 0.  1.
          2    1    1    2  501    0 -0.13621021737E+02 -0.16813425035E+02  0.65637339013E+03  0.65672996792E+03  0.00000000000E+00 0. -1.
          2    1    1    2  502    0  0.13621021737E+02  0.16813425035E+02  0.12818650976E+03  0.13000001838E+03  0.00000000000E+00 0.  1.
</event>
<event>
 4    1  0.6688462E+003  0.2189333E+02  0.7546771E-02  0.1506883E+00
          2   -1    0    0  501    0  0.00000000000E+00  0.00000000000E+00  0.42510313563E+00  0.42510313563E+00  0.00000000000E+00 0.  1.
          2   -1    0    0  502    0 -0.00000000000E+00 -0.00000000000E+00 -0.13680646735E+04  0.13680646735E+04  0.00000000000E+00 0. -1.
          2    1    1    2  501    0 -0.20602587016E+02 -0.74061807924E+01 -0.97072851585E+03  0.97097537023E+03  0.00000000000E+00 0. -1.
          2    1    1    2  502    0  0.20602587016E+02  0.74061807924E+01 -0.39691105456E+03  0.39751440645E+03  0.00000000000E+00 0.  1.
</event>
<event>
 4    1  0.6688462E+003  0.3027355E+02  0.7546771E-02  0.1417234E+00
          2   -1    0    0  501    0  0.00000000000E+00  0.00000000000E+00  0.14097695439E+04  0.14097695439E+04  0.00000000000E+00 0.  1.
          2   -1    0    0  502    0 -0.00000000000E+00 -0.00000000000E+00 -0.22396525691E+02  0.22396525691E+02  0.00000000000E+00 0. -1.
          2    1    1    2  501    0 -0.28260851025E+02  0.10854120408E+02 -0.11927226199E+02  0.32538382801E+02  0.00000000000E+00 0. -1.
          2    1    1    2  502    0  0.28260851025E+02 -0.10854120408E+02  0.13993002444E+04  0.13996276868E+04  0.00000000000E+00 0.  1.
</event>
<event>
 4    1  0.6688462E+003  0.2284782E+02  0.7546771E-02  0.1494418E+00
          2   -1    0    0  501    0  0.00000000000E+00  0.00000000000E+00  0.13654304479E+03  0.13654304479E+03  0.00000000000E+00 0.  1.
          2   -1    0    0  502    0 -0.00000000000E+00 -0.00000000000E+00 -0.59713896519E+01  0.59713896519E+01  0.00000000000E+00 0.  1.
          2    1    1    2  501    0 -0.11384512355E+02  0.19809490260E+02  0.22545914080E+02  0.32098929385E+02  0.00000000000E+00 0.  1.
          2    1    1    2  502    0  0.11384512355E+02 -0.19809490260E+02  0.10802574106E+03  0.11041550506E+03  0.00000000000E+00 0.  1.
</event>
<event>
 4    1  0.6688462E+003  0.2530312E+02  0.7546771E-02  0.1465441E+00
          2   -1    0    0  501    0  0.00000000000E+00  0.00000000000E+00  0.83691825918E+03  0.83691825918E+03  0.00000000000E+00 0. -1.
          2   -1    0    0  502    0 -0.00000000000E+00 -0.00000000000E+00 -0.10900471938E+01  0.10900471938E+01  0.00000000000E+00 0. -1.
          2    1    1    2  501    0  0.47118125856E+01  0.24860540602E+02  0.18910950890E+03  0.19079479556E+03  0.00000000000E+00 0. -1.
          2    1    1    2  502    0 -0.47118125856E+01 -0.24860540602E+02  0.64671870309E+03  0.64721351081E+03  0.00000000000E+00 0. -1.
</event>
<event>
 4    1  0.6688462E+003  0.2869741E+02  0.7546771E-02  0.1431264E+00
          2   -1    0    0  502    0  0.00000000000E+00  0.00000000000E+00  0.63328029181E+03  0.63328029181E+03  0.00000000000E+00 0. -1.
          2   -1    0    0  501    0 -0.00000000000E+00 -0.00000000000E+00 -0.47437567286E+01  0.47437567286E+01  0.00000000000E+00 0.  1.
          2    1    1    2  501    0  0.52729704947E+01  0.28208810673E+02  0.58605891879E+03  0.58676110771E+03  0.00000000000E+00 0. -1.
          2    1    1    2  502    0 -0.52729704947E+01 -0.28208810673E+02  0.42477616289E+02  0.51262940835E+02  0.00000000000E+00 0.  1.
</event>
<event>
 4    1  0.6688462E+003  0.3503123E+02  0.7546771E-02  0.1380344E+00
          2   -1    0    0  501    0  0.00000000000E+00  0.00000000000E+00  0.25937231141E+01  0.25937231141E+01  0.00000000000E+00 0. -1.
          2   -1    0    0  502    0 -0.00000000000E+00 -0.00000000000E+00 -0.23188366726E+04  0.23188366726E+04  0.00000000000E+00 0.  1.
          2    1    1    2  501    0  0.31467122557E+02 -0.15395046474E+02 -0.21936714635E+04  0.21939511565E+04  0.00000000000E+00 0.  1.
          2    1    1    2  502    0 -0.31467122557E+02  0.15395046474E+02 -0.12257148596E+03  0.12747923921E+03  0.00000000000E+00 0. -1.
</event>
<event>
 4    1  0.6688462E+003  0.4220319E+02  0.7546771E-02  0.1336037E+00
          2   -1    0    0  501    0  0.00000000000E+00  0.00000000000E+00  0.30870540382E+03  0.30870540382E+03  0.00000000000E+00 0. -1.
          2   -1    0    0  502    0 -0.00000000000E+00 -0.00000000000E+00 -0.45542482250E+02  0.45542482250E+02  0.00000000000E+00 0.  1.
          2    1    1    2  501    0  0.24414486518E+02  0.34424445007E+02 -0.33943084806E+02  0.54159418130E+02  0.00000000000E+00 0.  1.
          2    1    1    2  502    0 -0.24414486518E+02 -0.34424445007E+02  0.29710600638E+03  0.30008846794E+03  0.00000000000E+00 0. -1.
</event>
<event>
 4    1  0.6688462E+003  0.3329272E+02  0.7546771E-02  0.1392980E+00
          2   -1    0    0  502    0  0.00000000000E+00  0.00000000000E+00  0.86639206577E+00  0.86639206577E+00  0.00000000000E+00 0. -1.
          2   -1    0    0  501    0 -0.00000000000E+00 -0.00000000000E+00 -0.16713581292E+04  0.16713581292E+04  0.00000000000E+00 0. -1.
          2    1    1    2  501    0 -0.92572958431E+00  0.33279846845E+02 -0.43031022541E+03  0.43159621786E+03  0.00000000000E+00 0. -1.
          2    1    1    2  502    0  0.92572958431E+00 -0.33279846845E+02 -0.12401815117E+04  0.12406283034E+04  0.00000000000E+00 0. -1.
</event>
<event>
 4    1  0.6688462E+003  0.3247080E+02  0.7546771E-02  0.1399273E+00
          2   -1    0    0  501    0  0.00000000000E+00  0.00000000000E+00  0.46299868260E+01  0.46299868260E+01  0.00000000000E+00 0.  1.
          2   -1    0    0  502    0 -0.00000000000E+00 -0.00000000000E+00 -0.55107737284E+03  0.55107737284E+03  0.00000000000E+00 0.  1.
          2    1    1    2  501    0 -0.18636678761E+02  0.26589977723E+02 -0.48606185043E+03  0.48714523004E+03  0.00000000000E+00 0.  1.
          2    1    1    2  502    0  0.18636678761E+02 -0.26589977723E+02 -0.60385535581E+02  0.68562129619E+02  0.00000000000E+00 0.  1.
</event>
<event>
 4    1  0.6688462E+003  0.2208220E+02  0.7546771E-02  0.1504356E+00
          2   -1    0    0  502    0  0.00000000000E+00  0.00000000000E+00  0.47821682889E+03  0.47821682889E+03  0.00000000000E+00 0. -1.
          2   -1    0    0  501    0 -0.00000000000E+00 -0.00000000000E+00 -0.13986311307E+01  0.13986311307E+01  0.00000000000E+00 0. -1.
          2    1    1    2  501    0  0.57852233546E+01 -0.21310903483E+02  0.11358201021E+03  0.11570867064E+03  0.00000000000E+00 0. -1.
          2    1    1    2  502    0 -0.57852233546E+01  0.21310903483E+02  0.36323618755E+03  0.36390678939E+03  0.00000000000E+00 0. -1.
</event>
<event>
 4    1  0.6688462E+003  0.3400845E+02  0.7546771E-02  0.1387671E+00
          2   -1    0    0  502    0  0.00000000000E+00  0.00000000000E+00  0.21241872686E+01  0.21241872686E+01  0.00000000000E+00 0.  1.
          2   -1    0    0  501    0 -0.00000000000E+00 -0.00000000000E+00 -0.20037571967E+04  0.20037571967E+04  0.00000000000E+00 0. -1.
          2    1    1    2  501    0 -0.27481173710E+02 -0.20033967307E+02 -0.14491893386E+03  0.14885587710E+03  0.00000000000E+00 0.  1.
          2    1    1    2  502    0  0.27481173710E+02  0.20033967307E+02 -0.18567140756E+04  0.18570255069E+04  0.00000000000E+00 0. -1.
</event>
<event>
 4    1  0.6688462E+003  0.2153146E+02  0.7546771E-02  0.1511810E+00
          2   -1    0    0  502    0  0.00000000000E+00  0.00000000000E+00  0.30813346681E+03  0.30813346681E+03  0.00000000000E+00 0. -1.
          2   -1    0    0  501    0 -0.00000000000E+00 -0.00000000000E+00 -0.30784433482E+01  0.30784433482E+01  0.00000000000E+00 0. -1.
          2    1    1    2  501    0  0.83443768114E+00  0.21515287072E+02  0.26378968504E+03  0.26466696393E+03  0.00000000000E+00 0. -1.
          2    1    1    2  502    0 -0.83443768114E+00 -0.21515287072E+02  0.41265338422E+02  0.46544946226E+02  0.00000000000E+00 0. -1.
</event>
<event>
 4    1  0.6688462E+003  0.4536707E+02  0.7546771E-02  0.1319614E+00
          2   -1    0    0  501    0  0.00000000000E+00  0.00000000000E+00  0.32484347753E+03  0.32484347753E+03  0.00000000000E+00 0. -1.
          2   -1    0    0  502    0 -0.00000000000E+00 -0.00000000000E+00 -0.13783577158E+02  0.13783577158E+02  0.00000000000E+00 0.  1.
          2    1    1    2  501    0  0.42110372599E+02 -0.16878622550E+02  0.31072326727E+02  0.54987824723E+02  0.00000000000E+00 0.  1.
          2    1    1    2  502    0 -0.42110372599E+02  0.16878622550E+02  0.27998757364E+03  0.28363922996E+03  0.00000000000E+00 0. -1.
</event>
<event>
 4    1  0.6688462E+003  0.2410388E+02  0.7546771E-02  0.1479083E+00
          2   -1    0    0  502    0  0.00000000000E+00  0.00000000000E+00  0.10194208671E+03  0.10194208671E+03  0.00000000000E+00 0. -1.
          2   -1    0    0  501    0 -0.00000000000E+00 -0.00000000000E+00 -0.49189907542E+03  0.49189907542E+03  0.00000000000E+00 0. -1.
          2    1    1    2  501    0  0.22924636473E+02 -0.74470184864E+01  0.10021697125E+03  0.10307491629E+03  0.00000000000E+00 0. -1.
          2    1    1    2  502    0 -0.22924636473E+02  0.74470184864E+01 -0.49017395996E+03  0.49076624585E+03  0.00000000000E+00 0. -1.
</event>
<event>
 4    1  0.6688462E+003  0.3597476E+02  0.7546771E-02  0.1373837E+00
          2   -1    0    0  502    0  0.00000000000E+00  0.00000000000E+00  0.42524711073E+01  0.42524711073E+01  0.00000000000E+00 0. -1.
          2   -1    0    0  501    0 -0.00000000000E+00 -0.00000000000E+00 -0.36785119640E+03  0.36785119640E+03  0.00000000000E+00 0. -1.
          2    1    1    2  501    0  0.35153645942E+01 -0.35802591340E+02 -0.10448965202E+03  0.11050914313E+03  0.00000000000E+00 0. -1.
          2    1    1    2  502    0 -0.35153645942E+01  0.35802591340E+02 -0.25910907327E+03  0.26159452438E+03  0.00000000000E+00 0. -1.
</event>
<event>
 4    1  0.6688462E+003  0.2003798E+02  0.7546771E-02  0.1533456E+00
          2   -1    0    0  502    0  0.00000000000E+00  0.00000000000E+00  0.86448904734E+02  0.86448904734E+02  0.00000000000E+00 0.  1.
          2   -1    0    0  501    0 -0.00000000000E+00 -0.00000000000E+00 -0.10011429507E+03  0.10011429507E+03  0.00000000000E+00 0.  1.
          2    1    1    2  501    0 -0.16285098651E+02  0.11675449052E+02  0.84259403514E+02  0.86609281426E+02  0.00000000000E+00 0.  1.
          2    1    1    2  502    0  0.16285098651E+02 -0.11675449052E+02 -0.97924793847E+02  0.99953918375E+02  0.00000000000E+00 0.  1.
</event>
<event>
 4    1  0.6688462E+003  0.2002685E+02  0.7546771E-02  0.1533626E+00
          2   -1    0    0  501    0  0.00000000000E+00  0.00000000000E+00  0.71207427421E+00  0.71207427421E+00  0.00000000000E+00 0.  1.
          2   -1    0    0  502    0 -0.00000000000E+00 -0.00000000000E+00 -0.15709536156E+04  0.15709536156E+04  0.00000000000E+00 0.  1.
          2    1    1    2  501    0  0.14046929499E+02  0.14274396233E+02 -0.14145041543E+04  0.14146459194E+04  0.00000000000E+00 0.  1.
          2    1    1    2  502    0 -0.14046929499E+02 -0.14274396233E+02 -0.15573738699E+03  0.15701977049E+03  0.00000000000E+00 0.  1.
</event>
<event>
 4    1  0.6688462E+003  0.5083091E+02  0.7546771E-02  0.1294610E+00
          2   -1    0    0  502    0  0.00000000000E+00  0.00000000000E+00  0.45801724896E+02  0.45801724896E+02  0.00000000000E+00 0. -1.
          2   -1    0    0  501    0 -0.00000000000E+00 -0.00000000000E+00 -0.24425265983E+04  0.24425265983E+04  0.00000000000E+00 0. -1.
          2    1    1    2  501    0  0.10127629232E+02  0.49811774193E+02  0.31350256310E+02  0.59721187973E+02  0.00000000000E+00 0. -1.
          2    1    1    2  502    0 -0.10127629232E+02 -0.49811774193E+02 -0.24280751297E+04  0.24286071352E+04  0.00000000000E+00 0. -1.
</event>
<event>
 4    1  0.6688462E+003  0.6880038E+02  0.7546771E-02  0.1232546E+00
          2   -1    0    0  502    0  0.00000000000E+00  0.00000000000E+00  0.25684128302E+04  0.25684128302E+04  0.00000000000E+00 0. -1.
          2   -1    0    0  501    0 -0.00000000000E+00 -0.00000000000E+00 -0.79695819580E+02  0.79695819580E+02  0.00000000000E+00 0. -1.
          2    1    1    2  501    0  0.64247891160E+02  0.24610996490E+02  0.25530139207E+04  0.25539407926E+04  0.00000000000E+00 0. -1.
          2    1    1    2  502    0 -0.64247891160E+02 -0.24610996490E+02 -0.64296910139E+02  0.94167857150E+02  0.00000000000E+00 0. -1.
</event>
<event>
 4    1  0.6688462E+003  0.4684414E+02  0.7546771E-02  0.1312467E+00
          2   -1    0    0  502    0  0.00000000000E+00  0.00000000000E+00  0.70631651906E+03  0.70631651906E+03  0.00000000000E+00 0.  1.
          2   -1    0    0  501    0 -0.00000000000E+00 -0.00000000000E+00 -0.28056246871E+02  0.28056246871E+02  0.00000000000E+00 0. -1.
          2    1    1    2  501    0 -0.27861388080E+02 -0.37657882166E+02  0.68539017854E+03  0.68698913374E+03  0.00000000000E+00 0.  1.
          2    1    1    2  502    0  0.27861388080E+02  0.37657882166E+02 -0.71299063538E+01  0.47383632191E+02  0.00000000000E+00 0. -1.
</event>
<event>
 4    1  0.6688462E+003  0.4113778E+02  0.7546771E-02  0.1341944E+00
          2   -1    0    0  501    0  0.00000000000E+00  0.00000000000E+00  0.84743116848E+01  0.84743116848E+01  0.00000000000E+00 0.  1.
          2   -1    0    0  502    0 -0.00000000000E+00 -0.00000000000E+00 -0.24589710112E+04  0.24589710112E+04  0.00000000000E+00 0.  1.
          2    1    1    2  501    0 -0.38925836046E+02 -0.13307738465E+02 -0.24078134050E+04  0.24081648013E+04  0.00000000000E+00 0.  1.
          2    1    1    2  502    0  0.38925836046E+02  0.13307738465E+02 -0.42683294476E+02  0.59280521609E+02  0.00000000000E+00 0.  1.
</event>
<event>
 4    1  0.6688462E+003  0.5692506E+02  0.7546771E-02  0.1270654E+00
          2   -1    0    0  502    0  0.00000000000E+00  0.00000000000E+00  0.19823577312E+03  0.19823577312E+03  0.00000000000E+00 0. -1.
          2   -1    0    0  501    0 -0.00000000000E+00 -0.00000000000E+00 -0.40251411172E+03  0.40251411172E+03  0.00000000000E+00 0.  1.
          2    1    1    2  501    0 -0.23319770878E+02  0.51929281507E+02  0.19207329362E+03  0.20033125596E+03  0.00000000000E+00 0. -1.
          2    1    1    2  502    0  0.23319770878E+02 -0.51929281507E+02 -0.39635163222E+03  0.40041862888E+03  0.00000000000E+00 0.  1.
</event>
<event>
 4    1  0.6688462E+003  0.2205337E+02  0.7546771E-02  0.1504740E+00
          2   -1    0    0  501    0  0.00000000000E+00  0.00000000000E+00  0.12722357979E+04  0.12722357979E+04  0.00000000000E+00 0.  1.
          2   -1    0    0  502    0 -0.00000000000E+00 -0.00000000000E+00 -0.23127822306E+02  0.23127822306E+02  0.00000000000E+00 0.  1.
          2    1    1    2  501    0 -0.20768808649E+02  0.74167092220E+01 -0.17752741497E+02  0.28310966409E+02  0.00000000000E+00 0.  1.
          2    1    1    2  502    0  0.20768808649E+02 -0.74167092220E+01  0.12668607171E+04  0.12670526538E+04  0.00000000000E+00 0.  1.
</event>
<event>
 4    1  0.6688462E+003  0.2018480E+02  0.7546771E-02  0.1531229E+00
          2   -1    0    0  502    0  0.00000000000E+00  0.00000000000E+00  0.31715626560E+02  0.31715626560E+02  0.00000000000E+00 0.  1.
          2   -1    0    0  501    0 -0.00000000000E+00 -0.00000000000E+00 -0.40865132520E+03  0.40865132520E+03  0.00000000000E+00 0.  1.
          2    1    1    2  501    0 -0.14354032739E+02  0.14191121577E+02  0.28227184635E+02  0.34701586994E+02  0.00000000000E+00 0.  1.
          2    1    1    2  502    0  0.14354032739E+02 -0.14191121577E+02 -0.40516288327E+03  0.40566536477E+03  0.00000000000E+00 0.  1.
</event>
<event>
 4    1  0.6688462E+003  0.3160971E+02  0.7546771E-02  0.1406105E+00
          2   -1    0    0  502    0  0.00000000000E+00  0.00000000000E+00  0.11392378105E+02  0.11392378105E+02  0.00000000000E+00 0.  1.
          2   -1    0    0  501    0 -0.00000000000E+00 -0.00000000000E+00 -0.17703805495E+03  0.17703805495E+03  0.00000000000E+00 0.  1.
          2    1    1    2  501    0  0.98682060817E+01  0.30029852314E+02 -0.15897163123E+02  0.35382104468E+02  0.00000000000E+00 0.  1.
          2    1    1    2  502    0 -0.98682060817E+01 -0.30029852314E+02 -0.14974851372E+03  0.15304832859E+03  0.00000000000E+00 0.  1.
</event>
<event>
 4    1  0.6688462E+003  0.2729330E+02  0.7546771E-02  0.1444684E+00
          2   -1    0    0  501    0  0.00000000000E+00  0.00000000000E+00  0.15580412847E+02  0.15580412847E+02  0.00000000000E+00 0. -1.
          2   -1    0    0  502    0 -0.00000000000E+00 -0.00000000000E+00 -0.57921122532E+02  0.57921122532E+02  0.00000000000E+00 0. -1.
          2    1    1    2  501    0  0.99296886187E+01 -0.25422932831E+02 -0.58166361390E+01  0.27906226648E+02  0.00000000000E+00 0. -1.
          2    1    1    2  502    0 -0.99296886187E+01  0.25422932831E+02 -0.36524073546E+02  0.45595308730E+02  0.00000000000E+00 0. -1.
</event>
<event>
 4    1  0.6688462E+003  0.2671514E+02  0.7546771E-02  0.1450491E+00
          2   -1    0    0  501    0  0.00000000000E+00  0.00000000000E+00  0.21206741362E+03  0.21206741362E+03  0.00000000000E+00 0. -1.
          2   -1    0    0  502    0 -0.00000000000E+00 -0.00000000000E+00 -0.26843035167E+02  0.26843035167E+02  0.00000000000E+00 0.  1.
          2    1    1    2  501    0  0.60109143228E+01  0.26030127060E+02 -0.19104025144E+02  0.32842995942E+02  0.00000000000E+00 0.  1.
          2    1    1    2  502    0 -0.60109143228E+01 -0.26030127060E+02  0.20432840360E+03  0.20606745285E+03  0.00000000000E+00 0. -1.
</event>
<event>
 4    1  0.6688462E+003  0.6019551E+02  0.7546771E-02  0.1259170E+00
          2   -1    0    0  502    0  0.00000000000E+00  0.00000000000E+00  0.12842726261E+04  0.12842726261E+04  0.00000000000E+00 0. -1.
          2   -1    0    0  501    0 -0.00000000000E+00 -0.00000000000E+00 -0.28974136974E+01  0.28974136974E+01  0.00000000000E+00 0. -1.
          2    1    1    2  501    0  0.56298072839E+02  0.21307894199E+02  0.53647275142E+03  0.53983933941E+03  0.00000000000E+00 0. -1.
          2    1    1    2  502    0 -0.56298072839E+02 -0.21307894199E+02  0.74490246097E+03  0.74733070037E+03  0.00000000000E+00 0. -1.
</event>
<event>
 4    1  0.6688462E+003  0.2419591E+02  0.7546771E-02  0.1478003E+00
          2   -1    0    0  502    0  0.00000000000E+00  0.00000000000E+00  0.13114305096E+03  0.13114305096E+03  0.00000000000E+00 0.  1.
          2   -1    0    0  501    0 -0.00000000000E+00 -0.00000000000E+00 -0.48546714892E+02  0.48546714892E+02  0.00000000000E+00 0.  1.
          2    1    1    2  501    0  0.10621049522E+02 -0.21740176123E+02  0.12691257695E+03  0.12919846802E+03  0.00000000000E+00 0.  1.
          2    1    1    2  502    0 -0.10621049522E+02  0.21740176123E+02 -0.44316240882E+02  0.50491297831E+02  0.00000000000E+00 0.  1.
</event>
<event>
 4    1  0.6688462E+003  0.2551950E+02  0.7546771E-02  0.1463075E+00
          2   -1    0    0  502    0  0.00000000000E+00  0.00000000000E+00  0.22119685730E+03  0.22119685730E+03  0.00000000000E+00 0.  1.
          2   -1    0    0  501    0 -0.00000000000E+00 -0.00000000000E+00 -0.11017277970E+02  0.11017277970E+02  0.00000000000E+00 0.  1.
          2    1    1    2  501    0 -0.21731356116E+02  0.13378837403E+02  0.20447949431E+03  0.20606578737E+03  0.00000000000E+00 0.  1.
          2    1    1    2  502    0  0.21731356116E+02 -0.13378837403E+02  0.57000850191E+01  0.26148347904E+02  0.00000000000E+00 0.  1.
</event>
<event>
 4    1  0.6688462E+003  0.2912186E+02  0.7546771E-02  0.1427384E+00
          2   -1    0    0  501    0  0.00000000000E+00  0.00000000000E+00  0.36989554989E+03  0.36989554989E+03  0.00000000000E+00 0. -1.
          2   -1    0    0  502    0 -0.00000000000E+00 -0.00000000000E+00 -0.32244334913E+02  0.32244334913E+02  0.00000000000E+00 0.  1.
          2    1    1    2  501    0 -0.16439245923E+02 -0.24038180604E+02 -0.24963895884E+02  0.38357255259E+02  0.00000000000E+00 0.  1.
          2    1    1    2  502    0  0.16439245923E+02  0.24038180604E+02  0.36261511086E+03  0.36378262955E+03  0.00000000000E+00 0. -1.
</event>
<event>
 4    1  0.6688462E+003  0.2787091E+02  0.7546771E-02  0.1439050E+00
          2   -1    0    0  502    0  0.00000000000E+00  0.00000000000E+00  0.12210637025E+02  0.12210637025E+02  0.00000000000E+00 0.  1.
          2   -1    0    0  501    0 -0.00000000000E+00 -0.00000000000E+00 -0.38705825374E+03  0.38705825374E+03  0.00000000000E+00 0.  1.
          2    1    1    2  501    0  0.27557175040E+02  0.41701198233E+01 -0.49309333212E+01  0.28303743550E+02  0.00000000000E+00 0.  1.
          2    1    1    2  502    0 -0.27557175040E+02 -0.41701198233E+01 -0.36991668340E+03  0.37096514722E+03  0.00000000000E+00 0.  1.
</event>
<event>
 4    1  0.6688462E+003  0.2720174E+02  0.7546771E-02  0.1445592E+00
          2   -1    0    0  501    0  0.00000000000E+00  0.00000000000E+00  0.87038103158E+02  0.87038103158E+02  0.00000000000E+00 0.  1.
          2   -1    0    0  502    0 -0.00000000000E+00 -0.00000000000E+00 -0.81933904631E+03  0.81933904631E+03  0.00000000000E+00 0. -1.
          2    1    1    2  501    0 -0.20563341915E+02  0.17806836787E+02 -0.81698182647E+03  0.81743454738E+03  0.00000000000E+00 0. -1.
          2    1    1    2  502    0  0.20563341915E+02 -0.17806836787E+02  0.84680883317E+02  0.88942602090E+02  0.00000000000E+00 0.  1.
</event>
<event>
 4    1  0.6688462E+003  0.2280770E+02  0.7546771E-02  0.1494927E+00
          2   -1    0    0  501    0  0.00000000000E+00  0.00000000000E+00  0.66397284858E+03  0.66397284858E+03  0.00000000000E+00 0. -1.
          2   -1    0    0  502    0 -0.00000000000E+00 -0.00000000000E+00 -0.92535619648E+02  0.92535619648E+02  0.00000000000E+00 0.  1.
          2    1    1    2  501    0  0.22676528416E+02 -0.24425626689E+01 -0.90930972334E+02  0.93747708148E+02  0.00000000000E+00 0.  1.
          2    1    1    2  502    0 -0.22676528416E+02  0.24425626689E+01  0.66236820126E+03  0.66276076008E+03  0.00000000000E+00 0. -1.
</event>
<event>
 4    1  0.6688462E+003  0.2663223E+02  0.7546771E-02  0.1451338E+00
          2   -1    0    0  501    0  0.00000000000E+00  0.00000000000E+00  0.11428560267E+03  0.11428560267E+03  0.00000000000E+00 0. -1.
          2   -1    0    0  502    0 -0.00000000000E+00 -0.00000000000E+00 -0.12623853195E+03  0.12623853195E+03  0.00000000000E+00 0.  1.
          2    1    1    2  501    0 -0.19044720337E+02  0.18616499736E+02 -0.12324510246E+03  0.12608977245E+03  0.00000000000E+00 0.  1.
          2    1    1    2  502    0  0.19044720337E+02 -0.18616499736E+02  0.11129217318E+03  0.11443436218E+03  0.00000000000E+00 0. -1.
</event>
<event>
 4    1  0.6688462E+003  0.2228342E+02  0.7546771E-02  0.1501698E+00
          2   -1    0    0  501    0  0.00000000000E+00  0.00000000000E+00  0.13368429300E+02  0.13368429300E+02  0.00000000000E+00 0.  1.
          2   -1    0    0  502    0 -0.00000000000E+00 -0.00000000000E+00 -0.37214526991E+02  0.37214526991E+02  0.00000000000E+00 0.  1.
          2    1    1    2  501    0 -0.20005241308E+02  0.98153488576E+01 -0.13027675331E+02  0.25812227287E+02  0.00000000000E+00 0.  1.
          2    1    1    2  502    0  0.20005241308E+02 -0.98153488576E+01 -0.10818422360E+02  0.24770729004E+02  0.00000000000E+00 0.  1.
</event>
<event>
 4    1  0.6688462E+003  0.3278383E+02  0.7546771E-02  0.1396851E+00
          2   -1    0    0  501    0  0.00000000000E+00  0.00000000000E+00  0.12837440043E+04  0.12837440043E+04  0.00000000000E+00 0.  1.
          2   -1    0    0  502    0 -0.00000000000E+00 -0.00000000000E+00 -0.12977299567E+01  0.12977299567E+01  0.00000000000E+00 0.  1.
          2    1    1    2  501    0 -0.29207529733E+02 -0.14889589369E+02  0.25847481551E+03  0.26054560046E+03  0.00000000000E+00 0.  1.
          2    1    1    2  502    0  0.29207529733E+02  0.14889589369E+02  0.10239714588E+04  0.10244961338E+04  0.00000000000E+00 0.  1.
</event>
<event>
 4    1  0.6688462E+003  0.2066307E+02  0.7546771E-02  0.1524130E+00
          2   -1    0    0  501    0  0.00000000000E+00  0.00000000000E+00  0.32353139006E+02  0.32353139006E+02  0.00000000000E+00 0.  1.
          2   -1    0    0  502    0 -0.00000000000E+00 -0.00000000000E+00 -0.47163948548E+03  0.47163948548E+03  0.00000000000E+00 0. -1.
          2    1    1    2  501    0 -0.44902296619E+01  0.20169288661E+02 -0.46808891951E+03  0.46854476727E+03  0.00000000000E+00 0. -1.
          2    1    1    2  502    0  0.44902296619E+01 -0.20169288661E+02  0.28802573038E+02  0.35447857215E+02  0.00000000000E+00 0.  1.
</event>
<event>
 4    1  0.6688462E+003  0.2979134E+02  0.7546771E-02  0.1421419E+00
          2   -1    0    0  502    0  0.00000000000E+00  0.00000000000E+00  0.49391950198E+02  0.49391950198E+02  0.00000000000E+00 0. -1.
          2   -1    0    0  501    0 -0.00000000000E+00 -0.00000000000E+00 -0.17878612757E+03  0.17878612757E+03  0.00000000000E+00 0. -1.
          2    1    1    2  501    0 -0.20139301659E+02  0.21952960546E+02  0.43506873289E+02  0.52729232608E+02  0.00000000000E+00 0. -1.
          2    1    1    2  502    0  0.20139301659E+02 -0.21952960546E+02 -0.17290105066E+03  0.17544884516E+03  0.00000000000E+00 0. -1.
</event>
<event>
 4    1  0.6688462E+003  0.2029227E+02  0.7546771E-02  0.1529614E+00
          2   -1    0    0  502    0  0.00000000000E+00  0.00000000000E+00  0.74846771533E+00  0.74846771533E+00  0.00000000000E+00 0. -1.
          2   -1    0    0  501    0 -0.00000000000E+00 -0.00000000000E+00 -0.81464700081E+03  0.81464700081E+03  0.00000000000E+00 0. -1.
          2    1    1    2  501    0 -0.19541063305E+02 -0.54701809520E+01 -0.63925332077E+03  0.63957531546E+03  0.00000000000E+00 0. -1.
          2    1    1    2  502    0  0.19541063305E+02  0.54701809520E+01 -0.17464521232E+03  0.17582015306E+03  0.00000000000E+00 0. -1.
</event>
<event>
 4    1  0.6688462E+003  0.2350829E+02  0.7546771E-02  0.1486212E+00
          2   -1    0    0  502    0  0.00000000000E+00  0.00000000000E+00  0.30086805186E+02  0.30086805186E+02  0.00000000000E+00 0.  1.
          2   -1    0    0  501    0 -0.00000000000E+00 -0.00000000000E+00 -0.36088071088E+02  0.36088071088E+02  0.00000000000E+00 0.  1.
          2    1    1    2  501    0  0.80989296100E+01 -0.22069144557E+02  0.20184620747E+02  0.30984814297E+02  0.00000000000E+00 0.  1.
          2    1    1    2  502    0 -0.80989296100E+01  0.22069144557E+02 -0.26185886649E+02  0.35190061977E+02  0.00000000000E+00 0.  1.
</event>
<event>
 4    1  0.6688462E+003  0.5243864E+02  0.7546771E-02  0.1287932E+00
          2   -1    0    0  502    0  0.00000000000E+00  0.00000000000E+00  0.63421858557E+03  0.63421858557E+03  0.00000000000E+00 0. -1.
          2   -1    0    0  501    0 -0.00000000000E+00 -0.00000000000E+00 -0.17890503419E+02  0.17890503419E+02  0.00000000000E+00 0. -1.
          2    1    1    2  501    0  0.49772523003E+02 -0.16507768010E+02  0.59197218803E+03  0.59429023368E+03  0.00000000000E+00 0. -1.
          2    1    1    2  502    0 -0.49772523003E+02  0.16507768010E+02  0.24355894127E+02  0.57818855311E+02  0.00000000000E+00 0. -1.
</event>
<event>
 4    1  0.6688462E+003  0.2217624E+02  0.7546771E-02  0.1503109E+00
          2   -1    0    0  502    0  0.00000000000E+00  0.00000000000E+00  0.15429677153E+02  0.15429677153E+02  0.00000000000E+00 0.  1.
          2   -1    0    0  501    0 -0.00000000000E+00 -0.00000000000E+00 -0.37832282836E+03  0.37832282836E+03  0.00000000000E+00 0. -1.
          2    1    1    2  501    0 -0.21203702710E+02  0.64952847317E+01  0.69540815861E+01  0.23241019407E+02  0.00000000000E+00 0.  1.
          2    1    1    2  502    0  0.21203702710E+02 -0.64952847317E+01 -0.36984723280E+03  0.37051148611E+03  0.00000000000E+00 0. -1.
</event>
<event>
 4    1  0.6688462E+003  0.2122088E+02  0.7546771E-02  0.1516134E+00
          2   -1    0    0  501    0  0.00000000000E+00  0.00000000000E+00  0.10015488444E+03  0.10015488444E+03  0.00000000000E+00 0.  1.
          2   -1    0    0  502    0 -0.00000000000E+00 -0.00000000000E+00 -0.23061601699E+03  0.23061601699E+03  0.00000000000E+00 0.  1.
          2    1    1    2  501    0 -0.13920972768E+02  0.16016628314E+02 -0.22899583018E+03  0.22997699038E+03  0.00000000000E+00 0.  1.
          2    1    1    2  502    0  0.13920972768E+02 -0.16016628314E+02  0.98534697637E+02  0.10079391104E+03  0.00000000000E+00 0.  1.
</event>
<event>
 4    1  0.6688462E+003  0.2075493E+02  0.7546771E-02  0.1522793E+00
          2   -1    0    0  501    0  0.00000000000E+00  0.00000000000E+00  0.11950468665E+02  0.11950468665E+02  0.00000000000E+00 0.  1.
          2   -1    0    0  502    0 -0.00000000000E+00 -0.00000000000E+00 -0.10255548284E+04  0.10255548284E+04  0.00000000000E+00 0. -1.
          2    1    1    2  501    0 -0.16954635020E+02  0.11971104867E+02 -0.10163567656E+04  0.10165686608E+04  0.00000000000E+00 0. -1.
          2    1    1    2  502    0  0.16954635020E+02 -0.11971104867E+02  0.27524059181E+01  0.20936636280E+02  0.00000000000E+00 0.  1.
</event>
<event>
 4    1  0.6688462E+003  0.2235971E+02  0.7546771E-02  0.1500699E+00
          2   -1    0    0  501    0  0.00000000000E+00  0.00000000000E+00  0.48453216757E+03  0.48453216757E+03  0.00000000000E+00 0.  1.
          2   -1    0    0  502    0 -0.00000000000E+00 -0.00000000000E+00 -0.44323736109E+02  0.44323736109E+02  0.00000000000E+00 0. -1.
          2    1    1    2  501    0 -0.22162786038E+02  0.29610017603E+01 -0.41227738597E+02  0.46900778738E+02  0.00000000000E+00 0. -1.
          2    1    1    2  502    0  0.22162786038E+02 -0.29610017603E+01  0.48143617006E+03  0.48195512494E+03  0.00000000000E+00 0.  1.
</event>
<event>
 4    1  0.6688462E+003  0.2411574E+02  0.7546771E-02  0.1478944E+00
          2   -1    0    0  501    0  0.00000000000E+00  0.00000000000E+00  0.14131817035E+03  0.14131817035E+03  0.00000000000E+00 0. -1.
          2   -1    0    0  502    0 -0.00000000000E+00 -0.00000000000E+00 -0.48685387402E+01  0.48685387402E+01  0.00000000000E+00 0.  1.
          2    1    1    2  501    0  0.17567537335E+02  0.16521214263E+02  0.39474648953E+02  0.46258153862E+02  0.00000000000E+00 0.  1.
          2    1    1    2  502    0 -0.17567537335E+02 -0.16521214263E+02  0.96974982661E+02  0.99928555233E+02  0.00000000000E+00 0. -1.
</event>
<event>
 4    1  0.6688462E+003  0.2637830E+02  0.7546771E-02  0.1453955E+00
          2   -1    0    0  502    0  0.00000000000E+00  0.00000000000E+00  0.50857018046E+03  0.50857018046E+03  0.00000000000E+00 0.  1.
          2   -1    0    0  501    0 -0.00000000000E+00 -0.00000000000E+00 -0.41120744905E+03  0.41120744905E+03  0.00000000000E+00 0.  1.
          2    1    1    2  501    0  0.24895880339E+02 -0.87183717155E+01  0.50780446681E+03  0.50848912612E+03  0.00000000000E+00 0.  1.
          2    1    1    2  502    0 -0.24895880339E+02  0.87183717155E+01 -0.41044173541E+03  0.41128850340E+03  0.00000000000E+00 0.  1.
</event>
<event>
 4    1  0.6688462E+003  0.2394893E+02  0.7546771E-02  0.1480914E+00
          2   -1    0    0  501    0  0.00000000000E+00  0.00000000000E+00  0.58317144817E+01  0.58317144817E+01  0.00000000000E+00 0.  1.
          2   -1    0    0  502    0 -0.00000000000E+00 -0.00000000000E+00 -0.11863163945E+04  0.11863163945E+04  0.00000000000E+00 0. -1.
          2    1    1    2  501    0  0.14545415444E+02  0.19025824207E+02 -0.11610734386E+04  0.11613204040E+04  0.00000000000E+00 0. -1.
          2    1    1    2  502    0 -0.14545415444E+02 -0.19025824207E+02 -0.19411241451E+02  0.30827704940E+02  0.00000000000E+00 0.  1.
</event>
<event>
 4    1  0.7478277E+003  0.3029343E+02  0.7546771E-02  0.1417063E+00
          2   -1    0    0  502    0  0.00000000000E+00  0.00000000000E+00  0.12726586980E+04  0.12726586980E+04  0.00000000000E+00 0.  1.
          2   -1    0    0  501    0 -0.00000000000E+00 -0.00000000000E+00 -0.27747675058E+03  0.27747675058E+03  0.00000000000E+00 0.  1.
          2    1    1    2  501    0 -0.45984189524E+01 -0.29942390007E+02  0.12716509532E+04  0.12720117291E+04  0.00000000000E+00 0.  1.
          2    1    1    2  502    0  0.45984189524E+01  0.29942390007E+02 -0.27646900579E+03  0.27812371948E+03  0.00000000000E+00 0.  1.
</event>
<event>
 4    1  0.6688462E+003  0.2928400E+02  0.7546771E-02  0.1425922E+00
          2   -1    0    0  501    0  0.00000000000E+00  0.00000000000E+00  0.27278523463E+03  0.27278523463E+03  0.00000000000E+00 0.  1.
          2   -1    0    0  502    0 -0.00000000000E+00 -0.00000000000E+00 -0.97015406271E+02  0.97015406271E+02  0.00000000000E+00 0. -1.
          2    1    1    2  501    0 -0.29003399818E+02  0.40441519505E+01 -0.93994978092E+02  0.98451045055E+02  0.00000000000E+00 0. -1.
          2    1    1    2  502    0  0.29003399818E+02 -0.40441519505E+01  0.26976480645E+03  0.27134959585E+03  0.00000000000E+00 0.  1.
</event>
<event>
 4    1  0.6688462E+003  0.2461419E+02  0.7546771E-02  0.1473166E+00
          2   -1    0    0  501    0  0.00000000000E+00  0.00000000000E+00  0.13856452414E+03  0.13856452414E+03  0.00000000000E+00 0. -1.
          2   -1    0    0  502    0 -0.00000000000E+00 -0.00000000000E+00 -0.15814980238E+02  0.15814980238E+02  0.00000000000E+00 0. -1.
          2    1    1    2  501    0  0.24418792523E+02  0.30953413144E+01 -0.42831955271E+01  0.24984081534E+02  0.00000000000E+00 0. -1.
          2    1    1    2  502    0 -0.24418792523E+02 -0.30953413144E+01  0.12703273943E+03  0.12939542284E+03  0.00000000000E+00 0. -1.
</event>
<event>
 4    1  0.6688462E+003  0.2367850E+02  0.7546771E-02  0.1484149E+00
          2   -1    0    0  501    0  0.00000000000E+00  0.00000000000E+00  0.71355783146E+01  0.71355783146E+01  0.00000000000E+00 0. -1.
          2   -1    0    0  502    0 -0.00000000000E+00 -0.00000000000E+00 -0.20918749299E+03  0.20918749299E+03  0.00000000000E+00 0. -1.
          2    1    1    2  501    0 -0.22027183232E+02  0.86876172800E+01 -0.18649303951E+03  0.18799022656E+03  0.00000000000E+00 0. -1.
          2    1    1    2  502    0  0.22027183232E+02 -0.86876172800E+01 -0.15558875166E+02  0.28332844749E+02  0.00000000000E+00 0. -1.
</event>
<event>
 4    1  0.6688462E+003  0.2443452E+02  0.7546771E-02  0.1475230E+00
          2   -1    0    0  501    0  0.00000000000E+00  0.00000000000E+00  0.18857746103E+03  0.18857746103E+03  0.00000000000E+00 0.  1.
          2   -1    0    0  502    0 -0.00000000000E+00 -0.00000000000E+00 -0.17913771648E+03  0.17913771648E+03  0.00000000000E+00 0.  1.
          2    1    1    2  501    0 -0.23367732430E+02  0.71410639186E+01 -0.17750573928E+03  0.17917961154E+03  0.00000000000E+00 0.  1.
          2    1    1    2  502    0  0.23367732430E+02 -0.71410639186E+01  0.18694548383E+03  0.18853556597E+03  0.00000000000E+00 0.  1.
</event>
<event>
 4    1  0.6688462E+003  0.2832191E+02  0.7546771E-02  0.1434763E+00
          2   -1    0    0  501    0  0.00000000000E+00  0.00000000000E+00  0.12833725085E+01  0.12833725085E+01  0.00000000000E+00 0.  1.
          2   -1    0    0  502    0 -0.00000000000E+00 -0.00000000000E+00 -0.12882053488E+04  0.12882053488E+04  0.00000000000E+00 0. -1.
          2    1    1    2  501    0 -0.24052095861E+02  0.14954179614E+02 -0.11060689989E+04  0.11064315439E+04  0.00000000000E+00 0. -1.
          2    1    1    2  502    0  0.24052095861E+02 -0.14954179614E+02 -0.18085297733E+03  0.18305717744E+03  0.00000000000E+00 0.  1.
</event>
<event>
 4    1  0.6688462E+003  0.2946924E+02  0.7546771E-02  0.1424266E+00
          2   -1    0    0  502    0  0.00000000000E+00  0.00000000000E+00  0.88171678667E+02  0.88171678667E+02  0.00000000000E+00 0. -1.
          2   -1    0    0  501    0 -0.00000000000E+00 -0.00000000000E+00 -0.12734826778E+03  0.12734826778E+03  0.00000000000E+00 0. -1.
          2    1    1    2  501    0  0.11165231609E+02 -0.27272214731E+02  0.83920639791E+02  0.88944420152E+02  0.00000000000E+00 0. -1.
          2    1    1    2  502    0 -0.11165231609E+02  0.27272214731E+02 -0.12309722890E+03  0.12657552630E+03  0.00000000000E+00 0. -1.
</event>
<event>
 4    1  0.6688462E+003  0.2265890E+02  0.7546771E-02  0.1496826E+00
          2   -1    0    0  502    0  0.00000000000E+00  0.00000000000E+00  0.41775354373E+03  0.41775354373E+03  0.00000000000E+00 0.  1.
          2   -1    0    0  501    0 -0.00000000000E+00 -0.00000000000E+00 -0.16007297413E+02  0.16007297413E+02  0.00000000000E+00 0. -1.
          2    1    1    2  501    0 -0.77821372015E+01  0.21280607748E+02  0.40926140841E+03  0.40988818761E+03  0.00000000000E+00 0.  1.
          2    1    1    2  502    0  0.77821372015E+01 -0.21280607748E+02 -0.75151620938E+01  0.23872653536E+02  0.00000000000E+00 0. -1.
</event>
<event>
 4    1  0.6688462E+003  0.7911109E+02  0.7546771E-02  0.1205926E+00
          2   -1    0    0  502    0  0.00000000000E+00  0.00000000000E+00  0.24847993743E+03  0.24847993743E+03  0.00000000000E+00 0. -1.
          2   -1    0    0  501    0 -0.00000000000E+00 -0.00000000000E+00 -0.54787320969E+02  0.54787320969E+02  0.00000000000E+00 0. -1.
          2    1    1    2  501    0  0.36522356632E+02 -0.70176083980E+02  0.20830160747E+03  0.22281859207E+03  0.00000000000E+00 0. -1.
          2    1    1    2  502    0 -0.36522356632E+02  0.70176083980E+02 -0.14608991005E+02  0.80448666334E+02  0.00000000000E+00 0. -1.
</event>
<event>
 4    1  0.6688462E+003  0.2245133E+02  0.7546771E-02  0.1499505E+00
          2   -1    0    0  502    0  0.00000000000E+00  0.00000000000E+00  0.43629952664E+03  0.43629952664E+03  0.00000000000E+00 0. -1.
          2   -1    0    0  501    0 -0.00000000000E+00 -0.00000000000E+00 -0.17884668592E+02  0.17884668592E+02  0.00000000000E+00 0. -1.
          2    1    1    2  501    0  0.21249546740E+02  0.72469918502E+01  0.42884224832E+03  0.42942954727E+03  0.00000000000E+00 0. -1.
          2    1    1    2  502    0 -0.21249546740E+02 -0.72469918502E+01 -0.10427390274E+02  0.24754647957E+02  0.00000000000E+00 0. -1.
</event>
<event>
 4    1  0.6688462E+003  0.2839556E+02  0.7546771E-02  0.1434072E+00
          2   -1    0    0  501    0  0.00000000000E+00  0.00000000000E+00  0.54458936521E+02  0.54458936521E+02  0.00000000000E+00 0.  1.
          2   -1    0    0  502    0 -0.00000000000E+00 -0.00000000000E+00 -0.99585685272E+03  0.99585685272E+03  0.00000000000E+00 0.  1.
          2    1    1    2  501    0 -0.18432409821E+02  0.21599860196E+02 -0.99193837020E+03  0.99234471730E+03  0.00000000000E+00 0.  1.
          2    1    1    2  502    0  0.18432409821E+02 -0.21599860196E+02  0.50540453993E+02  0.57971071942E+02  0.00000000000E+00 0.  1.
</event>
<event>
 4    1  0.6688462E+003  0.2265119E+02  0.7546771E-02  0.1496925E+00
          2   -1    0    0  501    0  0.00000000000E+00  0.00000000000E+00  0.99805906794E+01  0.99805906794E+01  0.00000000000E+00 0.  1.
          2   -1    0    0  502    0 -0.00000000000E+00 -0.00000000000E+00 -0.81121341080E+03  0.81121341080E+03  0.00000000000E+00 0.  1.
          2    1    1    2  501    0  0.27531402393E+01 -0.22483256237E+02 -0.79799051578E+03  0.79831193144E+03  0.00000000000E+00 0.  1.
          2    1    1    2  502    0 -0.27531402393E+01  0.22483256237E+02 -0.32423043400E+01  0.22882070047E+02  0.00000000000E+00 0.  1.
</event>
<event>
 4    1  0.6688462E+003  0.2166450E+02  0.7546771E-02  0.1509985E+00
          2   -1    0    0  501    0  0.00000000000E+00  0.00000000000E+00  0.10665079859E+04  0.10665079859E+04  0.00000000000E+00 0. -1.
          2   -1    0    0  502    0 -0.00000000000E+00 -0.00000000000E+00 -0.61056876667E+01  0.61056876667E+01  0.00000000000E+00 0.  1.
          2    1    1    2  501    0 -0.21057391452E+02 -0.50928362050E+01  0.13583519904E+02  0.25570739691E+02  0.00000000000E+00 0.  1.
          2    1    1    2  502    0  0.21057391452E+02  0.50928362050E+01  0.10468187783E+04  0.10470429339E+04  0.00000000000E+00 0. -1.
</event>
<event>
 4    1  0.6688462E+003  0.2642652E+02  0.7546771E-02  0.1453455E+00
          2   -1    0    0  501    0  0.00000000000E+00  0.00000000000E+00  0.19641179483E+04  0.19641179483E+04  0.00000000000E+00 0. -1.
          2   -1    0    0  502    0 -0.00000000000E+00 -0.00000000000E+00 -0.21993628222E+01  0.21993628222E+01  0.00000000000E+00 0.  1.
          2    1    1    2  501    0 -0.17610603459E+02 -0.19703498900E+02  0.80772911647E+02  0.84986025198E+02  0.00000000000E+00 0.  1.
          2    1    1    2  502    0  0.17610603459E+02  0.19703498900E+02  0.18811456738E+04  0.18813312859E+04  0.00000000000E+00 0. -1.
</event>
<event>
 4    1  0.6688462E+003  0.2293757E+02  0.7546771E-02  0.1493284E+00
          2   -1    0    0  501    0  0.00000000000E+00  0.00000000000E+00  0.13193512357E+04  0.13193512357E+04  0.00000000000E+00 0. -1.
          2   -1    0    0  502    0 -0.00000000000E+00 -0.00000000000E+00 -0.12786629982E+01  0.12786629982E+01  0.00000000000E+00 0. -1.
          2    1    1    2  501    0  0.32104721661E+01 -0.22711777260E+02  0.11128255682E+03  0.11362191431E+03  0.00000000000E+00 0. -1.
          2    1    1    2  502    0 -0.32104721661E+01  0.22711777260E+02  0.12067900159E+04  0.12070079844E+04  0.00000000000E+00 0. -1.
</event>
<event>
 4    1  0.6688462E+003  0.2130869E+02  0.7546771E-02  0.1514903E+00
          2   -1    0    0  501    0  0.00000000000E+00  0.00000000000E+00  0.14950434463E+02  0.14950434463E+02  0.00000000000E+00 0.  1.
          2   -1    0    0  502    0 -0.00000000000E+00 -0.00000000000E+00 -0.87854672402E+03  0.87854672402E+03  0.00000000000E+00 0. -1.
          2    1    1    2  501    0  0.21276422274E+02 -0.11722102704E+01 -0.87075684115E+03  0.87101752946E+03  0.00000000000E+00 0. -1.
          2    1    1    2  502    0 -0.21276422274E+02  0.11722102704E+01  0.71605515942E+01  0.22479629019E+02  0.00000000000E+00 0.  1.
</event>
<event>
 4    1  0.9808410E+003  0.2489262E+02  0.7546771E-02  0.1470008E+00
          2   -1    0    0  501    0  0.00000000000E+00  0.00000000000E+00  0.74728159896E+03  0.74728159896E+03  0.00000000000E+00 0. -1.
          2   -1    0    0  502    0 -0.00000000000E+00 -0.00000000000E+00 -0.57994269711E+03  0.57994269711E+03  0.00000000000E+00 0. -1.
          2    1    1    2  501    0  0.12571801190E+02  0.21484695858E+02 -0.57946811500E+03  0.58000253331E+03  0.00000000000E+00 0. -1.
          2    1    1    2  502    0 -0.12571801190E+02 -0.21484695858E+02  0.74680701685E+03  0.74722176277E+03  0.00000000000E+00 0. -1.
</event>
<event>
 4    1  0.6688462E+003  0.3953505E+02  0.7546771E-02  0.1351232E+00
          2   -1    0    0  501    0  0.00000000000E+00  0.00000000000E+00  0.24174487285E+04  0.24174487285E+04  0.00000000000E+00 0. -1.
          2   -1    0    0  502    0 -0.00000000000E+00 -0.00000000000E+00 -0.16672978615E+01  0.16672978615E+01  0.00000000000E+00 0. -1.
          2    1    1    2  501    0  0.41462168720E+01 -0.39317030554E+02  0.26148421384E+03  0.26445607215E+03  0.00000000000E+00 0. -1.
          2    1    1    2  502    0 -0.41462168720E+01  0.39317030554E+02  0.21542972168E+04  0.21546599542E+04  0.00000000000E+00 0. -1.
</event>
<event>
 4    1  0.6688462E+003  0.2612240E+02  0.7546771E-02  0.1456629E+00
          2   -1    0    0  502    0  0.00000000000E+00  0.00000000000E+00  0.12056535095E+02  0.12056535095E+02  0.00000000000E+00 0. -1.
          2   -1    0    0  501    0 -0.00000000000E+00 -0.00000000000E+00 -0.73074415465E+02  0.73074415465E+02  0.00000000000E+00 0.  1.
          2    1    1    2  501    0  0.17841278161E+02 -0.19080579155E+02 -0.50720595294E+02  0.57052243552E+02  0.00000000000E+00 0.  1.
          2    1    1    2  502    0 -0.17841278161E+02  0.19080579155E+02 -0.10297285077E+02  0.28078707008E+02  0.00000000000E+00 0. -1.
</event>
<event>
 4    1  0.6688462E+003  0.2431541E+02  0.7546771E-02  0.1476610E+00
          2   -1    0    0  501    0  0.00000000000E+00  0.00000000000E+00  0.37210820500E+03  0.37210820500E+03  0.00000000000E+00 0.  1.
          2   -1    0    0  502    0 -0.00000000000E+00 -0.00000000000E+00 -0.10205880865E+02  0.10205880865E+02  0.00000000000E+00 0. -1.
          2    1    1    2  501    0  0.12121678362E+02  0.21078522024E+02  0.53033028033E+01  0.24887028703E+02  0.00000000000E+00 0. -1.
          2    1    1    2  502    0 -0.12121678362E+02 -0.21078522024E+02  0.35659902133E+03  0.35742705716E+03  0.00000000000E+00 0.  1.
</event>
<event>
 4    1  0.6688462E+003  0.2258084E+02  0.7546771E-02  0.1497830E+00
          2   -1    0    0  502    0  0.00000000000E+00  0.00000000000E+00  0.10771578797E+02  0.10771578797E+02  0.00000000000E+00 0. -1.
          2   -1    0    0  501    0 -0.00000000000E+00 -0.00000000000E+00 -0.42987482478E+03  0.42987482478E+03  0.00000000000E+00 0. -1.
          2    1    1    2  501    0 -0.13999609494E+02 -0.17717366846E+02 -0.17129197305E+01  0.22645711469E+02  0.00000000000E+00 0. -1.
          2    1    1    2  502    0  0.13999609494E+02  0.17717366846E+02 -0.41739032625E+03  0.41800069210E+03  0.00000000000E+00 0. -1.
</event>
<event>
 4    1  0.6688462E+003  0.2327063E+02  0.7546771E-02  0.1489128E+00
          2   -1    0    0  502    0  0.00000000000E+00  0.00000000000E+00  0.15126563380E+04  0.15126563380E+04  0.00000000000E+00 0.  1.
          2   -1    0    0  501    0 -0.00000000000E+00 -0.00000000000E+00 -0.54375443478E+00  0.54375443478E+00  0.00000000000E+00 0. -1.
          2    1    1    2  501    0  0.90074434937E+01 -0.21456658546E+02  0.31383331544E+03  0.31469488734E+03  0.00000000000E+00 0. -1.
          2    1    1    2  502    0 -0.90074434937E+01  0.21456658546E+02  0.11982792681E+04  0.11985052051E+04  0.00000000000E+00 0.  1.
</event>
<event>
 4    1  0.6688462E+003  0.1189715E+03  0.7546771E-02  0.1134473E+00
          2   -1    0    0  502    0  0.00000000000E+00  0.00000000000E+00  0.54122523669E+02  0.54122523669E+02  0.00000000000E+00 0. -1.
          2   -1    0    0  501    0 -0.00000000000E+00 -0.00000000000E+00 -0.54599742038E+03  0.54599742038E+03  0.00000000000E+00 0. -1.
          2    1    1    2  501    0  0.94834758006E+02 -0.71837198677E+02 -0.29348959429E+02  0.12253805882E+03  0.00000000000E+00 0. -1.
          2    1    1    2  502    0 -0.94834758006E+02  0.71837198677E+02 -0.46252593728E+03  0.47758188523E+03  0.00000000000E+00 0. -1.
</event>
<event>
 4    1  0.6688462E+003  0.3623897E+02  0.7546771E-02  0.1372056E+00
          2   -1    0    0  502    0  0.00000000000E+00  0.00000000000E+00  0.93014028314E+01  0.93014028314E+01  0.00000000000E+00 0.  1.
          2   -1    0    0  501    0 -0.00000000000E+00 -0.00000000000E+00 -0.24112815703E+03  0.24112815703E+03  0.00000000000E+00 0.  1.
          2    1    1    2  501    0 -0.17828340339E+02 -0.31550168276E+02 -0.35301725384E+02  0.50591250751E+02  0.00000000000E+00 0.  1.
          2    1    1    2  502    0  0.17828340339E+02  0.31550168276E+02 -0.19652502881E+03  0.19983830911E+03  0.00000000000E+00 0.  1.
</event>
<event>
 4    1  0.6688462E+003  0.2805528E+02  0.7546771E-02  0.1437286E+00
          2   -1    0    0  502    0  0.00000000000E+00  0.00000000000E+00  0.13914364468E+03  0.13914364468E+03  0.00000000000E+00 0. -1.
          2   -1    0    0  501    0 -0.00000000000E+00 -0.00000000000E+00 -0.92068149218E+03  0.92068149218E+03  0.00000000000E+00 0.  1.
          2    1    1    2  501    0  0.19173236639E+02 -0.20481344594E+02  0.13751322602E+03  0.14034595046E+03  0.00000000000E+00 0. -1.
          2    1    1    2  502    0 -0.19173236639E+02  0.20481344594E+02 -0.91905107352E+03  0.91947918640E+03  0.00000000000E+00 0.  1.
</event>
<event>
 4    1  0.6688462E+003  0.7716521E+02  0.7546771E-02  0.1210586E+00
          2   -1    0    0  501    0  0.00000000000E+00  0.00000000000E+00  0.45843299670E+02  0.45843299670E+02  0.00000000000E+00 0.  1.
          2   -1    0    0  502    0 -0.00000000000E+00 -0.00000000000E+00 -0.37775151536E+03  0.37775151536E+03  0.00000000000E+00 0. -1.
          2    1    1    2  501    0 -0.55186588767E+02 -0.53934317821E+02 -0.33751737135E+03  0.34622600448E+03  0.00000000000E+00 0. -1.
          2    1    1    2  502    0  0.55186588767E+02  0.53934317821E+02  0.56091556564E+01  0.77368810549E+02  0.00000000000E+00 0.  1.
</event>
<event>
 4    1  0.6688462E+003  0.2031678E+02  0.7546771E-02  0.1529247E+00
          2   -1    0    0  502    0  0.00000000000E+00  0.00000000000E+00  0.77302433755E+01  0.77302433755E+01  0.00000000000E+00 0.  1.
          2   -1    0    0  501    0 -0.00000000000E+00 -0.00000000000E+00 -0.34191640583E+03  0.34191640583E+03  0.00000000000E+00 0. -1.
          2    1    1    2  501    0  0.57504001017E+01  0.19486003120E+02 -0.64999532100E+01  0.21331216812E+02  0.00000000000E+00 0.  1.
          2    1    1    2  502    0 -0.57504001017E+01 -0.19486003120E+02 -0.32768620925E+03  0.32831543240E+03  0.00000000000E+00 0. -1.
</event>
<event>
 4    1  0.6688462E+003  0.1834919E+03  0.7546771E-02  0.1067501E+00
          2   -1    0    0  502    0  0.00000000000E+00  0.00000000000E+00  0.19690050934E+02  0.19690050934E+02  0.00000000000E+00 0. -1.
          2   -1    0    0  501    0 -0.00000000000E+00 -0.00000000000E+00 -0.17101392509E+04  0.17101392509E+04  0.00000000000E+00 0.  1.
          2    1    1    2  501    0 -0.13101972568E+02  0.18302349245E+03 -0.85400276339E+03  0.87349297670E+03  0.00000000000E+00 0.  1.
          2    1    1    2  502    0  0.13101972568E+02 -0.18302349245E+03 -0.83644643653E+03  0.85633632509E+03  0.00000000000E+00 0. -1.
</event>
<event>
 4    1  0.6688462E+003  0.2475449E+02  0.7546771E-02  0.1471569E+00
          2   -1    0    0  501    0  0.00000000000E+00  0.00000000000E+00  0.34994814841E+03  0.34994814841E+03  0.00000000000E+00 0.  1.
          2   -1    0    0  502    0 -0.00000000000E+00 -0.00000000000E+00 -0.12025675734E+03  0.12025675734E+03  0.00000000000E+00 0. -1.
          2    1    1    2  501    0  0.23031605749E+02 -0.90735898089E+01 -0.11853880274E+03  0.12109596463E+03  0.00000000000E+00 0. -1.
          2    1    1    2  502    0 -0.23031605749E+02  0.90735898089E+01  0.34823019380E+03  0.34910894112E+03  0.00000000000E+00 0.  1.
</event>
<event>
 4    1  0.6688462E+003  0.4465656E+02  0.7546771E-02  0.1323166E+00
          2   -1    0    0  501    0  0.00000000000E+00  0.00000000000E+00  0.63800576420E+03  0.63800576420E+03  0.00000000000E+00 0. -1.
          2   -1    0    0  502    0 -0.00000000000E+00 -0.00000000000E+00 -0.31400634483E+01  0.31400634483E+01  0.00000000000E+00 0. -1.
          2    1    1    2  501    0  0.34357000092E+02 -0.28527270884E+02  0.33912130321E+03  0.34204892477E+03  0.00000000000E+00 0. -1.
          2    1    1    2  502    0 -0.34357000092E+02  0.28527270884E+02  0.29574439754E+03  0.29909690289E+03  0.00000000000E+00 0. -1.
</event>
<event>
 4    1  0.6688462E+003  0.2424744E+02  0.7546771E-02  0.1477401E+00
          2   -1    0    0  502    0  0.00000000000E+00  0.00000000000E+00  0.57283051924E+00  0.57283051924E+00  0.00000000000E+00 0. -1.
          2   -1    0    0  501    0 -0.00000000000E+00 -0.00000000000E+00 -0.11274103174E+04  0.11274103174E+04  0.00000000000E+00 0.  1.
          2    1    1    2  501    0  0.24083740376E+02 -0.28127822369E+01 -0.73225689203E+03  0.73265823835E+03  0.00000000000E+00 0.  1.
          2    1    1    2  502    0 -0.24083740376E+02  0.28127822369E+01 -0.39458059485E+03  0.39532490957E+03  0.00000000000E+00 0. -1.
</event>
<event>
 4    1  0.6688462E+003  0.4829833E+02  0.7546771E-02  0.1305724E+00
          2   -1    0    0  502    0  0.00000000000E+00  0.00000000000E+00  0.34699544896E+01  0.34699544896E+01  0.00000000000E+00 0.  1.
          2   -1    0    0  501    0 -0.00000000000E+00 -0.00000000000E+00 -0.11096004265E+04  0.11096004265E+04  0.00000000000E+00 0. -1.
          2    1    1    2  501    0  0.11860593549E+02 -0.46819382718E+02 -0.20367018471E+03  0.20931859071E+03  0.00000000000E+00 0.  1.
          2    1    1    2  502    0 -0.11860593549E+02  0.46819382718E+02 -0.90246028728E+03  0.90375179026E+03  0.00000000000E+00 0. -1.
</event>
<event>
 4    1  0.6688462E+003  0.2019983E+02  0.7546771E-02  0.1531003E+00
          2   -1    0    0  501    0  0.00000000000E+00  0.00000000000E+00  0.99370327842E+03  0.99370327842E+03  0.00000000000E+00 0. -1.
          2   -1    0    0  502    0 -0.00000000000E+00 -0.00000000000E+00 -0.26966696243E+01  0.26966696243E+01  0.00000000000E+00 0. -1.
          2    1    1    2  501    0  0.87153982364E+01  0.18222926043E+02  0.36799043517E+02  0.41978599354E+02  0.00000000000E+00 0. -1.
          2    1    1    2  502    0 -0.87153982364E+01 -0.18222926043E+02  0.95420756528E+03  0.95442134869E+03  0.00000000000E+00 0. -1.
</event>
<event>
 4    1  0.6688462E+003  0.2944813E+02  0.7546771E-02  0.1424454E+00
          2   -1    0    0  502    0  0.00000000000E+00  0.00000000000E+00  0.69135532625E+03  0.69135532625E+03  0.00000000000E+00 0. -1.
          2   -1    0    0  501    0 -0.00000000000E+00 -0.00000000000E+00 -0.52063965818E+02  0.52063965818E+02  0.00000000000E+00 0.  1.
          2    1    1    2  501    0  0.21263173625E+02 -0.20373264420E+02  0.68685037078E+03  0.68748136288E+03  0.00000000000E+00 0. -1.
          2    1    1    2  502    0 -0.21263173625E+02  0.20373264420E+02 -0.47559010356E+02  0.55937929187E+02  0.00000000000E+00 0.  1.
</event>
<event>
 4    1  0.6688462E+003  0.2661328E+02  0.7546771E-02  0.1451532E+00
          2   -1    0    0  501    0  0.00000000000E+00  0.00000000000E+00  0.48906169986E+00  0.48906169986E+00  0.00000000000E+00 0. -1.
          2   -1    0    0  502    0 -0.00000000000E+00 -0.00000000000E+00 -0.15962951018E+04  0.15962951018E+04  0.00000000000E+00 0. -1.
          2    1    1    2  501    0 -0.24375192326E+02  0.10682528277E+02 -0.55473401516E+03  0.55537203205E+03  0.00000000000E+00 0. -1.
          2    1    1    2  502    0  0.24375192326E+02 -0.10682528277E+02 -0.10410720249E+04  0.10414121314E+04  0.00000000000E+00 0. -1.
</event>
<event>
 4    1  0.6688462E+003  0.2073132E+02  0.7546771E-02  0.1523136E+00
          2   -1    0    0  502    0  0.00000000000E+00  0.00000000000E+00  0.67711825136E+02  0.67711825136E+02  0.00000000000E+00 0. -1.
          2   -1    0    0  501    0 -0.00000000000E+00 -0.00000000000E+00 -0.14900702903E+03  0.14900702903E+03  0.00000000000E+00 0.  1.
          2    1    1    2  501    0 -0.17928168287E+02 -0.10410008554E+02  0.65378797783E+02  0.68586986345E+02  0.00000000000E+00 0. -1.
          2    1    1    2  502    0  0.17928168287E+02  0.10410008554E+02 -0.14667400168E+03  0.14813186782E+03  0.00000000000E+00 0.  1.
</event>
<event>
 4    1  0.6688462E+003  0.2369105E+02  0.7546771E-02  0.1483998E+00
          2   -1    0    0  501    0  0.00000000000E+00  0.00000000000E+00  0.10793409575E+02  0.10793409575E+02  0.00000000000E+00 0. -1.
          2   -1    0    0  502    0 -0.00000000000E+00 -0.00000000000E+00 -0.12017401781E+03  0.12017401781E+03  0.00000000000E+00 0.  1.
          2    1    1    2  501    0 -0.11479282379E+02 -0.20724184366E+02 -0.10401165504E+03  0.10667563042E+03  0.00000000000E+00 0.  1.
          2    1    1    2  502    0  0.11479282379E+02  0.20724184366E+02 -0.53689532014E+01  0.24291796970E+02  0.00000000000E+00 0. -1.
</event>
<event>
 4    1  0.6688462E+003  0.2297623E+02  0.7546771E-02  0.1492797E+00
          2   -1    0    0  502    0  0.00000000000E+00  0.00000000000E+00  0.75235777323E+01  0.75235777323E+01  0.00000000000E+00 0. -1.
          2   -1    0    0  501    0 -0.00000000000E+00 -0.00000000000E+00 -0.81048426705E+02  0.81048426705E+02  0.00000000000E+00 0. -1.
          2    1    1    2  501    0 -0.22919746695E+02 -0.16101050279E+01 -0.20535501296E+02  0.30815808285E+02  0.00000000000E+00 0. -1.
          2    1    1    2  502    0  0.22919746695E+02  0.16101050279E+01 -0.52989347677E+02  0.57756196152E+02  0.00000000000E+00 0. -1.
</event>
<event>
 4    1  0.6688462E+003  0.2446938E+02  0.7546771E-02  0.1474828E+00
          2   -1    0    0  502    0  0.00000000000E+00  0.00000000000E+00  0.35936039725E+03  0.35936039725E+03  0.00000000000E+00 0. -1.
          2   -1    0    0  501    0 -0.00000000000E+00 -0.00000000000E+00 -0.92842471186E+02  0.92842471186E+02  0.00000000000E+00 0.  1.
          2    1    1    2  501    0 -0.22707059092E+02 -0.91181017940E+01  0.35732239865E+03  0.35815924794E+03  0.00000000000E+00 0. -1.
          2    1    1    2  502    0  0.22707059092E+02  0.91181017940E+01 -0.90804472587E+02  0.94043620489E+02  0.00000000000E+00 0.  1.
</event>
<event>
 4    1  0.6688462E+003  0.2197084E+02  0.7546771E-02  0.1505842E+00
          2   -1    0    0  502    0  0.00000000000E+00  0.00000000000E+00  0.50739127809E+03  0.50739127809E+03  0.00000000000E+00 0.  1.
          2   -1    0    0  501    0 -0.00000000000E+00 -0.00000000000E+00 -0.17771520847E+01  0.17771520847E+01  0.00000000000E+00 0. -1.
          2    1    1    2  501    0  0.83449643538E+01  0.20324349701E+02  0.42634782451E+03  0.42691355692E+03  0.00000000000E+00 0.  1.
          2    1    1    2  502    0 -0.83449643538E+01 -0.20324349701E+02  0.79266301500E+02  0.82254873255E+02  0.00000000000E+00 0. -1.
</event>
<event>
 4    1  0.6688462E+003  0.2154573E+02  0.7546771E-02  0.1511614E+00
          2   -1    0    0  501    0  0.00000000000E+00  0.00000000000E+00  0.47467504469E+03  0.47467504469E+03  0.00000000000E+00 0.  1.
          2   -1    0    0  502    0 -0.00000000000E+00 -0.00000000000E+00 -0.10134190052E+01  0.10134190052E+01  0.00000000000E+00 0.  1.
          2    1    1    2  501    0 -0.15892263246E+02 -0.14548347308E+02  0.19234783608E+03  0.19355079046E+03  0.00000000000E+00 0.  1.
          2    1    1    2  502    0  0.15892263246E+02  0.14548347308E+02  0.28131378960E+03  0.28213767324E+03  0.00000000000E+00 0.  1.
</event>
<event>
 4    1  0.6688462E+003  0.5431918E+02  0.7546771E-02  0.1280459E+00
          2   -1    0    0  502    0  0.00000000000E+00  0.00000000000E+00  0.25145628538E+02  0.25145628538E+02  0.00000000000E+00 0.  1.
          2   -1    0    0  501    0 -0.00000000000E+00 -0.00000000000E+00 -0.23563692569E+03  0.23563692569E+03  0.00000000000E+00 0. -1.
          2    1    1    2  501    0 -0.41186637494E+02 -0.35415176000E+02 -0.12857846623E+02  0.55820229478E+02  0.00000000000E+00 0.  1.
          2    1    1    2  502    0  0.41186637494E+02  0.35415176000E+02 -0.19763345053E+03  0.20496232475E+03  0.00000000000E+00 0. -1.
</event>
<event>
 4    1  0.6688462E+003  0.3428815E+02  0.7546771E-02  0.1385638E+00
          2   -1    0    0  502    0  0.00000000000E+00  0.00000000000E+00  0.80417464032E+03  0.80417464032E+03  0.00000000000E+00 0.  1.
          2   -1    0    0  501    0 -0.00000000000E+00 -0.00000000000E+00 -0.42609092229E+01  0.42609092229E+01  0.00000000000E+00 0.  1.
          2    1    1    2  501    0  0.29308146387E+02 -0.17796350027E+02  0.72756989235E+03  0.72837739241E+03  0.00000000000E+00 0.  1.
          2    1    1    2  502    0 -0.29308146387E+02  0.17796350027E+02  0.72343838745E+02  0.80058157131E+02  0.00000000000E+00 0.  1.
</event>
<event>
 4    1  0.6688462E+003  0.3903189E+02  0.7546771E-02  0.1354254E+00
          2   -1    0    0  502    0  0.00000000000E+00  0.00000000000E+00  0.99525002763E+00  0.99525002763E+00  0.00000000000E+00 0.  1.
          2   -1    0    0  501    0 -0.00000000000E+00 -0.00000000000E+00 -0.15394205025E+04  0.15394205025E+04  0.00000000000E+00 0.  1.
          2    1    1    2  501    0 -0.17567172697E+01 -0.38992340678E+02 -0.71144200391E+03  0.71251190419E+03  0.00000000000E+00 0.  1.
          2    1    1    2  502    0  0.17567172697E+01  0.38992340678E+02 -0.82698324862E+03  0.82790384839E+03  0.00000000000E+00 0.  1.
</event>
<event>
 4    1  0.6688462E+003  0.2091023E+02  0.7546771E-02  0.1520550E+00
          2   -1    0    0  501    0  0.00000000000E+00  0.00000000000E+00  0.35998590447E+03  0.35998590447E+03  0.00000000000E+00 0.  1.
          2   -1    0    0  502    0 -0.00000000000E+00 -0.00000000000E+00 -0.48397566234E+01  0.48397566234E+01  0.00000000000E+00 0. -1.
          2    1    1    2  501    0 -0.20336780130E+02  0.48634630766E+01  0.19700324822E+02  0.28728743398E+02  0.00000000000E+00 0. -1.
          2    1    1    2  502    0  0.20336780130E+02 -0.48634630766E+01  0.33544582303E+03  0.33609691770E+03  0.00000000000E+00 0.  1.
</event>
<event>
 4    1  0.6688462E+003  0.2315338E+02  0.7546771E-02  0.1490581E+00
          2   -1    0    0  501    0  0.00000000000E+00  0.00000000000E+00  0.11544674711E+04  0.11544674711E+04  0.00000000000E+00 0.  1.
          2   -1    0    0  502    0 -0.00000000000E+00 -0.00000000000E+00 -0.12667324572E+02  0.12667324572E+02  0.00000000000E+00 0. -1.
          2    1    1    2  501    0  0.16048392364E+02  0.16689163060E+02 -0.18714170385E+01  0.23228888541E+02  0.00000000000E+00 0. -1.
          2    1    1    2  502    0 -0.16048392364E+02 -0.16689163060E+02  0.11436715636E+04  0.11439059071E+04  0.00000000000E+00 0.  1.
</event>
<event>
 4    1  0.6688462E+003  0.2332506E+02  0.7546771E-02  0.1488456E+00
          2   -1    0    0  501    0  0.00000000000E+00  0.00000000000E+00  0.37796477080E+02  0.37796477080E+02  0.00000000000E+00 0. -1.
          2   -1    0    0  502    0 -0.00000000000E+00 -0.00000000000E+00 -0.95815920915E+02  0.95815920915E+02  0.00000000000E+00 0.  1.
          2    1    1    2  501    0 -0.19487988309E+02 -0.12817041639E+02 -0.90593663852E+02  0.93548223793E+02  0.00000000000E+00 0.  1.
          2    1    1    2  502    0  0.19487988309E+02  0.12817041639E+02  0.32574220017E+02  0.40064174201E+02  0.00000000000E+00 0. -1.
</event>
<event>
 4    1  0.6688462E+003  0.2307617E+02  0.7546771E-02  0.1491544E+00
          2   -1    0    0  501    0  0.00000000000E+00  0.00000000000E+00  0.79170036742E+00  0.79170036742E+00  0.00000000000E+00 0. -1.
          2   -1    0    0  502    0 -0.00000000000E+00 -0.00000000000E+00 -0.11024430899E+04  0.11024430899E+04  0.00000000000E+00 0.  1.
          2    1    1    2  501    0 -0.22499488986E+02 -0.51266541971E+01 -0.89526065918E+03  0.89555801457E+03  0.00000000000E+00 0.  1.
          2    1    1    2  502    0  0.22499488986E+02  0.51266541971E+01 -0.20639073031E+03  0.20767677565E+03  0.00000000000E+00 0. -1.
</event>
<event>
 4    1  0.6688462E+003  0.2022947E+02  0.7546771E-02  0.1530556E+00
          2   -1    0    0  501    0  0.00000000000E+00  0.00000000000E+00  0.79089472371E+03  0.79089472371E+03  0.00000000000E+00 0.  1.
          2   -1    0    0  502    0 -0.00000000000E+00 -0.00000000000E+00 -0.49072481847E+01  0.49072481847E+01  0.00000000000E+00 0.  1.
          2    1    1    2  501    0  0.60813346841E+01 -0.19293748088E+02  0.16654628813E+02  0.26203206059E+02  0.00000000000E+00 0.  1.
          2    1    1    2  502    0 -0.60813346841E+01  0.19293748088E+02  0.76933284671E+03  0.76959876583E+03  0.00000000000E+00 0.  1.
</event>
<event>
 4    1  0.6688462E+003  0.3409013E+02  0.7546771E-02  0.1387075E+00
          2   -1    0    0  501    0  0.00000000000E+00  0.00000000000E+00  0.29083415446E+04  0.29083415446E+04  0.00000000000E+00 0.  1.
          2   -1    0    0  502    0 -0.00000000000E+00 -0.00000000000E+00 -0.43976317047E+00  0.43976317047E+00  0.00000000000E+00 0.  1.
          2    1    1    2  501    0 -0.91432549860E+01  0.32841099253E+02  0.10143553865E+04  0.10149280699E+04  0.00000000000E+00 0.  1.
          2    1    1    2  502    0  0.91432549860E+01 -0.32841099253E+02  0.18935463949E+04  0.18938532379E+04  0.00000000000E+00 0.  1.
</event>
<event>
 4    1  0.6688462E+003  0.3321936E+02  0.7546771E-02  0.1393533E+00
          2   -1    0    0  502    0  0.00000000000E+00  0.00000000000E+00  0.16380372229E+02  0.16380372229E+02  0.00000000000E+00 0.  1.
          2   -1    0    0  501    0 -0.00000000000E+00 -0.00000000000E+00 -0.12893391849E+03  0.12893391849E+03  0.00000000000E+00 0. -1.
          2    1    1    2  501    0  0.92748631162E+01  0.31898317436E+02 -0.60700172841E+01  0.33769377414E+02  0.00000000000E+00 0.  1.
          2    1    1    2  502    0 -0.92748631162E+01 -0.31898317436E+02 -0.10648352898E+03  0.11154491330E+03  0.00000000000E+00 0. -1.
</event>
<event>
 4    1  0.6688462E+003  0.1050720E+03  0.7546771E-02  0.1155298E+00
          2   -1    0    0  502    0  0.00000000000E+00  0.00000000000E+00  0.14585526958E+04  0.14585526958E+04  0.00000000000E+00 0.  1.
          2   -1    0    0  501    0 -0.00000000000E+00 -0.00000000000E+00 -0.24040748969E+02  0.24040748969E+02  0.00000000000E+00 0.  1.
          2    1    1    2  501    0 -0.39094640917E+02 -0.97528150108E+02  0.13308552181E+04  0.13349965328E+04  0.00000000000E+00 0.  1.
          2    1    1    2  502    0  0.39094640917E+02  0.97528150108E+02  0.10365672870E+03  0.14759691195E+03  0.00000000000E+00 0.  1.
</event>
<event>
 4    1  0.6688462E+003  0.2945190E+02  0.7546771E-02  0.1424420E+00
          2   -1    0    0  502    0  0.00000000000E+00  0.00000000000E+00  0.18159800460E+01  0.18159800460E+01  0.00000000000E+00 0.  1.
          2   -1    0    0  501    0 -0.00000000000E+00 -0.00000000000E+00 -0.13455173930E+04  0.13455173930E+04  0.00000000000E+00 0.  1.
          2    1    1    2  501    0 -0.28566334242E+02 -0.71678958234E+01 -0.13081548265E+03  0.13408991268E+03  0.00000000000E+00 0.  1.
          2    1    1    2  502    0  0.28566334242E+02  0.71678958234E+01 -0.12128859303E+04  0.12132434604E+04  0.00000000000E+00 0.  1.
</event>
<event>
 4    1  0.6688462E+003  0.2505871E+02  0.7546771E-02  0.1468148E+00
          2   -1    0    0  502    0  0.00000000000E+00  0.00000000000E+00  0.24508654764E+04  0.24508654764E+04  0.00000000000E+00 0.  1.
          2   -1    0    0  501    0 -0.00000000000E+00 -0.00000000000E+00 -0.25647700056E+00  0.25647700056E+00  0.00000000000E+00 0.  1.
          2    1    1    2  501    0  0.43236066485E+00 -0.25054978983E+02  0.12647666761E+04  0.12650148947E+04  0.00000000000E+00 0.  1.
          2    1    1    2  502    0 -0.43236066485E+00  0.25054978983E+02  0.11858423234E+04  0.11861070588E+04  0.00000000000E+00 0.  1.
</event>
<event>
 4    1  0.6688462E+003  0.2627385E+02  0.7546771E-02  0.1455042E+00
          2   -1    0    0  502    0  0.00000000000E+00  0.00000000000E+00  0.13562635206E+04  0.13562635206E+04  0.00000000000E+00 0. -1.
          2   -1    0    0  501    0 -0.00000000000E+00 -0.00000000000E+00 -0.28481737081E+01  0.28481737081E+01  0.00000000000E+00 0.  1.
          2    1    1    2  501    0  0.14313572924E+02  0.22032633958E+02  0.12925573459E+04  0.12928243531E+04  0.00000000000E+00 0. -1.
          2    1    1    2  502    0 -0.14313572924E+02 -0.22032633958E+02  0.60858000906E+02  0.66287341200E+02  0.00000000000E+00 0.  1.
</event>
<event>
 4    1  0.6688462E+003  0.2752711E+02  0.7546771E-02  0.1442384E+00
          2   -1    0    0  501    0  0.00000000000E+00  0.00000000000E+00  0.16883333196E+04  0.16883333196E+04  0.00000000000E+00 0.  1.
          2   -1    0    0  502    0 -0.00000000000E+00 -0.00000000000E+00 -0.88510493384E+01  0.88510493384E+01  0.00000000000E+00 0.  1.
          2    1    1    2  501    0 -0.60694103472E+01 -0.26849655433E+02  0.12943629501E+02  0.30418403697E+02  0.00000000000E+00 0.  1.
          2    1    1    2  502    0  0.60694103472E+01  0.26849655433E+02  0.16665386407E+04  0.16667659652E+04  0.00000000000E+00 0.  1.
</event>
<event>
 4    1  0.6688462E+003  0.3791689E+02  0.7546771E-02  0.1361145E+00
          2   -1    0    0  501    0  0.00000000000E+00  0.00000000000E+00  0.17511927235E+03  0.17511927235E+03  0.00000000000E+00 0.  1.
          2   -1    0    0  502    0 -0.00000000000E+00 -0.00000000000E+00 -0.11367543035E+02  0.11367543035E+02  0.00000000000E+00 0.  1.
          2    1    1    2  501    0 -0.32937088805E+02  0.18784001206E+02  0.32731392795E+02  0.50090264469E+02  0.00000000000E+00 0.  1.
          2    1    1    2  502    0  0.32937088805E+02 -0.18784001206E+02  0.13102033652E+03  0.13639655092E+03  0.00000000000E+00 0.  1.
</event>
<event>
 4    1  0.6688462E+003  0.4207063E+02  0.7546771E-02  0.1336761E+00
          2   -1    0    0  501    0  0.00000000000E+00  0.00000000000E+00  0.47494851658E+03  0.47494851658E+03  0.00000000000E+00 0. -1.
          2   -1    0    0  502    0 -0.00000000000E+00 -0.00000000000E+00 -0.55986717951E+01  0.55986717951E+01  0.00000000000E+00 0.  1.
          2    1    1    2  501    0 -0.41878647776E+02  0.40145996574E+01  0.95735333466E+02  0.10457146945E+03  0.00000000000E+00 0.  1.
          2    1    1    2  502    0  0.41878647776E+02 -0.40145996574E+01  0.37361451132E+03  0.37597571892E+03  0.00000000000E+00 0. -1.
</event>
<event>
 4    1  0.6688462E+003  0.3410942E+02  0.7546771E-02  0.1386935E+00
          2   -1    0    0  502    0  0.00000000000E+00  0.00000000000E+00  0.32133260382E+01  0.32133260382E+01  0.00000000000E+00 0. -1.
          2   -1    0    0  501    0 -0.00000000000E+00 -0.00000000000E+00 -0.22858497179E+04  0.22858497179E+04  0.00000000000E+00 0.  1.
          2    1    1    2  501    0  0.73931094644E+01 -0.33298562977E+02 -0.91337118824E+02  0.97498316083E+02  0.00000000000E+00 0. -1.
          2    1    1    2  502    0 -0.73931094644E+01  0.33298562977E+02 -0.21912992730E+04  0.21915647278E+04  0.00000000000E+00 0.  1.
</event>
<event>
 4    1  0.6688462E+003  0.2767161E+02  0.7546771E-02  0.1440976E+00
          2   -1    0    0  502    0  0.00000000000E+00  0.00000000000E+00  0.15049931749E+04  0.15049931749E+04  0.00000000000E+00 0.  1.
          2   -1    0    0  501    0 -0.00000000000E+00 -0.00000000000E+00 -0.81096256649E+00  0.81096256649E+00  0.00000000000E+00 0. -1.
          2    1    1    2  501    0  0.20475269147E+02 -0.18614005053E+02  0.12116797133E+04  0.12119956458E+04  0.00000000000E+00 0.  1.
          2    1    1    2  502    0 -0.20475269147E+02  0.18614005053E+02  0.29250249902E+03  0.29380849164E+03  0.00000000000E+00 0. -1.
</event>
<event>
 4    1  0.6688462E+003  0.4923791E+02  0.7546771E-02  0.1301511E+00
          2   -1    0    0  501    0  0.00000000000E+00  0.00000000000E+00  0.80316761746E+02  0.80316761746E+02  0.00000000000E+00 0. -1.
          2   -1    0    0  502    0 -0.00000000000E+00 -0.00000000000E+00 -0.53350990453E+03  0.53350990453E+03  0.00000000000E+00 0. -1.
          2    1    1    2  501    0 -0.35725443199E+02 -0.33883102541E+02 -0.52470116355E+03  0.52700634053E+03  0.00000000000E+00 0. -1.
          2    1    1    2  502    0  0.35725443199E+02  0.33883102541E+02  0.71508020763E+02  0.86820325748E+02  0.00000000000E+00 0. -1.
</event>
<event>
 4    1  0.6688462E+003  0.2288748E+02  0.7546771E-02  0.1493916E+00
          2   -1    0    0  501    0  0.00000000000E+00  0.00000000000E+00  0.87989045156E+01  0.87989045156E+01  0.00000000000E+00 0. -1.
          2   -1    0    0  502    0 -0.00000000000E+00 -0.00000000000E+00 -0.47827296405E+03  0.47827296405E+03  0.00000000000E+00 0.  1.
          2    1    1    2  501    0  0.60162353510E+00 -0.22879566597E+02 -0.46261202533E+03  0.46317785191E+03  0.00000000000E+00 0.  1.
          2    1    1    2  502    0 -0.60162353510E+00  0.22879566597E+02 -0.68620342029E+01  0.23894016656E+02  0.00000000000E+00 0. -1.
</event>
<event>
 4    1  0.6688462E+003  0.2491337E+02  0.7546771E-02  0.1469775E+00
          2   -1    0    0  501    0  0.00000000000E+00  0.00000000000E+00  0.86999655308E+03  0.86999655308E+03  0.00000000000E+00 0. -1.
          2   -1    0    0  502    0 -0.00000000000E+00 -0.00000000000E+00 -0.11484670012E+01  0.11484670012E+01  0.00000000000E+00 0.  1.
          2    1    1    2  501    0  0.40140760657E+01  0.24587867045E+02  0.16634212039E+03  0.16819743467E+03  0.00000000000E+00 0.  1.
          2    1    1    2  502    0 -0.40140760657E+01 -0.24587867045E+02  0.70250596568E+03  0.70294758541E+03  0.00000000000E+00 0. -1.
</event>
<event>
 4    1  0.6688462E+003  0.2000958E+02  0.7546771E-02  0.1533889E+00
          2   -1    0    0  501    0  0.00000000000E+00  0.00000000000E+00  0.13903208918E+04  0.13903208918E+04  0.00000000000E+00 0.  1.
          2   -1    0    0  502    0 -0.00000000000E+00 -0.00000000000E+00 -0.90961655127E+01  0.90961655127E+01  0.00000000000E+00 0.  1.
          2    1    1    2  501    0 -0.70990366415E+01 -0.18707942761E+02  0.20690933851E+01  0.20116276769E+02  0.00000000000E+00 0.  1.
          2    1    1    2  502    0  0.70990366415E+01  0.18707942761E+02  0.13791556329E+04  0.13793007806E+04  0.00000000000E+00 0.  1.
</event>
<event>
 4    1  0.6688462E+003  0.2934518E+02  0.7546771E-02  0.1425373E+00
          2   -1    0    0  502    0  0.00000000000E+00  0.00000000000E+00  0.54854269102E+03  0.54854269102E+03  0.00000000000E+00 0. -1.
          2   -1    0    0  501    0 -0.00000000000E+00 -0.00000000000E+00 -0.18441621803E+01  0.18441621803E+01  0.00000000000E+00 0.  1.
          2    1    1    2  501    0  0.26733823889E+02 -0.12101338428E+02  0.37948133375E+03  0.38061426983E+03  0.00000000000E+00 0. -1.
          2    1    1    2  502    0 -0.26733823889E+02  0.12101338428E+02  0.16721719509E+03  0.16977258337E+03  0.00000000000E+00 0.  1.
</event>
<event>
 4    1  0.6688462E+003  0.6333274E+02  0.7546771E-02  0.1248911E+00
          2   -1    0    0  501    0  0.00000000000E+00  0.00000000000E+00  0.11262864721E+02  0.11262864721E+02  0.00000000000E+00 0.  1.
          2   -1    0    0  502    0 -0.00000000000E+00 -0.00000000000E+00 -0.89565304422E+03  0.89565304422E+03  0.00000000000E+00 0. -1.
          2    1    1    2  501    0 -0.13308467729E+01 -0.63318753095E+02 -0.79413816128E+03  0.79665956019E+03  0.00000000000E+00 0. -1.
          2    1    1    2  502    0  0.13308467729E+01  0.63318753095E+02 -0.90252018220E+02  0.11025634875E+03  0.00000000000E+00 0.  1.
</event>
<event>
 4    1  0.6688462E+003  0.2444862E+02  0.7546771E-02  0.1475067E+00
          2   -1    0    0  502    0  0.00000000000E+00  0.00000000000E+00  0.40421823879E+01  0.40421823879E+01  0.00000000000E+00 0.  1.
          2   -1    0    0  501    0 -0.00000000000E+00 -0.00000000000E+00 -0.34777494106E+03  0.34777494106E+03  0.00000000000E+00 0.  1.
          2    1    1    2  501    0 -0.19760360823E+02 -0.14396630183E+02 -0.38500434137E+02  0.45607217074E+02  0.00000000000E+00 0.  1.
          2    1    1    2  502    0  0.19760360823E+02  0.14396630183E+02 -0.30523232453E+03  0.30620990637E+03  0.00000000000E+00 0.  1.
</event>
<event>
 4    1  0.6688462E+003  0.2437066E+02  0.7546771E-02  0.1475968E+00
          2   -1    0    0  502    0  0.00000000000E+00  0.00000000000E+00  0.54974559131E+00  0.54974559131E+00  0.00000000000E+00 0. -1.
          2   -1    0    0  501    0 -0.00000000000E+00 -0.00000000000E+00 -0.12261781194E+04  0.12261781194E+04  0.00000000000E+00 0. -1.
          2    1    1    2  501    0 -0.24328121564E+02 -0.14393661121E+01 -0.40130433384E+03  0.40204365140E+03  0.00000000000E+00 0. -1.
          2    1    1    2  502    0  0.24328121564E+02  0.14393661121E+01 -0.82432403998E+03  0.82468421360E+03  0.00000000000E+00 0. -1.
</event>
<event>
 4    1  0.6688462E+003  0.3287137E+02  0.7546771E-02  0.1396179E+00
          2   -1    0    0  501    0  0.00000000000E+00  0.00000000000E+00  0.72869380179E+01  0.72869380179E+01  0.00000000000E+00 0. -1.
          2   -1    0    0  502    0 -0.00000000000E+00 -0.00000000000E+00 -0.10860345417E+04  0.10860345417E+04  0.00000000000E+00 0. -1.
          2    1    1    2  501    0 -0.23160283597E+02  0.23326550499E+02 -0.10473461049E+04  0.10478618183E+04  0.00000000000E+00 0. -1.
          2    1    1    2  502    0  0.23160283597E+02 -0.23326550499E+02 -0.31401498759E+02  0.45459661446E+02  0.00000000000E+00 0. -1.
</event>
<event>
 4    1  0.6688462E+003  0.3847037E+02  0.7546771E-02  0.1357690E+00
          2   -1    0    0  502    0  0.00000000000E+00  0.00000000000E+00  0.19600002447E+03  0.19600002447E+03  0.00000000000E+00 0. -1.
          2   -1    0    0  501    0 -0.00000000000E+00 -0.00000000000E+00 -0.15239648589E+03  0.15239648589E+03  0.00000000000E+00 0.  1.
          2    1    1    2  501    0  0.30287249255E+02 -0.23720291834E+02  0.19162965751E+03  0.19545305153E+03  0.00000000000E+00 0. -1.
          2    1    1    2  502    0 -0.30287249255E+02  0.23720291834E+02 -0.14802611894E+03  0.15294345883E+03  0.00000000000E+00 0.  1.
</event>
<event>
 4    1  0.6688462E+003  0.2079999E+02  0.7546771E-02  0.1522140E+00
          2   -1    0    0  502    0  0.00000000000E+00  0.00000000000E+00  0.17740556107E+02  0.17740556107E+02  0.00000000000E+00 0. -1.
          2   -1    0    0  501    0 -0.00000000000E+00 -0.00000000000E+00 -0.36519789520E+02  0.36519789520E+02  0.00000000000E+00 0. -1.
          2    1    1    2  501    0 -0.18003995056E+02 -0.10416134331E+02  0.62479077435E+01  0.21718104051E+02  0.00000000000E+00 0. -1.
          2    1    1    2  502    0  0.18003995056E+02  0.10416134331E+02 -0.25027141156E+02  0.32542241577E+02  0.00000000000E+00 0. -1.
</event>
<event>
 4    1  0.6688462E+003  0.2200257E+02  0.7546771E-02  0.1505418E+00
          2   -1    0    0  502    0  0.00000000000E+00  0.00000000000E+00  0.55360775793E+03  0.55360775793E+03  0.00000000000E+00 0. -1.
          2   -1    0    0  501    0 -0.00000000000E+00 -0.00000000000E+00 -0.24541608859E+01  0.24541608859E+01  0.00000000000E+00 0.  1.
          2    1    1    2  501    0  0.56567249145E+01 -0.21262980415E+02  0.49863994525E+03  0.49912514250E+03  0.00000000000E+00 0. -1.
          2    1    1    2  502    0 -0.56567249145E+01  0.21262980415E+02  0.52513651787E+02  0.56936776313E+02  0.00000000000E+00 0.  1.
</event>
<event>
 4    1  0.6688462E+003  0.2132848E+02  0.7546771E-02  0.1514626E+00
          2   -1    0    0  502    0  0.00000000000E+00  0.00000000000E+00  0.86901761174E+01  0.86901761174E+01  0.00000000000E+00 0.  1.
          2   -1    0    0  501    0 -0.00000000000E+00 -0.00000000000E+00 -0.13850378279E+04  0.13850378279E+04  0.00000000000E+00 0.  1.
          2    1    1    2  501    0  0.21288444129E+02  0.13062779533E+01 -0.46055080766E+01  0.21820057749E+02  0.00000000000E+00 0.  1.
          2    1    1    2  502    0 -0.21288444129E+02 -0.13062779533E+01 -0.13717421438E+04  0.13719079463E+04  0.00000000000E+00 0.  1.
</event>
<event>
 4    1  0.6688462E+003  0.2074846E+03  0.7546771E-02  0.1049953E+00
          2   -1    0    0  502    0  0.00000000000E+00  0.00000000000E+00  0.13448346516E+03  0.13448346516E+03  0.00000000000E+00 0.  1.
          2   -1    0    0  501    0 -0.00000000000E+00 -0.00000000000E+00 -0.93758259159E+03  0.93758259159E+03  0.00000000000E+00 0. -1.
          2    1    1    2  501    0 -0.11659675911E+02 -0.20715671011E+03  0.33455902306E+02  0.21016457357E+03  0.00000000000E+00 0.  1.
          2    1    1    2  502    0  0.11659675911E+02  0.20715671011E+03 -0.83655502874E+03  0.86190148318E+03  0.00000000000E+00 0. -1.
</event>
<event>
 4    1  0.6688462E+003  0.3040027E+02  0.7546771E-02  0.1416149E+00
          2   -1    0    0  502    0  0.00000000000E+00  0.00000000000E+00  0.17894289307E+04  0.17894289307E+04  0.00000000000E+00 0.  1.
          2   -1    0    0  501    0 -0.00000000000E+00 -0.00000000000E+00 -0.29464549522E+01  0.29464549522E+01  0.00000000000E+00 0. -1.
          2    1    1    2  501    0 -0.16814598427E+02  0.25326774650E+02  0.17071043607E+04  0.17073750245E+04  0.00000000000E+00 0.  1.
          2    1    1    2  502    0  0.16814598427E+02 -0.25326774650E+02  0.79378115080E+02  0.85000361105E+02  0.00000000000E+00 0. -1.
</event>
<event>
 4    1  0.6688462E+003  0.2045445E+02  0.7546771E-02  0.1527198E+00
          2   -1    0    0  502    0  0.00000000000E+00  0.00000000000E+00  0.45424893518E+02  0.45424893518E+02  0.00000000000E+00 0.  1.
          2   -1    0    0  501    0 -0.00000000000E+00 -0.00000000000E+00 -0.89989340585E+03  0.89989340585E+03  0.00000000000E+00 0. -1.
          2    1    1    2  501    0  0.10915741529E+02  0.17298301497E+02  0.42999822985E+02  0.47616902719E+02  0.00000000000E+00 0.  1.
          2    1    1    2  502    0 -0.10915741529E+02 -0.17298301497E+02 -0.89746833532E+03  0.89770139665E+03  0.00000000000E+00 0. -1.
</event>
<event>
 4    1  0.6688462E+003  0.2416544E+02  0.7546771E-02  0.1478360E+00
          2   -1    0    0  501    0  0.00000000000E+00  0.00000000000E+00  0.51239815912E+01  0.51239815912E+01  0.00000000000E+00 0. -1.
          2   -1    0    0  502    0 -0.00000000000E+00 -0.00000000000E+00 -0.44267838426E+03  0.44267838426E+03  0.00000000000E+00 0. -1.
          2    1    1    2  501    0  0.23893657689E+02  0.36140972974E+01 -0.41171579872E+03  0.41242437790E+03  0.00000000000E+00 0. -1.
          2    1    1    2  502    0 -0.23893657689E+02 -0.36140972974E+01 -0.25838603957E+02  0.35377987951E+02  0.00000000000E+00 0. -1.
</event>
<event>
 4    1  0.6688462E+003  0.2038260E+02  0.7546771E-02  0.1528265E+00
          2   -1    0    0  501    0  0.00000000000E+00  0.00000000000E+00  0.12082980987E+03  0.12082980987E+03  0.00000000000E+00 0. -1.
          2   -1    0    0  502    0 -0.00000000000E+00 -0.00000000000E+00 -0.18440481915E+02  0.18440481915E+02  0.00000000000E+00 0. -1.
          2    1    1    2  501    0 -0.78315825222E+01  0.18817992290E+02 -0.11613978169E+02  0.23459220097E+02  0.00000000000E+00 0. -1.
          2    1    1    2  502    0  0.78315825222E+01 -0.18817992290E+02  0.11400330613E+03  0.11581107169E+03  0.00000000000E+00 0. -1.
</event>
<event>
 4    1  0.6688462E+003  0.2690441E+02  0.7546771E-02  0.1448571E+00
          2   -1    0    0  501    0  0.00000000000E+00  0.00000000000E+00  0.27074950583E+01  0.27074950583E+01  0.00000000000E+00 0.  1.
          2   -1    0    0  502    0 -0.00000000000E+00 -0.00000000000E+00 -0.61031579342E+03  0.61031579342E+03  0.00000000000E+00 0. -1.
          2    1    1    2  501    0 -0.26894145695E+02 -0.74305066877E+00 -0.53357527526E+03  0.53425314372E+03  0.00000000000E+00 0. -1.
          2    1    1    2  502    0  0.26894145695E+02  0.74305066877E+00 -0.74033023101E+02  0.78770144766E+02  0.00000000000E+00 0.  1.
</event>
<event>
 4    1  0.6688462E+003  0.2050319E+02  0.7546771E-02  0.1526478E+00
          2   -1    0    0  501    0  0.00000000000E+00  0.00000000000E+00  0.35982331606E+02  0.35982331606E+02  0.00000000000E+00 0.  1.
          2   -1    0    0  502    0 -0.00000000000E+00 -0.00000000000E+00 -0.66205844283E+02  0.66205844283E+02  0.00000000000E+00 0. -1.
          2    1    1    2  501    0 -0.46379407476E+01  0.19971741906E+02 -0.61479056241E+02  0.64807833828E+02  0.00000000000E+00 0. -1.
          2    1    1    2  502    0  0.46379407476E+01 -0.19971741906E+02  0.31255543564E+02  0.37380342061E+02  0.00000000000E+00 0.  1.
</event>
<event>
 4    1  0.6688462E+003  0.2776500E+02  0.7546771E-02  0.1440071E+00
          2   -1    0    0  502    0  0.00000000000E+00  0.00000000000E+00  0.75597456019E+00  0.75597456019E+00  0.00000000000E+00 0.  1.
          2   -1    0    0  501    0 -0.00000000000E+00 -0.00000000000E+00 -0.16480221500E+04  0.16480221500E+04  0.00000000000E+00 0.  1.
          2    1    1    2  501    0  0.13475708955E+02  0.24275508037E+02 -0.31461971604E+03  0.31584246191E+03  0.00000000000E+00 0.  1.
          2    1    1    2  502    0 -0.13475708955E+02 -0.24275508037E+02 -0.13326464594E+04  0.13329356627E+04  0.00000000000E+00 0.  1.
</event>
<event>
 4    1  0.6688462E+003  0.2586029E+02  0.7546771E-02  0.1459405E+00
          2   -1    0    0  502    0  0.00000000000E+00  0.00000000000E+00  0.11180652110E+04  0.11180652110E+04  0.00000000000E+00 0.  1.
          2   -1    0    0  501    0 -0.00000000000E+00 -0.00000000000E+00 -0.50312134074E+02  0.50312134074E+02  0.00000000000E+00 0. -1.
          2    1    1    2  501    0  0.22774303818E+02 -0.12250949369E+02  0.11145822657E+04  0.11148822277E+04  0.00000000000E+00 0.  1.
          2    1    1    2  502    0 -0.22774303818E+02  0.12250949369E+02 -0.46829188697E+02  0.53495117430E+02  0.00000000000E+00 0. -1.
</event>
<event>
 4    1  0.6688462E+003  0.2089444E+02  0.7546771E-02  0.1520777E+00
          2   -1    0    0  502    0  0.00000000000E+00  0.00000000000E+00  0.27387882713E+01  0.27387882713E+01  0.00000000000E+00 0. -1.
          2   -1    0    0  501    0 -0.00000000000E+00 -0.00000000000E+00 -0.60222108599E+03  0.60222108599E+03  0.00000000000E+00 0.  1.
          2    1    1    2  501    0  0.10665757489E+02  0.17967172315E+02 -0.40364969196E+02  0.45452265092E+02  0.00000000000E+00 0. -1.
          2    1    1    2  502    0 -0.10665757489E+02 -0.17967172315E+02 -0.55911732852E+03  0.55950760917E+03  0.00000000000E+00 0.  1.
</event>
<event>
 4    1  0.6688462E+003  0.5270636E+02  0.7546771E-02  0.1286847E+00
          2   -1    0    0  502    0  0.00000000000E+00  0.00000000000E+00  0.11679699504E+02  0.11679699504E+02  0.00000000000E+00 0.  1.
          2   -1    0    0  501    0 -0.00000000000E+00 -0.00000000000E+00 -0.18515314769E+04  0.18515314769E+04  0.00000000000E+00 0. -1.
          2    1    1    2  501    0 -0.24041452491E+02  0.46903826743E+02 -0.50212634375E+02  0.72796078548E+02  0.00000000000E+00 0.  1.
          2    1    1    2  502    0  0.24041452491E+02 -0.46903826743E+02 -0.17896391431E+04  0.17904150979E+04  0.00000000000E+00 0. -1.
</event>
<event>
 4    1  0.6688462E+003  0.2174124E+02  0.7546771E-02  0.1508940E+00
          2   -1    0    0  502    0  0.00000000000E+00  0.00000000000E+00  0.24478728132E+02  0.24478728132E+02  0.00000000000E+00 0. -1.
          2   -1    0    0  501    0 -0.00000000000E+00 -0.00000000000E+00 -0.85815492695E+03  0.85815492695E+03  0.00000000000E+00 0. -1.
          2    1    1    2  501    0  0.21676202643E+02  0.16803471810E+01  0.19485305229E+02  0.29195178498E+02  0.00000000000E+00 0. -1.
          2    1    1    2  502    0 -0.21676202643E+02 -0.16803471810E+01 -0.85316150405E+03  0.85343847658E+03  0.00000000000E+00 0. -1.
</event>
<event>
 4    1  0.6688462E+003  0.9158651E+02  0.7546771E-02  0.1179244E+00
          2   -1    0    0  502    0  0.00000000000E+00  0.00000000000E+00  0.14712570499E+04  0.14712570499E+04  0.00000000000E+00 0. -1.
          2   -1    0    0  501    0 -0.00000000000E+00 -0.00000000000E+00 -0.72890057787E+01  0.72890057787E+01  0.00000000000E+00 0. -1.
          2    1    1    2  501    0 -0.87975935343E+02 -0.25462204643E+02  0.10770122927E+04  0.10808994254E+04  0.00000000000E+00 0. -1.
          2    1    1    2  502    0  0.87975935343E+02  0.25462204643E+02  0.38695575142E+03  0.39764663034E+03  0.00000000000E+00 0. -1.
</event>
<event>
 4    1  0.6688462E+003  0.3067010E+02  0.7546771E-02  0.1413861E+00
          2   -1    0    0  502    0  0.00000000000E+00  0.00000000000E+00  0.11394225526E+03  0.11394225526E+03  0.00000000000E+00 0. -1.
          2   -1    0    0  501    0 -0.00000000000E+00 -0.00000000000E+00 -0.41412966142E+02  0.41412966142E+02  0.00000000000E+00 0. -1.
          2    1    1    2  501    0 -0.30059353663E+02 -0.60901785944E+01  0.10576997070E+03  0.11012693458E+03  0.00000000000E+00 0. -1.
          2    1    1    2  502    0  0.30059353663E+02  0.60901785944E+01 -0.33240681575E+02  0.45228286830E+02  0.00000000000E+00 0. -1.
</event>
<event>
 4    1  0.6688462E+003  0.2176903E+02  0.7546771E-02  0.1508562E+00
          2   -1    0    0  502    0  0.00000000000E+00  0.00000000000E+00  0.19507687529E+02  0.19507687529E+02  0.00000000000E+00 0. -1.
          2   -1    0    0  501    0 -0.00000000000E+00 -0.00000000000E+00 -0.60625369474E+03  0.60625369474E+03  0.00000000000E+00 0.  1.
          2    1    1    2  501    0  0.13283143455E+02 -0.17246707349E+02  0.13175055288E+02  0.25445488721E+02  0.00000000000E+00 0. -1.
          2    1    1    2  502    0 -0.13283143455E+02  0.17246707349E+02 -0.59992106250E+03  0.60031589355E+03  0.00000000000E+00 0.  1.
</event>
<event>
 4    1  0.6688462E+003  0.2183843E+02  0.7546771E-02  0.1507623E+00
          2   -1    0    0  501    0  0.00000000000E+00  0.00000000000E+00  0.13378614870E+04  0.13378614870E+04  0.00000000000E+00 0.  1.
          2   -1    0    0  502    0 -0.00000000000E+00 -0.00000000000E+00 -0.42095145717E+00  0.42095145717E+00  0.00000000000E+00 0. -1.
          2    1    1    2  501    0 -0.21267437106E+02  0.49611854403E+01  0.40684491029E+03  0.40743060547E+03  0.00000000000E+00 0. -1.
          2    1    1    2  502    0  0.21267437106E+02 -0.49611854403E+01  0.93059562521E+03  0.93085183295E+03  0.00000000000E+00 0.  1.
</event>
<event>
 4    1  0.6688462E+003  0.2484899E+02  0.7546771E-02  0.1470500E+00
          2   -1    0    0  502    0  0.00000000000E+00  0.00000000000E+00  0.41888980605E+03  0.41888980605E+03  0.00000000000E+00 0.  1.
          2   -1    0    0  501    0 -0.00000000000E+00 -0.00000000000E+00 -0.30503066871E+01  0.30503066871E+01  0.00000000000E+00 0.  1.
          2    1    1    2  501    0  0.30947330277E+01 -0.24655523092E+02  0.35957589496E+03  0.36043348406E+03  0.00000000000E+00 0.  1.
          2    1    1    2  502    0 -0.30947330277E+01  0.24655523092E+02  0.56263604397E+02  0.61506628677E+02  0.00000000000E+00 0.  1.
</event>
<event>
 4    1  0.6688462E+003  0.2122452E+02  0.7546771E-02  0.1516083E+00
          2   -1    0    0  502    0  0.00000000000E+00  0.00000000000E+00  0.18601261306E+04  0.18601261306E+04  0.00000000000E+00 0. -1.
          2   -1    0    0  501    0 -0.00000000000E+00 -0.00000000000E+00 -0.42282975978E+00  0.42282975978E+00  0.00000000000E+00 0.  1.
          2    1    1    2  501    0  0.59629717828E+01 -0.20369663565E+02  0.15379171133E+04  0.15380635643E+04  0.00000000000E+00 0. -1.
          2    1    1    2  502    0 -0.59629717828E+01  0.20369663565E+02  0.32178618752E+03  0.32248539611E+03  0.00000000000E+00 0.  1.
</event>
<event>
 4    1  0.6688462E+003  0.4277293E+02  0.7546771E-02  0.1332960E+00
          2   -1    0    0  502    0  0.00000000000E+00  0.00000000000E+00  0.42723394100E+02  0.42723394100E+02  0.00000000000E+00 0.  1.
          2   -1    0    0  501    0 -0.00000000000E+00 -0.00000000000E+00 -0.47619934779E+02  0.47619934779E+02  0.00000000000E+00 0. -1.
          2    1    1    2  501    0 -0.41319920238E+02 -0.11053866058E+02  0.11889279572E+02  0.44394579985E+02  0.00000000000E+00 0.  1.
          2    1    1    2  502    0  0.41319920238E+02  0.11053866058E+02 -0.16785820252E+02  0.45948748893E+02  0.00000000000E+00 0. -1.
</event>
<event>
 4    1  0.6688462E+003  0.2248123E+02  0.7546771E-02  0.1499117E+00
          2   -1    0    0  501    0  0.00000000000E+00  0.00000000000E+00  0.30111033621E+02  0.30111033621E+02  0.00000000000E+00 0. -1.
          2   -1    0    0  502    0 -0.00000000000E+00 -0.00000000000E+00 -0.23643514317E+02  0.23643514317E+02  0.00000000000E+00 0. -1.
          2    1    1    2  501    0  0.22111782683E+02  0.40589367304E+01 -0.11242368797E+02  0.25135567568E+02  0.00000000000E+00 0. -1.
          2    1    1    2  502    0 -0.22111782683E+02 -0.40589367304E+01  0.17709888102E+02  0.28618980369E+02  0.00000000000E+00 0. -1.
</event>
<event>
 4    1  0.6688462E+003  0.4491407E+02  0.7546771E-02  0.1321870E+00
          2   -1    0    0  502    0  0.00000000000E+00  0.00000000000E+00  0.33849161770E+03  0.33849161770E+03  0.00000000000E+00 0.  1.
          2   -1    0    0  501    0 -0.00000000000E+00 -0.00000000000E+00 -0.28436995403E+03  0.28436995403E+03  0.00000000000E+00 0. -1.
          2    1    1    2  501    0  0.36176023056E+02  0.26618957081E+02  0.33521098055E+03  0.33820655671E+03  0.00000000000E+00 0.  1.
          2    1    1    2  502    0 -0.36176023056E+02 -0.26618957081E+02 -0.28108931687E+03  0.28465501502E+03  0.00000000000E+00 0. -1.
</event>
<event>
 4    1  0.6688462E+003  0.2265091E+02  0.7546771E-02  0.1496929E+00
          2   -1    0    0  501    0  0.00000000000E+00  0.00000000000E+00  0.19900403585E+03  0.19900403585E+03  0.00000000000E+00 0.  1.
          2   -1    0    0  502    0 -0.00000000000E+00 -0.00000000000E+00 -0.28096194281E+01  0.28096194281E+01  0.00000000000E+00 0.  1.
          2    1    1    2  501    0  0.20544172917E+02 -0.95394339392E+01  0.69134701449E+02  0.72750744224E+02  0.00000000000E+00 0.  1.
          2    1    1    2  502    0 -0.20544172917E+02  0.95394339392E+01  0.12705971497E+03  0.12906291105E+03  0.00000000000E+00 0.  1.
</event>
<event>
 4    1  0.6688462E+003  0.3317536E+02  0.7546771E-02  0.1393866E+00
          2   -1    0    0  502    0  0.00000000000E+00  0.00000000000E+00  0.21823080151E+04  0.21823080151E+04  0.00000000000E+00 0.  1.
          2   -1    0    0  501    0 -0.00000000000E+00 -0.00000000000E+00 -0.23945080208E+02  0.23945080208E+02  0.00000000000E+00 0.  1.
          2    1    1    2  501    0  0.82860368883E+01 -0.32123919330E+02  0.21706291842E+04  0.21708826914E+04  0.00000000000E+00 0.  1.
          2    1    1    2  502    0 -0.82860368883E+01  0.32123919330E+02 -0.12266249295E+02  0.35370403902E+02  0.00000000000E+00 0.  1.
</event>
<event>
 4    1  0.6688462E+003  0.2055328E+02  0.7546771E-02  0.1525739E+00
          2   -1    0    0  502    0  0.00000000000E+00  0.00000000000E+00  0.46388165194E+02  0.46388165194E+02  0.00000000000E+00 0. -1.
          2   -1    0    0  501    0 -0.00000000000E+00 -0.00000000000E+00 -0.23968208100E+02  0.23968208100E+02  0.00000000000E+00 0. -1.
          2    1    1    2  501    0 -0.37262892456E+01 -0.20212668227E+02  0.38910565405E+02  0.44005332501E+02  0.00000000000E+00 0. -1.
          2    1    1    2  502    0  0.37262892456E+01  0.20212668227E+02 -0.16490608311E+02  0.26351040793E+02  0.00000000000E+00 0. -1.
</event>
<event>
 4    1  0.6688462E+003  0.5568157E+02  0.7546771E-02  0.1275256E+00
          2   -1    0    0  502    0  0.00000000000E+00  0.00000000000E+00  0.21655541857E+03  0.21655541857E+03  0.00000000000E+00 0. -1.
          2   -1    0    0  501    0 -0.00000000000E+00 -0.00000000000E+00 -0.13659738460E+04  0.13659738460E+04  0.00000000000E+00 0. -1.
          2    1    1    2  501    0  0.35932169595E+02 -0.42536065203E+02  0.21239778889E+03  0.21957517706E+03  0.00000000000E+00 0. -1.
          2    1    1    2  502    0 -0.35932169595E+02  0.42536065203E+02 -0.13618162163E+04  0.13629540875E+04  0.00000000000E+00 0. -1.
</event>
<event>
 4    1  0.6688462E+003  0.9769063E+02  0.7546771E-02  0.1167871E+00
          2   -1    0    0  502    0  0.00000000000E+00  0.00000000000E+00  0.13696719684E+04  0.13696719684E+04  0.00000000000E+00 0. -1.
          2   -1    0    0  501    0 -0.00000000000E+00 -0.00000000000E+00 -0.11098598064E+02  0.11098598064E+02  0.00000000000E+00 0. -1.
          2    1    1    2  501    0 -0.40821158021E+02 -0.88752986859E+02  0.11004784260E+04  0.11048059674E+04  0.00000000000E+00 0. -1.
          2    1    1    2  502    0  0.40821158021E+02  0.88752986859E+02  0.25809494436E+03  0.27596459904E+03  0.00000000000E+00 0. -1.
</event>
<event>
 4    1  0.6688462E+003  0.2032583E+02  0.7546771E-02  0.1529112E+00
          2   -1    0    0  502    0  0.00000000000E+00  0.00000000000E+00  0.26225684313E+01  0.26225684313E+01  0.00000000000E+00 0.  1.
          2   -1    0    0  501    0 -0.00000000000E+00 -0.00000000000E+00 -0.15873946794E+03  0.15873946794E+03  0.00000000000E+00 0. -1.
          2    1    1    2  501    0 -0.13075992668E+02 -0.15561424596E+02 -0.85093923672E+02  0.87487801239E+02  0.00000000000E+00 0.  1.
          2    1    1    2  502    0  0.13075992668E+02  0.15561424596E+02 -0.71022975836E+02  0.73874235132E+02  0.00000000000E+00 0. -1.
</event>
<event>
 4    1  0.6688462E+003  0.2202506E+02  0.7546771E-02  0.1505117E+00
          2   -1    0    0  501    0  0.00000000000E+00  0.00000000000E+00  0.13442859802E+02  0.13442859802E+02  0.00000000000E+00 0.  1.
          2   -1    0    0  502    0 -0.00000000000E+00 -0.00000000000E+00 -0.86672551192E+03  0.86672551192E+03  0.00000000000E+00 0. -1.
          2    1    1    2  501    0  0.16846433434E+02 -0.14188049874E+02 -0.85746661409E+03  0.85774943740E+03  0.00000000000E+00 0. -1.
          2    1    1    2  502    0 -0.16846433434E+02  0.14188049874E+02  0.41839619664E+01  0.22418934328E+02  0.00000000000E+00 0.  1.
</event>
<event>
 4    1  0.6688462E+003  0.3399265E+02  0.7546771E-02  0.1387787E+00
          2   -1    0    0  501    0  0.00000000000E+00  0.00000000000E+00  0.14235056311E+01  0.14235056311E+01  0.00000000000E+00 0.  1.
          2   -1    0    0  502    0 -0.00000000000E+00 -0.00000000000E+00 -0.20500904808E+04  0.20500904808E+04  0.00000000000E+00 0. -1.
          2    1    1    2  501    0 -0.26758188750E+02  0.20964243808E+02 -0.18215600597E+04  0.18218772053E+04  0.00000000000E+00 0. -1.
          2    1    1    2  502    0  0.26758188750E+02 -0.20964243808E+02 -0.22710691547E+03  0.22963678111E+03  0.00000000000E+00 0.  1.
</event>
<event>
 4    1  0.6688462E+003  0.2547655E+02  0.7546771E-02  0.1463542E+00
          2   -1    0    0  501    0  0.00000000000E+00  0.00000000000E+00  0.28353071607E+01  0.28353071607E+01  0.00000000000E+00 0.  1.
          2   -1    0    0  502    0 -0.00000000000E+00 -0.00000000000E+00 -0.10043030018E+04  0.10043030018E+04  0.00000000000E+00 0.  1.
          2    1    1    2  501    0  0.24258183050E+02  0.77842797399E+01 -0.94320532285E+03  0.94354932861E+03  0.00000000000E+00 0.  1.
          2    1    1    2  502    0 -0.24258183050E+02 -0.77842797399E+01 -0.58262371756E+02  0.63588980324E+02  0.00000000000E+00 0.  1.
</event>
<event>
 4    1  0.6688462E+003  0.3450698E+02  0.7546771E-02  0.1384063E+00
          2   -1    0    0  502    0  0.00000000000E+00  0.00000000000E+00  0.38784664554E+02  0.38784664554E+02  0.00000000000E+00 0. -1.
          2   -1    0    0  501    0 -0.00000000000E+00 -0.00000000000E+00 -0.62647532043E+02  0.62647532043E+02  0.00000000000E+00 0.  1.
          2    1    1    2  501    0  0.24073680327E+02 -0.24722254150E+02  0.24284944693E+02  0.42195858488E+02  0.00000000000E+00 0. -1.
          2    1    1    2  502    0 -0.24073680327E+02  0.24722254150E+02 -0.48147812181E+02  0.59236338109E+02  0.00000000000E+00 0.  1.
</event>
<event>
 4    1  0.6688462E+003  0.3680084E+02  0.7546771E-02  0.1368326E+00
          2   -1    0    0  502    0  0.00000000000E+00  0.00000000000E+00  0.31228687734E+03  0.31228687734E+03  0.00000000000E+00 0. -1.
          2   -1    0    0  501    0 -0.00000000000E+00 -0.00000000000E+00 -0.55086922673E+01  0.55086922673E+01  0.00000000000E+00 0. -1.
          2    1    1    2  501    0 -0.73913728473E+01 -0.36050924461E+02  0.22668028357E+03  0.22964810582E+03  0.00000000000E+00 0. -1.
          2    1    1    2  502    0  0.73913728473E+01  0.36050924461E+02  0.80097901498E+02  0.88147463783E+02  0.00000000000E+00 0. -1.
</event>
<event>
 4    1  0.6688462E+003  0.2363252E+02  0.7546771E-02  0.1484705E+00
          2   -1    0    0  501    0  0.00000000000E+00  0.00000000000E+00  0.20343201723E+00  0.20343201723E+00  0.00000000000E+00 0.  1.
          2   -1    0    0  502    0 -0.00000000000E+00 -0.00000000000E+00 -0.27915784475E+04  0.27915784475E+04  0.00000000000E+00 0.  1.
          2    1    1    2  501    0 -0.11009091184E+02  0.20911617319E+02 -0.15752827684E+04  0.15754600269E+04  0.00000000000E+00 0.  1.
          2    1    1    2  502    0  0.11009091184E+02 -0.20911617319E+02 -0.12160922471E+04  0.12163218527E+04  0.00000000000E+00 0.  1.
</event>
<event>
 4    1  0.6688462E+003  0.6452093E+02  0.7546771E-02  0.1245200E+00
          2   -1    0    0  501    0  0.00000000000E+00  0.00000000000E+00  0.35748644120E+03  0.35748644120E+03  0.00000000000E+00 0.  1.
          2   -1    0    0  502    0 -0.00000000000E+00 -0.00000000000E+00 -0.83838982773E+03  0.83838982773E+03  0.00000000000E+00 0. -1.
          2    1    1    2  501    0 -0.39078948440E+02 -0.51339908369E+02 -0.83422268957E+03  0.83671407673E+03  0.00000000000E+00 0. -1.
          2    1    1    2  502    0  0.39078948440E+02  0.51339908369E+02  0.35331930304E+03  0.35916219219E+03  0.00000000000E+00 0.  1.
</event>
<event>
 4    1  0.6688462E+003  0.3144978E+02  0.7546771E-02  0.1407403E+00
          2   -1    0    0  501    0  0.00000000000E+00  0.00000000000E+00  0.97680239177E+03  0.97680239177E+03  0.00000000000E+00 0. -1.
          2   -1    0    0  502    0 -0.00000000000E+00 -0.00000000000E+00 -0.59644870867E+01  0.59644870867E+01  0.00000000000E+00 0.  1.
          2    1    1    2  501    0 -0.19877462833E+02 -0.24371603937E+02  0.37684724457E+02  0.49083877848E+02  0.00000000000E+00 0.  1.
          2    1    1    2  502    0  0.19877462833E+02  0.24371603937E+02  0.93315318023E+03  0.93368300101E+03  0.00000000000E+00 0. -1.
</event>
<event>
 4    1  0.6688462E+003  0.2925562E+02  0.7546771E-02  0.1426177E+00
          2   -1    0    0  501    0  0.00000000000E+00  0.00000000000E+00  0.17195406725E+04  0.17195406725E+04  0.00000000000E+00 0.  1.
          2   -1    0    0  502    0 -0.00000000000E+00 -0.00000000000E+00 -0.32843421282E+02  0.32843421282E+02  0.00000000000E+00 0.  1.
          2    1    1    2  501    0  0.22139460796E+02  0.19124219825E+02 -0.26178699013E+02  0.39258321287E+02  0.00000000000E+00 0.  1.
          2    1    1    2  502    0 -0.22139460796E+02 -0.19124219825E+02  0.17128759503E+04  0.17131257725E+04  0.00000000000E+00 0.  1.
</event>
<event>
 4    1  0.2097254E+004  0.2941771E+02  0.7546771E-02  0.1424725E+00
          2   -1    0    0  501    0  0.00000000000E+00  0.00000000000E+00  0.18983263469E+04  0.18983263469E+04  0.00000000000E+00 0. -1.
          2   -1    0    0  502    0 -0.00000000000E+00 -0.00000000000E+00 -0.18237640753E+04  0.18237640753E+04  0.00000000000E+00 0.  1.
          2    1    1    2  501    0  0.21052584762E+02  0.20547274060E+02 -0.18235314632E+04  0.18237687351E+04  0.00000000000E+00 0.  1.
          2    1    1    2  502    0 -0.21052584762E+02 -0.20547274060E+02  0.18980937348E+04  0.18983216872E+04  0.00000000000E+00 0. -1.
</event>
<event>
 4    1  0.6688462E+003  0.3472749E+02  0.7546771E-02  0.1382489E+00
          2   -1    0    0  502    0  0.00000000000E+00  0.00000000000E+00  0.22589457645E+02  0.22589457645E+02  0.00000000000E+00 0. -1.
          2   -1    0    0  501    0 -0.00000000000E+00 -0.00000000000E+00 -0.48410139847E+03  0.48410139847E+03  0.00000000000E+00 0.  1.
          2    1    1    2  501    0  0.29622515244E+02  0.18124701723E+02  0.82117641328E+01  0.35685169078E+02  0.00000000000E+00 0. -1.
          2    1    1    2  502    0 -0.29622515244E+02 -0.18124701723E+02 -0.46972370496E+03  0.47100568703E+03  0.00000000000E+00 0.  1.
</event>
<event>
 4    1  0.6688462E+003  0.3003471E+02  0.7546771E-02  0.1419295E+00
          2   -1    0    0  501    0  0.00000000000E+00  0.00000000000E+00  0.21968159987E+02  0.21968159987E+02  0.00000000000E+00 0. -1.
          2   -1    0    0  502    0 -0.00000000000E+00 -0.00000000000E+00 -0.11601995646E+03  0.11601995646E+03  0.00000000000E+00 0. -1.
          2    1    1    2  501    0 -0.28595042324E+02  0.91873505800E+01 -0.10248216302E+03  0.10679268511E+03  0.00000000000E+00 0. -1.
          2    1    1    2  502    0  0.28595042324E+02 -0.91873505800E+01  0.84303665445E+01  0.31195431337E+02  0.00000000000E+00 0. -1.
</event>
<event>
 4    1  0.6688462E+003  0.2463990E+02  0.7546771E-02  0.1472872E+00
          2   -1    0    0  502    0  0.00000000000E+00  0.00000000000E+00  0.12264451921E+02  0.12264451921E+02  0.00000000000E+00 0.  1.
          2   -1    0    0  501    0 -0.00000000000E+00 -0.00000000000E+00 -0.86294924551E+02  0.86294924551E+02  0.00000000000E+00 0.  1.
          2    1    1    2  501    0  0.11293484127E+02 -0.21899360955E+02 -0.48377052558E+01  0.25110320311E+02  0.00000000000E+00 0.  1.
          2    1    1    2  502    0 -0.11293484127E+02  0.21899360955E+02 -0.69192767375E+02  0.73449056161E+02  0.00000000000E+00 0.  1.
</event>
<event>
 4    1  0.6688462E+003  0.2049146E+02  0.7546771E-02  0.1526651E+00
          2   -1    0    0  501    0  0.00000000000E+00  0.00000000000E+00  0.33427084648E+03  0.33427084648E+03  0.00000000000E+00 0. -1.
          2   -1    0    0  502    0 -0.00000000000E+00 -0.00000000000E+00 -0.72635530914E+03  0.72635530914E+03  0.00000000000E+00 0. -1.
          2    1    1    2  501    0  0.20321077982E+02 -0.26369851649E+01 -0.72589654613E+03  0.72618571701E+03  0.00000000000E+00 0. -1.
          2    1    1    2  502    0 -0.20321077982E+02  0.26369851649E+01  0.33381208348E+03  0.33444043861E+03  0.00000000000E+00 0. -1.
</event>
<event>
 4    1  0.6688462E+003  0.2948563E+02  0.7546771E-02  0.1424120E+00
          2   -1    0    0  502    0  0.00000000000E+00  0.00000000000E+00  0.61806413802E+03  0.61806413802E+03  0.00000000000E+00 0.  1.
          2   -1    0    0  501    0 -0.00000000000E+00 -0.00000000000E+00 -0.18830809170E+02  0.18830809170E+02  0.00000000000E+00 0.  1.
          2    1    1    2  501    0  0.28978035866E+02 -0.54475241590E+01  0.60593936904E+03  0.60665634509E+03  0.00000000000E+00 0.  1.
          2    1    1    2  502    0 -0.28978035866E+02  0.54475241590E+01 -0.67060401898E+01  0.30238602103E+02  0.00000000000E+00 0.  1.
</event>
<event>
 4    1  0.6688462E+003  0.2592141E+02  0.7546771E-02  0.1458754E+00
          2   -1    0    0  501    0  0.00000000000E+00  0.00000000000E+00  0.37627614183E+02  0.37627614183E+02  0.00000000000E+00 0. -1.
          2   -1    0    0  502    0 -0.00000000000E+00 -0.00000000000E+00 -0.23834295336E+02  0.23834295336E+02  0.00000000000E+00 0.  1.
          2    1    1    2  501    0 -0.23028218248E+02  0.11900453635E+02  0.22286142814E+02  0.34184671915E+02  0.00000000000E+00 0. -1.
          2    1    1    2  502    0  0.23028218248E+02 -0.11900453635E+02 -0.84928239670E+01  0.27277237605E+02  0.00000000000E+00 0.  1.
</event>
<event>
 4    1  0.6688462E+003  0.2624995E+02  0.7546771E-02  0.1455292E+00
          2   -1    0    0  502    0  0.00000000000E+00  0.00000000000E+00  0.10784461957E+04  0.10784461957E+04  0.00000000000E+00 0.  1.
          2   -1    0    0  501    0 -0.00000000000E+00 -0.00000000000E+00 -0.13676392260E+03  0.13676392260E+03  0.00000000000E+00 0.  1.
          2    1    1    2  501    0 -0.21319678328E+02  0.15314407916E+02  0.10770252209E+04  0.10773450637E+04  0.00000000000E+00 0.  1.
          2    1    1    2  502    0  0.21319678328E+02 -0.15314407916E+02 -0.13534294779E+03  0.13786505464E+03  0.00000000000E+00 0.  1.
</event>
<event>
 4    1  0.6688462E+003  0.2671070E+02  0.7546771E-02  0.1450536E+00
          2   -1    0    0  501    0  0.00000000000E+00  0.00000000000E+00  0.13232517931E+02  0.13232517931E+02  0.00000000000E+00 0. -1.
          2   -1    0    0  502    0 -0.00000000000E+00 -0.00000000000E+00 -0.20654514729E+03  0.20654514729E+03  0.00000000000E+00 0.  1.
          2    1    1    2  501    0  0.19635183632E+02 -0.18108586843E+02 -0.19111958612E+03  0.19297709074E+03  0.00000000000E+00 0.  1.
          2    1    1    2  502    0 -0.19635183632E+02  0.18108586843E+02 -0.21930432423E+01  0.26800574479E+02  0.00000000000E+00 0. -1.
</event>
<event>
 4    1  0.6688462E+003  0.2344514E+02  0.7546771E-02  0.1486983E+00
          2   -1    0    0  502    0  0.00000000000E+00  0.00000000000E+00  0.31058144865E+01  0.31058144865E+01  0.00000000000E+00 0. -1.
          2   -1    0    0  501    0 -0.00000000000E+00 -0.00000000000E+00 -0.11933012910E+04  0.11933012910E+04  0.00000000000E+00 0. -1.
          2    1    1    2  501    0  0.79154753741E+01  0.22068526802E+02 -0.43034379531E+02  0.49006453118E+02  0.00000000000E+00 0. -1.
          2    1    1    2  502    0 -0.79154753741E+01 -0.22068526802E+02 -0.11471610970E+04  0.11474006524E+04  0.00000000000E+00 0. -1.
</event>
<event>
 4    1  0.6688462E+003  0.2203809E+02  0.7546771E-02  0.1504943E+00
          2   -1    0    0  502    0  0.00000000000E+00  0.00000000000E+00  0.18181528427E+03  0.18181528427E+03  0.00000000000E+00 0. -1.
          2   -1    0    0  501    0 -0.00000000000E+00 -0.00000000000E+00 -0.31949144916E+03  0.31949144916E+03  0.00000000000E+00 0.  1.
          2    1    1    2  501    0  0.18059258297E+01  0.21963976145E+02  0.18076522781E+03  0.18210366609E+03  0.00000000000E+00 0. -1.
          2    1    1    2  502    0 -0.18059258297E+01 -0.21963976145E+02 -0.31844139270E+03  0.31920306734E+03  0.00000000000E+00 0.  1.
</event>
<event>
 4    1  0.6688462E+003  0.2046095E+02  0.7546771E-02  0.1527102E+00
          2   -1    0    0  501    0  0.00000000000E+00  0.00000000000E+00  0.53166769492E+03  0.53166769492E+03  0.00000000000E+00 0.  1.
          2   -1    0    0  502    0 -0.00000000000E+00 -0.00000000000E+00 -0.16201696567E+01  0.16201696567E+01  0.00000000000E+00 0. -1.
          2    1    1    2  501    0 -0.18426083779E+02 -0.88955048866E+01  0.73859661957E+02  0.76641374173E+02  0.00000000000E+00 0. -1.
          2    1    1    2  502    0  0.18426083779E+02  0.88955048866E+01  0.45618786331E+03  0.45664649041E+03  0.00000000000E+00 0.  1.
</event>
<event>
 4    1  0.6688462E+003  0.9502606E+02  0.7546771E-02  0.1172718E+00
          2   -1    0    0  501    0  0.00000000000E+00  0.00000000000E+00  0.36119599833E+03  0.36119599833E+03  0.00000000000E+00 0.  1.
          2   -1    0    0  502    0 -0.00000000000E+00 -0.00000000000E+00 -0.24272776150E+03  0.24272776150E+03  0.00000000000E+00 0.  1.
          2    1    1    2  501    0 -0.45236696725E+02  0.83567901350E+02 -0.22675476543E+03  0.24586109191E+03  0.00000000000E+00 0.  1.
          2    1    1    2  502    0  0.45236696725E+02 -0.83567901350E+02  0.34522300227E+03  0.35806266792E+03  0.00000000000E+00 0.  1.
</event>
<event>
 4    1  0.6688462E+003  0.2100267E+02  0.7546771E-02  0.1519227E+00
          2   -1    0    0  502    0  0.00000000000E+00  0.00000000000E+00  0.67534458912E+03  0.67534458912E+03  0.00000000000E+00 0.  1.
          2   -1    0    0  501    0 -0.00000000000E+00 -0.00000000000E+00 -0.23983338090E+01  0.23983338090E+01  0.00000000000E+00 0.  1.
          2    1    1    2  501    0 -0.19356614530E+02 -0.81506858848E+01  0.62554029210E+03  0.62589277776E+03  0.00000000000E+00 0.  1.
          2    1    1    2  502    0  0.19356614530E+02  0.81506858848E+01  0.47405963206E+02  0.51850145169E+02  0.00000000000E+00 0.  1.
</event>
<event>
 4    1  0.6688462E+003  0.2255887E+02  0.7546771E-02  0.1498113E+00
          2   -1    0    0  502    0  0.00000000000E+00  0.00000000000E+00  0.11917602326E+03  0.11917602326E+03  0.00000000000E+00 0.  1.
          2   -1    0    0  501    0 -0.00000000000E+00 -0.00000000000E+00 -0.35237454641E+03  0.35237454641E+03  0.00000000000E+00 0.  1.
          2    1    1    2  501    0 -0.21555047430E+02  0.66544993653E+01  0.11774307293E+03  0.11988466814E+03  0.00000000000E+00 0.  1.
          2    1    1    2  502    0  0.21555047430E+02 -0.66544993653E+01 -0.35094159609E+03  0.35166590153E+03  0.00000000000E+00 0.  1.
</event>
<event>
 4    1  0.6688462E+003  0.2325889E+02  0.7546771E-02  0.1489273E+00
          2   -1    0    0  502    0  0.00000000000E+00  0.00000000000E+00  0.25209889529E+01  0.25209889529E+01  0.00000000000E+00 0.  1.
          2   -1    0    0  501    0 -0.00000000000E+00 -0.00000000000E+00 -0.11981525564E+04  0.11981525564E+04  0.00000000000E+00 0. -1.
          2    1    1    2  501    0 -0.21313425030E+02 -0.93120163036E+01 -0.53889346348E+02  0.58694440827E+02  0.00000000000E+00 0.  1.
          2    1    1    2  502    0  0.21313425030E+02  0.93120163036E+01 -0.11417422211E+04  0.11419791046E+04  0.00000000000E+00 0. -1.
</event>
<event>
 4    1  0.6688462E+003  0.2285224E+02  0.7546771E-02  0.1494362E+00
          2   -1    0    0  502    0  0.00000000000E+00  0.00000000000E+00  0.11985239262E+03  0.11985239262E+03  0.00000000000E+00 0. -1.
          2   -1    0    0  501    0 -0.00000000000E+00 -0.00000000000E+00 -0.40887540008E+03  0.40887540008E+03  0.00000000000E+00 0.  1.
          2    1    1    2  501    0  0.21668468491E+02  0.72596283325E+01  0.11844000607E+03  0.12062445759E+03  0.00000000000E+00 0. -1.
          2    1    1    2  502    0 -0.21668468491E+02 -0.72596283325E+01 -0.40746301354E+03  0.40810333511E+03  0.00000000000E+00 0.  1.
</event>
<event>
 4    1  0.6688462E+003  0.3759145E+02  0.7546771E-02  0.1363209E+00
          2   -1    0    0  502    0  0.00000000000E+00  0.00000000000E+00  0.97453456615E+02  0.97453456615E+02  0.00000000000E+00 0. -1.
          2   -1    0    0  501    0 -0.00000000000E+00 -0.00000000000E+00 -0.32561385645E+03  0.32561385645E+03  0.00000000000E+00 0.  1.
          2    1    1    2  501    0  0.21419851068E+02 -0.30891863820E+02  0.92689745384E+02  0.10002252831E+03  0.00000000000E+00 0. -1.
          2    1    1    2  502    0 -0.21419851068E+02  0.30891863820E+02 -0.32085014521E+03  0.32304478475E+03  0.00000000000E+00 0.  1.
</event>
<event>
 4    1  0.6688462E+003  0.5932531E+02  0.7546771E-02  0.1262142E+00
          2   -1    0    0  501    0  0.00000000000E+00  0.00000000000E+00  0.61137766358E+01  0.61137766358E+01  0.00000000000E+00 0. -1.
          2   -1    0    0  502    0 -0.00000000000E+00 -0.00000000000E+00 -0.22892524166E+04  0.22892524166E+04  0.00000000000E+00 0.  1.
          2    1    1    2  501    0 -0.45489417782E+02 -0.38081563197E+02 -0.21345211161E+04  0.21353453790E+04  0.00000000000E+00 0.  1.
          2    1    1    2  502    0  0.45489417782E+02  0.38081563197E+02 -0.14861752386E+03  0.16002081422E+03  0.00000000000E+00 0. -1.
</event>
<event>
 4    1  0.6688462E+003  0.2338274E+02  0.7546771E-02  0.1487747E+00
          2   -1    0    0  502    0  0.00000000000E+00  0.00000000000E+00  0.69404692434E+02  0.69404692434E+02  0.00000000000E+00 0.  1.
          2   -1    0    0  501    0 -0.00000000000E+00 -0.00000000000E+00 -0.11048609981E+02  0.11048609981E+02  0.00000000000E+00 0.  1.
          2    1    1    2  501    0 -0.19474287141E+02 -0.12942357996E+02  0.50728122485E+02  0.55857809669E+02  0.00000000000E+00 0.  1.
          2    1    1    2  502    0  0.19474287141E+02  0.12942357996E+02  0.76279599681E+01  0.24595492746E+02  0.00000000000E+00 0.  1.
</event>
<event>
 4    1  0.6688462E+003  0.2206183E+02  0.7546771E-02  0.1504627E+00
          2   -1    0    0  501    0  0.00000000000E+00  0.00000000000E+00  0.18097461818E+03  0.18097461818E+03  0.00000000000E+00 0. -1.
          2   -1    0    0  502    0 -0.00000000000E+00 -0.00000000000E+00 -0.33578582566E+01  0.33578582566E+01  0.00000000000E+00 0. -1.
          2    1    1    2  501    0 -0.14252330185E+02  0.16840288626E+02  0.47687925531E+02  0.52543910000E+02  0.00000000000E+00 0. -1.
          2    1    1    2  502    0  0.14252330185E+02 -0.16840288626E+02  0.12992883439E+03  0.13178856644E+03  0.00000000000E+00 0. -1.
</event>
<event>
 4    1  0.6688462E+003  0.3266840E+02  0.7546771E-02  0.1397740E+00
          2   -1    0    0  501    0  0.00000000000E+00  0.00000000000E+00  0.24770482633E+03  0.24770482633E+03  0.00000000000E+00 0.  1.
          2   -1    0    0  502    0 -0.00000000000E+00 -0.00000000000E+00 -0.20154340514E+02  0.20154340514E+02  0.00000000000E+00 0. -1.
          2    1    1    2  501    0 -0.38628126328E+01 -0.32439222484E+02 -0.49793768277E+01  0.33045705778E+02  0.00000000000E+00 0. -1.
          2    1    1    2  502    0  0.38628126328E+01  0.32439222484E+02  0.23252986264E+03  0.23481346107E+03  0.00000000000E+00 0.  1.
</event>
<event>
 4    1  0.6688462E+003  0.2053920E+02  0.7546771E-02  0.1525947E+00
          2   -1    0    0  502    0  0.00000000000E+00  0.00000000000E+00  0.81581345269E+02  0.81581345269E+02  0.00000000000E+00 0. -1.
          2   -1    0    0  501    0 -0.00000000000E+00 -0.00000000000E+00 -0.13976647747E+04  0.13976647747E+04  0.00000000000E+00 0.  1.
          2    1    1    2  501    0 -0.31586638088E+00  0.20536770632E+02  0.80211864779E+02  0.82799770355E+02  0.00000000000E+00 0. -1.
          2    1    1    2  502    0  0.31586638088E+00 -0.20536770632E+02 -0.13962952942E+04  0.13964463496E+04  0.00000000000E+00 0.  1.
</event>
<event>
 4    1  0.6688462E+003  0.2518778E+02  0.7546771E-02  0.1466714E+00
          2   -1    0    0  502    0  0.00000000000E+00  0.00000000000E+00  0.52386337314E+03  0.52386337314E+03  0.00000000000E+00 0. -1.
          2   -1    0    0  501    0 -0.00000000000E+00 -0.00000000000E+00 -0.30596697172E+03  0.30596697172E+03  0.00000000000E+00 0. -1.
          2    1    1    2  501    0 -0.12468959344E+02  0.21884913074E+02  0.52304142015E+03  0.52364754517E+03  0.00000000000E+00 0. -1.
          2    1    1    2  502    0  0.12468959344E+02 -0.21884913074E+02 -0.30514501874E+03  0.30618279969E+03  0.00000000000E+00 0. -1.
</event>
<event>
 4    1  0.6688462E+003  0.8237709E+02  0.7546771E-02  0.1198434E+00
          2   -1    0    0  502    0  0.00000000000E+00  0.00000000000E+00  0.80955056754E+03  0.80955056754E+03  0.00000000000E+00 0. -1.
          2   -1    0    0  501    0 -0.00000000000E+00 -0.00000000000E+00 -0.48318796159E+03  0.48318796159E+03  0.00000000000E+00 0. -1.
          2    1    1    2  501    0  0.78118456746E+02  0.26143675502E+02  0.80391938720E+03  0.80812892917E+03  0.00000000000E+00 0. -1.
          2    1    1    2  502    0 -0.78118456746E+02 -0.26143675502E+02 -0.47755678125E+03  0.48460959996E+03  0.00000000000E+00 0. -1.
</event>
<event>
 4    1  0.6688462E+003  0.4044609E+02  0.7546771E-02  0.1345891E+00
          2   -1    0    0  502    0  0.00000000000E+00  0.00000000000E+00  0.14158284194E+02  0.14158284194E+02  0.00000000000E+00 0. -1.
          2   -1    0    0  501    0 -0.00000000000E+00 -0.00000000000E+00 -0.18698183658E+03  0.18698183658E+03  0.00000000000E+00 0.  1.
          2    1    1    2  501    0 -0.86259967520E+01  0.39515542931E+02 -0.14857552418E+03  0.15398237671E+03  0.00000000000E+00 0.  1.
          2    1    1    2  502    0  0.86259967520E+01 -0.39515542931E+02 -0.24248028211E+02  0.47157744064E+02  0.00000000000E+00 0. -1.
</event>
<event>
 4    1  0.6688462E+003  0.2256730E+02  0.7546771E-02  0.1498004E+00
          2   -1    0    0  501    0  0.00000000000E+00  0.00000000000E+00  0.37067743801E+03  0.37067743801E+03  0.00000000000E+00 0.  1.
          2   -1    0    0  502    0 -0.00000000000E+00 -0.00000000000E+00 -0.60610986761E+03  0.60610986761E+03  0.00000000000E+00 0.  1.
          2    1    1    2  501    0 -0.21830141551E+02 -0.57208160661E+01 -0.60555601035E+03  0.60597637288E+03  0.00000000000E+00 0.  1.
          2    1    1    2  502    0  0.21830141551E+02  0.57208160661E+01  0.37012358075E+03  0.37081093275E+03  0.00000000000E+00 0.  1.
</event>
<event>
 4    1  0.6688462E+003  0.2953568E+02  0.7546771E-02  0.1423675E+00
          2   -1    0    0  501    0  0.00000000000E+00  0.00000000000E+00  0.10002818180E+03  0.10002818180E+03  0.00000000000E+00 0.  1.
          2   -1    0    0  502    0 -0.00000000000E+00 -0.00000000000E+00 -0.22862816066E+02  0.22862816066E+02  0.00000000000E+00 0.  1.
          2    1    1    2  501    0 -0.19270498237E+02 -0.22383127441E+02 -0.97427953013E+01  0.31101102176E+02  0.00000000000E+00 0.  1.
          2    1    1    2  502    0  0.19270498237E+02  0.22383127441E+02  0.86908161035E+02  0.91789895690E+02  0.00000000000E+00 0.  1.
</event>
<event>
 4    1  0.6688462E+003  0.2252788E+02  0.7546771E-02  0.1498513E+00
          2   -1    0    0  502    0  0.00000000000E+00  0.00000000000E+00  0.56678798228E+03  0.56678798228E+03  0.00000000000E+00 0. -1.
          2   -1    0    0  501    0 -0.00000000000E+00 -0.00000000000E+00 -0.31637374031E+02  0.31637374031E+02  0.00000000000E+00 0.  1.
          2    1    1    2  501    0  0.22011521331E+02  0.47956774292E+01  0.56252340713E+03  0.56297432372E+03  0.00000000000E+00 0. -1.
          2    1    1    2  502    0 -0.22011521331E+02 -0.47956774292E+01 -0.27372798883E+02  0.35451032594E+02  0.00000000000E+00 0.  1.
</event>
<event>
 4    1  0.6688462E+003  0.2032324E+02  0.7546771E-02  0.1529150E+00
          2   -1    0    0  501    0  0.00000000000E+00  0.00000000000E+00  0.15271682468E+03  0.15271682468E+03  0.00000000000E+00 0.  1.
          2   -1    0    0  502    0 -0.00000000000E+00 -0.00000000000E+00 -0.19547259749E+03  0.19547259749E+03  0.00000000000E+00 0. -1.
          2    1    1    2  501    0 -0.52441009964E+01  0.19635011714E+02 -0.19426400749E+03  0.19532418920E+03  0.00000000000E+00 0. -1.
          2    1    1    2  502    0  0.52441009964E+01 -0.19635011714E+02  0.15150823468E+03  0.15286523298E+03  0.00000000000E+00 0.  1.
</event>
<event>
 4    1  0.6688462E+003  0.3183025E+02  0.7546771E-02  0.1404331E+00
          2   -1    0    0  501    0  0.00000000000E+00  0.00000000000E+00  0.28807910094E+03  0.28807910094E+03  0.00000000000E+00 0. -1.
          2   -1    0    0  502    0 -0.00000000000E+00 -0.00000000000E+00 -0.40233372828E+01  0.40233372828E+01  0.00000000000E+00 0.  1.
          2    1    1    2  501    0 -0.31820092451E+02  0.80390349773E+00  0.90213980992E+02  0.95664658630E+02  0.00000000000E+00 0.  1.
          2    1    1    2  502    0  0.31820092451E+02 -0.80390349773E+00  0.19384178267E+03  0.19643777959E+03  0.00000000000E+00 0. -1.
</event>
<event>
 4    1  0.6688462E+003  0.4253953E+02  0.7546771E-02  0.1334214E+00
          2   -1    0    0  501    0  0.00000000000E+00  0.00000000000E+00  0.52825153069E+03  0.52825153069E+03  0.00000000000E+00 0. -1.
          2   -1    0    0  502    0 -0.00000000000E+00 -0.00000000000E+00 -0.97189824993E+01  0.97189824993E+01  0.00000000000E+00 0.  1.
          2    1    1    2  501    0 -0.37362269884E+02  0.20338940539E+02  0.42816086097E+02  0.60355852589E+02  0.00000000000E+00 0.  1.
          2    1    1    2  502    0  0.37362269884E+02 -0.20338940539E+02  0.47571646210E+03  0.47761466060E+03  0.00000000000E+00 0. -1.
</event>
<event>
 4    1  0.6688462E+003  0.2063099E+02  0.7546771E-02  0.1524599E+00
          2   -1    0    0  501    0  0.00000000000E+00  0.00000000000E+00  0.70573506080E+01  0.70573506080E+01  0.00000000000E+00 0. -1.
          2   -1    0    0  502    0 -0.00000000000E+00 -0.00000000000E+00 -0.59328720292E+03  0.59328720292E+03  0.00000000000E+00 0. -1.
          2    1    1    2  501    0  0.19511432597E+02 -0.67038731387E+01 -0.57762122118E+03  0.57798954409E+03  0.00000000000E+00 0. -1.
          2    1    1    2  502    0 -0.19511432597E+02  0.67038731387E+01 -0.86086311299E+01  0.22355009438E+02  0.00000000000E+00 0. -1.
</event>
<event>
 4    1  0.6688462E+003  0.2319556E+02  0.7546771E-02  0.1490057E+00
          2   -1    0    0  501    0  0.00000000000E+00  0.00000000000E+00  0.11204717742E+03  0.11204717742E+03  0.00000000000E+00 0. -1.
          2   -1    0    0  502    0 -0.00000000000E+00 -0.00000000000E+00 -0.70638079056E+03  0.70638079056E+03  0.00000000000E+00 0. -1.
          2    1    1    2  501    0 -0.14880411090E+02  0.17793468806E+02 -0.70498753599E+03  0.70536902403E+03  0.00000000000E+00 0. -1.
          2    1    1    2  502    0  0.14880411090E+02 -0.17793468806E+02  0.11065392285E+03  0.11305894395E+03  0.00000000000E+00 0. -1.
</event>
<event>
 4    1  0.6688462E+003  0.2053885E+02  0.7546771E-02  0.1525952E+00
          2   -1    0    0  501    0  0.00000000000E+00  0.00000000000E+00  0.12413935590E+04  0.12413935590E+04  0.00000000000E+00 0.  1.
          2   -1    0    0  502    0 -0.00000000000E+00 -0.00000000000E+00 -0.26141949294E+01  0.26141949294E+01  0.00000000000E+00 0.  1.
          2    1    1    2  501    0  0.20199456514E+02 -0.37183772188E+01  0.39219241553E+02  0.44271811354E+02  0.00000000000E+00 0.  1.
          2    1    1    2  502    0 -0.20199456514E+02  0.37183772188E+01  0.11995601225E+04  0.11997359426E+04  0.00000000000E+00 0.  1.
</event>
<event>
 4    1  0.6688462E+003  0.2719789E+02  0.7546771E-02  0.1445630E+00
          2   -1    0    0  502    0  0.00000000000E+00  0.00000000000E+00  0.32439334479E+01  0.32439334479E+01  0.00000000000E+00 0.  1.
          2   -1    0    0  501    0 -0.00000000000E+00 -0.00000000000E+00 -0.56996181934E+03  0.56996181934E+03  0.00000000000E+00 0. -1.
          2    1    1    2  501    0 -0.20307522901E+02 -0.18092263475E+02 -0.61373139444E+02  0.67129633764E+02  0.00000000000E+00 0.  1.
          2    1    1    2  502    0  0.20307522901E+02  0.18092263475E+02 -0.50534474644E+03  0.50607611902E+03  0.00000000000E+00 0. -1.
</event>
<event>
 4    1  0.6688462E+003  0.3416218E+02  0.7546771E-02  0.1386551E+00
          2   -1    0    0  501    0  0.00000000000E+00  0.00000000000E+00  0.25169373022E+03  0.25169373022E+03  0.00000000000E+00 0. -1.
          2   -1    0    0  502    0 -0.00000000000E+00 -0.00000000000E+00 -0.47183529042E+01  0.47183529042E+01  0.00000000000E+00 0. -1.
          2    1    1    2  501    0  0.14491823889E+02  0.30936088172E+02  0.10663294404E+03  0.11197160026E+03  0.00000000000E+00 0. -1.
          2    1    1    2  502    0 -0.14491823889E+02 -0.30936088172E+02  0.14034243328E+03  0.14444048286E+03  0.00000000000E+00 0. -1.
</event>
<event>
 4    1  0.6688462E+003  0.2699489E+02  0.7546771E-02  0.1447659E+00
          2   -1    0    0  501    0  0.00000000000E+00  0.00000000000E+00  0.92281529417E+03  0.92281529417E+03  0.00000000000E+00 0. -1.
          2   -1    0    0  502    0 -0.00000000000E+00 -0.00000000000E+00 -0.21279882574E+03  0.21279882574E+03  0.00000000000E+00 0.  1.
          2    1    1    2  501    0  0.19112688301E+02  0.19063818900E+02 -0.21174430931E+03  0.21345813775E+03  0.00000000000E+00 0.  1.
          2    1    1    2  502    0 -0.19112688301E+02 -0.19063818900E+02  0.92176077775E+03  0.92215598216E+03  0.00000000000E+00 0. -1.
</event>
<event>
 4    1  0.6688462E+003  0.4088424E+02  0.7546771E-02  0.1343381E+00
          2   -1    0    0  501    0  0.00000000000E+00  0.00000000000E+00  0.36257377459E+02  0.36257377459E+02  0.00000000000E+00 0.  1.
          2   -1    0    0  502    0 -0.00000000000E+00 -0.00000000000E+00 -0.90571734337E+02  0.90571734337E+02  0.00000000000E+00 0. -1.
          2    1    1    2  501    0 -0.35767514286E+02 -0.19804185948E+02 -0.71592378264E+02  0.82443856561E+02  0.00000000000E+00 0. -1.
          2    1    1    2  502    0  0.35767514286E+02  0.19804185948E+02  0.17278021385E+02  0.44385255235E+02  0.00000000000E+00 0.  1.
</event>
<event>
 4    1  0.6688462E+003  0.2549229E+02  0.7546771E-02  0.1463371E+00
          2   -1    0    0  501    0  0.00000000000E+00  0.00000000000E+00  0.33083543303E+01  0.33083543303E+01  0.00000000000E+00 0.  1.
          2   -1    0    0  502    0 -0.00000000000E+00 -0.00000000000E+00 -0.10520929356E+04  0.10520929356E+04  0.00000000000E+00 0.  1.
          2    1    1    2  501    0 -0.36154999159E+00  0.25489729704E+02 -0.10002884097E+04  0.10006131918E+04  0.00000000000E+00 0.  1.
          2    1    1    2  502    0  0.36154999159E+00 -0.25489729704E+02 -0.48496171550E+02  0.54788098103E+02  0.00000000000E+00 0.  1.
</event>
<event>
 4    1  0.6688462E+003  0.2175310E+02  0.7546771E-02  0.1508779E+00
          2   -1    0    0  501    0  0.00000000000E+00  0.00000000000E+00  0.52240301078E+01  0.52240301078E+01  0.00000000000E+00 0.  1.
          2   -1    0    0  502    0 -0.00000000000E+00 -0.00000000000E+00 -0.67925322644E+03  0.67925322644E+03  0.00000000000E+00 0.  1.
          2    1    1    2  501    0  0.19472553548E+02  0.96962281906E+01 -0.65561769533E+03  0.65597847496E+03  0.00000000000E+00 0.  1.
          2    1    1    2  502    0 -0.19472553548E+02 -0.96962281906E+01 -0.18411501004E+02  0.28498781589E+02  0.00000000000E+00 0.  1.
</event>
<event>
 4    1  0.6688462E+003  0.2677231E+02  0.7546771E-02  0.1449909E+00
          2   -1    0    0  502    0  0.00000000000E+00  0.00000000000E+00  0.15568777942E+01  0.15568777942E+01  0.00000000000E+00 0. -1.
          2   -1    0    0  501    0 -0.00000000000E+00 -0.00000000000E+00 -0.53738449433E+03  0.53738449433E+03  0.00000000000E+00 0. -1.
          2    1    1    2  501    0 -0.26247348956E+02 -0.52757339312E+01 -0.16590805901E+03  0.16805427915E+03  0.00000000000E+00 0. -1.
          2    1    1    2  502    0  0.26247348956E+02  0.52757339312E+01 -0.36991955752E+03  0.37088709297E+03  0.00000000000E+00 0. -1.
</event>
<event>
 4    1  0.6688462E+003  0.2768227E+02  0.7546771E-02  0.1440872E+00
          2   -1    0    0  501    0  0.00000000000E+00  0.00000000000E+00  0.13748745327E+02  0.13748745327E+02  0.00000000000E+00 0.  1.
          2   -1    0    0  502    0 -0.00000000000E+00 -0.00000000000E+00 -0.25981653317E+03  0.25981653317E+03  0.00000000000E+00 0.  1.
          2    1    1    2  501    0 -0.24663584329E+02  0.12570417936E+02 -0.24426045334E+03  0.24582407706E+03  0.00000000000E+00 0.  1.
          2    1    1    2  502    0  0.24663584329E+02 -0.12570417936E+02 -0.18073345059E+01  0.27741201435E+02  0.00000000000E+00 0.  1.
</event>
<event>
 4    1  0.6688462E+003  0.3365874E+02  0.7546771E-02  0.1390246E+00
          2   -1    0    0  502    0  0.00000000000E+00  0.00000000000E+00  0.41984769217E+01  0.41984769217E+01  0.00000000000E+00 0. -1.
          2   -1    0    0  501    0 -0.00000000000E+00 -0.00000000000E+00 -0.38184279238E+03  0.38184279238E+03  0.00000000000E+00 0. -1.
          2    1    1    2  501    0  0.19080991272E+01 -0.33604612156E+02 -0.84283063137E+02  0.90755415993E+02  0.00000000000E+00 0. -1.
          2    1    1    2  502    0 -0.19080991272E+01  0.33604612156E+02 -0.29336125232E+03  0.29528585331E+03  0.00000000000E+00 0. -1.
</event>
<event>
 4    1  0.6688462E+003  0.2012479E+02  0.7546771E-02  0.1532137E+00
          2   -1    0    0  502    0  0.00000000000E+00  0.00000000000E+00  0.48981852473E+03  0.48981852473E+03  0.00000000000E+00 0.  1.
          2   -1    0    0  501    0 -0.00000000000E+00 -0.00000000000E+00 -0.13458142392E+02  0.13458142392E+02  0.00000000000E+00 0.  1.
          2    1    1    2  501    0 -0.11880805486E+02 -0.16243566439E+02  0.48196582885E+03  0.48238580739E+03  0.00000000000E+00 0.  1.
          2    1    1    2  502    0  0.11880805486E+02  0.16243566439E+02 -0.56054465159E+01  0.20890859731E+02  0.00000000000E+00 0.  1.
</event>
<event>
 4    1  0.6688462E+003  0.2110395E+02  0.7546771E-02  0.1517786E+00
          2   -1    0    0  501    0  0.00000000000E+00  0.00000000000E+00  0.14139378234E+04  0.14139378234E+04  0.00000000000E+00 0.  1.
          2   -1    0    0  502    0 -0.00000000000E+00 -0.00000000000E+00 -0.11647891653E+01  0.11647891653E+01  0.00000000000E+00 0. -1.
          2    1    1    2  501    0  0.15664258953E+02  0.14142402663E+02  0.10203116259E+03  0.10419085709E+03  0.00000000000E+00 0. -1.
          2    1    1    2  502    0 -0.15664258953E+02 -0.14142402663E+02  0.13107418716E+04  0.13109117554E+04  0.00000000000E+00 0.  1.
</event>
<event>
 4    1  0.6688462E+003  0.2050297E+02  0.7546771E-02  0.1526481E+00
          2   -1    0    0  502    0  0.00000000000E+00  0.00000000000E+00  0.17424604604E+04  0.17424604604E+04  0.00000000000E+00 0.  1.
          2   -1    0    0  501    0 -0.00000000000E+00 -0.00000000000E+00 -0.52097205265E+00  0.52097205265E+00  0.00000000000E+00 0.  1.
          2    1    1    2  501    0 -0.19247759538E+02 -0.70636786113E+01  0.15095529194E+04  0.15096921502E+04  0.00000000000E+00 0.  1.
          2    1    1    2  502    0  0.19247759538E+02  0.70636786113E+01  0.23238656889E+03  0.23328928223E+03  0.00000000000E+00 0.  1.
</event>
<event>
 4    1  0.6688462E+003  0.2963438E+02  0.7546771E-02  0.1422801E+00
          2   -1    0    0  502    0  0.00000000000E+00  0.00000000000E+00  0.18133267882E+03  0.18133267882E+03  0.00000000000E+00 0.  1.
          2   -1    0    0  501    0 -0.00000000000E+00 -0.00000000000E+00 -0.83286307238E+01  0.83286307238E+01  0.00000000000E+00 0.  1.
          2    1    1    2  501    0 -0.26357218432E+01 -0.29516938080E+02  0.14785021696E+03  0.15079085953E+03  0.00000000000E+00 0.  1.
          2    1    1    2  502    0  0.26357218432E+01  0.29516938080E+02  0.25153831136E+02  0.38870450011E+02  0.00000000000E+00 0.  1.
</event>
<event>
 4    1  0.6688462E+003  0.2109177E+02  0.7546771E-02  0.1517959E+00
          2   -1    0    0  501    0  0.00000000000E+00  0.00000000000E+00  0.30046021677E+02  0.30046021677E+02  0.00000000000E+00 0.  1.
          2   -1    0    0  502    0 -0.00000000000E+00 -0.00000000000E+00 -0.18794736092E+03  0.18794736092E+03  0.00000000000E+00 0.  1.
          2    1    1    2  501    0  0.13875760928E+02 -0.15884773526E+02 -0.18356605393E+03  0.18477380476E+03  0.00000000000E+00 0.  1.
          2    1    1    2  502    0 -0.13875760928E+02  0.15884773526E+02  0.25664714688E+02  0.33219577832E+02  0.00000000000E+00 0.  1.
</event>
<event>
 4    1  0.6688462E+003  0.2232893E+02  0.7546771E-02  0.1501101E+00
          2   -1    0    0  502    0  0.00000000000E+00  0.00000000000E+00  0.12633078226E+02  0.12633078226E+02  0.00000000000E+00 0.  1.
          2   -1    0    0  501    0 -0.00000000000E+00 -0.00000000000E+00 -0.52014896232E+03  0.52014896232E+03  0.00000000000E+00 0. -1.
          2    1    1    2  501    0 -0.20746466860E+02  0.82562197057E+01  0.23275262649E+01  0.22449909343E+02  0.00000000000E+00 0.  1.
          2    1    1    2  502    0  0.20746466860E+02 -0.82562197057E+01 -0.50984341036E+03  0.51033213120E+03  0.00000000000E+00 0. -1.
</event>
<event>
 4    1  0.6688462E+003  0.6597659E+02  0.7546771E-02  0.1240775E+00
          2   -1    0    0  502    0  0.00000000000E+00  0.00000000000E+00  0.24201165306E+03  0.24201165306E+03  0.00000000000E+00 0. -1.
          2   -1    0    0  501    0 -0.00000000000E+00 -0.00000000000E+00 -0.26622008249E+02  0.26622008249E+02  0.00000000000E+00 0.  1.
          2    1    1    2  501    0 -0.39385686605E+02 -0.52930878651E+02  0.18419410180E+03  0.19565371798E+03  0.00000000000E+00 0. -1.
          2    1    1    2  502    0  0.39385686605E+02  0.52930878651E+02  0.31195543019E+02  0.72979943329E+02  0.00000000000E+00 0.  1.
</event>
<event>
 4    1  0.6688462E+003  0.2056309E+02  0.7546771E-02  0.1525595E+00
          2   -1    0    0  502    0  0.00000000000E+00  0.00000000000E+00  0.91879525918E+03  0.91879525918E+03  0.00000000000E+00 0. -1.
          2   -1    0    0  501    0 -0.00000000000E+00 -0.00000000000E+00 -0.21068409373E+01  0.21068409373E+01  0.00000000000E+00 0.  1.
          2    1    1    2  501    0 -0.28795464942E+01 -0.20360477345E+02  0.86541077493E+03  0.86565504111E+03  0.00000000000E+00 0. -1.
          2    1    1    2  502    0  0.28795464942E+01  0.20360477345E+02  0.51277643305E+02  0.55247059005E+02  0.00000000000E+00 0.  1.
</event>
<event>
 4    1  0.6688462E+003  0.2358993E+02  0.7546771E-02  0.1485220E+00
          2   -1    0    0  502    0  0.00000000000E+00  0.00000000000E+00  0.19785374505E+02  0.19785374505E+02  0.00000000000E+00 0.  1.
          2   -1    0    0  501    0 -0.00000000000E+00 -0.00000000000E+00 -0.28959652736E+02  0.28959652736E+02  0.00000000000E+00 0.  1.
          2    1    1    2  501    0  0.11919239025E+02 -0.20357219663E+02 -0.45209323712E+00  0.23594258616E+02  0.00000000000E+00 0.  1.
          2    1    1    2  502    0 -0.11919239025E+02  0.20357219663E+02 -0.87221849930E+01  0.25150768625E+02  0.00000000000E+00 0.  1.
</event>
<event>
 4    1  0.6688462E+003  0.3410550E+02  0.7546771E-02  0.1386963E+00
          2   -1    0    0  501    0  0.00000000000E+00  0.00000000000E+00  0.16466561575E+02  0.16466561575E+02  0.00000000000E+00 0. -1.
          2   -1    0    0  502    0 -0.00000000000E+00 -0.00000000000E+00 -0.29385384900E+03  0.29385384900E+03  0.00000000000E+00 0.  1.
          2    1    1    2  501    0  0.20442508204E+02 -0.27299983809E+02 -0.27392455334E+03  0.27603957358E+03  0.00000000000E+00 0.  1.
          2    1    1    2  502    0 -0.20442508204E+02  0.27299983809E+02 -0.34627340800E+01  0.34280836993E+02  0.00000000000E+00 0. -1.
</event>
<event>
 4    1  0.6688462E+003  0.5394364E+02  0.7546771E-02  0.1281924E+00
          2   -1    0    0  501    0  0.00000000000E+00  0.00000000000E+00  0.37660392121E+01  0.37660392121E+01  0.00000000000E+00 0. -1.
          2   -1    0    0  502    0 -0.00000000000E+00 -0.00000000000E+00 -0.34673342925E+04  0.34673342925E+04  0.00000000000E+00 0. -1.
          2    1    1    2  501    0 -0.34645603453E+02 -0.41347296627E+02 -0.32617840421E+04  0.32622300737E+04  0.00000000000E+00 0. -1.
          2    1    1    2  502    0  0.34645603453E+02  0.41347296627E+02 -0.20178421121E+03  0.20887025799E+03  0.00000000000E+00 0. -1.
</event>
<event>
 4    1  0.6688462E+003  0.3812634E+02  0.7546771E-02  0.1359829E+00
          2   -1    0    0  502    0  0.00000000000E+00  0.00000000000E+00  0.15943958790E+04  0.15943958790E+04  0.00000000000E+00 0.  1.
          2   -1    0    0  501    0 -0.00000000000E+00 -0.00000000000E+00 -0.18489025634E+02  0.18489025634E+02  0.00000000000E+00 0. -1.
          2    1    1    2  501    0 -0.26415553040E+02 -0.27492477717E+02  0.15742614623E+04  0.15747230771E+04  0.00000000000E+00 0.  1.
          2    1    1    2  502    0  0.26415553040E+02  0.27492477717E+02  0.16453910945E+01  0.38161827594E+02  0.00000000000E+00 0. -1.
</event>
<event>
 4    1  0.6688462E+003  0.2049138E+02  0.7546771E-02  0.1526652E+00
          2   -1    0    0  501    0  0.00000000000E+00  0.00000000000E+00  0.75658045646E+03  0.75658045646E+03  0.00000000000E+00 0.  1.
          2   -1    0    0  502    0 -0.00000000000E+00 -0.00000000000E+00 -0.92446864721E+01  0.92446864721E+01  0.00000000000E+00 0.  1.
          2    1    1    2  501    0  0.82271981234E+01 -0.18767255045E+02  0.24270277428E+01  0.20634609629E+02  0.00000000000E+00 0.  1.
          2    1    1    2  502    0 -0.82271981234E+01  0.18767255045E+02  0.74490874224E+03  0.74519053330E+03  0.00000000000E+00 0.  1.
</event>
<event>
 4    1  0.6688462E+003  0.2425714E+02  0.7546771E-02  0.1477288E+00
          2   -1    0    0  502    0  0.00000000000E+00  0.00000000000E+00  0.11380168407E+04  0.11380168407E+04  0.00000000000E+00 0. -1.
          2   -1    0    0  501    0 -0.00000000000E+00 -0.00000000000E+00 -0.84804431253E+02  0.84804431253E+02  0.00000000000E+00 0.  1.
          2    1    1    2  501    0 -0.17873295096E+02 -0.16399819468E+02  0.11361501242E+04  0.11364090432E+04  0.00000000000E+00 0. -1.
          2    1    1    2  502    0  0.17873295096E+02  0.16399819468E+02 -0.82937714731E+02  0.86412228770E+02  0.00000000000E+00 0.  1.
</event>
<event>
 4    1  0.6688462E+003  0.3013939E+02  0.7546771E-02  0.1418389E+00
          2   -1    0    0  501    0  0.00000000000E+00  0.00000000000E+00  0.54758917903E+02  0.54758917903E+02  0.00000000000E+00 0.  1.
          2   -1    0    0  502    0 -0.00000000000E+00 -0.00000000000E+00 -0.21046776011E+02  0.21046776011E+02  0.00000000000E+00 0.  1.
          2    1    1    2  501    0  0.26797800309E+02  0.13793502869E+02 -0.58807087791E+00  0.30145126475E+02  0.00000000000E+00 0.  1.
          2    1    1    2  502    0 -0.26797800309E+02 -0.13793502869E+02  0.34300212770E+02  0.45660567439E+02  0.00000000000E+00 0.  1.
</event>
<event>
 4    1  0.6688462E+003  0.2208742E+02  0.7546771E-02  0.1504287E+00
          2   -1    0    0  501    0  0.00000000000E+00  0.00000000000E+00  0.67578675289E+03  0.67578675289E+03  0.00000000000E+00 0.  1.
          2   -1    0    0  502    0 -0.00000000000E+00 -0.00000000000E+00 -0.66536572977E+01  0.66536572977E+01  0.00000000000E+00 0.  1.
          2    1    1    2  501    0  0.21818259372E+02 -0.34376718929E+01  0.12388445915E+02  0.25324447127E+02  0.00000000000E+00 0.  1.
          2    1    1    2  502    0 -0.21818259372E+02  0.34376718929E+01  0.65674464968E+03  0.65711596306E+03  0.00000000000E+00 0.  1.
</event>
<event>
 4    1  0.6688462E+003  0.2924698E+02  0.7546771E-02  0.1426255E+00
          2   -1    0    0  502    0  0.00000000000E+00  0.00000000000E+00  0.58491335585E+03  0.58491335585E+03  0.00000000000E+00 0. -1.
          2   -1    0    0  501    0 -0.00000000000E+00 -0.00000000000E+00 -0.83133716898E+02  0.83133716898E+02  0.00000000000E+00 0. -1.
          2    1    1    2  501    0  0.28583419024E+01  0.29106972868E+02  0.58196239720E+03  0.58269684892E+03  0.00000000000E+00 0. -1.
          2    1    1    2  502    0 -0.28583419024E+01 -0.29106972868E+02 -0.80182758245E+02  0.85350223830E+02  0.00000000000E+00 0. -1.
</event>
<event>
 4    1  0.6688462E+003  0.4174768E+02  0.7546771E-02  0.1338538E+00
          2   -1    0    0  502    0  0.00000000000E+00  0.00000000000E+00  0.80095752875E+01  0.80095752875E+01  0.00000000000E+00 0. -1.
          2   -1    0    0  501    0 -0.00000000000E+00 -0.00000000000E+00 -0.22987686373E+03  0.22987686373E+03  0.00000000000E+00 0. -1.
          2    1    1    2  501    0 -0.34090156781E+02  0.24098340391E+02 -0.83444044267E+02  0.93304755091E+02  0.00000000000E+00 0. -1.
          2    1    1    2  502    0  0.34090156781E+02 -0.24098340391E+02 -0.13842324418E+03  0.14458168393E+03  0.00000000000E+00 0. -1.
</event>
<event>
 4    1  0.6688462E+003  0.3744748E+02  0.7546771E-02  0.1364130E+00
          2   -1    0    0  502    0  0.00000000000E+00  0.00000000000E+00  0.11417225684E+02  0.11417225684E+02  0.00000000000E+00 0.  1.
          2   -1    0    0  501    0 -0.00000000000E+00 -0.00000000000E+00 -0.20586605108E+03  0.20586605108E+03  0.00000000000E+00 0.  1.
          2    1    1    2  501    0  0.18205704752E+02  0.32724091341E+02 -0.28223960061E+02  0.46892491522E+02  0.00000000000E+00 0.  1.
          2    1    1    2  502    0 -0.18205704752E+02 -0.32724091341E+02 -0.16622486534E+03  0.17039078524E+03  0.00000000000E+00 0.  1.
</event>
<event>
 4    1  0.6688462E+003  0.3231124E+02  0.7546771E-02  0.1400520E+00
          2   -1    0    0  501    0  0.00000000000E+00  0.00000000000E+00  0.81871224869E+02  0.81871224869E+02  0.00000000000E+00 0.  1.
          2   -1    0    0  502    0 -0.00000000000E+00 -0.00000000000E+00 -0.12857055879E+04  0.12857055879E+04  0.00000000000E+00 0.  1.
          2    1    1    2  501    0  0.16236278620E+02  0.27935636142E+02 -0.12823061495E+04  0.12827131704E+04  0.00000000000E+00 0.  1.
          2    1    1    2  502    0 -0.16236278620E+02 -0.27935636142E+02  0.78471786506E+02  0.84863642318E+02  0.00000000000E+00 0.  1.
</event>
<event>
 4    1  0.6688462E+003  0.3420602E+02  0.7546771E-02  0.1386233E+00
          2   -1    0    0  502    0  0.00000000000E+00  0.00000000000E+00  0.29847061988E+03  0.29847061988E+03  0.00000000000E+00 0. -1.
          2   -1    0    0  501    0 -0.00000000000E+00 -0.00000000000E+00 -0.95416401020E+03  0.95416401020E+03  0.00000000000E+00 0. -1.
          2    1    1    2  501    0  0.21376930426E+02 -0.26703527885E+02  0.29718269194E+03  0.29914478760E+03  0.00000000000E+00 0. -1.
          2    1    1    2  502    0 -0.21376930426E+02  0.26703527885E+02 -0.95287608227E+03  0.95348984248E+03  0.00000000000E+00 0. -1.
</event>
<event>
 4    1  0.6688462E+003  0.2849546E+02  0.7546771E-02  0.1433138E+00
          2   -1    0    0  501    0  0.00000000000E+00  0.00000000000E+00  0.36982451705E+03  0.36982451705E+03  0.00000000000E+00 0. -1.
          2   -1    0    0  502    0 -0.00000000000E+00 -0.00000000000E+00 -0.80037167413E+01  0.80037167413E+01  0.00000000000E+00 0. -1.
          2    1    1    2  501    0  0.13157373294E+02 -0.25275976219E+02  0.19980868621E+02  0.34802680309E+02  0.00000000000E+00 0. -1.
          2    1    1    2  502    0 -0.13157373294E+02  0.25275976219E+02  0.34183993169E+03  0.34302555348E+03  0.00000000000E+00 0. -1.
</event>
<event>
 4    1  0.6688462E+003  0.2738139E+02  0.7546771E-02  0.1443814E+00
          2   -1    0    0  502    0  0.00000000000E+00  0.00000000000E+00  0.10340498424E+04  0.10340498424E+04  0.00000000000E+00 0.  1.
          2   -1    0    0  501    0 -0.00000000000E+00 -0.00000000000E+00 -0.40065476452E+01  0.40065476452E+01  0.00000000000E+00 0.  1.
          2    1    1    2  501    0 -0.19900074148E+02 -0.18807646820E+02  0.98474447967E+03  0.98512508382E+03  0.00000000000E+00 0.  1.
          2    1    1    2  502    0  0.19900074148E+02  0.18807646820E+02  0.45298815042E+02  0.52931306183E+02  0.00000000000E+00 0.  1.
</event>
<event>
 4    1  0.6688462E+003  0.5573299E+02  0.7546771E-02  0.1275063E+00
          2   -1    0    0  502    0  0.00000000000E+00  0.00000000000E+00  0.35114784605E+01  0.35114784605E+01  0.00000000000E+00 0.  1.
          2   -1    0    0  501    0 -0.00000000000E+00 -0.00000000000E+00 -0.25763140801E+04  0.25763140801E+04  0.00000000000E+00 0. -1.
          2    1    1    2  501    0  0.55234704322E+02  0.74359391032E+01 -0.24113332735E+03  0.24749029741E+03  0.00000000000E+00 0.  1.
          2    1    1    2  502    0 -0.55234704322E+02 -0.74359391032E+01 -0.23316692743E+04  0.23323352611E+04  0.00000000000E+00 0. -1.
</event>
<event>
 4    1  0.6688462E+003  0.2430543E+02  0.7546771E-02  0.1476726E+00
          2   -1    0    0  502    0  0.00000000000E+00  0.00000000000E+00  0.39757213661E+01  0.39757213661E+01  0.00000000000E+00 0. -1.
          2   -1    0    0  501    0 -0.00000000000E+00 -0.00000000000E+00 -0.47253430168E+03  0.47253430168E+03  0.00000000000E+00 0. -1.
          2    1    1    2  501    0  0.19975922509E+02  0.13846175259E+02 -0.37009639580E+02  0.44277166477E+02  0.00000000000E+00 0. -1.
          2    1    1    2  502    0 -0.19975922509E+02 -0.13846175259E+02 -0.43154894074E+03  0.43223285657E+03  0.00000000000E+00 0. -1.
</event>
<event>
 4    1  0.6688462E+003  0.2040205E+02  0.7546771E-02  0.1527976E+00
          2   -1    0    0  501    0  0.00000000000E+00  0.00000000000E+00  0.21522892912E+02  0.21522892912E+02  0.00000000000E+00 0.  1.
          2   -1    0    0  502    0 -0.00000000000E+00 -0.00000000000E+00 -0.19463255275E+02  0.19463255275E+02  0.00000000000E+00 0.  1.
          2    1    1    2  501    0 -0.20040768513E+02  0.38224470243E+01 -0.60382574981E+00  0.20410980118E+02  0.00000000000E+00 0.  1.
          2    1    1    2  502    0  0.20040768513E+02 -0.38224470243E+01  0.26634633868E+01  0.20575168068E+02  0.00000000000E+00 0.  1.
</event>
<event>
 4    1  0.6688462E+003  0.2033963E+02  0.7546771E-02  0.1528906E+00
          2   -1    0    0  502    0  0.00000000000E+00  0.00000000000E+00  0.21081225083E+03  0.21081225083E+03  0.00000000000E+00 0. -1.
          2   -1    0    0  501    0 -0.00000000000E+00 -0.00000000000E+00 -0.35383015689E+02  0.35383015689E+02  0.00000000000E+00 0.  1.
          2    1    1    2  501    0 -0.13577904002E+02 -0.15144011541E+02  0.20734993976E+03  0.20834514173E+03  0.00000000000E+00 0. -1.
          2    1    1    2  502    0  0.13577904002E+02  0.15144011541E+02 -0.31920704625E+02  0.37850124787E+02  0.00000000000E+00 0.  1.
</event>
<event>
 4    1  0.6688462E+003  0.4124058E+02  0.7546771E-02  0.1341365E+00
          2   -1    0    0  502    0  0.00000000000E+00  0.00000000000E+00  0.17057608024E+02  0.17057608024E+02  0.00000000000E+00 0. -1.
          2   -1    0    0  501    0 -0.00000000000E+00 -0.00000000000E+00 -0.11413186231E+03  0.11413186231E+03  0.00000000000E+00 0. -1.
          2    1    1    2  501    0 -0.17378881308E+02  0.37400002165E+02 -0.25218590789E+02  0.48340076529E+02  0.00000000000E+00 0. -1.
          2    1    1    2  502    0  0.17378881308E+02 -0.37400002165E+02 -0.71855663500E+02  0.82849393809E+02  0.00000000000E+00 0. -1.
</event>
<event>
 4    1  0.6688462E+003  0.3309982E+02  0.7546771E-02  0.1394438E+00
          2   -1    0    0  501    0  0.00000000000E+00  0.00000000000E+00  0.24183173993E+04  0.24183173993E+04  0.00000000000E+00 0. -1.
          2   -1    0    0  502    0 -0.00000000000E+00 -0.00000000000E+00 -0.25074381236E+01  0.25074381236E+01  0.00000000000E+00 0. -1.
          2    1    1    2  501    0 -0.33097538383E+02 -0.38864026927E+00  0.11228383098E+03  0.11706091059E+03  0.00000000000E+00 0. -1.
          2    1    1    2  502    0  0.33097538383E+02  0.38864026927E+00  0.23035261302E+04  0.23037639268E+04  0.00000000000E+00 0. -1.
</event>
<event>
 4    1  0.6688462E+003  0.2500013E+02  0.7546771E-02  0.1468802E+00
          2   -1    0    0  501    0  0.00000000000E+00  0.00000000000E+00  0.28946492933E+03  0.28946492933E+03  0.00000000000E+00 0.  1.
          2   -1    0    0  502    0 -0.00000000000E+00 -0.00000000000E+00 -0.74097194243E+02  0.74097194243E+02  0.00000000000E+00 0. -1.
          2    1    1    2  501    0  0.86448058389E+01 -0.23457914847E+02 -0.71429080305E+02  0.75677737480E+02  0.00000000000E+00 0. -1.
          2    1    1    2  502    0 -0.86448058389E+01  0.23457914847E+02  0.28679681539E+03  0.28788438609E+03  0.00000000000E+00 0.  1.
</event>
<event>
 4    1  0.6688462E+003  0.2075050E+02  0.7546771E-02  0.1522857E+00
          2   -1    0    0  502    0  0.00000000000E+00  0.00000000000E+00  0.16470187463E+04  0.16470187463E+04  0.00000000000E+00 0. -1.
          2   -1    0    0  501    0 -0.00000000000E+00 -0.00000000000E+00 -0.75063746756E+00  0.75063746756E+00  0.00000000000E+00 0.  1.
          2    1    1    2  501    0  0.72570811695E+01  0.19440113243E+02  0.14882494685E+04  0.14883941224E+04  0.00000000000E+00 0. -1.
          2    1    1    2  502    0 -0.72570811695E+01 -0.19440113243E+02  0.15801864032E+03  0.15937526132E+03  0.00000000000E+00 0.  1.
</event>
<event>
 4    1  0.6688462E+003  0.2316073E+02  0.7546771E-02  0.1490490E+00
          2   -1    0    0  501    0  0.00000000000E+00  0.00000000000E+00  0.36503589036E+03  0.36503589036E+03  0.00000000000E+00 0. -1.
          2   -1    0    0  502    0 -0.00000000000E+00 -0.00000000000E+00 -0.83125174105E+01  0.83125174105E+01  0.00000000000E+00 0. -1.
          2    1    1    2  501    0 -0.73472638333E+01 -0.21964447277E+02  0.89895623034E+01  0.24844143383E+02  0.00000000000E+00 0. -1.
          2    1    1    2  502    0  0.73472638333E+01  0.21964447277E+02  0.34773381064E+03  0.34850426438E+03  0.00000000000E+00 0. -1.
</event>
<event>
 4    1  0.6688462E+003  0.2219425E+02  0.7546771E-02  0.1502872E+00
          2   -1    0    0  502    0  0.00000000000E+00  0.00000000000E+00  0.10748148307E+04  0.10748148307E+04  0.00000000000E+00 0.  1.
          2   -1    0    0  501    0 -0.00000000000E+00 -0.00000000000E+00 -0.28694701416E+03  0.28694701416E+03  0.00000000000E+00 0. -1.
          2    1    1    2  501    0 -0.19056270088E+02  0.11377324472E+02  0.10742708789E+04  0.10745001192E+04  0.00000000000E+00 0.  1.
          2    1    1    2  502    0  0.19056270088E+02 -0.11377324472E+02 -0.28640306232E+03  0.28726172569E+03  0.00000000000E+00 0. -1.
</event>
<event>
 4    1  0.6688462E+003  0.2877698E+02  0.7546771E-02  0.1430531E+00
          2   -1    0    0  501    0  0.00000000000E+00  0.00000000000E+00  0.13126734634E+03  0.13126734634E+03  0.00000000000E+00 0.  1.
          2   -1    0    0  502    0 -0.00000000000E+00 -0.00000000000E+00 -0.59351563731E+02  0.59351563731E+02  0.00000000000E+00 0. -1.
          2    1    1    2  501    0 -0.31959257689E+01 -0.28598957230E+02 -0.54143969376E+02  0.61316259801E+02  0.00000000000E+00 0. -1.
          2    1    1    2  502    0  0.31959257689E+01  0.28598957230E+02  0.12605975198E+03  0.12930265026E+03  0.00000000000E+00 0.  1.
</event>
<event>
 4    1  0.6688462E+003  0.2855887E+02  0.7546771E-02  0.1432548E+00
          2   -1    0    0  502    0  0.00000000000E+00  0.00000000000E+00  0.23732891767E+04  0.23732891767E+04  0.00000000000E+00 0.  1.
          2   -1    0    0  501    0 -0.00000000000E+00 -0.00000000000E+00 -0.65580673101E+00  0.65580673101E+00  0.00000000000E+00 0.  1.
          2    1    1    2  501    0  0.57227239751E+01  0.27979626907E+02  0.20052165247E+04  0.20054198862E+04  0.00000000000E+00 0.  1.
          2    1    1    2  502    0 -0.57227239751E+01 -0.27979626907E+02  0.36741684526E+03  0.36852509721E+03  0.00000000000E+00 0.  1.
</event>
<event>
 4    1  0.6688462E+003  0.2342438E+02  0.7546771E-02  0.1487237E+00
          2   -1    0    0  501    0  0.00000000000E+00  0.00000000000E+00  0.10406647000E+03  0.10406647000E+03  0.00000000000E+00 0.  1.
          2   -1    0    0  502    0 -0.00000000000E+00 -0.00000000000E+00 -0.81331605227E+02  0.81331605227E+02  0.00000000000E+00 0. -1.
          2    1    1    2  501    0 -0.11245621235E+02 -0.20548420946E+02 -0.78276490607E+02  0.81706245674E+02  0.00000000000E+00 0. -1.
          2    1    1    2  502    0  0.11245621235E+02  0.20548420946E+02  0.10101135538E+03  0.10369182955E+03  0.00000000000E+00 0.  1.
</event>
<event>
 4    1  0.6688462E+003  0.2859172E+02  0.7546771E-02  0.1432242E+00
          2   -1    0    0  502    0  0.00000000000E+00  0.00000000000E+00  0.21321293907E+03  0.21321293907E+03  0.00000000000E+00 0. -1.
          2   -1    0    0  501    0 -0.00000000000E+00 -0.00000000000E+00 -0.62709933604E+01  0.62709933604E+01  0.00000000000E+00 0. -1.
          2    1    1    2  501    0 -0.21736302464E-01 -0.28591706873E+02  0.17188105871E+03  0.17424288943E+03  0.00000000000E+00 0. -1.
          2    1    1    2  502    0  0.21736302464E-01  0.28591706873E+02  0.35060887001E+02  0.45241042999E+02  0.00000000000E+00 0. -1.
</event>
<event>
 4    1  0.6688462E+003  0.2205564E+02  0.7546771E-02  0.1504710E+00
          2   -1    0    0  502    0  0.00000000000E+00  0.00000000000E+00  0.73368865278E+02  0.73368865278E+02  0.00000000000E+00 0.  1.
          2   -1    0    0  501    0 -0.00000000000E+00 -0.00000000000E+00 -0.23579465740E+02  0.23579465740E+02  0.00000000000E+00 0. -1.
          2    1    1    2  501    0  0.92072019830E+01 -0.20041920005E+02  0.65992507174E+02  0.69580616044E+02  0.00000000000E+00 0.  1.
          2    1    1    2  502    0 -0.92072019830E+01  0.20041920005E+02 -0.16203107636E+02  0.27367714975E+02  0.00000000000E+00 0. -1.
</event>
<event>
 4    1  0.6688462E+003  0.2041611E+02  0.7546771E-02  0.1527767E+00
          2   -1    0    0  502    0  0.00000000000E+00  0.00000000000E+00  0.38358177725E+03  0.38358177725E+03  0.00000000000E+00 0. -1.
          2   -1    0    0  501    0 -0.00000000000E+00 -0.00000000000E+00 -0.34877563301E+01  0.34877563301E+01  0.00000000000E+00 0.  1.
          2    1    1    2  501    0  0.14942473552E+02  0.13911873356E+02  0.35062719497E+03  0.35122108078E+03  0.00000000000E+00 0. -1.
          2    1    1    2  502    0 -0.14942473552E+02 -0.13911873356E+02  0.29466825949E+02  0.35848452793E+02  0.00000000000E+00 0.  1.
</event>
<event>
 4    1  0.6688462E+003  0.8897244E+02  0.7546771E-02  0.1184424E+00
          2   -1    0    0  502    0  0.00000000000E+00  0.00000000000E+00  0.12952867127E+03  0.12952867127E+03  0.00000000000E+00 0. -1.
          2   -1    0    0  501    0 -0.00000000000E+00 -0.00000000000E+00 -0.34670364324E+04  0.34670364324E+04  0.00000000000E+00 0.  1.
          2    1    1    2  501    0  0.76003920225E+02 -0.46254717228E+02  0.11360873799E+03  0.14430190610E+03  0.00000000000E+00 0. -1.
          2    1    1    2  502    0 -0.76003920225E+02  0.46254717228E+02 -0.34511164991E+04  0.34522631976E+04  0.00000000000E+00 0.  1.
</event>
<event>
 4    1  0.6688462E+003  0.2704612E+02  0.7546771E-02  0.1447145E+00
          2   -1    0    0  501    0  0.00000000000E+00  0.00000000000E+00  0.14057327518E+01  0.14057327518E+01  0.00000000000E+00 0.  1.
          2   -1    0    0  502    0 -0.00000000000E+00 -0.00000000000E+00 -0.13353234989E+04  0.13353234989E+04  0.00000000000E+00 0.  1.
          2    1    1    2  501    0  0.24323802223E+02  0.11825626171E+02 -0.11891003721E+04  0.11894079147E+04  0.00000000000E+00 0.  1.
          2    1    1    2  502    0 -0.24323802223E+02 -0.11825626171E+02 -0.14481739405E+03  0.14732131688E+03  0.00000000000E+00 0.  1.
</event>
<event>
 4    1  0.6688462E+003  0.4124887E+02  0.7546771E-02  0.1341319E+00
          2   -1    0    0  502    0  0.00000000000E+00  0.00000000000E+00  0.37559197729E+01  0.37559197729E+01  0.00000000000E+00 0.  1.
          2   -1    0    0  501    0 -0.00000000000E+00 -0.00000000000E+00 -0.25552772772E+04  0.25552772772E+04  0.00000000000E+00 0.  1.
          2    1    1    2  501    0 -0.41230021510E+02 -0.12467719791E+01 -0.11519192006E+03  0.12235459763E+03  0.00000000000E+00 0.  1.
          2    1    1    2  502    0  0.41230021510E+02  0.12467719791E+01 -0.24363294374E+04  0.24366785994E+04  0.00000000000E+00 0.  1.
</event>
<event>
 4    1  0.6688462E+003  0.2565472E+02  0.7546771E-02  0.1461611E+00
          2   -1    0    0  501    0  0.00000000000E+00  0.00000000000E+00  0.19810832736E+02  0.19810832736E+02  0.00000000000E+00 0. -1.
          2   -1    0    0  502    0 -0.00000000000E+00 -0.00000000000E+00 -0.23799368413E+03  0.23799368413E+03  0.00000000000E+00 0. -1.
          2    1    1    2  501    0 -0.22187629241E+02 -0.12879194238E+02 -0.22865868571E+03  0.23009337037E+03  0.00000000000E+00 0. -1.
          2    1    1    2  502    0  0.22187629241E+02  0.12879194238E+02  0.10475834318E+02  0.27711146498E+02  0.00000000000E+00 0. -1.
</event>
<event>
 4    1  0.6688462E+003  0.2064503E+02  0.7546771E-02  0.1524394E+00
          2   -1    0    0  502    0  0.00000000000E+00  0.00000000000E+00  0.16244206326E+03  0.16244206326E+03  0.00000000000E+00 0.  1.
          2   -1    0    0  501    0 -0.00000000000E+00 -0.00000000000E+00 -0.42146910548E+02  0.42146910548E+02  0.00000000000E+00 0. -1.
          2    1    1    2  501    0  0.76051307446E+01 -0.19193206109E+02  0.15920678564E+03  0.16053977005E+03  0.00000000000E+00 0.  1.
          2    1    1    2  502    0 -0.76051307446E+01  0.19193206109E+02 -0.38911632928E+02  0.44049203756E+02  0.00000000000E+00 0. -1.
</event>
<event>
 4    1  0.6688462E+003  0.2218864E+02  0.7546771E-02  0.1502946E+00
          2   -1    0    0  502    0  0.00000000000E+00  0.00000000000E+00  0.18619948268E+02  0.18619948268E+02  0.00000000000E+00 0. -1.
          2   -1    0    0  501    0 -0.00000000000E+00 -0.00000000000E+00 -0.19331932223E+03  0.19331932223E+03  0.00000000000E+00 0. -1.
          2    1    1    2  501    0  0.78573298174E+00 -0.22174728001E+02  0.11106578492E+02  0.24813142163E+02  0.00000000000E+00 0. -1.
          2    1    1    2  502    0 -0.78573298174E+00  0.22174728001E+02 -0.18580595245E+03  0.18712612834E+03  0.00000000000E+00 0. -1.
</event>
<event>
 4    1  0.6760228E+003  0.2264819E+02  0.7546771E-02  0.1496964E+00
          2   -1    0    0  502    0  0.00000000000E+00  0.00000000000E+00  0.32964481129E+03  0.32964481129E+03  0.00000000000E+00 0.  1.
          2   -1    0    0  501    0 -0.00000000000E+00 -0.00000000000E+00 -0.60496094530E+03  0.60496094530E+03  0.00000000000E+00 0.  1.
          2    1    1    2  501    0  0.22648070000E+02  0.73521195845E-01  0.32904344181E+03  0.32982196270E+03  0.00000000000E+00 0.  1.
          2    1    1    2  502    0 -0.22648070000E+02 -0.73521195845E-01 -0.60435957582E+03  0.60478379390E+03  0.00000000000E+00 0.  1.
</event>
<event>
 4    1  0.6688462E+003  0.7150211E+02  0.7546771E-02  0.1225081E+00
          2   -1    0    0  502    0  0.00000000000E+00  0.00000000000E+00  0.40098191999E+03  0.40098191999E+03  0.00000000000E+00 0. -1.
          2   -1    0    0  501    0 -0.00000000000E+00 -0.00000000000E+00 -0.14381280713E+03  0.14381280713E+03  0.00000000000E+00 0.  1.
          2    1    1    2  501    0  0.45139440661E+01 -0.71359480567E+02  0.38862668961E+03  0.39514966157E+03  0.00000000000E+00 0. -1.
          2    1    1    2  502    0 -0.45139440661E+01  0.71359480567E+02 -0.13145757676E+03  0.14964506556E+03  0.00000000000E+00 0.  1.
</event>
<event>
 4    1  0.6688462E+003  0.3294086E+02  0.7546771E-02  0.1395648E+00
          2   -1    0    0  501    0  0.00000000000E+00  0.00000000000E+00  0.53923256462E+01  0.53923256462E+01  0.00000000000E+00 0. -1.
          2   -1    0    0  502    0 -0.00000000000E+00 -0.00000000000E+00 -0.19732674452E+04  0.19732674452E+04  0.00000000000E+00 0. -1.
          2    1    1    2  501    0  0.59910538551E+01  0.32391474310E+02 -0.19214661923E+04  0.19217485341E+04  0.00000000000E+00 0. -1.
          2    1    1    2  502    0 -0.59910538551E+01 -0.32391474310E+02 -0.46408927262E+02  0.56911236710E+02  0.00000000000E+00 0. -1.
</event>
<event>
 4    1  0.6688462E+003  0.2077344E+02  0.7546771E-02  0.1522524E+00
          2   -1    0    0  502    0  0.00000000000E+00  0.00000000000E+00  0.30239978855E+03  0.30239978855E+03  0.00000000000E+00 0. -1.
          2   -1    0    0  501    0 -0.00000000000E+00 -0.00000000000E+00 -0.45263805233E+02  0.45263805233E+02  0.00000000000E+00 0. -1.
          2    1    1    2  501    0  0.18997426309E+02 -0.84043771646E+01  0.29963763589E+03  0.30035686874E+03  0.00000000000E+00 0. -1.
          2    1    1    2  502    0 -0.18997426309E+02  0.84043771646E+01 -0.42501652575E+02  0.47306725034E+02  0.00000000000E+00 0. -1.
</event>
<event>
 4    1  0.6688462E+003  0.2395631E+02  0.7546771E-02  0.1480827E+00
          2   -1    0    0  502    0  0.00000000000E+00  0.00000000000E+00  0.66684442126E+02  0.66684442126E+02  0.00000000000E+00 0.  1.
          2   -1    0    0  501    0 -0.00000000000E+00 -0.00000000000E+00 -0.21250838667E+02  0.21250838667E+02  0.00000000000E+00 0. -1.
          2    1    1    2  501    0  0.15967547590E+02 -0.17858958977E+02  0.56632202777E+02  0.61490742256E+02  0.00000000000E+00 0.  1.
          2    1    1    2  502    0 -0.15967547590E+02  0.17858958977E+02 -0.11198599318E+02  0.26444538537E+02  0.00000000000E+00 0. -1.
</event>
<event>
 4    1  0.6688462E+003  0.4841196E+02  0.7546771E-02  0.1305208E+00
          2   -1    0    0  502    0  0.00000000000E+00  0.00000000000E+00  0.25244027180E+04  0.25244027180E+04  0.00000000000E+00 0.  1.
          2   -1    0    0  501    0 -0.00000000000E+00 -0.00000000000E+00 -0.11547220406E+01  0.11547220406E+01  0.00000000000E+00 0.  1.
          2    1    1    2  501    0  0.38603095832E+02  0.29215051018E+02  0.18206449798E+04  0.18212885166E+04  0.00000000000E+00 0.  1.
          2    1    1    2  502    0 -0.38603095832E+02 -0.29215051018E+02  0.70260301624E+03  0.70426892353E+03  0.00000000000E+00 0.  1.
</event>
<event>
 4    1  0.6688462E+003  0.3227707E+02  0.7546771E-02  0.1400788E+00
          2   -1    0    0  501    0  0.00000000000E+00  0.00000000000E+00  0.59915135177E+00  0.59915135177E+00  0.00000000000E+00 0.  1.
          2   -1    0    0  502    0 -0.00000000000E+00 -0.00000000000E+00 -0.21540311537E+04  0.21540311537E+04  0.00000000000E+00 0.  1.
          2    1    1    2  501    0 -0.15972533995E+02 -0.28047945969E+02 -0.15497121468E+04  0.15500482402E+04  0.00000000000E+00 0.  1.
          2    1    1    2  502    0  0.15972533995E+02  0.28047945969E+02 -0.60371985557E+03  0.60458206484E+03  0.00000000000E+00 0.  1.
</event>
<event>
 4    1  0.6688462E+003  0.2274215E+02  0.7546771E-02  0.1495762E+00
          2   -1    0    0  502    0  0.00000000000E+00  0.00000000000E+00  0.16500946506E+01  0.16500946506E+01  0.00000000000E+00 0. -1.
          2   -1    0    0  501    0 -0.00000000000E+00 -0.00000000000E+00 -0.33639487476E+03  0.33639487476E+03  0.00000000000E+00 0. -1.
          2    1    1    2  501    0 -0.18961695401E+02 -0.12556259379E+02 -0.12321961768E+03  0.12530075707E+03  0.00000000000E+00 0. -1.
          2    1    1    2  502    0  0.18961695401E+02  0.12556259379E+02 -0.21152516243E+03  0.21274421234E+03  0.00000000000E+00 0. -1.
</event>
<event>
 4    1  0.6688462E+003  0.2390250E+02  0.7546771E-02  0.1481466E+00
          2   -1    0    0  502    0  0.00000000000E+00  0.00000000000E+00  0.10270732877E+01  0.10270732877E+01  0.00000000000E+00 0.  1.
          2   -1    0    0  501    0 -0.00000000000E+00 -0.00000000000E+00 -0.88560126686E+03  0.88560126686E+03  0.00000000000E+00 0. -1.
          2    1    1    2  501    0 -0.23901983361E+02  0.15788818076E+00 -0.17194779558E+03  0.17360119281E+03  0.00000000000E+00 0.  1.
          2    1    1    2  502    0  0.23901983361E+02 -0.15788818076E+00 -0.71262639799E+03  0.71302714734E+03  0.00000000000E+00 0. -1.
</event>
<event>
 4    1  0.6688462E+003  0.8068298E+02  0.7546771E-02  0.1202271E+00
          2   -1    0    0  502    0  0.00000000000E+00  0.00000000000E+00  0.50391781143E+03  0.50391781143E+03  0.00000000000E+00 0.  1.
          2   -1    0    0  501    0 -0.00000000000E+00 -0.00000000000E+00 -0.14384842775E+02  0.14384842775E+02  0.00000000000E+00 0.  1.
          2    1    1    2  501    0 -0.79146055480E+02  0.15673066313E+02  0.32751374756E+03  0.33730549646E+03  0.00000000000E+00 0.  1.
          2    1    1    2  502    0  0.79146055480E+02 -0.15673066313E+02  0.16201922110E+03  0.18099715775E+03  0.00000000000E+00 0.  1.
</event>
<event>
 4    1  0.6688462E+003  0.3572959E+02  0.7546771E-02  0.1375505E+00
          2   -1    0    0  502    0  0.00000000000E+00  0.00000000000E+00  0.52611981668E+03  0.52611981668E+03  0.00000000000E+00 0.  1.
          2   -1    0    0  501    0 -0.00000000000E+00 -0.00000000000E+00 -0.94451771926E+01  0.94451771926E+01  0.00000000000E+00 0.  1.
          2    1    1    2  501    0 -0.35115123614E+02 -0.65978773804E+01  0.48917477918E+03  0.49047789805E+03  0.00000000000E+00 0.  1.
          2    1    1    2  502    0  0.35115123614E+02  0.65978773804E+01  0.27499860303E+02  0.45087095815E+02  0.00000000000E+00 0.  1.
</event>
<event>
 4    1  0.6688462E+003  0.2940918E+02  0.7546771E-02  0.1424801E+00
          2   -1    0    0  502    0  0.00000000000E+00  0.00000000000E+00  0.33221964489E+03  0.33221964489E+03  0.00000000000E+00 0. -1.
          2   -1    0    0  501    0 -0.00000000000E+00 -0.00000000000E+00 -0.12692155369E+02  0.12692155369E+02  0.00000000000E+00 0.  1.
          2    1    1    2  501    0 -0.18775326334E+02 -0.22635963759E+02  0.31351873521E+03  0.31489505722E+03  0.00000000000E+00 0. -1.
          2    1    1    2  502    0  0.18775326334E+02  0.22635963759E+02  0.60087543121E+01  0.30016743039E+02  0.00000000000E+00 0.  1.
</event>
<event>
 4    1  0.6688462E+003  0.2608746E+02  0.7546771E-02  0.1456996E+00
          2   -1    0    0  501    0  0.00000000000E+00  0.00000000000E+00  0.34902360151E+01  0.34902360151E+01  0.00000000000E+00 0.  1.
          2   -1    0    0  502    0 -0.00000000000E+00 -0.00000000000E+00 -0.26487428980E+03  0.26487428980E+03  0.00000000000E+00 0. -1.
          2    1    1    2  501    0  0.17271693907E+02  0.19551065028E+02 -0.19961594260E+03  0.20131338777E+03  0.00000000000E+00 0. -1.
          2    1    1    2  502    0 -0.17271693907E+02 -0.19551065028E+02 -0.61768111181E+02  0.67051138044E+02  0.00000000000E+00 0.  1.
</event>
<event>
 4    1  0.6688462E+003  0.2974464E+02  0.7546771E-02  0.1421829E+00
          2   -1    0    0  501    0  0.00000000000E+00  0.00000000000E+00  0.19259128043E+02  0.19259128043E+02  0.00000000000E+00 0. -1.
          2   -1    0    0  502    0 -0.00000000000E+00 -0.00000000000E+00 -0.49546296586E+02  0.49546296586E+02  0.00000000000E+00 0. -1.
          2    1    1    2  501    0 -0.29039865918E+02 -0.64365907560E+01 -0.24426468144E+02  0.38488905663E+02  0.00000000000E+00 0. -1.
          2    1    1    2  502    0  0.29039865918E+02  0.64365907560E+01 -0.58607003987E+01  0.30316518967E+02  0.00000000000E+00 0. -1.
</event>
<event>
 4    1  0.6688462E+003  0.2395388E+02  0.7546771E-02  0.1480855E+00
          2   -1    0    0  502    0  0.00000000000E+00  0.00000000000E+00  0.33480175231E+00  0.33480175231E+00  0.00000000000E+00 0. -1.
          2   -1    0    0  501    0 -0.00000000000E+00 -0.00000000000E+00 -0.17448722508E+04  0.17448722508E+04  0.00000000000E+00 0. -1.
          2    1    1    2  501    0 -0.95156536042E+00  0.23934970017E+02 -0.75585166507E+03  0.75623113388E+03  0.00000000000E+00 0. -1.
          2    1    1    2  502    0  0.95156536042E+00 -0.23934970017E+02 -0.98868578395E+03  0.98897591864E+03  0.00000000000E+00 0. -1.
</event>
<event>
 4    1  0.6688462E+003  0.2228163E+02  0.7546771E-02  0.1501721E+00
          2   -1    0    0  502    0  0.00000000000E+00  0.00000000000E+00  0.44558534722E+03  0.44558534722E+03  0.00000000000E+00 0.  1.
          2   -1    0    0  501    0 -0.00000000000E+00 -0.00000000000E+00 -0.62505134940E+01  0.62505134940E+01  0.00000000000E+00 0.  1.
          2    1    1    2  501    0 -0.21492187068E+02  0.58785183997E+01  0.42446207494E+03  0.42504649645E+03  0.00000000000E+00 0.  1.
          2    1    1    2  502    0  0.21492187068E+02 -0.58785183997E+01  0.14872758780E+02  0.26789364256E+02  0.00000000000E+00 0.  1.
</event>
<event>
 4    1  0.6688462E+003  0.5119493E+02  0.7546771E-02  0.1293073E+00
          2   -1    0    0  501    0  0.00000000000E+00  0.00000000000E+00  0.61303293682E+03  0.61303293682E+03  0.00000000000E+00 0.  1.
          2   -1    0    0  502    0 -0.00000000000E+00 -0.00000000000E+00 -0.23492144038E+03  0.23492144038E+03  0.00000000000E+00 0.  1.
          2    1    1    2  501    0 -0.31683321359E+02  0.40213030526E+02 -0.23104574654E+03  0.23664965175E+03  0.00000000000E+00 0.  1.
          2    1    1    2  502    0  0.31683321359E+02 -0.40213030526E+02  0.60915724299E+03  0.61130472545E+03  0.00000000000E+00 0.  1.
</event>
<event>
 4    1  0.6688462E+003  0.2168696E+02  0.7546771E-02  0.1509679E+00
          2   -1    0    0  501    0  0.00000000000E+00  0.00000000000E+00  0.64487856169E+01  0.64487856169E+01  0.00000000000E+00 0. -1.
          2   -1    0    0  502    0 -0.00000000000E+00 -0.00000000000E+00 -0.17278127886E+03  0.17278127886E+03  0.00000000000E+00 0.  1.
          2    1    1    2  501    0  0.18375789455E+02  0.11517583931E+02 -0.15129092556E+03  0.15283739246E+03  0.00000000000E+00 0.  1.
          2    1    1    2  502    0 -0.18375789455E+02 -0.11517583931E+02 -0.15041567682E+02  0.26392672014E+02  0.00000000000E+00 0. -1.
</event>
<event>
 4    1  0.6688462E+003  0.2133710E+02  0.7546771E-02  0.1514506E+00
          2   -1    0    0  501    0  0.00000000000E+00  0.00000000000E+00  0.79366468890E+03  0.79366468890E+03  0.00000000000E+00 0. -1.
          2   -1    0    0  502    0 -0.00000000000E+00 -0.00000000000E+00 -0.25376262986E+02  0.25376262986E+02  0.00000000000E+00 0. -1.
          2    1    1    2  501    0  0.21336555304E+02 -0.15210537857E+00 -0.20721184927E+02  0.29742885419E+02  0.00000000000E+00 0. -1.
          2    1    1    2  502    0 -0.21336555304E+02  0.15210537857E+00  0.78900961084E+03  0.78929806647E+03  0.00000000000E+00 0. -1.
</event>
<event>
 4    1  0.6688462E+003  0.2585242E+02  0.7546771E-02  0.1459489E+00
          2   -1    0    0  501    0  0.00000000000E+00  0.00000000000E+00  0.51974018169E+02  0.51974018169E+02  0.00000000000E+00 0.  1.
          2   -1    0    0  502    0 -0.00000000000E+00 -0.00000000000E+00 -0.13019736936E+04  0.13019736936E+04  0.00000000000E+00 0.  1.
          2    1    1    2  501    0  0.34582420299E-01  0.25852395909E+02 -0.12986222485E+04  0.12988795525E+04  0.00000000000E+00 0.  1.
          2    1    1    2  502    0 -0.34582420299E-01 -0.25852395909E+02  0.48622572994E+02  0.55068159356E+02  0.00000000000E+00 0.  1.
</event>
<event>
 4    1  0.6688462E+003  0.2046749E+02  0.7546771E-02  0.1527005E+00
          2   -1    0    0  502    0  0.00000000000E+00  0.00000000000E+00  0.20891364945E+02  0.20891364945E+02  0.00000000000E+00 0. -1.
          2   -1    0    0  501    0 -0.00000000000E+00 -0.00000000000E+00 -0.15977493799E+03  0.15977493799E+03  0.00000000000E+00 0. -1.
          2    1    1    2  501    0 -0.19506552718E+02 -0.61978001971E+01  0.15032851529E+02  0.25394978860E+02  0.00000000000E+00 0. -1.
          2    1    1    2  502    0  0.19506552718E+02  0.61978001971E+01 -0.15391642458E+03  0.15527132408E+03  0.00000000000E+00 0. -1.
</event>
<event>
 4    1  0.6688462E+003  0.2442945E+02  0.7546771E-02  0.1475288E+00
          2   -1    0    0  501    0  0.00000000000E+00  0.00000000000E+00  0.24505905174E+02  0.24505905174E+02  0.00000000000E+00 0. -1.
          2   -1    0    0  502    0 -0.00000000000E+00 -0.00000000000E+00 -0.14007981164E+04  0.14007981164E+04  0.00000000000E+00 0.  1.
          2    1    1    2  501    0 -0.24390140982E+02 -0.13852125803E+01 -0.13945761389E+04  0.13947900936E+04  0.00000000000E+00 0.  1.
          2    1    1    2  502    0  0.24390140982E+02  0.13852125803E+01  0.18283927706E+02  0.30513928023E+02  0.00000000000E+00 0. -1.
</event>
<event>
 4    1  0.6688462E+003  0.2138502E+02  0.7546771E-02  0.1513838E+00
          2   -1    0    0  501    0  0.00000000000E+00  0.00000000000E+00  0.10687476602E+03  0.10687476602E+03  0.00000000000E+00 0.  1.
          2   -1    0    0  502    0 -0.00000000000E+00 -0.00000000000E+00 -0.50368598964E+01  0.50368598964E+01  0.00000000000E+00 0.  1.
          2    1    1    2  501    0  0.19710083085E+02  0.82964833555E+01  0.72623697527E+02  0.75706805862E+02  0.00000000000E+00 0.  1.
          2    1    1    2  502    0 -0.19710083085E+02 -0.82964833555E+01  0.29214208598E+02  0.36204820056E+02  0.00000000000E+00 0.  1.
</event>
<event>
 4    1  0.6688462E+003  0.2171613E+02  0.7546771E-02  0.1509281E+00
          2   -1    0    0  501    0  0.00000000000E+00  0.00000000000E+00  0.17689946866E+03  0.17689946866E+03  0.00000000000E+00 0.  1.
          2   -1    0    0  502    0 -0.00000000000E+00 -0.00000000000E+00 -0.36771059763E+01  0.36771059763E+01  0.00000000000E+00 0. -1.
          2    1    1    2  501    0  0.25999000982E+00  0.21714573634E+02  0.39262768311E+02  0.44868198965E+02  0.00000000000E+00 0. -1.
          2    1    1    2  502    0 -0.25999000982E+00 -0.21714573634E+02  0.13395959437E+03  0.13570837567E+03  0.00000000000E+00 0.  1.
</event>
<event>
 4    1  0.6688462E+003  0.4319266E+02  0.7546771E-02  0.1330728E+00
          2   -1    0    0  502    0  0.00000000000E+00  0.00000000000E+00  0.36290820636E+03  0.36290820636E+03  0.00000000000E+00 0. -1.
          2   -1    0    0  501    0 -0.00000000000E+00 -0.00000000000E+00 -0.13435186161E+02  0.13435186161E+02  0.00000000000E+00 0. -1.
          2    1    1    2  501    0  0.16210659362E+02 -0.40035240807E+02  0.32258841603E+03  0.32546719058E+03  0.00000000000E+00 0. -1.
          2    1    1    2  502    0 -0.16210659362E+02  0.40035240807E+02  0.26884604171E+02  0.50876201950E+02  0.00000000000E+00 0. -1.
</event>
<event>
 4    1  0.6688462E+003  0.2945788E+02  0.7546771E-02  0.1424367E+00
          2   -1    0    0  501    0  0.00000000000E+00  0.00000000000E+00  0.22664559035E+03  0.22664559035E+03  0.00000000000E+00 0.  1.
          2   -1    0    0  502    0 -0.00000000000E+00 -0.00000000000E+00 -0.63367254948E+01  0.63367254948E+01  0.00000000000E+00 0.  1.
          2    1    1    2  501    0 -0.28350247535E+02 -0.80018949250E+01  0.36868082136E+02  0.47191337532E+02  0.00000000000E+00 0.  1.
          2    1    1    2  502    0  0.28350247535E+02  0.80018949250E+01  0.18344078272E+03  0.18579097831E+03  0.00000000000E+00 0.  1.
</event>
<event>
 4    1  0.6688462E+003  0.3991919E+02  0.7546771E-02  0.1348960E+00
          2   -1    0    0  502    0  0.00000000000E+00  0.00000000000E+00  0.18568472515E+01  0.18568472515E+01  0.00000000000E+00 0. -1.
          2   -1    0    0  501    0 -0.00000000000E+00 -0.00000000000E+00 -0.11852710625E+04  0.11852710625E+04  0.00000000000E+00 0.  1.
          2    1    1    2  501    0  0.25483303303E+02  0.30726914162E+02 -0.27990339571E+03  0.28273565911E+03  0.00000000000E+00 0. -1.
          2    1    1    2  502    0 -0.25483303303E+02 -0.30726914162E+02 -0.90351081954E+03  0.90439225065E+03  0.00000000000E+00 0.  1.
</event>
<event>
 4    1  0.6688462E+003  0.2169472E+02  0.7546771E-02  0.1509573E+00
          2   -1    0    0  501    0  0.00000000000E+00  0.00000000000E+00  0.97003902679E+00  0.97003902679E+00  0.00000000000E+00 0. -1.
          2   -1    0    0  502    0 -0.00000000000E+00 -0.00000000000E+00 -0.48671502826E+03  0.48671502826E+03  0.00000000000E+00 0. -1.
          2    1    1    2  501    0 -0.18309099008E+02 -0.11637777048E+02 -0.25648612717E+03  0.25740200930E+03  0.00000000000E+00 0. -1.
          2    1    1    2  502    0  0.18309099008E+02  0.11637777048E+02 -0.22925886206E+03  0.23028305798E+03  0.00000000000E+00 0. -1.
</event>
<event>
 4    1  0.6688462E+003  0.4525463E+02  0.7546771E-02  0.1320171E+00
          2   -1    0    0  501    0  0.00000000000E+00  0.00000000000E+00  0.83272912713E+03  0.83272912713E+03  0.00000000000E+00 0.  1.
          2   -1    0    0  502    0 -0.00000000000E+00 -0.00000000000E+00 -0.16854717841E+02  0.16854717841E+02  0.00000000000E+00 0.  1.
          2    1    1    2  501    0 -0.37493454155E+02 -0.25342116230E+02  0.15358519144E+02  0.47789811359E+02  0.00000000000E+00 0.  1.
          2    1    1    2  502    0  0.37493454155E+02  0.25342116230E+02  0.80051589015E+03  0.80179403361E+03  0.00000000000E+00 0.  1.
</event>
<event>
 4    1  0.6688462E+003  0.2065151E+02  0.7546771E-02  0.1524299E+00
          2   -1    0    0  502    0  0.00000000000E+00  0.00000000000E+00  0.53845054008E+02  0.53845054008E+02  0.00000000000E+00 0. -1.
          2   -1    0    0  501    0 -0.00000000000E+00 -0.00000000000E+00 -0.75406169645E+03  0.75406169645E+03  0.00000000000E+00 0. -1.
          2    1    1    2  501    0  0.31182883267E+01  0.20414728188E+02  0.51717908881E+02  0.55688660858E+02  0.00000000000E+00 0. -1.
          2    1    1    2  502    0 -0.31182883267E+01 -0.20414728188E+02 -0.75193455133E+03  0.75221808960E+03  0.00000000000E+00 0. -1.
</event>
<event>
 4    1  0.6688462E+003  0.3599176E+02  0.7546771E-02  0.1373722E+00
          2   -1    0    0  501    0  0.00000000000E+00  0.00000000000E+00  0.58325954076E+03  0.58325954076E+03  0.00000000000E+00 0. -1.
          2   -1    0    0  502    0 -0.00000000000E+00 -0.00000000000E+00 -0.42773348220E+02  0.42773348220E+02  0.00000000000E+00 0. -1.
          2    1    1    2  501    0  0.29549707147E+02 -0.20548026653E+02 -0.34538438768E+02  0.49882966475E+02  0.00000000000E+00 0. -1.
          2    1    1    2  502    0 -0.29549707147E+02  0.20548026653E+02  0.57502463131E+03  0.57614992251E+03  0.00000000000E+00 0. -1.
</event>
<event>
 4    1  0.6688462E+003  0.4713514E+02  0.7546771E-02  0.1311095E+00
          2   -1    0    0  502    0  0.00000000000E+00  0.00000000000E+00  0.19818962042E+03  0.19818962042E+03  0.00000000000E+00 0.  1.
          2   -1    0    0  501    0 -0.00000000000E+00 -0.00000000000E+00 -0.40569454634E+03  0.40569454634E+03  0.00000000000E+00 0. -1.
          2    1    1    2  501    0  0.35422055069E+02  0.31096609197E+02  0.19398879365E+03  0.19963309633E+03  0.00000000000E+00 0.  1.
          2    1    1    2  502    0 -0.35422055069E+02 -0.31096609197E+02 -0.40149371957E+03  0.40425107043E+03  0.00000000000E+00 0. -1.
</event>
<event>
 4    1  0.6688462E+003  0.2186642E+02  0.7546771E-02  0.1507245E+00
          2   -1    0    0  501    0  0.00000000000E+00  0.00000000000E+00  0.35668428123E+03  0.35668428123E+03  0.00000000000E+00 0. -1.
          2   -1    0    0  502    0 -0.00000000000E+00 -0.00000000000E+00 -0.33389134106E+02  0.33389134106E+02  0.00000000000E+00 0. -1.
          2    1    1    2  501    0 -0.11228048774E+02  0.18763556726E+02 -0.29433841607E+02  0.36667303855E+02  0.00000000000E+00 0. -1.
          2    1    1    2  502    0  0.11228048774E+02 -0.18763556726E+02  0.35272898873E+03  0.35340611148E+03  0.00000000000E+00 0. -1.
</event>
<event>
 4    1  0.6688462E+003  0.2785695E+02  0.7546771E-02  0.1439185E+00
          2   -1    0    0  502    0  0.00000000000E+00  0.00000000000E+00  0.41369990696E+03  0.41369990696E+03  0.00000000000E+00 0.  1.
          2   -1    0    0  501    0 -0.00000000000E+00 -0.00000000000E+00 -0.16668038595E+02  0.16668038595E+02  0.00000000000E+00 0. -1.
          2    1    1    2  501    0  0.26687672950E+02 -0.79860821572E+01  0.40123049260E+03  0.40219636695E+03  0.00000000000E+00 0.  1.
          2    1    1    2  502    0 -0.26687672950E+02  0.79860821572E+01 -0.41986242327E+01  0.28171578606E+02  0.00000000000E+00 0. -1.
</event>
<event>
 4    1  0.6688462E+003  0.2042896E+02  0.7546771E-02  0.1527576E+00
          2   -1    0    0  502    0  0.00000000000E+00  0.00000000000E+00  0.24816980010E+01  0.24816980010E+01  0.00000000000E+00 0. -1.
          2   -1    0    0  501    0 -0.00000000000E+00 -0.00000000000E+00 -0.19548213374E+03  0.19548213374E+03  0.00000000000E+00 0. -1.
          2    1    1    2  501    0  0.15403366732E+02 -0.13419346504E+02 -0.59500805577E+02  0.62910161592E+02  0.00000000000E+00 0. -1.
          2    1    1    2  502    0 -0.15403366732E+02  0.13419346504E+02 -0.13349963016E+03  0.13505367015E+03  0.00000000000E+00 0. -1.
</event>
<event>
 4    1  0.6688462E+003  0.2063222E+02  0.7546771E-02  0.1524581E+00
          2   -1    0    0  502    0  0.00000000000E+00  0.00000000000E+00  0.81344981909E+01  0.81344981909E+01  0.00000000000E+00 0. -1.
          2   -1    0    0  501    0 -0.00000000000E+00 -0.00000000000E+00 -0.13768541570E+03  0.13768541570E+03  0.00000000000E+00 0. -1.
          2    1    1    2  501    0 -0.13455242360E+02 -0.15641134176E+02 -0.73697371698E+01  0.21908939985E+02  0.00000000000E+00 0. -1.
          2    1    1    2  502    0  0.13455242360E+02  0.15641134176E+02 -0.12218118034E+03  0.12391097390E+03  0.00000000000E+00 0. -1.
</event>
<event>
 4    1  0.6688462E+003  0.5119131E+02  0.7546771E-02  0.1293088E+00
          2   -1    0    0  501    0  0.00000000000E+00  0.00000000000E+00  0.31848588527E+01  0.31848588527E+01  0.00000000000E+00 0.  1.
          2   -1    0    0  502    0 -0.00000000000E+00 -0.00000000000E+00 -0.16550611278E+04  0.16550611278E+04  0.00000000000E+00 0.  1.
          2    1    1    2  501    0 -0.38919334437E+02 -0.33254110579E+02 -0.14138845727E+04  0.14148109893E+04  0.00000000000E+00 0.  1.
          2    1    1    2  502    0  0.38919334437E+02  0.33254110579E+02 -0.23799169619E+03  0.24343499732E+03  0.00000000000E+00 0.  1.
</event>
<event>
 4    1  0.6688462E+003  0.2265721E+02  0.7546771E-02  0.1496848E+00
          2   -1    0    0  501    0  0.00000000000E+00  0.00000000000E+00  0.11016942072E+04  0.11016942072E+04  0.00000000000E+00 0. -1.
          2   -1    0    0  502    0 -0.00000000000E+00 -0.00000000000E+00 -0.31262236920E+02  0.31262236920E+02  0.00000000000E+00 0. -1.
          2    1    1    2  501    0  0.10370339172E+01 -0.22633463287E+02 -0.27024711455E+02  0.35265906042E+02  0.00000000000E+00 0. -1.
          2    1    1    2  502    0 -0.10370339172E+01  0.22633463287E+02  0.10974566817E+04  0.10976905380E+04  0.00000000000E+00 0. -1.
</event>
<event>
 4    1  0.6688462E+003  0.2001983E+02  0.7546771E-02  0.1533733E+00
          2   -1    0    0  501    0  0.00000000000E+00  0.00000000000E+00  0.64327757173E+01  0.64327757173E+01  0.00000000000E+00 0. -1.
          2   -1    0    0  502    0 -0.00000000000E+00 -0.00000000000E+00 -0.30885063254E+03  0.30885063254E+03  0.00000000000E+00 0. -1.
          2    1    1    2  501    0 -0.15782746153E+02 -0.12316598250E+02 -0.29205527557E+03  0.29274063206E+03  0.00000000000E+00 0. -1.
          2    1    1    2  502    0  0.15782746153E+02  0.12316598250E+02 -0.10362581251E+02  0.22542776199E+02  0.00000000000E+00 0. -1.
</event>
<event>
 4    1  0.6688462E+003  0.2505653E+02  0.7546771E-02  0.1468172E+00
          2   -1    0    0  502    0  0.00000000000E+00  0.00000000000E+00  0.32041903210E+03  0.32041903210E+03  0.00000000000E+00 0.  1.
          2   -1    0    0  501    0 -0.00000000000E+00 -0.00000000000E+00 -0.43619505518E+02  0.43619505518E+02  0.00000000000E+00 0. -1.
          2    1    1    2  501    0 -0.15278924138E+02 -0.19859107586E+02  0.31628387895E+03  0.31727483632E+03  0.00000000000E+00 0.  1.
          2    1    1    2  502    0  0.15278924138E+02  0.19859107586E+02 -0.39484352371E+02  0.46763701298E+02  0.00000000000E+00 0. -1.
</event>
<event>
 4    1  0.6688462E+003  0.2017726E+02  0.7546771E-02  0.1531343E+00
          2   -1    0    0  501    0  0.00000000000E+00  0.00000000000E+00  0.49785766401E+02  0.49785766401E+02  0.00000000000E+00 0.  1.
          2   -1    0    0  502    0 -0.00000000000E+00 -0.00000000000E+00 -0.21701751890E+03  0.21701751890E+03  0.00000000000E+00 0.  1.
          2    1    1    2  501    0 -0.21200096041E+01  0.20065581310E+02 -0.21448001926E+03  0.21542701932E+03  0.00000000000E+00 0.  1.
          2    1    1    2  502    0  0.21200096041E+01 -0.20065581310E+02  0.47248266758E+02  0.51376265977E+02  0.00000000000E+00 0.  1.
</event>
<event>
 4    1  0.6688462E+003  0.2189761E+02  0.7546771E-02  0.1506825E+00
          2   -1    0    0  501    0  0.00000000000E+00  0.00000000000E+00  0.14515722718E+04  0.14515722718E+04  0.00000000000E+00 0. -1.
          2   -1    0    0  502    0 -0.00000000000E+00 -0.00000000000E+00 -0.62741568828E+00  0.62741568828E+00  0.00000000000E+00 0. -1.
          2    1    1    2  501    0  0.69965019521E+01  0.20749797241E+02  0.12251108957E+04  0.12253065787E+04  0.00000000000E+00 0. -1.
          2    1    1    2  502    0 -0.69965019521E+01 -0.20749797241E+02  0.22583396041E+03  0.22689310876E+03  0.00000000000E+00 0. -1.
</event>
<event>
 4    1  0.6688462E+003  0.3247863E+02  0.7546771E-02  0.1399212E+00
          2   -1    0    0  502    0  0.00000000000E+00  0.00000000000E+00  0.10544543933E+04  0.10544543933E+04  0.00000000000E+00 0.  1.
          2   -1    0    0  501    0 -0.00000000000E+00 -0.00000000000E+00 -0.27133007848E+02  0.27133007848E+02  0.00000000000E+00 0.  1.
          2    1    1    2  501    0 -0.51372416359E+01 -0.32069772808E+02  0.10443913127E+04  0.10448962033E+04  0.00000000000E+00 0.  1.
          2    1    1    2  502    0  0.51372416359E+01  0.32069772808E+02 -0.17069927298E+02  0.36691197821E+02  0.00000000000E+00 0.  1.
</event>
<event>
 4    1  0.6688462E+003  0.2149488E+02  0.7546771E-02  0.1512315E+00
          2   -1    0    0  501    0  0.00000000000E+00  0.00000000000E+00  0.17227056905E+02  0.17227056905E+02  0.00000000000E+00 0.  1.
          2   -1    0    0  502    0 -0.00000000000E+00 -0.00000000000E+00 -0.33307667110E+02  0.33307667110E+02  0.00000000000E+00 0.  1.
          2    1    1    2  501    0  0.42024832322E+01  0.21080065194E+02 -0.19191756555E+02  0.28815855593E+02  0.00000000000E+00 0.  1.
          2    1    1    2  502    0 -0.42024832322E+01 -0.21080065194E+02  0.31111463498E+01  0.21718868422E+02  0.00000000000E+00 0.  1.
</event>
<event>
 4    1  0.6688462E+003  0.5134987E+02  0.7546771E-02  0.1292424E+00
          2   -1    0    0  502    0  0.00000000000E+00  0.00000000000E+00  0.19712238210E+02  0.19712238210E+02  0.00000000000E+00 0. -1.
          2   -1    0    0  501    0 -0.00000000000E+00 -0.00000000000E+00 -0.49434863770E+03  0.49434863770E+03  0.00000000000E+00 0. -1.
          2    1    1    2  501    0 -0.36697541388E+02  0.35917961233E+02 -0.17799847556E+02  0.54347438358E+02  0.00000000000E+00 0. -1.
          2    1    1    2  502    0  0.36697541388E+02 -0.35917961233E+02 -0.45683655194E+03  0.45971343755E+03  0.00000000000E+00 0. -1.
</event>
<event>
 4    1  0.6688462E+003  0.2350781E+02  0.7546771E-02  0.1486218E+00
          2   -1    0    0  502    0  0.00000000000E+00  0.00000000000E+00  0.34750342267E+00  0.34750342267E+00  0.00000000000E+00 0. -1.
          2   -1    0    0  501    0 -0.00000000000E+00 -0.00000000000E+00 -0.20148487075E+04  0.20148487075E+04  0.00000000000E+00 0. -1.
          2    1    1    2  501    0  0.60645188136E+01  0.22712081769E+02 -0.54470361675E+03  0.54521064475E+03  0.00000000000E+00 0. -1.
          2    1    1    2  502    0 -0.60645188136E+01 -0.22712081769E+02 -0.14697975873E+04  0.14699855662E+04  0.00000000000E+00 0. -1.
</event>
<event>
 4    1  0.6688462E+003  0.2341131E+02  0.7546771E-02  0.1487397E+00
          2   -1    0    0  501    0  0.00000000000E+00  0.00000000000E+00  0.11999752404E+04  0.11999752404E+04  0.00000000000E+00 0.  1.
          2   -1    0    0  502    0 -0.00000000000E+00 -0.00000000000E+00 -0.15604518859E+01  0.15604518859E+01  0.00000000000E+00 0.  1.
          2    1    1    2  501    0 -0.99636084342E+01 -0.21185281670E+02  0.93956344986E+02  0.96829150650E+02  0.00000000000E+00 0.  1.
          2    1    1    2  502    0  0.99636084342E+01  0.21185281670E+02  0.11044584435E+04  0.11047065417E+04  0.00000000000E+00 0.  1.
</event>
<event>
 4    1  0.6688462E+003  0.4551190E+02  0.7546771E-02  0.1318899E+00
          2   -1    0    0  501    0  0.00000000000E+00  0.00000000000E+00  0.25816921340E+03  0.25816921340E+03  0.00000000000E+00 0. -1.
          2   -1    0    0  502    0 -0.00000000000E+00 -0.00000000000E+00 -0.83075065928E+02  0.83075065928E+02  0.00000000000E+00 0. -1.
          2    1    1    2  501    0  0.43872869747E+02  0.12103894677E+02 -0.74626803037E+02  0.87409911896E+02  0.00000000000E+00 0. -1.
          2    1    1    2  502    0 -0.43872869747E+02 -0.12103894677E+02  0.24972095051E+03  0.25383436744E+03  0.00000000000E+00 0. -1.
</event>
<event>
 4    1  0.6688462E+003  0.8608614E+02  0.7546771E-02  0.1190382E+00
          2   -1    0    0  501    0  0.00000000000E+00  0.00000000000E+00  0.96630186486E+02  0.96630186486E+02  0.00000000000E+00 0.  1.
          2   -1    0    0  502    0 -0.00000000000E+00 -0.00000000000E+00 -0.86585655733E+02  0.86585655733E+02  0.00000000000E+00 0. -1.
          2    1    1    2  501    0 -0.85505461606E+02  0.99819362407E+01 -0.25942988848E+02  0.89910297997E+02  0.00000000000E+00 0. -1.
          2    1    1    2  502    0  0.85505461606E+02 -0.99819362407E+01  0.35987519601E+02  0.93305544222E+02  0.00000000000E+00 0.  1.
</event>
<event>
 4    1  0.6688462E+003  0.2181167E+02  0.7546771E-02  0.1507985E+00
          2   -1    0    0  502    0  0.00000000000E+00  0.00000000000E+00  0.74702279587E+02  0.74702279587E+02  0.00000000000E+00 0. -1.
          2   -1    0    0  501    0 -0.00000000000E+00 -0.00000000000E+00 -0.61417257414E+02  0.61417257414E+02  0.00000000000E+00 0.  1.
          2    1    1    2  501    0 -0.29710971410E+01 -0.21608367612E+02  0.71077034708E+02  0.74348462203E+02  0.00000000000E+00 0. -1.
          2    1    1    2  502    0  0.29710971410E+01  0.21608367612E+02 -0.57792012535E+02  0.61771074799E+02  0.00000000000E+00 0.  1.
</event>
<event>
 4    1  0.6688462E+003  0.3451789E+02  0.7546771E-02  0.1383985E+00
          2   -1    0    0  501    0  0.00000000000E+00  0.00000000000E+00  0.45169055276E+01  0.45169055276E+01  0.00000000000E+00 0. -1.
          2   -1    0    0  502    0 -0.00000000000E+00 -0.00000000000E+00 -0.22600451346E+04  0.22600451346E+04  0.00000000000E+00 0. -1.
          2    1    1    2  501    0 -0.21402277299E+02  0.27081859203E+02 -0.21919179517E+04  0.21921897253E+04  0.00000000000E+00 0. -1.
          2    1    1    2  502    0  0.21402277299E+02 -0.27081859203E+02 -0.63610277388E+02  0.72372314879E+02  0.00000000000E+00 0. -1.
</event>
<event>
 4    1  0.6688462E+003  0.2798709E+02  0.7546771E-02  0.1437937E+00
          2   -1    0    0  502    0  0.00000000000E+00  0.00000000000E+00  0.10523178305E+04  0.10523178305E+04  0.00000000000E+00 0. -1.
          2   -1    0    0  501    0 -0.00000000000E+00 -0.00000000000E+00 -0.26579535912E+01  0.26579535912E+01  0.00000000000E+00 0.  1.
          2    1    1    2  501    0 -0.15267777258E+02 -0.23455751701E+02  0.97240559244E+03  0.97280826144E+03  0.00000000000E+00 0. -1.
          2    1    1    2  502    0  0.15267777258E+02  0.23455751701E+02  0.77254284448E+02  0.82167522634E+02  0.00000000000E+00 0.  1.
</event>
<event>
 4    1  0.6688462E+003  0.5746597E+02  0.7546771E-02  0.1268694E+00
          2   -1    0    0  501    0  0.00000000000E+00  0.00000000000E+00  0.46159884910E+03  0.46159884910E+03  0.00000000000E+00 0.  1.
          2   -1    0    0  502    0 -0.00000000000E+00 -0.00000000000E+00 -0.71485440268E+02  0.71485440268E+02  0.00000000000E+00 0.  1.
          2    1    1    2  501    0 -0.85797854535E+01  0.56821873734E+02 -0.57796399441E+02  0.81503140071E+02  0.00000000000E+00 0.  1.
          2    1    1    2  502    0  0.85797854535E+01 -0.56821873734E+02  0.44790980827E+03  0.45158114929E+03  0.00000000000E+00 0.  1.
</event>
<event>
 4    1  0.6688462E+003  0.2545223E+02  0.7546771E-02  0.1463807E+00
          2   -1    0    0  502    0  0.00000000000E+00  0.00000000000E+00  0.18954253551E+02  0.18954253551E+02  0.00000000000E+00 0. -1.
          2   -1    0    0  501    0 -0.00000000000E+00 -0.00000000000E+00 -0.36466419950E+02  0.36466419950E+02  0.00000000000E+00 0.  1.
          2    1    1    2  501    0 -0.10897796560E+02  0.23001175346E+02 -0.18142316851E+01  0.25516807672E+02  0.00000000000E+00 0. -1.
          2    1    1    2  502    0  0.10897796560E+02 -0.23001175346E+02 -0.15697934714E+02  0.29903865828E+02  0.00000000000E+00 0.  1.
</event>
<event>
 4    1  0.6688462E+003  0.2362442E+02  0.7546771E-02  0.1484803E+00
          2   -1    0    0  502    0  0.00000000000E+00  0.00000000000E+00  0.19670510042E+02  0.19670510042E+02  0.00000000000E+00 0.  1.
          2   -1    0    0  501    0 -0.00000000000E+00 -0.00000000000E+00 -0.14348680439E+04  0.14348680439E+04  0.00000000000E+00 0. -1.
          2    1    1    2  501    0 -0.10468725952E+02  0.21178271597E+02  0.12444090804E+02  0.26701475743E+02  0.00000000000E+00 0.  1.
          2    1    1    2  502    0  0.10468725952E+02 -0.21178271597E+02 -0.14276416247E+04  0.14278370782E+04  0.00000000000E+00 0. -1.
</event>
<event>
 4    1  0.6688462E+003  0.3313735E+02  0.7546771E-02  0.1394153E+00
          2   -1    0    0  501    0  0.00000000000E+00  0.00000000000E+00  0.87378276220E+03  0.87378276220E+03  0.00000000000E+00 0.  1.
          2   -1    0    0  502    0 -0.00000000000E+00 -0.00000000000E+00 -0.91072372170E+01  0.91072372170E+01  0.00000000000E+00 0. -1.
          2    1    1    2  501    0 -0.12401151736E+02  0.30729393287E+02  0.22480228940E+02  0.40043037714E+02  0.00000000000E+00 0. -1.
          2    1    1    2  502    0  0.12401151736E+02 -0.30729393287E+02  0.84219529604E+03  0.84284696170E+03  0.00000000000E+00 0.  1.
</event>
<event>
 4    1  0.6688462E+003  0.2065863E+02  0.7546771E-02  0.1524195E+00
          2   -1    0    0  502    0  0.00000000000E+00  0.00000000000E+00  0.14448274572E+03  0.14448274572E+03  0.00000000000E+00 0.  1.
          2   -1    0    0  501    0 -0.00000000000E+00 -0.00000000000E+00 -0.13327053588E+04  0.13327053588E+04  0.00000000000E+00 0.  1.
          2    1    1    2  501    0 -0.20579219036E+02 -0.18095792430E+01  0.14366377307E+03  0.14514151207E+03  0.00000000000E+00 0.  1.
          2    1    1    2  502    0  0.20579219036E+02  0.18095792430E+01 -0.13318863862E+04  0.13320465925E+04  0.00000000000E+00 0.  1.
</event>
<event>
 4    1  0.6688462E+003  0.2045045E+02  0.7546771E-02  0.1527258E+00
          2   -1    0    0  501    0  0.00000000000E+00  0.00000000000E+00  0.44475070853E+01  0.44475070853E+01  0.00000000000E+00 0. -1.
          2   -1    0    0  502    0 -0.00000000000E+00 -0.00000000000E+00 -0.74090772242E+03  0.74090772242E+03  0.00000000000E+00 0.  1.
          2    1    1    2  501    0 -0.16570426913E+02 -0.11985072836E+02 -0.71645570249E+03  0.71674751108E+03  0.00000000000E+00 0.  1.
          2    1    1    2  502    0  0.16570426913E+02  0.11985072836E+02 -0.20004512845E+02  0.28607718419E+02  0.00000000000E+00 0. -1.
</event>
<event>
 4    1  0.6688462E+003  0.2353094E+02  0.7546771E-02  0.1485937E+00
          2   -1    0    0  502    0  0.00000000000E+00  0.00000000000E+00  0.19661152997E+01  0.19661152997E+01  0.00000000000E+00 0.  1.
          2   -1    0    0  501    0 -0.00000000000E+00 -0.00000000000E+00 -0.45537660367E+03  0.45537660367E+03  0.00000000000E+00 0. -1.
          2    1    1    2  501    0  0.23368175225E+02 -0.27628491047E+01 -0.85454003096E+02  0.88634595919E+02  0.00000000000E+00 0.  1.
          2    1    1    2  502    0 -0.23368175225E+02  0.27628491047E+01 -0.36795648528E+03  0.36870812305E+03  0.00000000000E+00 0. -1.
</event>
<event>
 4    1  0.6688462E+003  0.3128351E+02  0.7546771E-02  0.1408761E+00
          2   -1    0    0  501    0  0.00000000000E+00  0.00000000000E+00  0.44916134841E+03  0.44916134841E+03  0.00000000000E+00 0.  1.
          2   -1    0    0  502    0 -0.00000000000E+00 -0.00000000000E+00 -0.27368688925E+01  0.27368688925E+01  0.00000000000E+00 0.  1.
          2    1    1    2  501    0 -0.11561847011E+02  0.29068570868E+02  0.12118748442E+03  0.12516015540E+03  0.00000000000E+00 0.  1.
          2    1    1    2  502    0  0.11561847011E+02 -0.29068570868E+02  0.32523699509E+03  0.32673806190E+03  0.00000000000E+00 0.  1.
</event>
<event>
 4    1  0.6688462E+003  0.2486495E+02  0.7546771E-02  0.1470320E+00
          2   -1    0    0  502    0  0.00000000000E+00  0.00000000000E+00  0.91987396246E+02  0.91987396246E+02  0.00000000000E+00 0. -1.
          2   -1    0    0  501    0 -0.00000000000E+00 -0.00000000000E+00 -0.10680685422E+03  0.10680685422E+03  0.00000000000E+00 0.  1.
          2    1    1    2  501    0 -0.23803514592E+02 -0.71873861896E+01  0.88809123857E+02  0.92224326006E+02  0.00000000000E+00 0. -1.
          2    1    1    2  502    0  0.23803514592E+02  0.71873861896E+01 -0.10362858183E+03  0.10656992446E+03  0.00000000000E+00 0.  1.
</event>
<event>
 4    1  0.6688462E+003  0.2117193E+02  0.7546771E-02  0.1516824E+00
          2   -1    0    0  501    0  0.00000000000E+00  0.00000000000E+00  0.20089273195E+03  0.20089273195E+03  0.00000000000E+00 0.  1.
          2   -1    0    0  502    0 -0.00000000000E+00 -0.00000000000E+00 -0.70070221043E+01  0.70070221043E+01  0.00000000000E+00 0. -1.
          2    1    1    2  501    0 -0.20521851518E+02 -0.52061900953E+01  0.11125125504E+02  0.23916923350E+02  0.00000000000E+00 0. -1.
          2    1    1    2  502    0  0.20521851518E+02  0.52061900953E+01  0.18276058434E+03  0.18398283070E+03  0.00000000000E+00 0.  1.
</event>
<event>
 4    1  0.6688462E+003  0.2038292E+02  0.7546771E-02  0.1528260E+00
          2   -1    0    0  502    0  0.00000000000E+00  0.00000000000E+00  0.63244234763E+00  0.63244234763E+00  0.00000000000E+00 0. -1.
          2   -1    0    0  501    0 -0.00000000000E+00 -0.00000000000E+00 -0.10505882034E+04  0.10505882034E+04  0.00000000000E+00 0. -1.
          2    1    1    2  501    0 -0.99530986753E+01  0.17787617747E+02 -0.20323181944E+03  0.20425140380E+03  0.00000000000E+00 0. -1.
          2    1    1    2  502    0  0.99530986753E+01 -0.17787617747E+02 -0.84672394164E+03  0.84696924199E+03  0.00000000000E+00 0. -1.
</event>
<event>
 4    1  0.6688462E+003  0.2802518E+02  0.7546771E-02  0.1437573E+00
          2   -1    0    0  501    0  0.00000000000E+00  0.00000000000E+00  0.73890357896E+01  0.73890357896E+01  0.00000000000E+00 0.  1.
          2   -1    0    0  502    0 -0.00000000000E+00 -0.00000000000E+00 -0.14951128473E+04  0.14951128473E+04  0.00000000000E+00 0. -1.
          2    1    1    2  501    0 -0.26437677232E+02 -0.92983780962E+01 -0.14679157006E+04  0.14681832020E+04  0.00000000000E+00 0. -1.
          2    1    1    2  502    0  0.26437677232E+02  0.92983780962E+01 -0.19808110904E+02  0.34318681068E+02  0.00000000000E+00 0.  1.
</event>
<event>
 4    1  0.6688462E+003  0.4331717E+02  0.7546771E-02  0.1330072E+00
          2   -1    0    0  502    0  0.00000000000E+00  0.00000000000E+00  0.51759316982E+02  0.51759316982E+02  0.00000000000E+00 0.  1.
          2   -1    0    0  501    0 -0.00000000000E+00 -0.00000000000E+00 -0.36872432193E+02  0.36872432193E+02  0.00000000000E+00 0. -1.
          2    1    1    2  501    0  0.37117158324E+02  0.22331446037E+02  0.13192120651E+02  0.45281441799E+02  0.00000000000E+00 0.  1.
          2    1    1    2  502    0 -0.37117158324E+02 -0.22331446037E+02  0.16947641381E+01  0.43350307376E+02  0.00000000000E+00 0. -1.
</event>
<event>
 4    1  0.6688462E+003  0.3017002E+02  0.7546771E-02  0.1418125E+00
          2   -1    0    0  502    0  0.00000000000E+00  0.00000000000E+00  0.23577597297E+03  0.23577597297E+03  0.00000000000E+00 0.  1.
          2   -1    0    0  501    0 -0.00000000000E+00 -0.00000000000E+00 -0.45060964639E+02  0.45060964639E+02  0.00000000000E+00 0. -1.
          2    1    1    2  501    0 -0.28128312754E+02  0.10909991783E+02  0.22962616983E+03  0.23159967135E+03  0.00000000000E+00 0.  1.
          2    1    1    2  502    0  0.28128312754E+02 -0.10909991783E+02 -0.38911161500E+02  0.49237266256E+02  0.00000000000E+00 0. -1.
</event>
<event>
 4    1  0.6688462E+003  0.2004885E+02  0.7546771E-02  0.1533290E+00
          2   -1    0    0  502    0  0.00000000000E+00  0.00000000000E+00  0.15534222281E+03  0.15534222281E+03  0.00000000000E+00 0. -1.
          2   -1    0    0  501    0 -0.00000000000E+00 -0.00000000000E+00 -0.28950334188E+02  0.28950334188E+02  0.00000000000E+00 0. -1.
          2    1    1    2  501    0  0.11851255732E+02  0.16171091818E+02  0.15112787508E+03  0.15245193045E+03  0.00000000000E+00 0. -1.
          2    1    1    2  502    0 -0.11851255732E+02 -0.16171091818E+02 -0.24735986455E+02  0.31840626547E+02  0.00000000000E+00 0. -1.
</event>
<event>
 4    1  0.6688462E+003  0.3582062E+02  0.7546771E-02  0.1374884E+00
          2   -1    0    0  501    0  0.00000000000E+00  0.00000000000E+00  0.17452102786E+02  0.17452102786E+02  0.00000000000E+00 0.  1.
          2   -1    0    0  502    0 -0.00000000000E+00 -0.00000000000E+00 -0.18351752637E+04  0.18351752637E+04  0.00000000000E+00 0.  1.
          2    1    1    2  501    0 -0.35782149690E+02 -0.16597407718E+01 -0.18164302558E+04  0.18167834189E+04  0.00000000000E+00 0.  1.
          2    1    1    2  502    0  0.35782149690E+02  0.16597407718E+01 -0.12929051193E+01  0.35843947599E+02  0.00000000000E+00 0.  1.
</event>
<event>
 4    1  0.6688462E+003  0.2020322E+02  0.7546771E-02  0.1530952E+00
          2   -1    0    0  501    0  0.00000000000E+00  0.00000000000E+00  0.90619252680E+01  0.90619252680E+01  0.00000000000E+00 0.  1.
          2   -1    0    0  502    0 -0.00000000000E+00 -0.00000000000E+00 -0.80832839354E+02  0.80832839354E+02  0.00000000000E+00 0.  1.
          2    1    1    2  501    0  0.18843036578E+02  0.72876691908E+01 -0.65793946482E+02  0.68825965619E+02  0.00000000000E+00 0.  1.
          2    1    1    2  502    0 -0.18843036578E+02 -0.72876691908E+01 -0.59769676040E+01  0.21068799003E+02  0.00000000000E+00 0.  1.
</event>
<event>
 4    1  0.6688462E+003  0.2319675E+02  0.7546771E-02  0.1490042E+00
          2   -1    0    0  502    0  0.00000000000E+00  0.00000000000E+00  0.19985986876E+03  0.19985986876E+03  0.00000000000E+00 0. -1.
          2   -1    0    0  501    0 -0.00000000000E+00 -0.00000000000E+00 -0.13001259692E+03  0.13001259692E+03  0.00000000000E+00 0.  1.
          2    1    1    2  501    0 -0.12393132527E+02  0.19608662520E+02  0.19814316445E+03  0.19949637339E+03  0.00000000000E+00 0. -1.
          2    1    1    2  502    0  0.12393132527E+02 -0.19608662520E+02 -0.12829589261E+03  0.13037609229E+03  0.00000000000E+00 0.  1.
</event>
<event>
 4    1  0.6688462E+003  0.2575057E+02  0.7546771E-02  0.1460579E+00
          2   -1    0    0  501    0  0.00000000000E+00  0.00000000000E+00  0.11918727918E+04  0.11918727918E+04  0.00000000000E+00 0. -1.
          2   -1    0    0  502    0 -0.00000000000E+00 -0.00000000000E+00 -0.25502878299E+01  0.25502878299E+01  0.00000000000E+00 0.  1.
          2    1    1    2  501    0 -0.22172263247E+02  0.13095139938E+02  0.66593082281E+02  0.71398393225E+02  0.00000000000E+00 0.  1.
          2    1    1    2  502    0  0.22172263247E+02 -0.13095139938E+02  0.11227294217E+04  0.11230246864E+04  0.00000000000E+00 0. -1.
</event>
<event>
 4    1  0.6688462E+003  0.3192224E+02  0.7546771E-02  0.1403596E+00
          2   -1    0    0  502    0  0.00000000000E+00  0.00000000000E+00  0.32055859992E+02  0.32055859992E+02  0.00000000000E+00 0.  1.
          2   -1    0    0  501    0 -0.00000000000E+00 -0.00000000000E+00 -0.19858600206E+04  0.19858600206E+04  0.00000000000E+00 0. -1.
          2    1    1    2  501    0 -0.24958437048E+02  0.19902405133E+02  0.23947701585E+02  0.39906412031E+02  0.00000000000E+00 0.  1.
          2    1    1    2  502    0  0.24958437048E+02 -0.19902405133E+02 -0.19777518622E+04  0.19780094685E+04  0.00000000000E+00 0. -1.
</event>
<event>
 4    1  0.6688462E+003  0.2151728E+02  0.7546771E-02  0.1512006E+00
          2   -1    0    0  501    0  0.00000000000E+00  0.00000000000E+00  0.15822653647E+01  0.15822653647E+01  0.00000000000E+00 0.  1.
          2   -1    0    0  502    0 -0.00000000000E+00 -0.00000000000E+00 -0.64761313067E+03  0.64761313067E+03  0.00000000000E+00 0. -1.
          2    1    1    2  501    0 -0.12264198783E+02 -0.17680004361E+02 -0.56334168150E+03  0.56375246628E+03  0.00000000000E+00 0. -1.
          2    1    1    2  502    0  0.12264198783E+02  0.17680004361E+02 -0.82689183803E+02  0.85442929749E+02  0.00000000000E+00 0.  1.
</event>
<event>
 4    1  0.6688462E+003  0.4860486E+02  0.7546771E-02  0.1304337E+00
          2   -1    0    0  501    0  0.00000000000E+00  0.00000000000E+00  0.91772431433E+01  0.91772431433E+01  0.00000000000E+00 0. -1.
          2   -1    0    0  502    0 -0.00000000000E+00 -0.00000000000E+00 -0.47589736976E+03  0.47589736976E+03  0.00000000000E+00 0.  1.
          2    1    1    2  501    0  0.27672787602E+02 -0.39958097026E+02 -0.39769209661E+03  0.40065126531E+03  0.00000000000E+00 0.  1.
          2    1    1    2  502    0 -0.27672787602E+02  0.39958097026E+02 -0.69028030007E+02  0.84423347590E+02  0.00000000000E+00 0. -1.
</event>
<event>
 4    1  0.6688462E+003  0.2207861E+02  0.7546771E-02  0.1504404E+00
          2   -1    0    0  502    0  0.00000000000E+00  0.00000000000E+00  0.38073933682E+03  0.38073933682E+03  0.00000000000E+00 0.  1.
          2   -1    0    0  501    0 -0.00000000000E+00 -0.00000000000E+00 -0.15548706369E+03  0.15548706369E+03  0.00000000000E+00 0. -1.
          2    1    1    2  501    0 -0.95150002216E+01 -0.19923098723E+02  0.37963320599E+03  0.38027468517E+03  0.00000000000E+00 0.  1.
          2    1    1    2  502    0  0.95150002216E+01  0.19923098723E+02 -0.15438093285E+03  0.15595171535E+03  0.00000000000E+00 0. -1.
</event>
<event>
 4    1  0.6688462E+003  0.3133276E+02  0.7546771E-02  0.1408358E+00
          2   -1    0    0  501    0  0.00000000000E+00  0.00000000000E+00  0.16170281396E+04  0.16170281396E+04  0.00000000000E+00 0.  1.
          2   -1    0    0  502    0 -0.00000000000E+00 -0.00000000000E+00 -0.10309455598E+02  0.10309455598E+02  0.00000000000E+00 0. -1.
          2    1    1    2  501    0 -0.31247906734E+02  0.23044386354E+01  0.14012681070E+02  0.34323422665E+02  0.00000000000E+00 0. -1.
          2    1    1    2  502    0  0.31247906734E+02 -0.23044386354E+01  0.15927060029E+04  0.15930141725E+04  0.00000000000E+00 0.  1.
</event>
<event>
 4    1  0.6688462E+003  0.7244990E+02  0.7546771E-02  0.1222551E+00
          2   -1    0    0  502    0  0.00000000000E+00  0.00000000000E+00  0.16033925013E+02  0.16033925013E+02  0.00000000000E+00 0. -1.
          2   -1    0    0  501    0 -0.00000000000E+00 -0.00000000000E+00 -0.20277981474E+04  0.20277981474E+04  0.00000000000E+00 0. -1.
          2    1    1    2  501    0  0.62302105370E+02 -0.36978846114E+02 -0.70083699625E+02  0.10080035886E+03  0.00000000000E+00 0. -1.
          2    1    1    2  502    0 -0.62302105370E+02  0.36978846114E+02 -0.19416805227E+04  0.19430317135E+04  0.00000000000E+00 0. -1.
</event>
<event>
 4    1  0.6688462E+003  0.2093864E+02  0.7546771E-02  0.1520143E+00
          2   -1    0    0  502    0  0.00000000000E+00  0.00000000000E+00  0.28393069871E+02  0.28393069871E+02  0.00000000000E+00 0.  1.
          2   -1    0    0  501    0 -0.00000000000E+00 -0.00000000000E+00 -0.30973604277E+02  0.30973604277E+02  0.00000000000E+00 0.  1.
          2    1    1    2  501    0 -0.20470180081E+02  0.44043577570E+01  0.19729816280E+02  0.28769641816E+02  0.00000000000E+00 0.  1.
          2    1    1    2  502    0  0.20470180081E+02 -0.44043577570E+01 -0.22310350685E+02  0.30597032332E+02  0.00000000000E+00 0.  1.
</event>
<event>
 4    1  0.6688462E+003  0.3702035E+02  0.7546771E-02  0.1366890E+00
          2   -1    0    0  502    0  0.00000000000E+00  0.00000000000E+00  0.20381031077E+04  0.20381031077E+04  0.00000000000E+00 0. -1.
          2   -1    0    0  501    0 -0.00000000000E+00 -0.00000000000E+00 -0.49309195376E+01  0.49309195376E+01  0.00000000000E+00 0. -1.
          2    1    1    2  501    0  0.34723805474E+02 -0.12836019268E+02  0.19658977835E+04  0.19662463226E+04  0.00000000000E+00 0. -1.
          2    1    1    2  502    0 -0.34723805474E+02  0.12836019268E+02  0.67274404658E+02  0.76787704611E+02  0.00000000000E+00 0. -1.
</event>
<event>
 4    1  0.6688462E+003  0.3001436E+02  0.7546771E-02  0.1419472E+00
          2   -1    0    0  501    0  0.00000000000E+00  0.00000000000E+00  0.57322041813E+01  0.57322041813E+01  0.00000000000E+00 0.  1.
          2   -1    0    0  502    0 -0.00000000000E+00 -0.00000000000E+00 -0.98917850709E+03  0.98917850709E+03  0.00000000000E+00 0.  1.
          2    1    1    2  501    0  0.33653890227E+01  0.29825087765E+02 -0.94795310195E+03  0.94842814445E+03  0.00000000000E+00 0.  1.
          2    1    1    2  502    0 -0.33653890227E+01 -0.29825087765E+02 -0.35493200967E+02  0.46482566822E+02  0.00000000000E+00 0.  1.
</event>
<event>
 4    1  0.6688462E+003  0.3073341E+02  0.7546771E-02  0.1413328E+00
          2   -1    0    0  502    0  0.00000000000E+00  0.00000000000E+00  0.13734966886E+04  0.13734966886E+04  0.00000000000E+00 0.  1.
          2   -1    0    0  501    0 -0.00000000000E+00 -0.00000000000E+00 -0.10802117512E+01  0.10802117512E+01  0.00000000000E+00 0. -1.
          2    1    1    2  501    0  0.55260832947E+00  0.30728445846E+02  0.11005086111E+04  0.11009376667E+04  0.00000000000E+00 0.  1.
          2    1    1    2  502    0 -0.55260832947E+00 -0.30728445846E+02  0.27190786566E+03  0.27363923360E+03  0.00000000000E+00 0. -1.
</event>
<event>
 4    1  0.6688462E+003  0.3242046E+02  0.7546771E-02  0.1399666E+00
          2   -1    0    0  501    0  0.00000000000E+00  0.00000000000E+00  0.14049533280E+03  0.14049533280E+03  0.00000000000E+00 0.  1.
          2   -1    0    0  502    0 -0.00000000000E+00 -0.00000000000E+00 -0.24082407005E+03  0.24082407005E+03  0.00000000000E+00 0. -1.
          2    1    1    2  501    0  0.18929318169E+01  0.32365151055E+02 -0.23783924886E+03  0.24003873540E+03  0.00000000000E+00 0. -1.
          2    1    1    2  502    0 -0.18929318169E+01 -0.32365151055E+02  0.13751051161E+03  0.14128066745E+03  0.00000000000E+00 0.  1.
</event>
<event>
 4    1  0.6688462E+003  0.2504499E+02  0.7546771E-02  0.1468301E+00
          2   -1    0    0  502    0  0.00000000000E+00  0.00000000000E+00  0.14363976822E+03  0.14363976822E+03  0.00000000000E+00 0.  1.
          2   -1    0    0  501    0 -0.00000000000E+00 -0.00000000000E+00 -0.55391449055E+01  0.55391449055E+01  0.00000000000E+00 0.  1.
          2    1    1    2  501    0 -0.17813084257E+02 -0.17605266798E+02  0.10336475911E+03  0.10635565249E+03  0.00000000000E+00 0.  1.
          2    1    1    2  502    0  0.17813084257E+02  0.17605266798E+02  0.34735864204E+02  0.42823260639E+02  0.00000000000E+00 0.  1.
</event>
<event>
 4    1  0.6688462E+003  0.2709212E+02  0.7546771E-02  0.1446685E+00
          2   -1    0    0  501    0  0.00000000000E+00  0.00000000000E+00  0.29093921247E+02  0.29093921247E+02  0.00000000000E+00 0.  1.
          2   -1    0    0  502    0 -0.00000000000E+00 -0.00000000000E+00 -0.26635852259E+02  0.26635852259E+02  0.00000000000E+00 0.  1.
          2    1    1    2  501    0 -0.14888542097E+02  0.22634356516E+02 -0.51770910398E+01  0.27582332249E+02  0.00000000000E+00 0.  1.
          2    1    1    2  502    0  0.14888542097E+02 -0.22634356516E+02  0.76351600271E+01  0.28147441257E+02  0.00000000000E+00 0.  1.
</event>
<event>
 4    1  0.6688462E+003  0.2126509E+02  0.7546771E-02  0.1515514E+00
          2   -1    0    0  502    0  0.00000000000E+00  0.00000000000E+00  0.37806040206E+02  0.37806040206E+02  0.00000000000E+00 0.  1.
          2   -1    0    0  501    0 -0.00000000000E+00 -0.00000000000E+00 -0.12555756063E+02  0.12555756063E+02  0.00000000000E+00 0.  1.
          2    1    1    2  501    0  0.38828637368E+01  0.20907588530E+02  0.71453662098E+01  0.22433460438E+02  0.00000000000E+00 0.  1.
          2    1    1    2  502    0 -0.38828637368E+01 -0.20907588530E+02  0.18104917933E+02  0.27928335831E+02  0.00000000000E+00 0.  1.
</event>
<event>
 4    1  0.6688462E+003  0.2297576E+02  0.7546771E-02  0.1492803E+00
          2   -1    0    0  501    0  0.00000000000E+00  0.00000000000E+00  0.25106053993E+01  0.25106053993E+01  0.00000000000E+00 0. -1.
          2   -1    0    0  502    0 -0.00000000000E+00 -0.00000000000E+00 -0.35200672201E+03  0.35200672201E+03  0.00000000000E+00 0. -1.
          2    1    1    2  501    0 -0.56970061180E+01  0.22258246607E+02 -0.28723060243E+03  0.28814805984E+03  0.00000000000E+00 0. -1.
          2    1    1    2  502    0  0.56970061180E+01 -0.22258246607E+02 -0.62265514186E+02  0.66369267568E+02  0.00000000000E+00 0. -1.
</event>
<event>
 4    1  0.6688462E+003  0.2130897E+02  0.7546771E-02  0.1514899E+00
          2   -1    0    0  502    0  0.00000000000E+00  0.00000000000E+00  0.17569716870E+03  0.17569716870E+03  0.00000000000E+00 0.  1.
          2   -1    0    0  501    0 -0.00000000000E+00 -0.00000000000E+00 -0.86900527229E+02  0.86900527229E+02  0.00000000000E+00 0. -1.
          2    1    1    2  501    0  0.35919048027E+01 -0.21004058204E+02  0.17373003322E+03  0.17503198760E+03  0.00000000000E+00 0.  1.
          2    1    1    2  502    0 -0.35919048027E+01  0.21004058204E+02 -0.84933391748E+02  0.87565708328E+02  0.00000000000E+00 0. -1.
</event>
<event>
 4    1  0.6688462E+003  0.2359438E+02  0.7546771E-02  0.1485166E+00
          2   -1    0    0  501    0  0.00000000000E+00  0.00000000000E+00  0.96199394262E+02  0.96199394262E+02  0.00000000000E+00 0.  1.
          2   -1    0    0  502    0 -0.00000000000E+00 -0.00000000000E+00 -0.17255857804E+02  0.17255857804E+02  0.00000000000E+00 0.  1.
          2    1    1    2  501    0  0.18895695603E+02 -0.14129664718E+02 -0.67757692184E+01  0.24548030182E+02  0.00000000000E+00 0.  1.
          2    1    1    2  502    0 -0.18895695603E+02  0.14129664718E+02  0.85719305677E+02  0.88907221883E+02  0.00000000000E+00 0.  1.
</event>
<event>
 4    1  0.6688462E+003  0.8296775E+02  0.7546771E-02  0.1197120E+00
          2   -1    0    0  501    0  0.00000000000E+00  0.00000000000E+00  0.26671115964E+04  0.26671115964E+04  0.00000000000E+00 0. -1.
          2   -1    0    0  502    0 -0.00000000000E+00 -0.00000000000E+00 -0.11715586878E+02  0.11715586878E+02  0.00000000000E+00 0.  1.
          2    1    1    2  501    0 -0.43566908002E+02 -0.70608583602E+02  0.14498703428E+03  0.16704756108E+03  0.00000000000E+00 0.  1.
          2    1    1    2  502    0  0.43566908002E+02  0.70608583602E+02  0.25104089752E+04  0.25117796222E+04  0.00000000000E+00 0. -1.
</event>
<event>
 4    1  0.6688462E+003  0.2332202E+02  0.7546771E-02  0.1488494E+00
          2   -1    0    0  502    0  0.00000000000E+00  0.00000000000E+00  0.12358948984E+04  0.12358948984E+04  0.00000000000E+00 0.  1.
          2   -1    0    0  501    0 -0.00000000000E+00 -0.00000000000E+00 -0.11773588810E+01  0.11773588810E+01  0.00000000000E+00 0.  1.
          2    1    1    2  501    0 -0.17195190564E+02 -0.15755698035E+02  0.11068228473E+04  0.11070685308E+04  0.00000000000E+00 0.  1.
          2    1    1    2  502    0  0.17195190564E+02  0.15755698035E+02  0.12789469220E+03  0.13000372645E+03  0.00000000000E+00 0.  1.
</event>
<event>
 4    1  0.9084726E+003  0.3967236E+02  0.7546771E-02  0.1350417E+00
          2   -1    0    0  502    0  0.00000000000E+00  0.00000000000E+00  0.13574975973E+04  0.13574975973E+04  0.00000000000E+00 0.  1.
          2   -1    0    0  501    0 -0.00000000000E+00 -0.00000000000E+00 -0.58808929352E+03  0.58808929352E+03  0.00000000000E+00 0.  1.
          2    1    1    2  501    0  0.31757911802E+02  0.23776688450E+02  0.13565382000E+04  0.13571181908E+04  0.00000000000E+00 0.  1.
          2    1    1    2  502    0 -0.31757911802E+02 -0.23776688450E+02 -0.58712989620E+03  0.58846870000E+03  0.00000000000E+00 0.  1.
</event>
<event>
 4    1  0.6688462E+003  0.2551775E+02  0.7546771E-02  0.1463094E+00
          2   -1    0    0  502    0  0.00000000000E+00  0.00000000000E+00  0.37640738889E+03  0.37640738889E+03  0.00000000000E+00 0.  1.
          2   -1    0    0  501    0 -0.00000000000E+00 -0.00000000000E+00 -0.67542438921E+01  0.67542438921E+01  0.00000000000E+00 0.  1.
          2    1    1    2  501    0  0.75302634966E+01  0.24381356800E+02  0.35006169906E+03  0.35099052491E+03  0.00000000000E+00 0.  1.
          2    1    1    2  502    0 -0.75302634966E+01 -0.24381356800E+02  0.19591445937E+02  0.32171107871E+02  0.00000000000E+00 0.  1.
</event>
<event>
 4    1  0.6688462E+003  0.2778130E+02  0.7546771E-02  0.1439914E+00
          2   -1    0    0  501    0  0.00000000000E+00  0.00000000000E+00  0.39838690798E+01  0.39838690798E+01  0.00000000000E+00 0.  1.
          2   -1    0    0  502    0 -0.00000000000E+00 -0.00000000000E+00 -0.10059611916E+04  0.10059611916E+04  0.00000000000E+00 0. -1.
          2    1    1    2  501    0 -0.26644048059E+02  0.78673602138E+01 -0.95473861097E+03  0.95514272019E+03  0.00000000000E+00 0. -1.
          2    1    1    2  502    0  0.26644048059E+02 -0.78673602138E+01 -0.47238711511E+02  0.54802340452E+02  0.00000000000E+00 0.  1.
</event>
<event>
 4    1  0.6688462E+003  0.2229061E+02  0.7546771E-02  0.1501603E+00
          2   -1    0    0  502    0  0.00000000000E+00  0.00000000000E+00  0.14851038468E+04  0.14851038468E+04  0.00000000000E+00 0. -1.
          2   -1    0    0  501    0 -0.00000000000E+00 -0.00000000000E+00 -0.10890809117E+01  0.10890809117E+01  0.00000000000E+00 0. -1.
          2    1    1    2  501    0  0.82165369055E+01 -0.20721001076E+02  0.13605189856E+04  0.13607015770E+04  0.00000000000E+00 0. -1.
          2    1    1    2  502    0 -0.82165369055E+01  0.20721001076E+02  0.12349578026E+03  0.12549135072E+03  0.00000000000E+00 0. -1.
</event>
<event>
 4    1  0.6688462E+003  0.3800192E+02  0.7546771E-02  0.1360610E+00
          2   -1    0    0  501    0  0.00000000000E+00  0.00000000000E+00  0.10815020697E+03  0.10815020697E+03  0.00000000000E+00 0.  1.
          2   -1    0    0  502    0 -0.00000000000E+00 -0.00000000000E+00 -0.91350237530E+02  0.91350237530E+02  0.00000000000E+00 0. -1.
          2    1    1    2  501    0 -0.37993287704E+02  0.80986495259E+00 -0.83771849129E+02  0.91988415023E+02  0.00000000000E+00 0. -1.
          2    1    1    2  502    0  0.37993287704E+02 -0.80986495259E+00  0.10057181857E+03  0.10751202948E+03  0.00000000000E+00 0.  1.
</event>
<event>
 4    1  0.6688462E+003  0.3477952E+02  0.7546771E-02  0.1382120E+00
          2   -1    0    0  501    0  0.00000000000E+00  0.00000000000E+00  0.16966780078E+02  0.16966780078E+02  0.00000000000E+00 0. -1.
          2   -1    0    0  502    0 -0.00000000000E+00 -0.00000000000E+00 -0.15515224829E+03  0.15515224829E+03  0.00000000000E+00 0.  1.
          2    1    1    2  501    0  0.18518833232E+02 -0.29439227143E+02 -0.13236231172E+03  0.13685538660E+03  0.00000000000E+00 0.  1.
          2    1    1    2  502    0 -0.18518833232E+02  0.29439227143E+02 -0.58231564954E+01  0.35263641766E+02  0.00000000000E+00 0. -1.
</event>
<event>
 4    1  0.6688462E+003  0.2042653E+02  0.7546771E-02  0.1527612E+00
          2   -1    0    0  501    0  0.00000000000E+00  0.00000000000E+00  0.23708559630E+02  0.23708559630E+02  0.00000000000E+00 0. -1.
          2   -1    0    0  502    0 -0.00000000000E+00 -0.00000000000E+00 -0.89652246372E+03  0.89652246372E+03  0.00000000000E+00 0.  1.
          2    1    1    2  501    0 -0.17323315453E+02  0.10823389979E+02 -0.89198402164E+03  0.89221787580E+03  0.00000000000E+00 0.  1.
          2    1    1    2  502    0  0.17323315453E+02 -0.10823389979E+02  0.19170117550E+02  0.28013147553E+02  0.00000000000E+00 0. -1.
</event>
<event>
 4    1  0.6688462E+003  0.5312725E+02  0.7546771E-02  0.1285155E+00
          2   -1    0    0  502    0  0.00000000000E+00  0.00000000000E+00  0.15982418196E+04  0.15982418196E+04  0.00000000000E+00 0.  1.
          2   -1    0    0  501    0 -0.00000000000E+00 -0.00000000000E+00 -0.64899720785E+01  0.64899720785E+01  0.00000000000E+00 0. -1.
          2    1    1    2  501    0 -0.15289790786E+02  0.50879534906E+02  0.14804247469E+04  0.14813777155E+04  0.00000000000E+00 0.  1.
          2    1    1    2  502    0  0.15289790786E+02 -0.50879534906E+02  0.11132710061E+03  0.12335407616E+03  0.00000000000E+00 0. -1.
</event>
<event>
 4    1  0.6688462E+003  0.2358322E+02  0.7546771E-02  0.1485302E+00
          2   -1    0    0  501    0  0.00000000000E+00  0.00000000000E+00  0.12534675655E+03  0.12534675655E+03  0.00000000000E+00 0.  1.
          2   -1    0    0  502    0 -0.00000000000E+00 -0.00000000000E+00 -0.30644976376E+02  0.30644976376E+02  0.00000000000E+00 0.  1.
          2    1    1    2  501    0 -0.42796754607E+01  0.23191649218E+02 -0.24777855298E+02  0.34206875459E+02  0.00000000000E+00 0.  1.
          2    1    1    2  502    0  0.42796754607E+01 -0.23191649218E+02  0.11947963547E+03  0.12178485746E+03  0.00000000000E+00 0.  1.
</event>
<event>
 4    1  0.6688462E+003  0.2781300E+02  0.7546771E-02  0.1439608E+00
          2   -1    0    0  502    0  0.00000000000E+00  0.00000000000E+00  0.33324684334E+01  0.33324684334E+01  0.00000000000E+00 0.  1.
          2   -1    0    0  501    0 -0.00000000000E+00 -0.00000000000E+00 -0.56603342190E+03  0.56603342190E+03  0.00000000000E+00 0. -1.
          2    1    1    2  501    0 -0.27698548973E+02  0.25206155613E+01 -0.62699516049E+02  0.68591489492E+02  0.00000000000E+00 0.  1.
          2    1    1    2  502    0  0.27698548973E+02 -0.25206155613E+01 -0.50000143741E+03  0.50077440084E+03  0.00000000000E+00 0. -1.
</event>
<event>
 4    1  0.6688462E+003  0.2033569E+02  0.7546771E-02  0.1528964E+00
          2   -1    0    0  502    0  0.00000000000E+00  0.00000000000E+00  0.22690311240E+03  0.22690311240E+03  0.00000000000E+00 0. -1.
          2   -1    0    0  501    0 -0.00000000000E+00 -0.00000000000E+00 -0.32085640588E+03  0.32085640588E+03  0.00000000000E+00 0. -1.
          2    1    1    2  501    0 -0.14074516196E+02  0.14678156179E+02  0.22612415334E+03  0.22703672170E+03  0.00000000000E+00 0. -1.
          2    1    1    2  502    0  0.14074516196E+02 -0.14678156179E+02 -0.32007744683E+03  0.32072279658E+03  0.00000000000E+00 0. -1.
</event>
<event>
 4    1  0.6688462E+003  0.2208377E+02  0.7546771E-02  0.1504335E+00
          2   -1    0    0  501    0  0.00000000000E+00  0.00000000000E+00  0.67916426207E+03  0.67916426207E+03  0.00000000000E+00 0.  1.
          2   -1    0    0  502    0 -0.00000000000E+00 -0.00000000000E+00 -0.21411492245E+01  0.21411492245E+01  0.00000000000E+00 0.  1.
          2    1    1    2  501    0 -0.22489608921E+01  0.21968953135E+02  0.60795023059E+02  0.64681740513E+02  0.00000000000E+00 0.  1.
          2    1    1    2  502    0  0.22489608921E+01 -0.21968953135E+02  0.61622808979E+03  0.61662367079E+03  0.00000000000E+00 0.  1.
</event>
<event>
 4    1  0.6688462E+003  0.2466152E+02  0.7546771E-02  0.1472626E+00
          2   -1    0    0  502    0  0.00000000000E+00  0.00000000000E+00  0.90660171175E+02  0.90660171175E+02  0.00000000000E+00 0.  1.
          2   -1    0    0  501    0 -0.00000000000E+00 -0.00000000000E+00 -0.17146978412E+03  0.17146978412E+03  0.00000000000E+00 0. -1.
          2    1    1    2  501    0  0.15216717193E+02 -0.19407265910E+02  0.88070744648E+02  0.91458441465E+02  0.00000000000E+00 0.  1.
          2    1    1    2  502    0 -0.15216717193E+02  0.19407265910E+02 -0.16888035759E+03  0.17067151383E+03  0.00000000000E+00 0. -1.
</event>
<event>
 4    1  0.6688462E+003  0.8720675E+02  0.7546771E-02  0.1188037E+00
          2   -1    0    0  502    0  0.00000000000E+00  0.00000000000E+00  0.35272865089E+03  0.35272865089E+03  0.00000000000E+00 0. -1.
          2   -1    0    0  501    0 -0.00000000000E+00 -0.00000000000E+00 -0.54295339606E+03  0.54295339606E+03  0.00000000000E+00 0.  1.
          2    1    1    2  501    0  0.54196528379E+02 -0.68320965322E+02  0.34374675704E+03  0.35463622342E+03  0.00000000000E+00 0. -1.
          2    1    1    2  502    0 -0.54196528379E+02  0.68320965322E+02 -0.53397150221E+03  0.54104582353E+03  0.00000000000E+00 0.  1.
</event>
<event>
 4    1  0.6688462E+003  0.2484858E+02  0.7546771E-02  0.1470505E+00
          2   -1    0    0  501    0  0.00000000000E+00  0.00000000000E+00  0.92766304004E+03  0.92766304004E+03  0.00000000000E+00 0.  1.
          2   -1    0    0  502    0 -0.00000000000E+00 -0.00000000000E+00 -0.16471115674E+03  0.16471115674E+03  0.00000000000E+00 0. -1.
          2    1    1    2  501    0 -0.22600524482E+02 -0.10328023522E+02 -0.16360646621E+03  0.16548271077E+03  0.00000000000E+00 0. -1.
          2    1    1    2  502    0  0.22600524482E+02  0.10328023522E+02  0.92655834952E+03  0.92689148601E+03  0.00000000000E+00 0.  1.
</event>
<event>
 4    1  0.6688462E+003  0.3105469E+02  0.7546771E-02  0.1410647E+00
          2   -1    0    0  501    0  0.00000000000E+00  0.00000000000E+00  0.14754188939E+04  0.14754188939E+04  0.00000000000E+00 0. -1.
          2   -1    0    0  502    0 -0.00000000000E+00 -0.00000000000E+00 -0.15178817327E+01  0.15178817327E+01  0.00000000000E+00 0.  1.
          2    1    1    2  501    0 -0.14191929294E+02 -0.27622148750E+02  0.17972580200E+03  0.18238902890E+03  0.00000000000E+00 0.  1.
          2    1    1    2  502    0  0.14191929294E+02  0.27622148750E+02  0.12941752102E+04  0.12945477467E+04  0.00000000000E+00 0. -1.
</event>
<event>
 4    1  0.6688462E+003  0.2128266E+02  0.7546771E-02  0.1515267E+00
          2   -1    0    0  502    0  0.00000000000E+00  0.00000000000E+00  0.66929652878E+03  0.66929652878E+03  0.00000000000E+00 0. -1.
          2   -1    0    0  501    0 -0.00000000000E+00 -0.00000000000E+00 -0.78012950388E+01  0.78012950388E+01  0.00000000000E+00 0. -1.
          2    1    1    2  501    0  0.15242272317E+02  0.14853445267E+02  0.65427898834E+03  0.65462504252E+03  0.00000000000E+00 0. -1.
          2    1    1    2  502    0 -0.15242272317E+02 -0.14853445267E+02  0.72162453931E+01  0.22472781298E+02  0.00000000000E+00 0. -1.
</event>
<event>
 4    1  0.6688462E+003  0.2211454E+02  0.7546771E-02  0.1503927E+00
          2   -1    0    0  501    0  0.00000000000E+00  0.00000000000E+00  0.14641791535E+04  0.14641791535E+04  0.00000000000E+00 0.  1.
          2   -1    0    0  502    0 -0.00000000000E+00 -0.00000000000E+00 -0.68108295657E+01  0.68108295657E+01  0.00000000000E+00 0.  1.
          2    1    1    2  501    0  0.19036967104E+02  0.11253738208E+02  0.11450670641E+02  0.24903224657E+02  0.00000000000E+00 0.  1.
          2    1    1    2  502    0 -0.19036967104E+02 -0.11253738208E+02  0.14459176533E+04  0.14460867584E+04  0.00000000000E+00 0.  1.
</event>
<event>
 4    1  0.6688462E+003  0.2394777E+02  0.7546771E-02  0.1480928E+00
          2   -1    0    0  502    0  0.00000000000E+00  0.00000000000E+00  0.52379537683E+01  0.52379537683E+01  0.00000000000E+00 0.  1.
          2   -1    0    0  501    0 -0.00000000000E+00 -0.00000000000E+00 -0.12241091957E+04  0.12241091957E+04  0.00000000000E+00 0.  1.
          2    1    1    2  501    0 -0.22732636851E+02 -0.75314494385E+01 -0.22895099311E+02  0.33131270445E+02  0.00000000000E+00 0.  1.
          2    1    1    2  502    0  0.22732636851E+02  0.75314494385E+01 -0.11959761426E+04  0.11962158790E+04  0.00000000000E+00 0.  1.
</event>
<event>
 4    1  0.6688462E+003  0.2002166E+02  0.7546771E-02  0.1533705E+00
          2   -1    0    0  501    0  0.00000000000E+00  0.00000000000E+00  0.10309530091E+04  0.10309530091E+04  0.00000000000E+00 0.  1.
          2   -1    0    0  502    0 -0.00000000000E+00 -0.00000000000E+00 -0.17242718290E+03  0.17242718290E+03  0.00000000000E+00 0.  1.
          2    1    1    2  501    0  0.78334231637E+01 -0.18425640746E+02 -0.17174838052E+03  0.17291145991E+03  0.00000000000E+00 0.  1.
          2    1    1    2  502    0 -0.78334231637E+01  0.18425640746E+02  0.10302742068E+04  0.10304687321E+04  0.00000000000E+00 0.  1.
</event>
<event>
 4    1  0.6688462E+003  0.2487714E+02  0.7546771E-02  0.1470183E+00
          2   -1    0    0  501    0  0.00000000000E+00  0.00000000000E+00  0.83512585780E+03  0.83512585780E+03  0.00000000000E+00 0. -1.
          2   -1    0    0  502    0 -0.00000000000E+00 -0.00000000000E+00 -0.12601833809E+01  0.12601833809E+01  0.00000000000E+00 0.  1.
          2    1    1    2  501    0 -0.24748356468E+02 -0.25280778328E+01  0.68534255035E+03  0.68579390756E+03  0.00000000000E+00 0. -1.
          2    1    1    2  502    0  0.24748356468E+02  0.25280778328E+01  0.14852312407E+03  0.15059213362E+03  0.00000000000E+00 0.  1.
</event>
<event>
 4    1  0.6688462E+003  0.2595643E+02  0.7546771E-02  0.1458382E+00
          2   -1    0    0  502    0  0.00000000000E+00  0.00000000000E+00  0.77655147541E+02  0.77655147541E+02  0.00000000000E+00 0.  1.
          2   -1    0    0  501    0 -0.00000000000E+00 -0.00000000000E+00 -0.82864234654E+02  0.82864234654E+02  0.00000000000E+00 0. -1.
          2    1    1    2  501    0  0.17287188276E+02 -0.19362059727E+02  0.73337352142E+02  0.77795266273E+02  0.00000000000E+00 0.  1.
          2    1    1    2  502    0 -0.17287188276E+02  0.19362059727E+02 -0.78546439255E+02  0.82724115922E+02  0.00000000000E+00 0. -1.
</event>
<event>
 4    1  0.6688462E+003  0.2063653E+02  0.7546771E-02  0.1524518E+00
          2   -1    0    0  501    0  0.00000000000E+00  0.00000000000E+00  0.10815602428E+04  0.10815602428E+04  0.00000000000E+00 0. -1.
          2   -1    0    0  502    0 -0.00000000000E+00 -0.00000000000E+00 -0.14213958153E+03  0.14213958153E+03  0.00000000000E+00 0.  1.
          2    1    1    2  501    0 -0.25940058522E+01  0.20472845331E+02 -0.14129152759E+03  0.14279062305E+03  0.00000000000E+00 0.  1.
          2    1    1    2  502    0  0.25940058522E+01 -0.20472845331E+02  0.10807121889E+04  0.10809092013E+04  0.00000000000E+00 0. -1.
</event>
<event>
 4    1  0.6688462E+003  0.2059143E+02  0.7546771E-02  0.1525179E+00
          2   -1    0    0  502    0  0.00000000000E+00  0.00000000000E+00  0.33478761502E+01  0.33478761502E+01  0.00000000000E+00 0. -1.
          2   -1    0    0  501    0 -0.00000000000E+00 -0.00000000000E+00 -0.23184957254E+03  0.23184957254E+03  0.00000000000E+00 0. -1.
          2    1    1    2  501    0 -0.42435896723E+01 -0.20149413948E+02 -0.35035849045E+02  0.40638868759E+02  0.00000000000E+00 0. -1.
          2    1    1    2  502    0  0.42435896723E+01  0.20149413948E+02 -0.19346584734E+03  0.19455857993E+03  0.00000000000E+00 0. -1.
</event>
<event>
 4    1  0.6688462E+003  0.3212474E+02  0.7546771E-02  0.1401988E+00
          2   -1    0    0  501    0  0.00000000000E+00  0.00000000000E+00  0.71355617235E+02  0.71355617235E+02  0.00000000000E+00 0.  1.
          2   -1    0    0  502    0 -0.00000000000E+00 -0.00000000000E+00 -0.59142331912E+03  0.59142331912E+03  0.00000000000E+00 0.  1.
          2    1    1    2  501    0 -0.27019734878E+02  0.17376208502E+02 -0.58734631639E+03  0.58822418691E+03  0.00000000000E+00 0.  1.
          2    1    1    2  502    0  0.27019734878E+02 -0.17376208502E+02  0.67278614503E+02  0.74554749441E+02  0.00000000000E+00 0.  1.
</event>
<event>
 4    1  0.6688462E+003  0.3292053E+02  0.7546771E-02  0.1395803E+00
          2   -1    0    0  502    0  0.00000000000E+00  0.00000000000E+00  0.23239172867E+02  0.23239172867E+02  0.00000000000E+00 0. -1.
          2   -1    0    0  501    0 -0.00000000000E+00 -0.00000000000E+00 -0.84529566714E+02  0.84529566714E+02  0.00000000000E+00 0. -1.
          2    1    1    2  501    0 -0.32863222123E+02  0.19415649877E+01  0.54331319302E+01  0.33365850288E+02  0.00000000000E+00 0. -1.
          2    1    1    2  502    0  0.32863222123E+02 -0.19415649877E+01 -0.66723525777E+02  0.74402889292E+02  0.00000000000E+00 0. -1.
</event>
<event>
 4    1  0.6688462E+003  0.2315319E+02  0.7546771E-02  0.1490583E+00
          2   -1    0    0  501    0  0.00000000000E+00  0.00000000000E+00  0.20430791829E+02  0.20430791829E+02  0.00000000000E+00 0. -1.
          2   -1    0    0  502    0 -0.00000000000E+00 -0.00000000000E+00 -0.11346159430E+04  0.11346159430E+04  0.00000000000E+00 0. -1.
          2    1    1    2  501    0  0.13154742208E+02  0.19053163367E+02 -0.11278991794E+04  0.11281367954E+04  0.00000000000E+00 0. -1.
          2    1    1    2  502    0 -0.13154742208E+02 -0.19053163367E+02  0.13714028133E+02  0.26909939511E+02  0.00000000000E+00 0. -1.
</event>
<event>
 4    1  0.6688462E+003  0.4159340E+02  0.7546771E-02  0.1339393E+00
          2   -1    0    0  502    0  0.00000000000E+00  0.00000000000E+00  0.21123618842E+03  0.21123618842E+03  0.00000000000E+00 0.  1.
          2   -1    0    0  501    0 -0.00000000000E+00 -0.00000000000E+00 -0.43340276363E+02  0.43340276363E+02  0.00000000000E+00 0.  1.
          2    1    1    2  501    0  0.95099717245E+01  0.40491625166E+02  0.19858030002E+03  0.20288949412E+03  0.00000000000E+00 0.  1.
          2    1    1    2  502    0 -0.95099717245E+01 -0.40491625166E+02 -0.30684387965E+02  0.51686970656E+02  0.00000000000E+00 0.  1.
</event>
<event>
 4    1  0.6688462E+003  0.2495282E+02  0.7546771E-02  0.1469332E+00
          2   -1    0    0  501    0  0.00000000000E+00  0.00000000000E+00  0.20891348345E+02  0.20891348345E+02  0.00000000000E+00 0.  1.
          2   -1    0    0  502    0 -0.00000000000E+00 -0.00000000000E+00 -0.38572052725E+03  0.38572052725E+03  0.00000000000E+00 0. -1.
          2    1    1    2  501    0  0.14240727951E+02  0.20490113522E+02 -0.37770811356E+03  0.37853145461E+03  0.00000000000E+00 0. -1.
          2    1    1    2  502    0 -0.14240727951E+02 -0.20490113522E+02  0.12878934652E+02  0.28080420982E+02  0.00000000000E+00 0.  1.
</event>
<event>
 4    1  0.9227249E+003  0.3020620E+02  0.7546771E-02  0.1417813E+00
          2   -1    0    0  501    0  0.00000000000E+00  0.00000000000E+00  0.11617481685E+04  0.11617481685E+04  0.00000000000E+00 0.  1.
          2   -1    0    0  502    0 -0.00000000000E+00 -0.00000000000E+00 -0.38071108073E+03  0.38071108073E+03  0.00000000000E+00 0.  1.
          2    1    1    2  501    0  0.23272967184E+02 -0.19255744155E+02 -0.37991517319E+03  0.38111409513E+03  0.00000000000E+00 0.  1.
          2    1    1    2  502    0 -0.23272967184E+02  0.19255744155E+02  0.11609522610E+04  0.11613451541E+04  0.00000000000E+00 0.  1.
</event>
<event>
 4    1  0.6688462E+003  0.2317037E+02  0.7546771E-02  0.1490370E+00
          2   -1    0    0  502    0  0.00000000000E+00  0.00000000000E+00  0.24662466470E+03  0.24662466470E+03  0.00000000000E+00 0.  1.
          2   -1    0    0  501    0 -0.00000000000E+00 -0.00000000000E+00 -0.86624273578E+01  0.86624273578E+01  0.00000000000E+00 0. -1.
          2    1    1    2  501    0  0.21610304947E+02 -0.83582883014E+01  0.22942793327E+03  0.23059497572E+03  0.00000000000E+00 0.  1.
          2    1    1    2  502    0 -0.21610304947E+02  0.83582883014E+01  0.85343040732E+01  0.24692116338E+02  0.00000000000E+00 0. -1.
</event>
<event>
 4    1  0.6688462E+003  0.2016712E+02  0.7546771E-02  0.1531496E+00
          2   -1    0    0  502    0  0.00000000000E+00  0.00000000000E+00  0.58473538157E+03  0.58473538157E+03  0.00000000000E+00 0.  1.
          2   -1    0    0  501    0 -0.00000000000E+00 -0.00000000000E+00 -0.15183585450E+03  0.15183585450E+03  0.00000000000E+00 0. -1.
          2    1    1    2  501    0 -0.80664585987E+01  0.18483643981E+02  0.58389086696E+03  0.58423904129E+03  0.00000000000E+00 0.  1.
          2    1    1    2  502    0  0.80664585987E+01 -0.18483643981E+02 -0.15099133988E+03  0.15233219478E+03  0.00000000000E+00 0. -1.
</event>
<event>
 4    1  0.6688462E+003  0.2340934E+02  0.7546771E-02  0.1487421E+00
          2   -1    0    0  502    0  0.00000000000E+00  0.00000000000E+00  0.19391608834E+02  0.19391608834E+02  0.00000000000E+00 0.  1.
          2   -1    0    0  501    0 -0.00000000000E+00 -0.00000000000E+00 -0.45841326016E+03  0.45841326016E+03  0.00000000000E+00 0.  1.
          2    1    1    2  501    0 -0.17579894664E+02 -0.15457829665E+02  0.11910752409E+02  0.26265247329E+02  0.00000000000E+00 0.  1.
          2    1    1    2  502    0  0.17579894664E+02  0.15457829665E+02 -0.45093240374E+03  0.45153962167E+03  0.00000000000E+00 0.  1.
</event>
<event>
 4    1  0.6688462E+003  0.2349947E+02  0.7546771E-02  0.1486320E+00
          2   -1    0    0  501    0  0.00000000000E+00  0.00000000000E+00  0.12913281086E+01  0.12913281086E+01  0.00000000000E+00 0.  1.
          2   -1    0    0  502    0 -0.00000000000E+00 -0.00000000000E+00 -0.51653001872E+03  0.51653001872E+03  0.00000000000E+00 0.  1.
          2    1    1    2  501    0 -0.23375336077E+02  0.24122028843E+01 -0.36502467164E+03  0.36578031107E+03  0.00000000000E+00 0.  1.
          2    1    1    2  502    0  0.23375336077E+02 -0.24122028843E+01 -0.15021401898E+03  0.15204103576E+03  0.00000000000E+00 0.  1.
</event>
<event>
 4    1  0.9224721E+003  0.3079419E+02  0.7546771E-02  0.1412818E+00
          2   -1    0    0  502    0  0.00000000000E+00  0.00000000000E+00  0.11582309479E+04  0.11582309479E+04  0.00000000000E+00 0. -1.
          2   -1    0    0  501    0 -0.00000000000E+00 -0.00000000000E+00 -0.38758767365E+03  0.38758767365E+03  0.00000000000E+00 0. -1.
          2    1    1    2  501    0  0.82550117075E+00 -0.30783125586E+02  0.11574141764E+04  0.11578237595E+04  0.00000000000E+00 0. -1.
          2    1    1    2  502    0 -0.82550117075E+00  0.30783125586E+02 -0.38677090213E+03  0.38799486209E+03  0.00000000000E+00 0. -1.
</event>
<event>
 4    1  0.6688462E+003  0.5380588E+02  0.7546771E-02  0.1282464E+00
          2   -1    0    0  501    0  0.00000000000E+00  0.00000000000E+00  0.79689640554E+03  0.79689640554E+03  0.00000000000E+00 0.  1.
          2   -1    0    0  502    0 -0.00000000000E+00 -0.00000000000E+00 -0.15111842242E+02  0.15111842242E+02  0.00000000000E+00 0. -1.
          2    1    1    2  501    0 -0.27930242699E+02  0.45988850206E+02  0.37039989236E+02  0.65322535186E+02  0.00000000000E+00 0. -1.
          2    1    1    2  502    0  0.27930242699E+02 -0.45988850206E+02  0.74474457406E+03  0.74668571260E+03  0.00000000000E+00 0.  1.
</event>
<event>
 4    1  0.8752043E+003  0.2724450E+02  0.7546771E-02  0.1445167E+00
          2   -1    0    0  502    0  0.00000000000E+00  0.00000000000E+00  0.27934603957E+03  0.27934603957E+03  0.00000000000E+00 0. -1.
          2   -1    0    0  501    0 -0.00000000000E+00 -0.00000000000E+00 -0.17636014118E+04  0.17636014118E+04  0.00000000000E+00 0.  1.
          2    1    1    2  501    0  0.13437219038E+02  0.23700289695E+02  0.27857624385E+03  0.27990531653E+03  0.00000000000E+00 0. -1.
          2    1    1    2  502    0 -0.13437219038E+02 -0.23700289695E+02 -0.17628316161E+04  0.17630421349E+04  0.00000000000E+00 0.  1.
</event>
<event>
 4    1  0.6688462E+003  0.3069143E+02  0.7546771E-02  0.1413681E+00
          2   -1    0    0  502    0  0.00000000000E+00  0.00000000000E+00  0.13438937942E+03  0.13438937942E+03  0.00000000000E+00 0. -1.
          2   -1    0    0  501    0 -0.00000000000E+00 -0.00000000000E+00 -0.74172217296E+03  0.74172217296E+03  0.00000000000E+00 0. -1.
          2    1    1    2  501    0  0.12115964377E+02  0.28198715012E+02  0.13231467022E+03  0.13582759689E+03  0.00000000000E+00 0. -1.
          2    1    1    2  502    0 -0.12115964377E+02 -0.28198715012E+02 -0.73964746375E+03  0.74028395549E+03  0.00000000000E+00 0. -1.
</event>
<event>
 4    1  0.6688462E+003  0.2160888E+02  0.7546771E-02  0.1510746E+00
          2   -1    0    0  501    0  0.00000000000E+00  0.00000000000E+00  0.14836203629E+03  0.14836203629E+03  0.00000000000E+00 0. -1.
          2   -1    0    0  502    0 -0.00000000000E+00 -0.00000000000E+00 -0.11635527793E+03  0.11635527793E+03  0.00000000000E+00 0. -1.
          2    1    1    2  501    0 -0.14320280580E+02 -0.16182502691E+02 -0.11455290271E+03  0.11657320168E+03  0.00000000000E+00 0. -1.
          2    1    1    2  502    0  0.14320280580E+02  0.16182502691E+02  0.14655966107E+03  0.14814411254E+03  0.00000000000E+00 0. -1.
</event>
<event>
 4    1  0.6688462E+003  0.2430082E+02  0.7546771E-02  0.1476779E+00
          2   -1    0    0  501    0  0.00000000000E+00  0.00000000000E+00  0.17074432607E+04  0.17074432607E+04  0.00000000000E+00 0.  1.
          2   -1    0    0  502    0 -0.00000000000E+00 -0.00000000000E+00 -0.66780780946E+01  0.66780780946E+01  0.00000000000E+00 0. -1.
          2    1    1    2  501    0  0.22747327637E+02  0.85492098612E+01  0.15810456338E+02  0.28991385505E+02  0.00000000000E+00 0. -1.
          2    1    1    2  502    0 -0.22747327637E+02 -0.85492098612E+01  0.16849547262E+04  0.16851299533E+04  0.00000000000E+00 0.  1.
</event>
<event>
 4    1  0.6688462E+003  0.2019065E+02  0.7546771E-02  0.1531141E+00
          2   -1    0    0  502    0  0.00000000000E+00  0.00000000000E+00  0.24483290019E+01  0.24483290019E+01  0.00000000000E+00 0.  1.
          2   -1    0    0  501    0 -0.00000000000E+00 -0.00000000000E+00 -0.57017780904E+03  0.57017780904E+03  0.00000000000E+00 0. -1.
          2    1    1    2  501    0  0.13879801349E+02 -0.14663333265E+02 -0.42957384403E+02  0.47465767693E+02  0.00000000000E+00 0.  1.
          2    1    1    2  502    0 -0.13879801349E+02  0.14663333265E+02 -0.52477209564E+03  0.52516037035E+03  0.00000000000E+00 0. -1.
</event>
<event>
 4    1  0.6688462E+003  0.2180575E+02  0.7546771E-02  0.1508065E+00
          2   -1    0    0  501    0  0.00000000000E+00  0.00000000000E+00  0.25037258201E+02  0.25037258201E+02  0.00000000000E+00 0.  1.
          2   -1    0    0  502    0 -0.00000000000E+00 -0.00000000000E+00 -0.61418889793E+02  0.61418889793E+02  0.00000000000E+00 0.  1.
          2    1    1    2  501    0  0.21581225978E+02 -0.31211076945E+01 -0.54119306553E+02  0.58347150485E+02  0.00000000000E+00 0.  1.
          2    1    1    2  502    0 -0.21581225978E+02  0.31211076945E+01  0.17737674961E+02  0.28108997509E+02  0.00000000000E+00 0.  1.
</event>
<event>
 4    1  0.6688462E+003  0.4109119E+02  0.7546771E-02  0.1342207E+00
          2   -1    0    0  502    0  0.00000000000E+00  0.00000000000E+00  0.55637472608E+01  0.55637472608E+01  0.00000000000E+00 0. -1.
          2   -1    0    0  501    0 -0.00000000000E+00 -0.00000000000E+00 -0.70948288012E+03  0.70948288012E+03  0.00000000000E+00 0.  1.
          2    1    1    2  501    0  0.23670700471E+02 -0.33588447648E+02 -0.81502721340E+02  0.91275294916E+02  0.00000000000E+00 0. -1.
          2    1    1    2  502    0 -0.23670700471E+02  0.33588447648E+02 -0.62241641152E+03  0.62377133247E+03  0.00000000000E+00 0.  1.
</event>
<event>
 4    1  0.6688462E+003  0.2259422E+02  0.7546771E-02  0.1497657E+00
          2   -1    0    0  502    0  0.00000000000E+00  0.00000000000E+00  0.16246987178E+03  0.16246987178E+03  0.00000000000E+00 0.  1.
          2   -1    0    0  501    0 -0.00000000000E+00 -0.00000000000E+00 -0.63426753348E+03  0.63426753348E+03  0.00000000000E+00 0. -1.
          2    1    1    2  501    0  0.22452585451E+02 -0.25258953023E+01  0.16148190251E+03  0.16305490970E+03  0.00000000000E+00 0.  1.
          2    1    1    2  502    0 -0.22452585451E+02  0.25258953023E+01 -0.63327956421E+03  0.63368249556E+03  0.00000000000E+00 0. -1.
</event>
<event>
 4    1  0.6688462E+003  0.2789548E+02  0.7546771E-02  0.1438814E+00
          2   -1    0    0  501    0  0.00000000000E+00  0.00000000000E+00  0.14260020530E+04  0.14260020530E+04  0.00000000000E+00 0.  1.
          2   -1    0    0  502    0 -0.00000000000E+00 -0.00000000000E+00 -0.72370985126E+01  0.72370985126E+01  0.00000000000E+00 0.  1.
          2    1    1    2  501    0  0.59422496068E+01  0.27255228485E+02  0.20309633100E+02  0.34505637320E+02  0.00000000000E+00 0.  1.
          2    1    1    2  502    0 -0.59422496068E+01 -0.27255228485E+02  0.13984553214E+04  0.13987335142E+04  0.00000000000E+00 0.  1.
</event>
<event>
 4    1  0.6688462E+003  0.2119321E+02  0.7546771E-02  0.1516524E+00
          2   -1    0    0  502    0  0.00000000000E+00  0.00000000000E+00  0.35040902916E+01  0.35040902916E+01  0.00000000000E+00 0. -1.
          2   -1    0    0  501    0 -0.00000000000E+00 -0.00000000000E+00 -0.15635096913E+03  0.15635096913E+03  0.00000000000E+00 0. -1.
          2    1    1    2  501    0  0.20286176202E+02 -0.61337790817E+01 -0.11035092085E+03  0.11236760175E+03  0.00000000000E+00 0. -1.
          2    1    1    2  502    0 -0.20286176202E+02  0.61337790817E+01 -0.42495957989E+02  0.47487457672E+02  0.00000000000E+00 0. -1.
</event>
<event>
 4    1  0.6688462E+003  0.2233697E+02  0.7546771E-02  0.1500996E+00
          2   -1    0    0  501    0  0.00000000000E+00  0.00000000000E+00  0.26960007281E+03  0.26960007281E+03  0.00000000000E+00 0. -1.
          2   -1    0    0  502    0 -0.00000000000E+00 -0.00000000000E+00 -0.12216449981E+02  0.12216449981E+02  0.00000000000E+00 0. -1.
          2    1    1    2  501    0  0.13419193931E+02  0.17856809143E+02 -0.11052821059E+01  0.22364302964E+02  0.00000000000E+00 0. -1.
          2    1    1    2  502    0 -0.13419193931E+02 -0.17856809143E+02  0.25848890494E+03  0.25945221983E+03  0.00000000000E+00 0. -1.
</event>
<event>
 4    1  0.6688462E+003  0.2552669E+02  0.7546771E-02  0.1462997E+00
          2   -1    0    0  501    0  0.00000000000E+00  0.00000000000E+00  0.32760790814E+03  0.32760790814E+03  0.00000000000E+00 0. -1.
          2   -1    0    0  502    0 -0.00000000000E+00 -0.00000000000E+00 -0.24047569220E+01  0.24047569220E+01  0.00000000000E+00 0. -1.
          2    1    1    2  501    0  0.20788137912E+02  0.14814364702E+02  0.93991982495E+02  0.97396636763E+02  0.00000000000E+00 0. -1.
          2    1    1    2  502    0 -0.20788137912E+02 -0.14814364702E+02  0.23121116873E+03  0.23261602830E+03  0.00000000000E+00 0. -1.
</event>
<event>
 4    1  0.6688462E+003  0.2043616E+02  0.7546771E-02  0.1527469E+00
          2   -1    0    0  501    0  0.00000000000E+00  0.00000000000E+00  0.45850752840E+03  0.45850752840E+03  0.00000000000E+00 0. -1.
          2   -1    0    0  502    0 -0.00000000000E+00 -0.00000000000E+00 -0.12318821768E+01  0.12318821768E+01  0.00000000000E+00 0. -1.
          2    1    1    2  501    0 -0.16369898703E+02  0.12233688597E+02  0.11129302149E+03  0.11315375978E+03  0.00000000000E+00 0. -1.
          2    1    1    2  502    0  0.16369898703E+02 -0.12233688597E+02  0.34598262474E+03  0.34658565080E+03  0.00000000000E+00 0. -1.
</event>
<event>
 4    1  0.6688462E+003  0.3935023E+02  0.7546771E-02  0.1352336E+00
          2   -1    0    0  502    0  0.00000000000E+00  0.00000000000E+00  0.18147253826E+01  0.18147253826E+01  0.00000000000E+00 0. -1.
          2   -1    0    0  501    0 -0.00000000000E+00 -0.00000000000E+00 -0.27869120750E+04  0.27869120750E+04  0.00000000000E+00 0.  1.
          2    1    1    2  501    0  0.38556140318E+02 -0.78653916118E+01 -0.23109196429E+03  0.23441829344E+03  0.00000000000E+00 0. -1.
          2    1    1    2  502    0 -0.38556140318E+02  0.78653916118E+01 -0.25540053853E+04  0.25543085069E+04  0.00000000000E+00 0.  1.
</event>
<event>
 4    1  0.6688462E+003  0.2200093E+02  0.7546771E-02  0.1505440E+00
          2   -1    0    0  502    0  0.00000000000E+00  0.00000000000E+00  0.10440335751E+02  0.10440335751E+02  0.00000000000E+00 0.  1.
          2   -1    0    0  501    0 -0.00000000000E+00 -0.00000000000E+00 -0.94622767800E+02  0.94622767800E+02  0.00000000000E+00 0.  1.
          2    1    1    2  501    0  0.17989441495E+02  0.12665739304E+02 -0.45751850310E+01  0.22471610434E+02  0.00000000000E+00 0.  1.
          2    1    1    2  502    0 -0.17989441495E+02 -0.12665739304E+02 -0.79607247018E+02  0.82591493117E+02  0.00000000000E+00 0.  1.
</event>
<event>
 4    1  0.6688462E+003  0.4738071E+02  0.7546771E-02  0.1309946E+00
          2   -1    0    0  501    0  0.00000000000E+00  0.00000000000E+00  0.98525036686E+02  0.98525036686E+02  0.00000000000E+00 0. -1.
          2   -1    0    0  502    0 -0.00000000000E+00 -0.00000000000E+00 -0.55168082007E+03  0.55168082007E+03  0.00000000000E+00 0.  1.
          2    1    1    2  501    0 -0.28130826013E+02 -0.38125953744E+02 -0.54489636601E+03  0.54695244895E+03  0.00000000000E+00 0.  1.
          2    1    1    2  502    0  0.28130826013E+02  0.38125953744E+02  0.91740582631E+02  0.10325340780E+03  0.00000000000E+00 0. -1.
</event>
<event>
 4    1  0.6688462E+003  0.2068468E+02  0.7546771E-02  0.1523815E+00
          2   -1    0    0  501    0  0.00000000000E+00  0.00000000000E+00  0.28491645098E+00  0.28491645098E+00  0.00000000000E+00 0.  1.
          2   -1    0    0  502    0 -0.00000000000E+00 -0.00000000000E+00 -0.16520122734E+04  0.16520122734E+04  0.00000000000E+00 0.  1.
          2    1    1    2  501    0 -0.16626962009E+02  0.12304473192E+02 -0.10750731333E+04  0.10752721041E+04  0.00000000000E+00 0.  1.
          2    1    1    2  502    0  0.16626962009E+02 -0.12304473192E+02 -0.57665422368E+03  0.57702508577E+03  0.00000000000E+00 0.  1.
</event>
<event>
 4    1  0.7375770E+003  0.2560988E+02  0.7546771E-02  0.1462095E+00
          2   -1    0    0  502    0  0.00000000000E+00  0.00000000000E+00  0.62677929744E+03  0.62677929744E+03  0.00000000000E+00 0. -1.
          2   -1    0    0  501    0 -0.00000000000E+00 -0.00000000000E+00 -0.29147814762E+03  0.29147814762E+03  0.00000000000E+00 0.  1.
          2    1    1    2  501    0 -0.10649115716E+02  0.23290818072E+02  0.62595442050E+03  0.62647809412E+03  0.00000000000E+00 0. -1.
          2    1    1    2  502    0  0.10649115716E+02 -0.23290818072E+02 -0.29065327069E+03  0.29177935094E+03  0.00000000000E+00 0.  1.
</event>
<event>
 4    1  0.6688462E+003  0.2139773E+02  0.7546771E-02  0.1513661E+00
          2   -1    0    0  502    0  0.00000000000E+00  0.00000000000E+00  0.38756487028E+00  0.38756487028E+00  0.00000000000E+00 0. -1.
          2   -1    0    0  501    0 -0.00000000000E+00 -0.00000000000E+00 -0.14089753247E+04  0.14089753247E+04  0.00000000000E+00 0. -1.
          2    1    1    2  501    0  0.19458068263E+02 -0.89020481080E+01 -0.42107700181E+03  0.42162033198E+03  0.00000000000E+00 0. -1.
          2    1    1    2  502    0 -0.19458068263E+02  0.89020481080E+01 -0.98751075804E+03  0.98774255761E+03  0.00000000000E+00 0. -1.
</event>
<event>
 4    1  0.6688462E+003  0.2520208E+02  0.7546771E-02  0.1466555E+00
          2   -1    0    0  501    0  0.00000000000E+00  0.00000000000E+00  0.28589019623E+01  0.28589019623E+01  0.00000000000E+00 0. -1.
          2   -1    0    0  502    0 -0.00000000000E+00 -0.00000000000E+00 -0.42553861957E+03  0.42553861957E+03  0.00000000000E+00 0. -1.
          2    1    1    2  501    0  0.54428525201E+01 -0.24607320802E+02 -0.35941969345E+03  0.36030218001E+03  0.00000000000E+00 0. -1.
          2    1    1    2  502    0 -0.54428525201E+01  0.24607320802E+02 -0.63260024163E+02  0.68095341527E+02  0.00000000000E+00 0. -1.
</event>
<event>
 4    1  0.6688462E+003  0.2510270E+02  0.7546771E-02  0.1467658E+00
          2   -1    0    0  501    0  0.00000000000E+00  0.00000000000E+00  0.19081037198E+03  0.19081037198E+03  0.00000000000E+00 0. -1.
          2   -1    0    0  502    0 -0.00000000000E+00 -0.00000000000E+00 -0.88903993915E+02  0.88903993915E+02  0.00000000000E+00 0. -1.
          2    1    1    2  501    0  0.16611430642E+02  0.18820355403E+02 -0.86281812102E+02  0.89859315071E+02  0.00000000000E+00 0. -1.
          2    1    1    2  502    0 -0.16611430642E+02 -0.18820355403E+02  0.18818819017E+03  0.18985505083E+03  0.00000000000E+00 0. -1.
</event>
<event>
 4    1  0.6688462E+003  0.2711560E+02  0.7546771E-02  0.1446450E+00
          2   -1    0    0  501    0  0.00000000000E+00  0.00000000000E+00  0.36194086490E+02  0.36194086490E+02  0.00000000000E+00 0. -1.
          2   -1    0    0  502    0 -0.00000000000E+00 -0.00000000000E+00 -0.78584014817E+03  0.78584014817E+03  0.00000000000E+00 0.  1.
          2    1    1    2  501    0  0.21010880276E+01  0.27034074131E+02 -0.78049289467E+03  0.78096377276E+03  0.00000000000E+00 0.  1.
          2    1    1    2  502    0 -0.21010880276E+01 -0.27034074131E+02  0.30846832990E+02  0.41070461898E+02  0.00000000000E+00 0. -1.
</event>
<event>
 4    1  0.6688462E+003  0.2081094E+02  0.7546771E-02  0.1521981E+00
          2   -1    0    0  501    0  0.00000000000E+00  0.00000000000E+00  0.23367744680E+03  0.23367744680E+03  0.00000000000E+00 0. -1.
          2   -1    0    0  502    0 -0.00000000000E+00 -0.00000000000E+00 -0.44632586848E+01  0.44632586848E+01  0.00000000000E+00 0. -1.
          2    1    1    2  501    0 -0.12246696114E+02 -0.16825985811E+02  0.23555622923E+02  0.31431874514E+02  0.00000000000E+00 0. -1.
          2    1    1    2  502    0  0.12246696114E+02  0.16825985811E+02  0.20565856519E+03  0.20670883097E+03  0.00000000000E+00 0. -1.
</event>
<event>
 4    1  0.6688462E+003  0.2209836E+02  0.7546771E-02  0.1504141E+00
          2   -1    0    0  502    0  0.00000000000E+00  0.00000000000E+00  0.11008714280E+04  0.11008714280E+04  0.00000000000E+00 0. -1.
          2   -1    0    0  501    0 -0.00000000000E+00 -0.00000000000E+00 -0.47060234152E+00  0.47060234152E+00  0.00000000000E+00 0. -1.
          2    1    1    2  501    0  0.21870887300E+02  0.31625556834E+01  0.68212699831E+03  0.68248485646E+03  0.00000000000E+00 0. -1.
          2    1    1    2  502    0 -0.21870887300E+02 -0.31625556834E+01  0.41827382730E+03  0.41885717384E+03  0.00000000000E+00 0. -1.
</event>
<event>
 4    1  0.6688462E+003  0.2107846E+02  0.7546771E-02  0.1518148E+00
          2   -1    0    0  501    0  0.00000000000E+00  0.00000000000E+00  0.12952536124E+03  0.12952536124E+03  0.00000000000E+00 0.  1.
          2   -1    0    0  502    0 -0.00000000000E+00 -0.00000000000E+00 -0.30829750668E+02  0.30829750668E+02  0.00000000000E+00 0.  1.
          2    1    1    2  501    0 -0.73785671035E+01 -0.19744825974E+02 -0.26237837881E+02  0.33655988203E+02  0.00000000000E+00 0.  1.
          2    1    1    2  502    0  0.73785671035E+01  0.19744825974E+02  0.12493344845E+03  0.12669912371E+03  0.00000000000E+00 0.  1.
</event>
<event>
 4    1  0.6688462E+003  0.2823234E+02  0.7546771E-02  0.1435607E+00
          2   -1    0    0  502    0  0.00000000000E+00  0.00000000000E+00  0.68407509420E+02  0.68407509420E+02  0.00000000000E+00 0. -1.
          2   -1    0    0  501    0 -0.00000000000E+00 -0.00000000000E+00 -0.14237747519E+04  0.14237747519E+04  0.00000000000E+00 0.  1.
          2    1    1    2  501    0  0.70226527184E+01 -0.27344967009E+02  0.65348352493E+02  0.71186178753E+02  0.00000000000E+00 0. -1.
          2    1    1    2  502    0 -0.70226527184E+01  0.27344967009E+02 -0.14207155950E+04  0.14209960826E+04  0.00000000000E+00 0.  1.
</event>
<event>
 4    1  0.6688462E+003  0.2226562E+02  0.7546771E-02  0.1501932E+00
          2   -1    0    0  501    0  0.00000000000E+00  0.00000000000E+00  0.33347236359E+01  0.33347236359E+01  0.00000000000E+00 0.  1.
          2   -1    0    0  502    0 -0.00000000000E+00 -0.00000000000E+00 -0.63112775060E+03  0.63112775060E+03  0.00000000000E+00 0.  1.
          2    1    1    2  501    0  0.16461832751E+02  0.14992195500E+02 -0.59125984323E+03  0.59167893328E+03  0.00000000000E+00 0.  1.
          2    1    1    2  502    0 -0.16461832751E+02 -0.14992195500E+02 -0.36533183725E+02  0.42783540953E+02  0.00000000000E+00 0.  1.
</event>
<event>
 4    1  0.6688462E+003  0.4761312E+02  0.7546771E-02  0.1308867E+00
          2   -1    0    0  501    0  0.00000000000E+00  0.00000000000E+00  0.47044612356E+03  0.47044612356E+03  0.00000000000E+00 0. -1.
          2   -1    0    0  502    0 -0.00000000000E+00 -0.00000000000E+00 -0.48280139025E+01  0.48280139025E+01  0.00000000000E+00 0.  1.
          2    1    1    2  501    0 -0.36689076349E+02 -0.30346677251E+02  0.22245576987E+03  0.22749412892E+03  0.00000000000E+00 0.  1.
          2    1    1    2  502    0  0.36689076349E+02  0.30346677251E+02  0.24316233979E+03  0.24778000854E+03  0.00000000000E+00 0. -1.
</event>
<event>
 4    1  0.6688462E+003  0.2106715E+02  0.7546771E-02  0.1518308E+00
          2   -1    0    0  502    0  0.00000000000E+00  0.00000000000E+00  0.11250054220E+03  0.11250054220E+03  0.00000000000E+00 0.  1.
          2   -1    0    0  501    0 -0.00000000000E+00 -0.00000000000E+00 -0.40362789661E+03  0.40362789661E+03  0.00000000000E+00 0. -1.
          2    1    1    2  501    0 -0.20904848001E+02  0.26099889397E+01  0.11123627577E+03  0.11321366419E+03  0.00000000000E+00 0.  1.
          2    1    1    2  502    0  0.20904848001E+02 -0.26099889397E+01 -0.40236363018E+03  0.40291477462E+03  0.00000000000E+00 0. -1.
</event>
<event>
 4    1  0.6688462E+003  0.3520224E+02  0.7546771E-02  0.1379147E+00
          2   -1    0    0  501    0  0.00000000000E+00  0.00000000000E+00  0.13265797188E+01  0.13265797188E+01  0.00000000000E+00 0. -1.
          2   -1    0    0  502    0 -0.00000000000E+00 -0.00000000000E+00 -0.11405349924E+04  0.11405349924E+04  0.00000000000E+00 0. -1.
          2    1    1    2  501    0 -0.24610175221E+02  0.25170154373E+02 -0.81248303721E+03  0.81324527859E+03  0.00000000000E+00 0. -1.
          2    1    1    2  502    0  0.24610175221E+02 -0.25170154373E+02 -0.32672537547E+03  0.32861629353E+03  0.00000000000E+00 0. -1.
</event>
<event>
 4    1  0.6688462E+003  0.2074498E+02  0.7546771E-02  0.1522937E+00
          2   -1    0    0  501    0  0.00000000000E+00  0.00000000000E+00  0.16130602541E+01  0.16130602541E+01  0.00000000000E+00 0. -1.
          2   -1    0    0  502    0 -0.00000000000E+00 -0.00000000000E+00 -0.10965855258E+04  0.10965855258E+04  0.00000000000E+00 0. -1.
          2    1    1    2  501    0  0.20733206130E+02 -0.69896002964E+00 -0.10251410864E+04  0.10253509650E+04  0.00000000000E+00 0. -1.
          2    1    1    2  502    0 -0.20733206130E+02  0.69896002964E+00 -0.69831379200E+02  0.72847621118E+02  0.00000000000E+00 0. -1.
</event>
<event>
 4    1  0.6688462E+003  0.2661394E+02  0.7546771E-02  0.1451525E+00
          2   -1    0    0  502    0  0.00000000000E+00  0.00000000000E+00  0.15845953463E+04  0.15845953463E+04  0.00000000000E+00 0.  1.
          2   -1    0    0  501    0 -0.00000000000E+00 -0.00000000000E+00 -0.63139263614E+00  0.63139263614E+00  0.00000000000E+00 0. -1.
          2    1    1    2  501    0 -0.30080084381E+01  0.26443405180E+02  0.12203258756E+04  0.12206160512E+04  0.00000000000E+00 0.  1.
          2    1    1    2  502    0  0.30080084381E+01 -0.26443405180E+02  0.36363807808E+03  0.36461068775E+03  0.00000000000E+00 0. -1.
</event>
<event>
 4    1  0.6688462E+003  0.2413475E+02  0.7546771E-02  0.1478720E+00
          2   -1    0    0  502    0  0.00000000000E+00  0.00000000000E+00  0.11236532215E+03  0.11236532215E+03  0.00000000000E+00 0.  1.
          2   -1    0    0  501    0 -0.00000000000E+00 -0.00000000000E+00 -0.15482338637E+04  0.15482338637E+04  0.00000000000E+00 0.  1.
          2    1    1    2  501    0 -0.18594568933E+02 -0.15385972892E+02  0.11097413499E+03  0.11356823848E+03  0.00000000000E+00 0.  1.
          2    1    1    2  502    0  0.18594568933E+02  0.15385972892E+02 -0.15468426765E+04  0.15470309474E+04  0.00000000000E+00 0.  1.
</event>
<event>
 4    1  0.6688462E+003  0.2061959E+02  0.7546771E-02  0.1524766E+00
          2   -1    0    0  502    0  0.00000000000E+00  0.00000000000E+00  0.23596372502E+02  0.23596372502E+02  0.00000000000E+00 0. -1.
          2   -1    0    0  501    0 -0.00000000000E+00 -0.00000000000E+00 -0.73964429952E+02  0.73964429952E+02  0.00000000000E+00 0. -1.
          2    1    1    2  501    0 -0.14083273362E+02 -0.15060833554E+02  0.17240674009E+02  0.26877651241E+02  0.00000000000E+00 0. -1.
          2    1    1    2  502    0  0.14083273362E+02  0.15060833554E+02 -0.67608731459E+02  0.70683151213E+02  0.00000000000E+00 0. -1.
</event>
<event>
 4    1  0.6688462E+003  0.2580489E+02  0.7546771E-02  0.1459997E+00
          2   -1    0    0  502    0  0.00000000000E+00  0.00000000000E+00  0.96407140871E+03  0.96407140871E+03  0.00000000000E+00 0.  1.
          2   -1    0    0  501    0 -0.00000000000E+00 -0.00000000000E+00 -0.42448492146E+01  0.42448492146E+01  0.00000000000E+00 0.  1.
          2    1    1    2  501    0  0.24791299970E+02  0.71612870938E+01  0.92293333414E+03  0.92329401160E+03  0.00000000000E+00 0.  1.
          2    1    1    2  502    0 -0.24791299970E+02 -0.71612870938E+01  0.36893225350E+02  0.45022246320E+02  0.00000000000E+00 0.  1.
</event>
<event>
 4    1  0.7691310E+003  0.3641644E+02  0.7546771E-02  0.1370870E+00
          2   -1    0    0  502    0  0.00000000000E+00  0.00000000000E+00  0.58287971250E+03  0.58287971250E+03  0.00000000000E+00 0.  1.
          2   -1    0    0  501    0 -0.00000000000E+00 -0.00000000000E+00 -0.63939086769E+03  0.63939086769E+03  0.00000000000E+00 0.  1.
          2    1    1    2  501    0  0.36229426729E+02  0.36858665702E+01  0.58179142462E+03  0.58293002903E+03  0.00000000000E+00 0.  1.
          2    1    1    2  502    0 -0.36229426729E+02 -0.36858665702E+01 -0.63830257981E+03  0.63934055117E+03  0.00000000000E+00 0.  1.
</event>
<event>
 4    1  0.6688462E+003  0.2878703E+02  0.7546771E-02  0.1430438E+00
          2   -1    0    0  502    0  0.00000000000E+00  0.00000000000E+00  0.31701043025E+02  0.31701043025E+02  0.00000000000E+00 0.  1.
          2   -1    0    0  501    0 -0.00000000000E+00 -0.00000000000E+00 -0.46262723297E+02  0.46262723297E+02  0.00000000000E+00 0.  1.
          2    1    1    2  501    0 -0.12366956234E+02  0.25995215599E+02  0.18427924532E+02  0.34180129360E+02  0.00000000000E+00 0.  1.
          2    1    1    2  502    0  0.12366956234E+02 -0.25995215599E+02 -0.32989604804E+02  0.43783636962E+02  0.00000000000E+00 0.  1.
</event>
<event>
 4    1  0.6688462E+003  0.3510138E+02  0.7546771E-02  0.1379852E+00
          2   -1    0    0  501    0  0.00000000000E+00  0.00000000000E+00  0.26181098658E+04  0.26181098658E+04  0.00000000000E+00 0. -1.
          2   -1    0    0  502    0 -0.00000000000E+00 -0.00000000000E+00 -0.82911228672E+00  0.82911228672E+00  0.00000000000E+00 0.  1.
          2    1    1    2  501    0  0.23970609073E+02 -0.25642086789E+02  0.44757697817E+03  0.44895128700E+03  0.00000000000E+00 0.  1.
          2    1    1    2  502    0 -0.23970609073E+02  0.25642086789E+02  0.21697037754E+04  0.21699876911E+04  0.00000000000E+00 0. -1.
</event>
<event>
 4    1  0.6688462E+003  0.2340588E+02  0.7546771E-02  0.1487463E+00
          2   -1    0    0  501    0  0.00000000000E+00  0.00000000000E+00  0.76745145427E+03  0.76745145427E+03  0.00000000000E+00 0.  1.
          2   -1    0    0  502    0 -0.00000000000E+00 -0.00000000000E+00 -0.35092703202E+02  0.35092703202E+02  0.00000000000E+00 0.  1.
          2    1    1    2  501    0 -0.19009156379E+02  0.13656028109E+02 -0.30990504685E+02  0.38836149534E+02  0.00000000000E+00 0.  1.
          2    1    1    2  502    0  0.19009156379E+02 -0.13656028109E+02  0.76334925576E+03  0.76370800794E+03  0.00000000000E+00 0.  1.
</event>
<event>
 4    1  0.6688462E+003  0.2230109E+02  0.7546771E-02  0.1501466E+00
          2   -1    0    0  502    0  0.00000000000E+00  0.00000000000E+00  0.12309301871E+03  0.12309301871E+03  0.00000000000E+00 0.  1.
          2   -1    0    0  501    0 -0.00000000000E+00 -0.00000000000E+00 -0.66793059571E+01  0.66793059571E+01  0.00000000000E+00 0.  1.
          2    1    1    2  501    0 -0.21710628990E+02  0.50977512929E+01  0.98992071527E+02  0.10147299495E+03  0.00000000000E+00 0.  1.
          2    1    1    2  502    0  0.21710628990E+02 -0.50977512929E+01  0.17421641229E+02  0.28299329718E+02  0.00000000000E+00 0.  1.
</event>
<event>
 4    1  0.6688462E+003  0.3627191E+02  0.7546771E-02  0.1371835E+00
          2   -1    0    0  501    0  0.00000000000E+00  0.00000000000E+00  0.89107353755E+02  0.89107353755E+02  0.00000000000E+00 0. -1.
          2   -1    0    0  502    0 -0.00000000000E+00 -0.00000000000E+00 -0.85091513044E+03  0.85091513044E+03  0.00000000000E+00 0.  1.
          2    1    1    2  501    0 -0.36183657933E+02 -0.25286791837E+01 -0.84681954893E+03  0.84759601213E+03  0.00000000000E+00 0.  1.
          2    1    1    2  502    0  0.36183657933E+02  0.25286791837E+01  0.85011772243E+02  0.92426472072E+02  0.00000000000E+00 0. -1.
</event>
<event>
 4    1  0.6688462E+003  0.2392451E+02  0.7546771E-02  0.1481204E+00
          2   -1    0    0  501    0  0.00000000000E+00  0.00000000000E+00  0.11553392496E+04  0.11553392496E+04  0.00000000000E+00 0.  1.
          2   -1    0    0  502    0 -0.00000000000E+00 -0.00000000000E+00 -0.59797068125E+00  0.59797068125E+00  0.00000000000E+00 0.  1.
          2    1    1    2  501    0 -0.23541765320E+02  0.42623272669E+01  0.33802457406E+03  0.33887017399E+03  0.00000000000E+00 0.  1.
          2    1    1    2  502    0  0.23541765320E+02 -0.42623272669E+01  0.81671670483E+03  0.81706704627E+03  0.00000000000E+00 0.  1.
</event>
<event>
 4    1  0.6688462E+003  0.2169307E+02  0.7546771E-02  0.1509595E+00
          2   -1    0    0  502    0  0.00000000000E+00  0.00000000000E+00  0.25242686781E+03  0.25242686781E+03  0.00000000000E+00 0. -1.
          2   -1    0    0  501    0 -0.00000000000E+00 -0.00000000000E+00 -0.45182932020E+01  0.45182932020E+01  0.00000000000E+00 0.  1.
          2    1    1    2  501    0 -0.31015259684E+01  0.21470205213E+02  0.22241805793E+03  0.22347344735E+03  0.00000000000E+00 0. -1.
          2    1    1    2  502    0  0.31015259684E+01 -0.21470205213E+02  0.25490516677E+02  0.33471713666E+02  0.00000000000E+00 0.  1.
</event>
<event>
 4    1  0.6688462E+003  0.2148694E+02  0.7546771E-02  0.1512425E+00
          2   -1    0    0  502    0  0.00000000000E+00  0.00000000000E+00  0.44628819852E+02  0.44628819852E+02  0.00000000000E+00 0.  1.
          2   -1    0    0  501    0 -0.00000000000E+00 -0.00000000000E+00 -0.12435816382E+02  0.12435816382E+02  0.00000000000E+00 0. -1.
          2    1    1    2  501    0 -0.97793665518E+01 -0.19132504267E+02  0.27795522273E+02  0.35132318286E+02  0.00000000000E+00 0.  1.
          2    1    1    2  502    0  0.97793665518E+01  0.19132504267E+02  0.43974811971E+01  0.21932317948E+02  0.00000000000E+00 0. -1.
</event>
<event>
 4    1  0.6688462E+003  0.2794464E+02  0.7546771E-02  0.1438343E+00
          2   -1    0    0  502    0  0.00000000000E+00  0.00000000000E+00  0.10008170519E+02  0.10008170519E+02  0.00000000000E+00 0. -1.
          2   -1    0    0  501    0 -0.00000000000E+00 -0.00000000000E+00 -0.96328823338E+03  0.96328823338E+03  0.00000000000E+00 0.  1.
          2    1    1    2  501    0  0.18596660846E+02 -0.20858259948E+02 -0.10117273640E+02  0.29719724571E+02  0.00000000000E+00 0. -1.
          2    1    1    2  502    0 -0.18596660846E+02  0.20858259948E+02 -0.94316278922E+03  0.94357667933E+03  0.00000000000E+00 0.  1.
</event>
<event>
 4    1  0.6688462E+003  0.2028389E+02  0.7546771E-02  0.1529739E+00
          2   -1    0    0  502    0  0.00000000000E+00  0.00000000000E+00  0.15975934874E+01  0.15975934874E+01  0.00000000000E+00 0.  1.
          2   -1    0    0  501    0 -0.00000000000E+00 -0.00000000000E+00 -0.60171215224E+03  0.60171215224E+03  0.00000000000E+00 0. -1.
          2    1    1    2  501    0 -0.74354048284E+01 -0.18871966428E+02 -0.71914397224E+02  0.74720257561E+02  0.00000000000E+00 0.  1.
          2    1    1    2  502    0  0.74354048284E+01  0.18871966428E+02 -0.52820016153E+03  0.52858948817E+03  0.00000000000E+00 0. -1.
</event>
<event>
 4    1  0.6688462E+003  0.2442634E+02  0.7546771E-02  0.1475324E+00
          2   -1    0    0  502    0  0.00000000000E+00  0.00000000000E+00  0.23614944664E+02  0.23614944664E+02  0.00000000000E+00 0.  1.
          2   -1    0    0  501    0 -0.00000000000E+00 -0.00000000000E+00 -0.76150503846E+03  0.76150503846E+03  0.00000000000E+00 0.  1.
          2    1    1    2  501    0 -0.23300598278E+02  0.73299648325E+01  0.17047729725E+02  0.29787100452E+02  0.00000000000E+00 0.  1.
          2    1    1    2  502    0  0.23300598278E+02 -0.73299648325E+01 -0.75493782352E+03  0.75533288267E+03  0.00000000000E+00 0.  1.
</event>
<event>
 4    1  0.6688462E+003  0.2072868E+02  0.7546771E-02  0.1523174E+00
          2   -1    0    0  502    0  0.00000000000E+00  0.00000000000E+00  0.39995398161E+02  0.39995398161E+02  0.00000000000E+00 0. -1.
          2   -1    0    0  501    0 -0.00000000000E+00 -0.00000000000E+00 -0.90519305115E+02  0.90519305115E+02  0.00000000000E+00 0.  1.
          2    1    1    2  501    0 -0.20677377444E+02  0.14575315758E+01  0.36000624578E+02  0.41541825987E+02  0.00000000000E+00 0. -1.
          2    1    1    2  502    0  0.20677377444E+02 -0.14575315758E+01 -0.86524531532E+02  0.88972877289E+02  0.00000000000E+00 0.  1.
</event>
<event>
 4    1  0.6688462E+003  0.3151839E+02  0.7546771E-02  0.1406845E+00
          2   -1    0    0  501    0  0.00000000000E+00  0.00000000000E+00  0.55050678917E+02  0.55050678917E+02  0.00000000000E+00 0. -1.
          2   -1    0    0  502    0 -0.00000000000E+00 -0.00000000000E+00 -0.28501757476E+02  0.28501757476E+02  0.00000000000E+00 0. -1.
          2    1    1    2  501    0  0.22609459837E+02 -0.21959535799E+02 -0.12029267113E+02  0.33735917861E+02  0.00000000000E+00 0. -1.
          2    1    1    2  502    0 -0.22609459837E+02  0.21959535799E+02  0.38578188554E+02  0.49816518533E+02  0.00000000000E+00 0. -1.
</event>
<event>
 4    1  0.6688462E+003  0.2597900E+02  0.7546771E-02  0.1458143E+00
          2   -1    0    0  502    0  0.00000000000E+00  0.00000000000E+00  0.18732559718E+02  0.18732559718E+02  0.00000000000E+00 0. -1.
          2   -1    0    0  501    0 -0.00000000000E+00 -0.00000000000E+00 -0.10534242335E+04  0.10534242335E+04  0.00000000000E+00 0. -1.
          2    1    1    2  501    0  0.13206671078E+02 -0.22371683417E+02  0.94854794788E+01  0.27656512810E+02  0.00000000000E+00 0. -1.
          2    1    1    2  502    0 -0.13206671078E+02  0.22371683417E+02 -0.10441771533E+04  0.10445002804E+04  0.00000000000E+00 0. -1.
</event>
<event>
 4    1  0.6688462E+003  0.4243908E+02  0.7546771E-02  0.1334757E+00
          2   -1    0    0  501    0  0.00000000000E+00  0.00000000000E+00  0.92116125429E+01  0.92116125429E+01  0.00000000000E+00 0. -1.
          2   -1    0    0  502    0 -0.00000000000E+00 -0.00000000000E+00 -0.12259518489E+04  0.12259518489E+04  0.00000000000E+00 0.  1.
          2    1    1    2  501    0 -0.41816773948E+02  0.72410689953E+01 -0.11745662344E+04  0.11753326825E+04  0.00000000000E+00 0.  1.
          2    1    1    2  502    0  0.41816773948E+02 -0.72410689953E+01 -0.42174001988E+02  0.59830778930E+02  0.00000000000E+00 0. -1.
</event>
<event>
 4    1  0.6688462E+003  0.2051130E+02  0.7546771E-02  0.1526358E+00
          2   -1    0    0  502    0  0.00000000000E+00  0.00000000000E+00  0.78457885130E+01  0.78457885130E+01  0.00000000000E+00 0. -1.
          2   -1    0    0  501    0 -0.00000000000E+00 -0.00000000000E+00 -0.70380104041E+02  0.70380104041E+02  0.00000000000E+00 0. -1.
          2    1    1    2  501    0  0.20840399042E+01 -0.20405150700E+02 -0.12181934603E+02  0.23856087862E+02  0.00000000000E+00 0. -1.
          2    1    1    2  502    0 -0.20840399042E+01  0.20405150700E+02 -0.50352380925E+02  0.54369804692E+02  0.00000000000E+00 0. -1.
</event>
<event>
 4    1  0.6688462E+003  0.2245477E+02  0.7546771E-02  0.1499461E+00
          2   -1    0    0  502    0  0.00000000000E+00  0.00000000000E+00  0.78520762357E+03  0.78520762357E+03  0.00000000000E+00 0. -1.
          2   -1    0    0  501    0 -0.00000000000E+00 -0.00000000000E+00 -0.28994591243E+01  0.28994591243E+01  0.00000000000E+00 0.  1.
          2    1    1    2  501    0  0.93885179341E+01 -0.20397851894E+02  0.73884456465E+03  0.73918570559E+03  0.00000000000E+00 0. -1.
          2    1    1    2  502    0 -0.93885179341E+01  0.20397851894E+02  0.43463599795E+02  0.48921377107E+02  0.00000000000E+00 0.  1.
</event>
<event>
 4    1  0.6688462E+003  0.2015176E+02  0.7546771E-02  0.1531728E+00
          2   -1    0    0  501    0  0.00000000000E+00  0.00000000000E+00  0.23609449477E+01  0.23609449477E+01  0.00000000000E+00 0. -1.
          2   -1    0    0  502    0 -0.00000000000E+00 -0.00000000000E+00 -0.31436549026E+03  0.31436549026E+03  0.00000000000E+00 0. -1.
          2    1    1    2  501    0 -0.19294100708E+02  0.58164370789E+01 -0.26257162233E+03  0.26334378693E+03  0.00000000000E+00 0. -1.
          2    1    1    2  502    0  0.19294100708E+02 -0.58164370789E+01 -0.49432922985E+02  0.53382648279E+02  0.00000000000E+00 0. -1.
</event>
<event>
 4    1  0.6688462E+003  0.2325396E+02  0.7546771E-02  0.1489334E+00
          2   -1    0    0  502    0  0.00000000000E+00  0.00000000000E+00  0.13295303095E+04  0.13295303095E+04  0.00000000000E+00 0.  1.
          2   -1    0    0  501    0 -0.00000000000E+00 -0.00000000000E+00 -0.27310448439E+01  0.27310448439E+01  0.00000000000E+00 0. -1.
          2    1    1    2  501    0 -0.18397552484E+02 -0.14222402109E+02  0.12779301072E+04  0.12781416610E+04  0.00000000000E+00 0.  1.
          2    1    1    2  502    0  0.18397552484E+02  0.14222402109E+02  0.48869157500E+02  0.54119693402E+02  0.00000000000E+00 0. -1.
</event>
<event>
 4    1  0.6688462E+003  0.2111109E+02  0.7546771E-02  0.1517685E+00
          2   -1    0    0  502    0  0.00000000000E+00  0.00000000000E+00  0.71622231701E+02  0.71622231701E+02  0.00000000000E+00 0. -1.
          2   -1    0    0  501    0 -0.00000000000E+00 -0.00000000000E+00 -0.86594592929E+03  0.86594592929E+03  0.00000000000E+00 0.  1.
          2    1    1    2  501    0 -0.20731839393E+02  0.39835596275E+01  0.69934872056E+02  0.73051791500E+02  0.00000000000E+00 0. -1.
          2    1    1    2  502    0  0.20731839393E+02 -0.39835596275E+01 -0.86425856965E+03  0.86451636949E+03  0.00000000000E+00 0.  1.
</event>
<event>
 4    1  0.6977348E+003  0.2247465E+02  0.7546771E-02  0.1499202E+00
          2   -1    0    0  502    0  0.00000000000E+00  0.00000000000E+00  0.57813547024E+03  0.57813547024E+03  0.00000000000E+00 0. -1.
          2   -1    0    0  501    0 -0.00000000000E+00 -0.00000000000E+00 -0.60285714245E+03  0.60285714245E+03  0.00000000000E+00 0.  1.
          2    1    1    2  501    0 -0.20096944555E+02 -0.10060954257E+02  0.57770742808E+03  0.57814443043E+03  0.00000000000E+00 0. -1.
          2    1    1    2  502    0  0.20096944555E+02  0.10060954257E+02 -0.60242910029E+03  0.60284818226E+03  0.00000000000E+00 0.  1.
</event>
<event>
 4    1  0.6688462E+003  0.2756422E+02  0.7546771E-02  0.1442021E+00
          2   -1    0    0  501    0  0.00000000000E+00  0.00000000000E+00  0.51014615501E+01  0.51014615501E+01  0.00000000000E+00 0. -1.
          2   -1    0    0  502    0 -0.00000000000E+00 -0.00000000000E+00 -0.19576129099E+03  0.19576129099E+03  0.00000000000E+00 0. -1.
          2    1    1    2  501    0  0.27539102896E+02 -0.11765159727E+01 -0.14444904856E+03  0.14705547936E+03  0.00000000000E+00 0. -1.
          2    1    1    2  502    0 -0.27539102896E+02  0.11765159727E+01 -0.46210780874E+02  0.53807273181E+02  0.00000000000E+00 0. -1.
</event>
<event>
 4    1  0.6688462E+003  0.2205232E+02  0.7546771E-02  0.1504754E+00
          2   -1    0    0  502    0  0.00000000000E+00  0.00000000000E+00  0.10575409914E+02  0.10575409914E+02  0.00000000000E+00 0. -1.
          2   -1    0    0  501    0 -0.00000000000E+00 -0.00000000000E+00 -0.15998307662E+04  0.15998307662E+04  0.00000000000E+00 0.  1.
          2    1    1    2  501    0 -0.15171308637E+02 -0.16004252740E+02 -0.10810751824E+01  0.22078800581E+02  0.00000000000E+00 0. -1.
          2    1    1    2  502    0  0.15171308637E+02  0.16004252740E+02 -0.15881742812E+04  0.15883273756E+04  0.00000000000E+00 0.  1.
</event>
<event>
 4    1  0.6688462E+003  0.2495858E+02  0.7546771E-02  0.1469267E+00
          2   -1    0    0  502    0  0.00000000000E+00  0.00000000000E+00  0.12065883542E+02  0.12065883542E+02  0.00000000000E+00 0.  1.
          2   -1    0    0  501    0 -0.00000000000E+00 -0.00000000000E+00 -0.24581285224E+03  0.24581285224E+03  0.00000000000E+00 0. -1.
          2    1    1    2  501    0  0.12620936301E+02  0.21532366340E+02 -0.22716602962E+01  0.25061749217E+02  0.00000000000E+00 0.  1.
          2    1    1    2  502    0 -0.12620936301E+02 -0.21532366340E+02 -0.23147530841E+03  0.23281698657E+03  0.00000000000E+00 0. -1.
</event>
<event>
 4    1  0.6688462E+003  0.3569929E+02  0.7546771E-02  0.1375713E+00
          2   -1    0    0  501    0  0.00000000000E+00  0.00000000000E+00  0.11126318652E+04  0.11126318652E+04  0.00000000000E+00 0.  1.
          2   -1    0    0  502    0 -0.00000000000E+00 -0.00000000000E+00 -0.24288584321E+03  0.24288584321E+03  0.00000000000E+00 0.  1.
          2    1    1    2  501    0 -0.19535163706E+02 -0.29880042609E+02 -0.24128582957E+03  0.24391246609E+03  0.00000000000E+00 0.  1.
          2    1    1    2  502    0  0.19535163706E+02  0.29880042609E+02  0.11110318515E+04  0.11116052423E+04  0.00000000000E+00 0.  1.
</event>
<event>
 4    1  0.6688462E+003  0.9446585E+02  0.7546771E-02  0.1173759E+00
          2   -1    0    0  501    0  0.00000000000E+00  0.00000000000E+00  0.10160880521E+03  0.10160880521E+03  0.00000000000E+00 0.  1.
          2   -1    0    0  502    0 -0.00000000000E+00 -0.00000000000E+00 -0.76962518573E+03  0.76962518573E+03  0.00000000000E+00 0.  1.
          2    1    1    2  501    0 -0.50494442609E+02 -0.79838011698E+02 -0.74401750767E+03  0.74999056565E+03  0.00000000000E+00 0.  1.
          2    1    1    2  502    0  0.50494442609E+02  0.79838011698E+02  0.76001127153E+02  0.12124342528E+03  0.00000000000E+00 0.  1.
</event>
<event>
 4    1  0.6688462E+003  0.4048044E+02  0.7546771E-02  0.1345693E+00
          2   -1    0    0  501    0  0.00000000000E+00  0.00000000000E+00  0.53897169382E+02  0.53897169382E+02  0.00000000000E+00 0. -1.
          2   -1    0    0  502    0 -0.00000000000E+00 -0.00000000000E+00 -0.59620619401E+03  0.59620619401E+03  0.00000000000E+00 0. -1.
          2    1    1    2  501    0  0.38681000322E+02 -0.11935077791E+02 -0.58780973662E+03  0.58920196226E+03  0.00000000000E+00 0. -1.
          2    1    1    2  502    0 -0.38681000322E+02  0.11935077791E+02  0.45500711992E+02  0.60901401130E+02  0.00000000000E+00 0. -1.
</event>
<event>
 4    1  0.6688462E+003  0.7455919E+02  0.7546771E-02  0.1217075E+00
          2   -1    0    0  501    0  0.00000000000E+00  0.00000000000E+00  0.49286199841E+03  0.49286199841E+03  0.00000000000E+00 0. -1.
          2   -1    0    0  502    0 -0.00000000000E+00 -0.00000000000E+00 -0.17482002153E+03  0.17482002153E+03  0.00000000000E+00 0. -1.
          2    1    1    2  501    0 -0.50930959180E+02 -0.54452819414E+02 -0.16387097358E+03  0.18003546353E+03  0.00000000000E+00 0. -1.
          2    1    1    2  502    0  0.50930959180E+02  0.54452819414E+02  0.48191295047E+03  0.48764655641E+03  0.00000000000E+00 0. -1.
</event>
<event>
 4    1  0.8308890E+003  0.2435453E+02  0.7546771E-02  0.1476155E+00
          2   -1    0    0  501    0  0.00000000000E+00  0.00000000000E+00  0.51226703660E+03  0.51226703660E+03  0.00000000000E+00 0.  1.
          2   -1    0    0  502    0 -0.00000000000E+00 -0.00000000000E+00 -0.62387376819E+03  0.62387376819E+03  0.00000000000E+00 0.  1.
          2    1    1    2  501    0  0.23749901132E+02 -0.53930810273E+01 -0.62334636813E+03  0.62382196001E+03  0.00000000000E+00 0.  1.
          2    1    1    2  502    0 -0.23749901132E+02  0.53930810273E+01  0.51173963653E+03  0.51231884479E+03  0.00000000000E+00 0.  1.
</event>
<event>
 4    1  0.6688462E+003  0.2263986E+02  0.7546771E-02  0.1497071E+00
          2   -1    0    0  501    0  0.00000000000E+00  0.00000000000E+00  0.48783013452E+03  0.48783013452E+03  0.00000000000E+00 0. -1.
          2   -1    0    0  502    0 -0.00000000000E+00 -0.00000000000E+00 -0.47960860011E+03  0.47960860011E+03  0.00000000000E+00 0. -1.
          2    1    1    2  501    0  0.22338510597E+01 -0.22529383849E+02 -0.47907845667E+03  0.47961310540E+03  0.00000000000E+00 0. -1.
          2    1    1    2  502    0 -0.22338510597E+01  0.22529383849E+02  0.48729999108E+03  0.48782562923E+03  0.00000000000E+00 0. -1.
</event>
<event>
 4    1  0.6688462E+003  0.2023787E+02  0.7546771E-02  0.1530430E+00
          2   -1    0    0  501    0  0.00000000000E+00  0.00000000000E+00  0.27018972465E+03  0.27018972465E+03  0.00000000000E+00 0.  1.
          2   -1    0    0  502    0 -0.00000000000E+00 -0.00000000000E+00 -0.76671820808E+03  0.76671820808E+03  0.00000000000E+00 0.  1.
          2    1    1    2  501    0  0.15535896391E+02  0.12969474160E+02 -0.76620544119E+03  0.76647266712E+03  0.00000000000E+00 0.  1.
          2    1    1    2  502    0 -0.15535896391E+02 -0.12969474160E+02  0.26967695777E+03  0.27043526561E+03  0.00000000000E+00 0.  1.
</event>
<event>
 4    1  0.6688462E+003  0.2071770E+02  0.7546771E-02  0.1523334E+00
          2   -1    0    0  502    0  0.00000000000E+00  0.00000000000E+00  0.13118066555E+04  0.13118066555E+04  0.00000000000E+00 0. -1.
          2   -1    0    0  501    0 -0.00000000000E+00 -0.00000000000E+00 -0.37049903059E+00  0.37049903059E+00  0.00000000000E+00 0. -1.
          2    1    1    2  501    0 -0.14417123652E+02 -0.14878493321E+02  0.88000734094E+03  0.88025118183E+03  0.00000000000E+00 0. -1.
          2    1    1    2  502    0  0.14417123652E+02  0.14878493321E+02  0.43142881558E+03  0.43192597274E+03  0.00000000000E+00 0. -1.
</event>
<event>
 4    1  0.6688462E+003  0.2272616E+02  0.7546771E-02  0.1495966E+00
          2   -1    0    0  502    0  0.00000000000E+00  0.00000000000E+00  0.72748136880E+00  0.72748136880E+00  0.00000000000E+00 0. -1.
          2   -1    0    0  501    0 -0.00000000000E+00 -0.00000000000E+00 -0.12844917461E+04  0.12844917461E+04  0.00000000000E+00 0. -1.
          2    1    1    2  501    0 -0.87844929741E+01 -0.20959743180E+02 -0.21210735487E+03  0.21332137291E+03  0.00000000000E+00 0. -1.
          2    1    1    2  502    0  0.87844929741E+01  0.20959743180E+02 -0.10716569099E+04  0.10718978546E+04  0.00000000000E+00 0. -1.
</event>
<event>
 4    1  0.1189930E+004  0.2739146E+02  0.7546771E-02  0.1443715E+00
          2   -1    0    0  502    0  0.00000000000E+00  0.00000000000E+00  0.59311735056E+03  0.59311735056E+03  0.00000000000E+00 0.  1.
          2   -1    0    0  501    0 -0.00000000000E+00 -0.00000000000E+00 -0.71849640956E+03  0.71849640956E+03  0.00000000000E+00 0. -1.
          2    1    1    2  501    0  0.16995249126E+02 -0.21481468159E+02  0.59253978363E+03  0.59317256102E+03  0.00000000000E+00 0.  1.
          2    1    1    2  502    0 -0.16995249126E+02  0.21481468159E+02 -0.71791884262E+03  0.71844119910E+03  0.00000000000E+00 0. -1.
</event>
<event>
 4    1  0.6688462E+003  0.2960220E+02  0.7546771E-02  0.1423085E+00
          2   -1    0    0  502    0  0.00000000000E+00  0.00000000000E+00  0.17496562003E+04  0.17496562003E+04  0.00000000000E+00 0. -1.
          2   -1    0    0  501    0 -0.00000000000E+00 -0.00000000000E+00 -0.79869841316E+00  0.79869841316E+00  0.00000000000E+00 0. -1.
          2    1    1    2  501    0  0.29602180401E+02  0.33387977246E-01  0.14089163415E+04  0.14092272874E+04  0.00000000000E+00 0. -1.
          2    1    1    2  502    0 -0.29602180401E+02 -0.33387977246E-01  0.33994116040E+03  0.34122761133E+03  0.00000000000E+00 0. -1.
</event>
<event>
 4    1  0.6688462E+003  0.2030728E+02  0.7546771E-02  0.1529389E+00
          2   -1    0    0  501    0  0.00000000000E+00  0.00000000000E+00  0.22618850901E+03  0.22618850901E+03  0.00000000000E+00 0. -1.
          2   -1    0    0  502    0 -0.00000000000E+00 -0.00000000000E+00 -0.77383964868E+03  0.77383964868E+03  0.00000000000E+00 0.  1.
          2    1    1    2  501    0  0.18893631327E+02  0.74442253095E+01 -0.77325027539E+03  0.77351688681E+03  0.00000000000E+00 0.  1.
          2    1    1    2  502    0 -0.18893631327E+02 -0.74442253095E+01  0.22559913572E+03  0.22651127088E+03  0.00000000000E+00 0. -1.
</event>
<event>
 4    1  0.6688462E+003  0.3036742E+02  0.7546771E-02  0.1416430E+00
          2   -1    0    0  502    0  0.00000000000E+00  0.00000000000E+00  0.98256528069E+02  0.98256528069E+02  0.00000000000E+00 0. -1.
          2   -1    0    0  501    0 -0.00000000000E+00 -0.00000000000E+00 -0.70230873132E+02  0.70230873132E+02  0.00000000000E+00 0.  1.
          2    1    1    2  501    0  0.21143199859E+02  0.21797833785E+02  0.92425707646E+02  0.97286648066E+02  0.00000000000E+00 0. -1.
          2    1    1    2  502    0 -0.21143199859E+02 -0.21797833785E+02 -0.64400052709E+02  0.71200753135E+02  0.00000000000E+00 0.  1.
</event>
<event>
 4    1  0.6688462E+003  0.2112083E+02  0.7546771E-02  0.1517547E+00
          2   -1    0    0  501    0  0.00000000000E+00  0.00000000000E+00  0.95233628595E+00  0.95233628595E+00  0.00000000000E+00 0.  1.
          2   -1    0    0  502    0 -0.00000000000E+00 -0.00000000000E+00 -0.65144430744E+03  0.65144430744E+03  0.00000000000E+00 0. -1.
          2    1    1    2  501    0  0.20539301296E+02  0.49220275813E+01 -0.49814900676E+03  0.49859655252E+03  0.00000000000E+00 0. -1.
          2    1    1    2  502    0 -0.20539301296E+02 -0.49220275813E+01 -0.15234296439E+03  0.15380009120E+03  0.00000000000E+00 0.  1.
</event>
<event>
 4    1  0.6688462E+003  0.2477921E+02  0.7546771E-02  0.1471289E+00
          2   -1    0    0  502    0  0.00000000000E+00  0.00000000000E+00  0.16235759318E+01  0.16235759318E+01  0.00000000000E+00 0.  1.
          2   -1    0    0  501    0 -0.00000000000E+00 -0.00000000000E+00 -0.87777821741E+03  0.87777821741E+03  0.00000000000E+00 0. -1.
          2    1    1    2  501    0  0.46939503886E+01  0.24330555531E+02 -0.10635552240E+03  0.10920396627E+03  0.00000000000E+00 0.  1.
          2    1    1    2  502    0 -0.46939503886E+01 -0.24330555531E+02 -0.76979911908E+03  0.77019782708E+03  0.00000000000E+00 0. -1.
</event>
<event>
 4    1  0.6688462E+003  0.3906183E+02  0.7546771E-02  0.1354073E+00
          2   -1    0    0  502    0  0.00000000000E+00  0.00000000000E+00  0.37186700057E+03  0.37186700057E+03  0.00000000000E+00 0.  1.
          2   -1    0    0  501    0 -0.00000000000E+00 -0.00000000000E+00 -0.60034154526E+01  0.60034154526E+01  0.00000000000E+00 0. -1.
          2    1    1    2  501    0  0.23192127436E+02 -0.31431703789E+02  0.28922869758E+03  0.29185452932E+03  0.00000000000E+00 0.  1.
          2    1    1    2  502    0 -0.23192127436E+02  0.31431703789E+02  0.76634887536E+02  0.86015886706E+02  0.00000000000E+00 0. -1.
</event>
<event>
 4    1  0.6688462E+003  0.2156548E+02  0.7546771E-02  0.1511342E+00
          2   -1    0    0  502    0  0.00000000000E+00  0.00000000000E+00  0.24212336509E+03  0.24212336509E+03  0.00000000000E+00 0.  1.
          2   -1    0    0  501    0 -0.00000000000E+00 -0.00000000000E+00 -0.35900928742E+02  0.35900928742E+02  0.00000000000E+00 0. -1.
          2    1    1    2  501    0 -0.35267015503E+01  0.21275161831E+02  0.23835348143E+03  0.23932708214E+03  0.00000000000E+00 0.  1.
          2    1    1    2  502    0  0.35267015503E+01 -0.21275161831E+02 -0.32131045082E+02  0.38697211693E+02  0.00000000000E+00 0. -1.
</event>
<event>
 4    1  0.6688462E+003  0.3178896E+02  0.7546771E-02  0.1404662E+00
          2   -1    0    0  501    0  0.00000000000E+00  0.00000000000E+00  0.51233426408E+01  0.51233426408E+01  0.00000000000E+00 0.  1.
          2   -1    0    0  502    0 -0.00000000000E+00 -0.00000000000E+00 -0.14245932868E+04  0.14245932868E+04  0.00000000000E+00 0.  1.
          2    1    1    2  501    0 -0.29364022635E+02 -0.12177515095E+02 -0.13732625681E+04  0.13736304519E+04  0.00000000000E+00 0.  1.
          2    1    1    2  502    0  0.29364022635E+02  0.12177515095E+02 -0.46207376101E+02  0.56086177489E+02  0.00000000000E+00 0.  1.
</event>
<event>
 4    1  0.6688462E+003  0.2329259E+02  0.7546771E-02  0.1488856E+00
          2   -1    0    0  501    0  0.00000000000E+00  0.00000000000E+00  0.71547321112E+03  0.71547321112E+03  0.00000000000E+00 0. -1.
          2   -1    0    0  502    0 -0.00000000000E+00 -0.00000000000E+00 -0.62217132567E+02  0.62217132567E+02  0.00000000000E+00 0.  1.
          2    1    1    2  501    0 -0.22668198406E+02  0.53570258434E+01 -0.59840246025E+02  0.64213705618E+02  0.00000000000E+00 0.  1.
          2    1    1    2  502    0  0.22668198406E+02 -0.53570258434E+01  0.71309632458E+03  0.71347663807E+03  0.00000000000E+00 0. -1.
</event>
<event>
 4    1  0.6688462E+003  0.2462052E+02  0.7546771E-02  0.1473094E+00
          2   -1    0    0  501    0  0.00000000000E+00  0.00000000000E+00  0.50529431486E+03  0.50529431486E+03  0.00000000000E+00 0.  1.
          2   -1    0    0  502    0 -0.00000000000E+00 -0.00000000000E+00 -0.34139817369E+02  0.34139817369E+02  0.00000000000E+00 0. -1.
          2    1    1    2  501    0  0.23104955888E+02 -0.85047616112E+01 -0.29358653000E+02  0.38315799126E+02  0.00000000000E+00 0. -1.
          2    1    1    2  502    0 -0.23104955888E+02  0.85047616112E+01  0.50051315049E+03  0.50111833310E+03  0.00000000000E+00 0.  1.
</event>
<event>
 4    1  0.6688462E+003  0.2106248E+02  0.7546771E-02  0.1518375E+00
          2   -1    0    0  501    0  0.00000000000E+00  0.00000000000E+00  0.10339789353E+01  0.10339789353E+01  0.00000000000E+00 0. -1.
          2   -1    0    0  502    0 -0.00000000000E+00 -0.00000000000E+00 -0.11014003241E+04  0.11014003241E+04  0.00000000000E+00 0.  1.
          2    1    1    2  501    0 -0.75850290999E+01 -0.19649305685E+02 -0.98085669863E+03  0.98108281564E+03  0.00000000000E+00 0.  1.
          2    1    1    2  502    0  0.75850290999E+01  0.19649305685E+02 -0.11950964657E+03  0.12135148744E+03  0.00000000000E+00 0. -1.
</event>
<event>
 4    1  0.6688462E+003  0.2095028E+02  0.7546771E-02  0.1519976E+00
          2   -1    0    0  501    0  0.00000000000E+00  0.00000000000E+00  0.11586138413E+03  0.11586138413E+03  0.00000000000E+00 0. -1.
          2   -1    0    0  502    0 -0.00000000000E+00 -0.00000000000E+00 -0.14110759611E+04  0.14110759611E+04  0.00000000000E+00 0. -1.
          2    1    1    2  501    0 -0.19085062451E+02  0.86414486605E+01 -0.14100504424E+04  0.14102060716E+04  0.00000000000E+00 0. -1.
          2    1    1    2  502    0  0.19085062451E+02 -0.86414486605E+01  0.11483586545E+03  0.11673127361E+03  0.00000000000E+00 0. -1.
</event>
<event>
 4    1  0.6688462E+003  0.2023178E+02  0.7546771E-02  0.1530522E+00
          2   -1    0    0  501    0  0.00000000000E+00  0.00000000000E+00  0.16370613207E+04  0.16370613207E+04  0.00000000000E+00 0. -1.
          2   -1    0    0  502    0 -0.00000000000E+00 -0.00000000000E+00 -0.41023261404E+00  0.41023261404E+00  0.00000000000E+00 0. -1.
          2    1    1    2  501    0  0.50749902085E+01  0.19584932353E+02  0.30669713695E+03  0.30736372414E+03  0.00000000000E+00 0. -1.
          2    1    1    2  502    0 -0.50749902085E+01 -0.19584932353E+02  0.13299539511E+04  0.13301078291E+04  0.00000000000E+00 0. -1.
</event>
<event>
 4    1  0.6688462E+003  0.2154586E+02  0.7546771E-02  0.1511612E+00
          2   -1    0    0  502    0  0.00000000000E+00  0.00000000000E+00  0.29679615158E+01  0.29679615158E+01  0.00000000000E+00 0.  1.
          2   -1    0    0  501    0 -0.00000000000E+00 -0.00000000000E+00 -0.85938241172E+03  0.85938241172E+03  0.00000000000E+00 0.  1.
          2    1    1    2  501    0  0.19828179478E+02  0.84301378119E+01 -0.38239070716E+02  0.43891348284E+02  0.00000000000E+00 0.  1.
          2    1    1    2  502    0 -0.19828179478E+02 -0.84301378119E+01 -0.81817537949E+03  0.81845902496E+03  0.00000000000E+00 0.  1.
</event>
<event>
 4    1  0.6688462E+003  0.6917243E+02  0.7546771E-02  0.1231495E+00
          2   -1    0    0  501    0  0.00000000000E+00  0.00000000000E+00  0.27228107216E+04  0.27228107216E+04  0.00000000000E+00 0. -1.
          2   -1    0    0  502    0 -0.00000000000E+00 -0.00000000000E+00 -0.12528121344E+03  0.12528121344E+03  0.00000000000E+00 0. -1.
          2    1    1    2  501    0 -0.45013900139E+02  0.52522126381E+02 -0.11525844507E+03  0.13442222334E+03  0.00000000000E+00 0. -1.
          2    1    1    2  502    0  0.45013900139E+02 -0.52522126381E+02  0.27127879532E+04  0.27136697117E+04  0.00000000000E+00 0. -1.
</event>
<event>
 4    1  0.6688462E+003  0.2824733E+02  0.7546771E-02  0.1435465E+00
          2   -1    0    0  501    0  0.00000000000E+00  0.00000000000E+00  0.48845650519E+02  0.48845650519E+02  0.00000000000E+00 0.  1.
          2   -1    0    0  502    0 -0.00000000000E+00 -0.00000000000E+00 -0.21298500339E+02  0.21298500339E+02  0.00000000000E+00 0. -1.
          2    1    1    2  501    0  0.27702916331E+02 -0.55190614500E+01 -0.31567360268E+01  0.28423170036E+02  0.00000000000E+00 0. -1.
          2    1    1    2  502    0 -0.27702916331E+02  0.55190614500E+01  0.30703886207E+02  0.41720980822E+02  0.00000000000E+00 0.  1.
</event>
<event>
 4    1  0.6688462E+003  0.2427700E+02  0.7546771E-02  0.1477057E+00
          2   -1    0    0  502    0  0.00000000000E+00  0.00000000000E+00  0.33987981179E+03  0.33987981179E+03  0.00000000000E+00 0.  1.
          2   -1    0    0  501    0 -0.00000000000E+00 -0.00000000000E+00 -0.38201046574E+01  0.38201046574E+01  0.00000000000E+00 0.  1.
          2    1    1    2  501    0 -0.10641201317E+02  0.21820575135E+02  0.29502098520E+03  0.29601816561E+03  0.00000000000E+00 0.  1.
          2    1    1    2  502    0  0.10641201317E+02 -0.21820575135E+02  0.41038721926E+02  0.47681750828E+02  0.00000000000E+00 0.  1.
</event>
<event>
 4    1  0.6688462E+003  0.3835148E+02  0.7546771E-02  0.1358427E+00
          2   -1    0    0  502    0  0.00000000000E+00  0.00000000000E+00  0.18102566603E+04  0.18102566603E+04  0.00000000000E+00 0. -1.
          2   -1    0    0  501    0 -0.00000000000E+00 -0.00000000000E+00 -0.66293088525E+01  0.66293088525E+01  0.00000000000E+00 0. -1.
          2    1    1    2  501    0 -0.78165152122E+01  0.37546475577E+02  0.17527673149E+04  0.17531868400E+04  0.00000000000E+00 0. -1.
          2    1    1    2  502    0  0.78165152122E+01 -0.37546475577E+02  0.50860036551E+02  0.63699129164E+02  0.00000000000E+00 0. -1.
</event>
<event>
 4    1  0.6688462E+003  0.2494119E+02  0.7546771E-02  0.1469462E+00
          2   -1    0    0  501    0  0.00000000000E+00  0.00000000000E+00  0.57570168061E+03  0.57570168061E+03  0.00000000000E+00 0. -1.
          2   -1    0    0  502    0 -0.00000000000E+00 -0.00000000000E+00 -0.25541091424E+03  0.25541091424E+03  0.00000000000E+00 0. -1.
          2    1    1    2  501    0 -0.14519412046E+02  0.20279285726E+02 -0.25453096589E+03  0.25575002513E+03  0.00000000000E+00 0. -1.
          2    1    1    2  502    0  0.14519412046E+02 -0.20279285726E+02  0.57482173227E+03  0.57536256972E+03  0.00000000000E+00 0. -1.
</event>
<event>
 4    1  0.6688462E+003  0.2762720E+02  0.7546771E-02  0.1441407E+00
          2   -1    0    0  502    0  0.00000000000E+00  0.00000000000E+00  0.10724874404E+02  0.10724874404E+02  0.00000000000E+00 0. -1.
          2   -1    0    0  501    0 -0.00000000000E+00 -0.00000000000E+00 -0.10986504550E+03  0.10986504550E+03  0.00000000000E+00 0. -1.
          2    1    1    2  501    0  0.16743489839E+02  0.21975391895E+02 -0.13785742007E+02  0.30875702155E+02  0.00000000000E+00 0. -1.
          2    1    1    2  502    0 -0.16743489839E+02 -0.21975391895E+02 -0.85354429090E+02  0.89714217748E+02  0.00000000000E+00 0. -1.
</event>
<event>
 4    1  0.6688462E+003  0.7086132E+02  0.7546771E-02  0.1226817E+00
          2   -1    0    0  501    0  0.00000000000E+00  0.00000000000E+00  0.45947836059E+03  0.45947836059E+03  0.00000000000E+00 0.  1.
          2   -1    0    0  502    0 -0.00000000000E+00 -0.00000000000E+00 -0.19691854374E+02  0.19691854374E+02  0.00000000000E+00 0.  1.
          2    1    1    2  501    0 -0.70860216236E+02 -0.39625821078E+00  0.60064055068E+02  0.92892507646E+02  0.00000000000E+00 0.  1.
          2    1    1    2  502    0  0.70860216236E+02  0.39625821078E+00  0.37972245114E+03  0.38627770732E+03  0.00000000000E+00 0.  1.
</event>
<event>
 4    1  0.6688462E+003  0.2984949E+02  0.7546771E-02  0.1420909E+00
          2   -1    0    0  502    0  0.00000000000E+00  0.00000000000E+00  0.13080372081E+03  0.13080372081E+03  0.00000000000E+00 0. -1.
          2   -1    0    0  501    0 -0.00000000000E+00 -0.00000000000E+00 -0.10832277272E+02  0.10832277272E+02  0.00000000000E+00 0.  1.
          2    1    1    2  501    0  0.57237781622E+01 -0.29295566276E+02  0.10313063205E+03  0.10736349057E+03  0.00000000000E+00 0. -1.
          2    1    1    2  502    0 -0.57237781622E+01  0.29295566276E+02  0.16840811491E+02  0.34272507518E+02  0.00000000000E+00 0.  1.
</event>
<event>
 4    1  0.6688462E+003  0.2899032E+02  0.7546771E-02  0.1428578E+00
          2   -1    0    0  502    0  0.00000000000E+00  0.00000000000E+00  0.29270076335E+02  0.29270076335E+02  0.00000000000E+00 0.  1.
          2   -1    0    0  501    0 -0.00000000000E+00 -0.00000000000E+00 -0.45149100107E+03  0.45149100107E+03  0.00000000000E+00 0. -1.
          2    1    1    2  501    0 -0.27968271414E+02 -0.76298471737E+01  0.21500844492E+02  0.36093283137E+02  0.00000000000E+00 0.  1.
          2    1    1    2  502    0  0.27968271414E+02  0.76298471737E+01 -0.44372176922E+03  0.44466779427E+03  0.00000000000E+00 0. -1.
</event>
<event>
 4    1  0.6688462E+003  0.2196892E+02  0.7546771E-02  0.1505868E+00
          2   -1    0    0  501    0  0.00000000000E+00  0.00000000000E+00  0.48347977490E+02  0.48347977490E+02  0.00000000000E+00 0. -1.
          2   -1    0    0  502    0 -0.00000000000E+00 -0.00000000000E+00 -0.37841873927E+02  0.37841873927E+02  0.00000000000E+00 0.  1.
          2    1    1    2  501    0  0.16596663172E+02  0.14393889219E+02 -0.31723427844E+02  0.38587681317E+02  0.00000000000E+00 0.  1.
          2    1    1    2  502    0 -0.16596663172E+02 -0.14393889219E+02  0.42229531407E+02  0.47602170099E+02  0.00000000000E+00 0. -1.
</event>
<event>
 4    1  0.6688462E+003  0.3048483E+02  0.7546771E-02  0.1415429E+00
          2   -1    0    0  501    0  0.00000000000E+00  0.00000000000E+00  0.21155177802E+03  0.21155177802E+03  0.00000000000E+00 0.  1.
          2   -1    0    0  502    0 -0.00000000000E+00 -0.00000000000E+00 -0.34696609020E+03  0.34696609020E+03  0.00000000000E+00 0. -1.
          2    1    1    2  501    0 -0.28598750397E+01  0.30350387581E+02 -0.34519262709E+03  0.34653610881E+03  0.00000000000E+00 0. -1.
          2    1    1    2  502    0  0.28598750397E+01 -0.30350387581E+02  0.20977831492E+03  0.21198175941E+03  0.00000000000E+00 0.  1.
</event>
<event>
 4    1  0.6688462E+003  0.1225807E+03  0.7546771E-02  0.1129580E+00
          2   -1    0    0  502    0  0.00000000000E+00  0.00000000000E+00  0.53524952661E+03  0.53524952661E+03  0.00000000000E+00 0. -1.
          2   -1    0    0  501    0 -0.00000000000E+00 -0.00000000000E+00 -0.39602920219E+03  0.39602920219E+03  0.00000000000E+00 0. -1.
          2    1    1    2  501    0  0.11787952686E+03 -0.33622066245E+02  0.51844254512E+03  0.53273698838E+03  0.00000000000E+00 0. -1.
          2    1    1    2  502    0 -0.11787952686E+03  0.33622066245E+02 -0.37922222070E+03  0.39854174043E+03  0.00000000000E+00 0. -1.
</event>
<event>
 4    1  0.6688462E+003  0.5772525E+02  0.7546771E-02  0.1267764E+00
          2   -1    0    0  502    0  0.00000000000E+00  0.00000000000E+00  0.12453928687E+04  0.12453928687E+04  0.00000000000E+00 0.  1.
          2   -1    0    0  501    0 -0.00000000000E+00 -0.00000000000E+00 -0.63961514740E+01  0.63961514740E+01  0.00000000000E+00 0. -1.
          2    1    1    2  501    0 -0.52246079555E+02 -0.24546917049E+02  0.10968561189E+04  0.10983740481E+04  0.00000000000E+00 0.  1.
          2    1    1    2  502    0  0.52246079555E+02  0.24546917049E+02  0.14214059835E+03  0.15341497211E+03  0.00000000000E+00 0. -1.
</event>
<event>
 4    1  0.6688462E+003  0.3401185E+02  0.7546771E-02  0.1387646E+00
          2   -1    0    0  502    0  0.00000000000E+00  0.00000000000E+00  0.21977886376E+01  0.21977886376E+01  0.00000000000E+00 0. -1.
          2   -1    0    0  501    0 -0.00000000000E+00 -0.00000000000E+00 -0.13093157008E+04  0.13093157008E+04  0.00000000000E+00 0. -1.
          2    1    1    2  501    0 -0.33652066591E+02  0.49339665061E+01 -0.14646083396E+03  0.15035817735E+03  0.00000000000E+00 0. -1.
          2    1    1    2  502    0  0.33652066591E+02 -0.49339665061E+01 -0.11606570782E+04  0.11611553121E+04  0.00000000000E+00 0. -1.
</event>
<event>
 4    1  0.6688462E+003  0.2135800E+02  0.7546771E-02  0.1514214E+00
          2   -1    0    0  501    0  0.00000000000E+00  0.00000000000E+00  0.36419279632E+01  0.36419279632E+01  0.00000000000E+00 0. -1.
          2   -1    0    0  502    0 -0.00000000000E+00 -0.00000000000E+00 -0.79988772039E+03  0.79988772039E+03  0.00000000000E+00 0.  1.
          2    1    1    2  501    0 -0.19339168115E+02 -0.90642520157E+01 -0.76709335031E+03  0.76739062555E+03  0.00000000000E+00 0.  1.
          2    1    1    2  502    0  0.19339168115E+02  0.90642520157E+01 -0.29152442118E+02  0.36139022807E+02  0.00000000000E+00 0. -1.
</event>
<event>
 4    1  0.6688462E+003  0.2136797E+02  0.7546771E-02  0.1514076E+00
          2   -1    0    0  501    0  0.00000000000E+00  0.00000000000E+00  0.62090121711E+03  0.62090121711E+03  0.00000000000E+00 0. -1.
          2   -1    0    0  502    0 -0.00000000000E+00 -0.00000000000E+00 -0.42655793519E+03  0.42655793519E+03  0.00000000000E+00 0.  1.
          2    1    1    2  501    0  0.18203800585E+02 -0.11189804069E+02 -0.42610629734E+03  0.42664173109E+03  0.00000000000E+00 0.  1.
          2    1    1    2  502    0 -0.18203800585E+02  0.11189804069E+02  0.62044957926E+03  0.62081742121E+03  0.00000000000E+00 0. -1.
</event>
<event>
 4    1  0.6688462E+003  0.2333754E+02  0.7546771E-02  0.1488303E+00
          2   -1    0    0  502    0  0.00000000000E+00  0.00000000000E+00  0.35232735157E+01  0.35232735157E+01  0.00000000000E+00 0. -1.
          2   -1    0    0  501    0 -0.00000000000E+00 -0.00000000000E+00 -0.97524208055E+03  0.97524208055E+03  0.00000000000E+00 0. -1.
          2    1    1    2  501    0  0.23163655769E+02 -0.28435875637E+01 -0.36934643296E+02  0.43689916619E+02  0.00000000000E+00 0. -1.
          2    1    1    2  502    0 -0.23163655769E+02  0.28435875637E+01 -0.93478416374E+03  0.93507543745E+03  0.00000000000E+00 0. -1.
</event>
<event>
 4    1  0.6688462E+003  0.2900075E+02  0.7546771E-02  0.1428483E+00
          2   -1    0    0  501    0  0.00000000000E+00  0.00000000000E+00  0.38544443159E+03  0.38544443159E+03  0.00000000000E+00 0.  1.
          2   -1    0    0  502    0 -0.00000000000E+00 -0.00000000000E+00 -0.16437957877E+02  0.16437957877E+02  0.00000000000E+00 0.  1.
          2    1    1    2  501    0 -0.26554806454E+02  0.11657003285E+02 -0.26266276600E+01  0.29119454738E+02  0.00000000000E+00 0.  1.
          2    1    1    2  502    0  0.26554806454E+02 -0.11657003285E+02  0.37163310138E+03  0.37276293473E+03  0.00000000000E+00 0.  1.
</event>
<event>
 4    1  0.6688462E+003  0.4538468E+02  0.7546771E-02  0.1319527E+00
          2   -1    0    0  501    0  0.00000000000E+00  0.00000000000E+00  0.10146543520E+03  0.10146543520E+03  0.00000000000E+00 0. -1.
          2   -1    0    0  502    0 -0.00000000000E+00 -0.00000000000E+00 -0.48391803406E+02  0.48391803406E+02  0.00000000000E+00 0.  1.
          2    1    1    2  501    0 -0.14776388346E+01  0.45360615555E+02 -0.30551873507E+02  0.54710015855E+02  0.00000000000E+00 0.  1.
          2    1    1    2  502    0  0.14776388346E+01 -0.45360615555E+02  0.83625505301E+02  0.95147222749E+02  0.00000000000E+00 0. -1.
</event>
<event>
 4    1  0.6688462E+003  0.2009425E+02  0.7546771E-02  0.1532600E+00
          2   -1    0    0  502    0  0.00000000000E+00  0.00000000000E+00  0.49391911726E+03  0.49391911726E+03  0.00000000000E+00 0.  1.
          2   -1    0    0  501    0 -0.00000000000E+00 -0.00000000000E+00 -0.10902364841E+01  0.10902364841E+01  0.00000000000E+00 0. -1.
          2    1    1    2  501    0 -0.10499986390E+02  0.17132688869E+02  0.37020709974E+03  0.37075204037E+03  0.00000000000E+00 0.  1.
          2    1    1    2  502    0  0.10499986390E+02 -0.17132688869E+02  0.12262178104E+03  0.12425731338E+03  0.00000000000E+00 0. -1.
</event>
<event>
 4    1  0.6688462E+003  0.2470322E+02  0.7546771E-02  0.1472151E+00
          2   -1    0    0  502    0  0.00000000000E+00  0.00000000000E+00  0.26169011546E+02  0.26169011546E+02  0.00000000000E+00 0. -1.
          2   -1    0    0  501    0 -0.00000000000E+00 -0.00000000000E+00 -0.17115444131E+04  0.17115444131E+04  0.00000000000E+00 0. -1.
          2    1    1    2  501    0 -0.17156061771E+02  0.17774101299E+02  0.20229691084E+02  0.31929446188E+02  0.00000000000E+00 0. -1.
          2    1    1    2  502    0  0.17156061771E+02 -0.17774101299E+02 -0.17056050926E+04  0.17057839784E+04  0.00000000000E+00 0. -1.
</event>
<event>
 4    1  0.6688462E+003  0.4341537E+02  0.7546771E-02  0.1329556E+00
          2   -1    0    0  502    0  0.00000000000E+00  0.00000000000E+00  0.18582792427E+01  0.18582792427E+01  0.00000000000E+00 0. -1.
          2   -1    0    0  501    0 -0.00000000000E+00 -0.00000000000E+00 -0.17067073847E+04  0.17067073847E+04  0.00000000000E+00 0. -1.
          2    1    1    2  501    0  0.31799470060E+02  0.29558221402E+02 -0.30830305706E+03  0.31134493691E+03  0.00000000000E+00 0. -1.
          2    1    1    2  502    0 -0.31799470060E+02 -0.29558221402E+02 -0.13965460484E+04  0.13972207270E+04  0.00000000000E+00 0. -1.
</event>
<event>
 4    1  0.6688462E+003  0.3109082E+02  0.7546771E-02  0.1410348E+00
          2   -1    0    0  501    0  0.00000000000E+00  0.00000000000E+00  0.60279328279E+00  0.60279328279E+00  0.00000000000E+00 0.  1.
          2   -1    0    0  502    0 -0.00000000000E+00 -0.00000000000E+00 -0.17236660273E+04  0.17236660273E+04  0.00000000000E+00 0.  1.
          2    1    1    2  501    0 -0.17857129329E+02 -0.25451170498E+02 -0.10890722548E+04  0.10895159546E+04  0.00000000000E+00 0.  1.
          2    1    1    2  502    0  0.17857129329E+02  0.25451170498E+02 -0.63399097917E+03  0.63475286594E+03  0.00000000000E+00 0.  1.
</event>
<event>
 4    1  0.6688462E+003  0.2700824E+02  0.7546771E-02  0.1447525E+00
          2   -1    0    0  501    0  0.00000000000E+00  0.00000000000E+00  0.40420008125E+03  0.40420008125E+03  0.00000000000E+00 0. -1.
          2   -1    0    0  502    0 -0.00000000000E+00 -0.00000000000E+00 -0.20263530446E+02  0.20263530446E+02  0.00000000000E+00 0. -1.
          2    1    1    2  501    0 -0.37131580748E+01  0.26751773405E+02 -0.10592540940E+02  0.29011150386E+02  0.00000000000E+00 0. -1.
          2    1    1    2  502    0  0.37131580748E+01 -0.26751773405E+02  0.39452909175E+03  0.39545246131E+03  0.00000000000E+00 0. -1.
</event>
<event>
 4    1  0.6688462E+003  0.2697362E+02  0.7546771E-02  0.1447873E+00
          2   -1    0    0  501    0  0.00000000000E+00  0.00000000000E+00  0.37453850815E+03  0.37453850815E+03  0.00000000000E+00 0. -1.
          2   -1    0    0  502    0 -0.00000000000E+00 -0.00000000000E+00 -0.16133611364E+02  0.16133611364E+02  0.00000000000E+00 0.  1.
          2    1    1    2  501    0  0.19306823257E+02 -0.18836735105E+02 -0.39966800420E+01  0.27268103437E+02  0.00000000000E+00 0.  1.
          2    1    1    2  502    0 -0.19306823257E+02  0.18836735105E+02  0.36240157683E+03  0.36340401607E+03  0.00000000000E+00 0. -1.
</event>
<event>
 4    1  0.6688462E+003  0.2117875E+02  0.7546771E-02  0.1516728E+00
          2   -1    0    0  502    0  0.00000000000E+00  0.00000000000E+00  0.11464120404E+04  0.11464120404E+04  0.00000000000E+00 0.  1.
          2   -1    0    0  501    0 -0.00000000000E+00 -0.00000000000E+00 -0.38241435213E+01  0.38241435213E+01  0.00000000000E+00 0. -1.
          2    1    1    2  501    0 -0.19658196833E+02  0.78800145302E+01  0.11161976957E+04  0.11163986005E+04  0.00000000000E+00 0.  1.
          2    1    1    2  502    0  0.19658196833E+02 -0.78800145302E+01  0.26390201097E+02  0.33837583331E+02  0.00000000000E+00 0. -1.
</event>
<event>
 4    1  0.1903973E+004  0.2757838E+02  0.7546771E-02  0.1441883E+00
          2   -1    0    0  502    0  0.00000000000E+00  0.00000000000E+00  0.84445096748E+03  0.84445096748E+03  0.00000000000E+00 0. -1.
          2   -1    0    0  501    0 -0.00000000000E+00 -0.00000000000E+00 -0.12757656793E+04  0.12757656793E+04  0.00000000000E+00 0.  1.
          2    1    1    2  501    0 -0.63051471888E+01  0.26847942310E+02  0.84407669407E+03  0.84452710575E+03  0.00000000000E+00 0. -1.
          2    1    1    2  502    0  0.63051471888E+01 -0.26847942310E+02 -0.12753914059E+04  0.12756895411E+04  0.00000000000E+00 0.  1.
</event>
<event>
 4    1  0.9170228E+003  0.4076485E+02  0.7546771E-02  0.1344061E+00
          2   -1    0    0  502    0  0.00000000000E+00  0.00000000000E+00  0.75513081474E+03  0.75513081474E+03  0.00000000000E+00 0.  1.
          2   -1    0    0  501    0 -0.00000000000E+00 -0.00000000000E+00 -0.22558945343E+04  0.22558945343E+04  0.00000000000E+00 0. -1.
          2    1    1    2  501    0 -0.21293937044E+02  0.34761202154E+02  0.75439631598E+03  0.75549690568E+03  0.00000000000E+00 0.  1.
          2    1    1    2  502    0  0.21293937044E+02 -0.34761202154E+02 -0.22551600355E+04  0.22555284433E+04  0.00000000000E+00 0. -1.
</event>
<event>
 4    1  0.6688462E+003  0.2096323E+02  0.7546771E-02  0.1519790E+00
          2   -1    0    0  501    0  0.00000000000E+00  0.00000000000E+00  0.82549047863E+03  0.82549047863E+03  0.00000000000E+00 0. -1.
          2   -1    0    0  502    0 -0.00000000000E+00 -0.00000000000E+00 -0.16235819238E+01  0.16235819238E+01  0.00000000000E+00 0.  1.
          2    1    1    2  501    0  0.18921856526E+02 -0.90233332471E+01  0.72890226777E+02  0.75844857155E+02  0.00000000000E+00 0.  1.
          2    1    1    2  502    0 -0.18921856526E+02  0.90233332471E+01  0.75097666993E+03  0.75126920340E+03  0.00000000000E+00 0. -1.
</event>
<event>
 4    1  0.6688462E+003  0.2001676E+02  0.7546771E-02  0.1533780E+00
          2   -1    0    0  502    0  0.00000000000E+00  0.00000000000E+00  0.47543999202E+02  0.47543999202E+02  0.00000000000E+00 0. -1.
          2   -1    0    0  501    0 -0.00000000000E+00 -0.00000000000E+00 -0.65285587925E+02  0.65285587925E+02  0.00000000000E+00 0. -1.
          2    1    1    2  501    0 -0.89870493679E+01 -0.17885851559E+02  0.43777096302E+02  0.48136315843E+02  0.00000000000E+00 0. -1.
          2    1    1    2  502    0  0.89870493679E+01  0.17885851559E+02 -0.61518685024E+02  0.64693271284E+02  0.00000000000E+00 0. -1.
</event>
<event>
 4    1  0.6688462E+003  0.2262548E+02  0.7546771E-02  0.1497255E+00
          2   -1    0    0  501    0  0.00000000000E+00  0.00000000000E+00  0.24605536724E+03  0.24605536724E+03  0.00000000000E+00 0.  1.
          2   -1    0    0  502    0 -0.00000000000E+00 -0.00000000000E+00 -0.44618741378E+01  0.44618741378E+01  0.00000000000E+00 0.  1.
          2    1    1    2  501    0 -0.10797548887E+02  0.19882792992E+02  0.29287519736E+02  0.37009070934E+02  0.00000000000E+00 0.  1.
          2    1    1    2  502    0  0.10797548887E+02 -0.19882792992E+02  0.21230597336E+03  0.21350817044E+03  0.00000000000E+00 0.  1.
</event>
<event>
 4    1  0.6688462E+003  0.2812211E+02  0.7546771E-02  0.1436651E+00
          2   -1    0    0  501    0  0.00000000000E+00  0.00000000000E+00  0.36811217471E+00  0.36811217471E+00  0.00000000000E+00 0. -1.
          2   -1    0    0  502    0 -0.00000000000E+00 -0.00000000000E+00 -0.21694028488E+04  0.21694028488E+04  0.00000000000E+00 0. -1.
          2    1    1    2  501    0 -0.26120176508E+02 -0.10420625421E+02 -0.11912577555E+04  0.11915896496E+04  0.00000000000E+00 0. -1.
          2    1    1    2  502    0  0.26120176508E+02  0.10420625421E+02 -0.97777698112E+03  0.97818131135E+03  0.00000000000E+00 0. -1.
</event>
<event>
 4    1  0.6688462E+003  0.2037180E+02  0.7546771E-02  0.1528426E+00
          2   -1    0    0  502    0  0.00000000000E+00  0.00000000000E+00  0.53834036028E+00  0.53834036028E+00  0.00000000000E+00 0. -1.
          2   -1    0    0  501    0 -0.00000000000E+00 -0.00000000000E+00 -0.86289077482E+03  0.86289077482E+03  0.00000000000E+00 0. -1.
          2    1    1    2  501    0  0.14567461303E+02  0.14240759462E+02 -0.29022291919E+03  0.29093702580E+03  0.00000000000E+00 0. -1.
          2    1    1    2  502    0 -0.14567461303E+02 -0.14240759462E+02 -0.57212951527E+03  0.57249208938E+03  0.00000000000E+00 0. -1.
</event>
<event>
 4    1  0.6688462E+003  0.2258976E+02  0.7546771E-02  0.1497715E+00
          2   -1    0    0  501    0  0.00000000000E+00  0.00000000000E+00  0.30555419246E+03  0.30555419246E+03  0.00000000000E+00 0.  1.
          2   -1    0    0  502    0 -0.00000000000E+00 -0.00000000000E+00 -0.67368308414E+01  0.67368308414E+01  0.00000000000E+00 0.  1.
          2    1    1    2  501    0  0.19881521469E+02 -0.10724839316E+02  0.13993653793E+02  0.26572907646E+02  0.00000000000E+00 0.  1.
          2    1    1    2  502    0 -0.19881521469E+02  0.10724839316E+02  0.28482370783E+03  0.28571811566E+03  0.00000000000E+00 0.  1.
</event>
<event>
 4    1  0.6688462E+003  0.2048305E+02  0.7546771E-02  0.1526775E+00
          2   -1    0    0  502    0  0.00000000000E+00  0.00000000000E+00  0.10643827043E+01  0.10643827043E+01  0.00000000000E+00 0. -1.
          2   -1    0    0  501    0 -0.00000000000E+00 -0.00000000000E+00 -0.70133969857E+03  0.70133969857E+03  0.00000000000E+00 0. -1.
          2    1    1    2  501    0  0.13624028166E+02  0.15295137097E+02 -0.11771581716E+03  0.11948459721E+03  0.00000000000E+00 0. -1.
          2    1    1    2  502    0 -0.13624028166E+02 -0.15295137097E+02 -0.58255949871E+03  0.58291948406E+03  0.00000000000E+00 0. -1.
</event>
<event>
 4    1  0.6688462E+003  0.3853595E+02  0.7546771E-02  0.1357285E+00
          2   -1    0    0  502    0  0.00000000000E+00  0.00000000000E+00  0.11961988969E+03  0.11961988969E+03  0.00000000000E+00 0.  1.
          2   -1    0    0  501    0 -0.00000000000E+00 -0.00000000000E+00 -0.65506260376E+03  0.65506260376E+03  0.00000000000E+00 0. -1.
          2    1    1    2  501    0 -0.12976767095E+02  0.36285297049E+02  0.11593196489E+03  0.12216889846E+03  0.00000000000E+00 0.  1.
          2    1    1    2  502    0  0.12976767095E+02 -0.36285297049E+02 -0.65137467896E+03  0.65251359500E+03  0.00000000000E+00 0. -1.
</event>
<event>
 4    1  0.6688462E+003  0.2055266E+02  0.7546771E-02  0.1525748E+00
          2   -1    0    0  502    0  0.00000000000E+00  0.00000000000E+00  0.99051522266E+01  0.99051522266E+01  0.00000000000E+00 0.  1.
          2   -1    0    0  501    0 -0.00000000000E+00 -0.00000000000E+00 -0.76160302994E+02  0.76160302994E+02  0.00000000000E+00 0. -1.
          2    1    1    2  501    0 -0.99174111649E+01 -0.18001582192E+02 -0.45811536776E+01  0.21057040975E+02  0.00000000000E+00 0.  1.
          2    1    1    2  502    0  0.99174111649E+01  0.18001582192E+02 -0.61673997090E+02  0.65008414245E+02  0.00000000000E+00 0. -1.
</event>
<event>
 4    1  0.6688462E+003  0.3334885E+02  0.7546771E-02  0.1392558E+00
          2   -1    0    0  502    0  0.00000000000E+00  0.00000000000E+00  0.77141986748E+00  0.77141986748E+00  0.00000000000E+00 0.  1.
          2   -1    0    0  501    0 -0.00000000000E+00 -0.00000000000E+00 -0.21248743244E+04  0.21248743244E+04  0.00000000000E+00 0.  1.
          2    1    1    2  501    0  0.28750058400E+02 -0.16899113028E+02 -0.45940276476E+03  0.46061160010E+03  0.00000000000E+00 0.  1.
          2    1    1    2  502    0 -0.28750058400E+02  0.16899113028E+02 -0.16647001398E+04  0.16650341442E+04  0.00000000000E+00 0.  1.
</event>
<event>
 4    1  0.6688462E+003  0.2531826E+03  0.7546771E-02  0.1022742E+00
          2   -1    0    0  501    0  0.00000000000E+00  0.00000000000E+00  0.52561497241E+03  0.52561497241E+03  0.00000000000E+00 0.  1.
          2   -1    0    0  502    0 -0.00000000000E+00 -0.00000000000E+00 -0.15236902295E+04  0.15236902295E+04  0.00000000000E+00 0. -1.
          2    1    1    2  501    0 -0.18301694460E+03  0.17494634634E+03 -0.14818288856E+04  0.15033024554E+04  0.00000000000E+00 0. -1.
          2    1    1    2  502    0  0.18301694460E+03 -0.17494634634E+03  0.48375362852E+03  0.54600274653E+03  0.00000000000E+00 0.  1.
</event>
<event>
 4    1  0.6688462E+003  0.2380948E+02  0.7546771E-02  0.1482576E+00
          2   -1    0    0  502    0  0.00000000000E+00  0.00000000000E+00  0.16294923732E+04  0.16294923732E+04  0.00000000000E+00 0.  1.
          2   -1    0    0  501    0 -0.00000000000E+00 -0.00000000000E+00 -0.17477288125E+02  0.17477288125E+02  0.00000000000E+00 0. -1.
          2    1    1    2  501    0 -0.16380466706E+01 -0.23753061254E+02  0.16212552339E+04  0.16214300554E+04  0.00000000000E+00 0.  1.
          2    1    1    2  502    0  0.16380466706E+01  0.23753061254E+02 -0.92401488897E+01  0.25539605857E+02  0.00000000000E+00 0. -1.
</event>
<event>
 4    1  0.6688462E+003  0.2240507E+02  0.7546771E-02  0.1500107E+00
          2   -1    0    0  501    0  0.00000000000E+00  0.00000000000E+00  0.10325117159E+04  0.10325117159E+04  0.00000000000E+00 0. -1.
          2   -1    0    0  502    0 -0.00000000000E+00 -0.00000000000E+00 -0.50548161227E+00  0.50548161227E+00  0.00000000000E+00 0.  1.
          2    1    1    2  501    0 -0.11868995126E+02 -0.19003000703E+02  0.61693208662E+03  0.61733879401E+03  0.00000000000E+00 0. -1.
          2    1    1    2  502    0  0.11868995126E+02  0.19003000703E+02  0.41507414763E+03  0.41567840347E+03  0.00000000000E+00 0.  1.
</event>
<event>
 4    1  0.6688462E+003  0.6627693E+02  0.7546771E-02  0.1239878E+00
          2   -1    0    0  501    0  0.00000000000E+00  0.00000000000E+00  0.79123847706E+01  0.79123847706E+01  0.00000000000E+00 0.  1.
          2   -1    0    0  502    0 -0.00000000000E+00 -0.00000000000E+00 -0.80340362922E+03  0.80340362922E+03  0.00000000000E+00 0. -1.
          2    1    1    2  501    0 -0.59083172662E+02 -0.30030152616E+02 -0.62323864959E+03  0.62675277877E+03  0.00000000000E+00 0. -1.
          2    1    1    2  502    0  0.59083172662E+02  0.30030152616E+02 -0.17225259487E+03  0.18456323522E+03  0.00000000000E+00 0.  1.
</event>
<event>
 4    1  0.6688462E+003  0.2676149E+02  0.7546771E-02  0.1450019E+00
          2   -1    0    0  502    0  0.00000000000E+00  0.00000000000E+00  0.20436010336E+04  0.20436010336E+04  0.00000000000E+00 0.  1.
          2   -1    0    0  501    0 -0.00000000000E+00 -0.00000000000E+00 -0.13895684845E+01  0.13895684845E+01  0.00000000000E+00 0.  1.
          2    1    1    2  501    0 -0.10361796286E+02  0.24674091415E+02  0.19053130829E+04  0.19055010159E+04  0.00000000000E+00 0.  1.
          2    1    1    2  502    0  0.10361796286E+02 -0.24674091415E+02  0.13689838224E+03  0.13948958624E+03  0.00000000000E+00 0.  1.
</event>
<event>
 4    1  0.6688462E+003  0.2635646E+02  0.7546771E-02  0.1454182E+00
          2   -1    0    0  501    0  0.00000000000E+00  0.00000000000E+00  0.53609313234E+02  0.53609313234E+02  0.00000000000E+00 0. -1.
          2   -1    0    0  502    0 -0.00000000000E+00 -0.00000000000E+00 -0.60582094138E+02  0.60582094138E+02  0.00000000000E+00 0.  1.
          2    1    1    2  501    0  0.26352453190E+02  0.45930920340E+00 -0.54109081172E+02  0.60186837592E+02  0.00000000000E+00 0.  1.
          2    1    1    2  502    0 -0.26352453190E+02 -0.45930920340E+00  0.47136300269E+02  0.54004569780E+02  0.00000000000E+00 0. -1.
</event>
<event>
 4    1  0.6688462E+003  0.6499306E+02  0.7546771E-02  0.1243751E+00
          2   -1    0    0  502    0  0.00000000000E+00  0.00000000000E+00  0.48219624028E+03  0.48219624028E+03  0.00000000000E+00 0.  1.
          2   -1    0    0  501    0 -0.00000000000E+00 -0.00000000000E+00 -0.63108851619E+03  0.63108851619E+03  0.00000000000E+00 0. -1.
          2    1    1    2  501    0  0.63580007437E+02 -0.13478899936E+02  0.47831937079E+03  0.48271473829E+03  0.00000000000E+00 0.  1.
          2    1    1    2  502    0 -0.63580007437E+02  0.13478899936E+02 -0.62721164669E+03  0.63057001819E+03  0.00000000000E+00 0. -1.
</event>
<event>
 4    1  0.6688462E+003  0.2578236E+02  0.7546771E-02  0.1460238E+00
          2   -1    0    0  502    0  0.00000000000E+00  0.00000000000E+00  0.42559535456E+00  0.42559535456E+00  0.00000000000E+00 0. -1.
          2   -1    0    0  501    0 -0.00000000000E+00 -0.00000000000E+00 -0.16763969689E+04  0.16763969689E+04  0.00000000000E+00 0. -1.
          2    1    1    2  501    0  0.25781477279E+02 -0.21394574477E+00 -0.61885810391E+03  0.61939493308E+03  0.00000000000E+00 0. -1.
          2    1    1    2  502    0 -0.25781477279E+02  0.21394574477E+00 -0.10571132696E+04  0.10574276312E+04  0.00000000000E+00 0. -1.
</event>
<event>
 4    1  0.6688462E+003  0.2453857E+02  0.7546771E-02  0.1474032E+00
          2   -1    0    0  501    0  0.00000000000E+00  0.00000000000E+00  0.22201505899E+01  0.22201505899E+01  0.00000000000E+00 0.  1.
          2   -1    0    0  502    0 -0.00000000000E+00 -0.00000000000E+00 -0.31338494351E+03  0.31338494351E+03  0.00000000000E+00 0.  1.
          2    1    1    2  501    0  0.14891905649E+02 -0.19503146102E+02 -0.21346772780E+03  0.21487347992E+03  0.00000000000E+00 0.  1.
          2    1    1    2  502    0 -0.14891905649E+02  0.19503146102E+02 -0.97697065120E+02  0.10073161418E+03  0.00000000000E+00 0.  1.
</event>
<event>
 4    1  0.6688462E+003  0.4219626E+02  0.7546771E-02  0.1336075E+00
          2   -1    0    0  502    0  0.00000000000E+00  0.00000000000E+00  0.72853767624E+02  0.72853767624E+02  0.00000000000E+00 0. -1.
          2   -1    0    0  501    0 -0.00000000000E+00 -0.00000000000E+00 -0.18487183786E+04  0.18487183786E+04  0.00000000000E+00 0.  1.
          2    1    1    2  501    0 -0.37881349455E+02  0.18588377868E+02  0.66481935050E+02  0.78742441645E+02  0.00000000000E+00 0. -1.
          2    1    1    2  502    0  0.37881349455E+02 -0.18588377868E+02 -0.18423465460E+04  0.18428297045E+04  0.00000000000E+00 0.  1.
</event>
<event>
 4    1  0.6688462E+003  0.2155767E+02  0.7546771E-02  0.1511450E+00
          2   -1    0    0  501    0  0.00000000000E+00  0.00000000000E+00  0.29737427040E+02  0.29737427040E+02  0.00000000000E+00 0.  1.
          2   -1    0    0  502    0 -0.00000000000E+00 -0.00000000000E+00 -0.80027924615E+02  0.80027924615E+02  0.00000000000E+00 0. -1.
          2    1    1    2  501    0  0.13989267912E+02  0.16402243523E+02 -0.74378390918E+02  0.77439513460E+02  0.00000000000E+00 0. -1.
          2    1    1    2  502    0 -0.13989267912E+02 -0.16402243523E+02  0.24087893343E+02  0.32325838195E+02  0.00000000000E+00 0.  1.
</event>
<event>
 4    1  0.6688462E+003  0.2025480E+02  0.7546771E-02  0.1530176E+00
          2   -1    0    0  501    0  0.00000000000E+00  0.00000000000E+00  0.29748534323E+03  0.29748534323E+03  0.00000000000E+00 0.  1.
          2   -1    0    0  502    0 -0.00000000000E+00 -0.00000000000E+00 -0.16947977455E+02  0.16947977455E+02  0.00000000000E+00 0.  1.
          2    1    1    2  501    0 -0.10071719248E+02  0.17573195511E+02 -0.10415798165E+02  0.22775986926E+02  0.00000000000E+00 0.  1.
          2    1    1    2  502    0  0.10071719248E+02 -0.17573195511E+02  0.29095316394E+03  0.29165733376E+03  0.00000000000E+00 0.  1.
</event>
<event>
 4    1  0.6688462E+003  0.2378256E+02  0.7546771E-02  0.1482899E+00
          2   -1    0    0  501    0  0.00000000000E+00  0.00000000000E+00  0.27662219423E+00  0.27662219423E+00  0.00000000000E+00 0.  1.
          2   -1    0    0  502    0 -0.00000000000E+00 -0.00000000000E+00 -0.22362864177E+04  0.22362864177E+04  0.00000000000E+00 0.  1.
          2    1    1    2  501    0 -0.15880756274E+02 -0.17703432195E+02 -0.14453211869E+04  0.14455168429E+04  0.00000000000E+00 0.  1.
          2    1    1    2  502    0  0.15880756274E+02  0.17703432195E+02 -0.79068860862E+03  0.79104619697E+03  0.00000000000E+00 0.  1.
</event>
<event>
 4    1  0.6688462E+003  0.2235509E+02  0.7546771E-02  0.1500759E+00
          2   -1    0    0  501    0  0.00000000000E+00  0.00000000000E+00  0.44593924287E+01  0.44593924287E+01  0.00000000000E+00 0.  1.
          2   -1    0    0  502    0 -0.00000000000E+00 -0.00000000000E+00 -0.81492291678E+03  0.81492291678E+03  0.00000000000E+00 0.  1.
          2    1    1    2  501    0  0.21008443765E+02  0.76416903109E+01 -0.78571148409E+03  0.78602944370E+03  0.00000000000E+00 0.  1.
          2    1    1    2  502    0 -0.21008443765E+02 -0.76416903109E+01 -0.24752040262E+02  0.33352865505E+02  0.00000000000E+00 0.  1.
</event>
<event>
 4    1  0.7158458E+003  0.2546284E+02  0.7546771E-02  0.1463692E+00
          2   -1    0    0  501    0  0.00000000000E+00  0.00000000000E+00  0.27386425068E+03  0.27386425068E+03  0.00000000000E+00 0.  1.
          2   -1    0    0  502    0 -0.00000000000E+00 -0.00000000000E+00 -0.89512392219E+03  0.89512392219E+03  0.00000000000E+00 0.  1.
          2    1    1    2  501    0 -0.23537109862E+02  0.97139354311E+01 -0.89435047147E+03  0.89471287121E+03  0.00000000000E+00 0.  1.
          2    1    1    2  502    0  0.23537109862E+02 -0.97139354311E+01  0.27309079996E+03  0.27427530167E+03  0.00000000000E+00 0.  1.
</event>
<event>
 4    1  0.6688462E+003  0.3013228E+02  0.7546771E-02  0.1418450E+00
          2   -1    0    0  501    0  0.00000000000E+00  0.00000000000E+00  0.21268528421E+04  0.21268528421E+04  0.00000000000E+00 0. -1.
          2   -1    0    0  502    0 -0.00000000000E+00 -0.00000000000E+00 -0.23172891174E+03  0.23172891174E+03  0.00000000000E+00 0. -1.
          2    1    1    2  501    0  0.23081492134E+02 -0.19370048682E+02 -0.23064214256E+03  0.23260213239E+03  0.00000000000E+00 0. -1.
          2    1    1    2  502    0 -0.23081492134E+02  0.19370048682E+02  0.21257660729E+04  0.21259796215E+04  0.00000000000E+00 0. -1.
</event>
<event>
 4    1  0.6688462E+003  0.2137678E+02  0.7546771E-02  0.1513953E+00
          2   -1    0    0  502    0  0.00000000000E+00  0.00000000000E+00  0.16505032316E+03  0.16505032316E+03  0.00000000000E+00 0.  1.
          2   -1    0    0  501    0 -0.00000000000E+00 -0.00000000000E+00 -0.32573514538E+01  0.32573514538E+01  0.00000000000E+00 0.  1.
          2    1    1    2  501    0 -0.80139971543E+01 -0.19817733868E+02  0.11349238978E+03  0.11548804815E+03  0.00000000000E+00 0.  1.
          2    1    1    2  502    0  0.80139971543E+01  0.19817733868E+02  0.48300581927E+02  0.52819626471E+02  0.00000000000E+00 0.  1.
</event>
<event>
 4    1  0.6688462E+003  0.2514492E+02  0.7546771E-02  0.1467189E+00
          2   -1    0    0  501    0  0.00000000000E+00  0.00000000000E+00  0.26452021339E+03  0.26452021339E+03  0.00000000000E+00 0. -1.
          2   -1    0    0  502    0 -0.00000000000E+00 -0.00000000000E+00 -0.29738830861E+02  0.29738830861E+02  0.00000000000E+00 0. -1.
          2    1    1    2  501    0 -0.25144909433E+02 -0.21912651967E-01 -0.23702270918E+02  0.34555239794E+02  0.00000000000E+00 0. -1.
          2    1    1    2  502    0  0.25144909433E+02  0.21912651967E-01  0.25848365345E+03  0.25970380446E+03  0.00000000000E+00 0. -1.
</event>
<event>
 4    1  0.6688462E+003  0.2127887E+02  0.7546771E-02  0.1515320E+00
          2   -1    0    0  502    0  0.00000000000E+00  0.00000000000E+00  0.23630406312E+03  0.23630406312E+03  0.00000000000E+00 0.  1.
          2   -1    0    0  501    0 -0.00000000000E+00 -0.00000000000E+00 -0.56056441151E+02  0.56056441151E+02  0.00000000000E+00 0.  1.
          2    1    1    2  501    0  0.20837282866E+02 -0.43125328434E+01  0.23378395661E+03  0.23475035392E+03  0.00000000000E+00 0.  1.
          2    1    1    2  502    0 -0.20837282866E+02  0.43125328434E+01 -0.53536334641E+02  0.57610150352E+02  0.00000000000E+00 0.  1.
</event>
<event>
 4    1  0.6688462E+003  0.2244981E+02  0.7546771E-02  0.1499525E+00
          2   -1    0    0  501    0  0.00000000000E+00  0.00000000000E+00  0.77156203178E+00  0.77156203178E+00  0.00000000000E+00 0.  1.
          2   -1    0    0  502    0 -0.00000000000E+00 -0.00000000000E+00 -0.18062011636E+04  0.18062011636E+04  0.00000000000E+00 0.  1.
          2    1    1    2  501    0  0.71268554414E+01  0.21288538160E+02 -0.16245716321E+04  0.16247267406E+04  0.00000000000E+00 0.  1.
          2    1    1    2  502    0 -0.71268554414E+01 -0.21288538160E+02 -0.18085796943E+03  0.18224598495E+03  0.00000000000E+00 0.  1.
</event>
<event>
 4    1  0.7348100E+003  0.3463963E+02  0.7546771E-02  0.1383115E+00
          2   -1    0    0  501    0  0.00000000000E+00  0.00000000000E+00  0.44590133902E+03  0.44590133902E+03  0.00000000000E+00 0. -1.
          2   -1    0    0  502    0 -0.00000000000E+00 -0.00000000000E+00 -0.14304964845E+04  0.14304964845E+04  0.00000000000E+00 0.  1.
          2    1    1    2  501    0  0.21432938116E+02 -0.27212733895E+02 -0.14296136280E+04  0.14300332265E+04  0.00000000000E+00 0.  1.
          2    1    1    2  502    0 -0.21432938116E+02  0.27212733895E+02  0.44501848247E+03  0.44636459700E+03  0.00000000000E+00 0. -1.
</event>
<event>
 4    1  0.6688462E+003  0.2332857E+02  0.7546771E-02  0.1488413E+00
          2   -1    0    0  502    0  0.00000000000E+00  0.00000000000E+00  0.15037617342E+04  0.15037617342E+04  0.00000000000E+00 0. -1.
          2   -1    0    0  501    0 -0.00000000000E+00 -0.00000000000E+00 -0.10821925864E+01  0.10821925864E+01  0.00000000000E+00 0. -1.
          2    1    1    2  501    0  0.23303524919E+02  0.10807033812E+01  0.13651886820E+04  0.13653879887E+04  0.00000000000E+00 0. -1.
          2    1    1    2  502    0 -0.23303524919E+02 -0.10807033812E+01  0.13749085960E+03  0.13945593809E+03  0.00000000000E+00 0. -1.
</event>
<event>
 4    1  0.6688462E+003  0.4349987E+02  0.7546771E-02  0.1329113E+00
          2   -1    0    0  502    0  0.00000000000E+00  0.00000000000E+00  0.23627469763E+01  0.23627469763E+01  0.00000000000E+00 0.  1.
          2   -1    0    0  501    0 -0.00000000000E+00 -0.00000000000E+00 -0.12930291928E+04  0.12930291928E+04  0.00000000000E+00 0. -1.
          2    1    1    2  501    0 -0.38703539213E+02 -0.19856352308E+02 -0.24573592995E+03  0.24955637828E+03  0.00000000000E+00 0.  1.
          2    1    1    2  502    0  0.38703539213E+02  0.19856352308E+02 -0.10449305159E+04  0.10458355615E+04  0.00000000000E+00 0. -1.
</event>
<event>
 4    1  0.6688462E+003  0.2810032E+02  0.7546771E-02  0.1436858E+00
          2   -1    0    0  502    0  0.00000000000E+00  0.00000000000E+00  0.18593547876E+03  0.18593547876E+03  0.00000000000E+00 0. -1.
          2   -1    0    0  501    0 -0.00000000000E+00 -0.00000000000E+00 -0.57133981517E+03  0.57133981517E+03  0.00000000000E+00 0.  1.
          2    1    1    2  501    0  0.23347235778E+01  0.28003159052E+02  0.18452564214E+03  0.18665299477E+03  0.00000000000E+00 0. -1.
          2    1    1    2  502    0 -0.23347235778E+01 -0.28003159052E+02 -0.56992997854E+03  0.57062229916E+03  0.00000000000E+00 0.  1.
</event>
<event>
 4    1  0.6688462E+003  0.4390009E+02  0.7546771E-02  0.1327032E+00
          2   -1    0    0  501    0  0.00000000000E+00  0.00000000000E+00  0.24554944657E+03  0.24554944657E+03  0.00000000000E+00 0. -1.
          2   -1    0    0  502    0 -0.00000000000E+00 -0.00000000000E+00 -0.13768334371E+04  0.13768334371E+04  0.00000000000E+00 0.  1.
          2    1    1    2  501    0  0.41265325016E+02 -0.14979673880E+02 -0.13745180478E+04  0.13752189213E+04  0.00000000000E+00 0.  1.
          2    1    1    2  502    0 -0.41265325016E+02  0.14979673880E+02  0.24323405729E+03  0.24716396239E+03  0.00000000000E+00 0. -1.
</event>
<event>
 4    1  0.6688462E+003  0.2045907E+02  0.7546771E-02  0.1527130E+00
          2   -1    0    0  501    0  0.00000000000E+00  0.00000000000E+00  0.16890824834E+03  0.16890824834E+03  0.00000000000E+00 0.  1.
          2   -1    0    0  502    0 -0.00000000000E+00 -0.00000000000E+00 -0.51462175870E+02  0.51462175870E+02  0.00000000000E+00 0.  1.
          2    1    1    2  501    0 -0.13176663128E+01  0.20416597415E+02 -0.48776512814E+02  0.52893495790E+02  0.00000000000E+00 0.  1.
          2    1    1    2  502    0  0.13176663128E+01 -0.20416597415E+02  0.16622258528E+03  0.16747692842E+03  0.00000000000E+00 0.  1.
</event>
<event>
 4    1  0.6688462E+003  0.2603958E+02  0.7546771E-02  0.1457502E+00
          2   -1    0    0  502    0  0.00000000000E+00  0.00000000000E+00  0.29090009905E+01  0.29090009905E+01  0.00000000000E+00 0.  1.
          2   -1    0    0  501    0 -0.00000000000E+00 -0.00000000000E+00 -0.11719116830E+04  0.11719116830E+04  0.00000000000E+00 0. -1.
          2    1    1    2  501    0  0.19591265353E+02 -0.17153478550E+02 -0.58743612477E+02  0.64256295500E+02  0.00000000000E+00 0.  1.
          2    1    1    2  502    0 -0.19591265353E+02  0.17153478550E+02 -0.11102590695E+04  0.11105643884E+04  0.00000000000E+00 0. -1.
</event>
<event>
 4    1  0.6688462E+003  0.4864741E+02  0.7546771E-02  0.1304146E+00
          2   -1    0    0  501    0  0.00000000000E+00  0.00000000000E+00  0.10981486381E+04  0.10981486381E+04  0.00000000000E+00 0. -1.
          2   -1    0    0  502    0 -0.00000000000E+00 -0.00000000000E+00 -0.23874366953E+02  0.23874366953E+02  0.00000000000E+00 0.  1.
          2    1    1    2  501    0 -0.36095308819E+02 -0.32614404451E+02  0.20446340131E+01  0.48690360696E+02  0.00000000000E+00 0.  1.
          2    1    1    2  502    0  0.36095308819E+02  0.32614404451E+02  0.10722296371E+04  0.10733326443E+04  0.00000000000E+00 0. -1.
</event>
<event>
 4    1  0.6688462E+003  0.2641039E+02  0.7546771E-02  0.1453622E+00
          2   -1    0    0  502    0  0.00000000000E+00  0.00000000000E+00  0.94419277224E+02  0.94419277224E+02  0.00000000000E+00 0.  1.
          2   -1    0    0  501    0 -0.00000000000E+00 -0.00000000000E+00 -0.84435568710E+03  0.84435568710E+03  0.00000000000E+00 0. -1.
          2    1    1    2  501    0 -0.21604561387E+02  0.15190503824E+02  0.92361407167E+02  0.96063198015E+02  0.00000000000E+00 0.  1.
          2    1    1    2  502    0  0.21604561387E+02 -0.15190503824E+02 -0.84229781705E+03  0.84271176631E+03  0.00000000000E+00 0. -1.
</event>
<event>
 4    1  0.6688462E+003  0.2178815E+02  0.7546771E-02  0.1508303E+00
          2   -1    0    0  501    0  0.00000000000E+00  0.00000000000E+00  0.70102003207E+03  0.70102003207E+03  0.00000000000E+00 0. -1.
          2   -1    0    0  502    0 -0.00000000000E+00 -0.00000000000E+00 -0.31140476358E+01  0.31140476358E+01  0.00000000000E+00 0.  1.
          2    1    1    2  501    0 -0.21533138705E+02  0.33237533131E+01  0.37510499121E+02  0.43379268584E+02  0.00000000000E+00 0.  1.
          2    1    1    2  502    0  0.21533138705E+02 -0.33237533131E+01  0.66039548532E+03  0.66075481113E+03  0.00000000000E+00 0. -1.
</event>
<event>
 4    1  0.6688462E+003  0.2733474E+02  0.7546771E-02  0.1444274E+00
          2   -1    0    0  501    0  0.00000000000E+00  0.00000000000E+00  0.25133450457E+03  0.25133450457E+03  0.00000000000E+00 0. -1.
          2   -1    0    0  502    0 -0.00000000000E+00 -0.00000000000E+00 -0.12182852587E+02  0.12182852587E+02  0.00000000000E+00 0.  1.
          2    1    1    2  501    0 -0.19134152588E+02  0.19521075135E+02  0.50156096211E+01  0.27791086872E+02  0.00000000000E+00 0.  1.
          2    1    1    2  502    0  0.19134152588E+02 -0.19521075135E+02  0.23413604236E+03  0.23572627029E+03  0.00000000000E+00 0. -1.
</event>
<event>
 4    1  0.6688462E+003  0.2851348E+02  0.7546771E-02  0.1432970E+00
          2   -1    0    0  501    0  0.00000000000E+00  0.00000000000E+00  0.14752195693E+03  0.14752195693E+03  0.00000000000E+00 0.  1.
          2   -1    0    0  502    0 -0.00000000000E+00 -0.00000000000E+00 -0.60818092138E+03  0.60818092138E+03  0.00000000000E+00 0.  1.
          2    1    1    2  501    0 -0.27049103307E+02 -0.90202251769E+01 -0.60646503212E+03  0.60713495505E+03  0.00000000000E+00 0.  1.
          2    1    1    2  502    0  0.27049103307E+02  0.90202251769E+01  0.14580606768E+03  0.14856792327E+03  0.00000000000E+00 0.  1.
</event>
<event>
 4    1  0.6688462E+003  0.2086006E+02  0.7546771E-02  0.1521272E+00
          2   -1    0    0  501    0  0.00000000000E+00  0.00000000000E+00  0.15350725622E+02  0.15350725622E+02  0.00000000000E+00 0. -1.
          2   -1    0    0  502    0 -0.00000000000E+00 -0.00000000000E+00 -0.45158704372E+03  0.45158704372E+03  0.00000000000E+00 0. -1.
          2    1    1    2  501    0 -0.14272354285E+02 -0.15213221649E+02 -0.44414072864E+03  0.44463032852E+03  0.00000000000E+00 0. -1.
          2    1    1    2  502    0  0.14272354285E+02  0.15213221649E+02  0.79044105403E+01  0.22307440816E+02  0.00000000000E+00 0. -1.
</event>
<event>
 4    1  0.6688462E+003  0.3202331E+02  0.7546771E-02  0.1402792E+00
          2   -1    0    0  502    0  0.00000000000E+00  0.00000000000E+00  0.11524144695E+04  0.11524144695E+04  0.00000000000E+00 0.  1.
          2   -1    0    0  501    0 -0.00000000000E+00 -0.00000000000E+00 -0.42271584506E+02  0.42271584506E+02  0.00000000000E+00 0. -1.
          2    1    1    2  501    0 -0.16744631664E+02 -0.27296694948E+02  0.11460936585E+04  0.11465409571E+04  0.00000000000E+00 0.  1.
          2    1    1    2  502    0  0.16744631664E+02  0.27296694948E+02 -0.35950773483E+02  0.48145096933E+02  0.00000000000E+00 0. -1.
</event>
<event>
 4    1  0.6688462E+003  0.3479772E+02  0.7546771E-02  0.1381991E+00
          2   -1    0    0  501    0  0.00000000000E+00  0.00000000000E+00  0.31764534004E+03  0.31764534004E+03  0.00000000000E+00 0.  1.
          2   -1    0    0  502    0 -0.00000000000E+00 -0.00000000000E+00 -0.52660879241E+01  0.52660879241E+01  0.00000000000E+00 0. -1.
          2    1    1    2  501    0  0.16244932487E+02 -0.30773101240E+02  0.71350449053E+02  0.79383676984E+02  0.00000000000E+00 0. -1.
          2    1    1    2  502    0 -0.16244932487E+02  0.30773101240E+02  0.24102880306E+03  0.24352775098E+03  0.00000000000E+00 0.  1.
</event>
<event>
 4    1  0.6688462E+003  0.5791388E+02  0.7546771E-02  0.1267090E+00
          2   -1    0    0  501    0  0.00000000000E+00  0.00000000000E+00  0.13332518612E+03  0.13332518612E+03  0.00000000000E+00 0.  1.
          2   -1    0    0  502    0 -0.00000000000E+00 -0.00000000000E+00 -0.72781008033E+02  0.72781008033E+02  0.00000000000E+00 0. -1.
          2    1    1    2  501    0  0.29808126535E+02  0.49653737454E+02 -0.53089594996E+02  0.78565406812E+02  0.00000000000E+00 0. -1.
          2    1    1    2  502    0 -0.29808126535E+02 -0.49653737454E+02  0.11363377309E+03  0.12754078735E+03  0.00000000000E+00 0.  1.
</event>
<event>
 4    1  0.6688462E+003  0.5840251E+02  0.7546771E-02  0.1265359E+00
          2   -1    0    0  502    0  0.00000000000E+00  0.00000000000E+00  0.68813988830E+03  0.68813988830E+03  0.00000000000E+00 0. -1.
          2   -1    0    0  501    0 -0.00000000000E+00 -0.00000000000E+00 -0.73524668381E+02  0.73524668381E+02  0.00000000000E+00 0. -1.
          2    1    1    2  501    0 -0.28936928541E+02  0.50729742714E+02  0.67507912291E+03  0.67760067505E+03  0.00000000000E+00 0. -1.
          2    1    1    2  502    0  0.28936928541E+02 -0.50729742714E+02 -0.60463902998E+02  0.84063881631E+02  0.00000000000E+00 0. -1.
</event>
<event>
 4    1  0.6688462E+003  0.2770425E+02  0.7546771E-02  0.1440659E+00
          2   -1    0    0  502    0  0.00000000000E+00  0.00000000000E+00  0.34561593264E+02  0.34561593264E+02  0.00000000000E+00 0.  1.
          2   -1    0    0  501    0 -0.00000000000E+00 -0.00000000000E+00 -0.24675766983E+03  0.24675766983E+03  0.00000000000E+00 0.  1.
          2    1    1    2  501    0  0.19406226130E+02  0.19771788453E+02  0.28082916229E+02  0.39448389259E+02  0.00000000000E+00 0.  1.
          2    1    1    2  502    0 -0.19406226130E+02 -0.19771788453E+02 -0.24027899280E+03  0.24187087384E+03  0.00000000000E+00 0.  1.
</event>
<event>
 4    1  0.6688462E+003  0.4697766E+02  0.7546771E-02  0.1311836E+00
          2   -1    0    0  502    0  0.00000000000E+00  0.00000000000E+00  0.43320102534E+03  0.43320102534E+03  0.00000000000E+00 0.  1.
          2   -1    0    0  501    0 -0.00000000000E+00 -0.00000000000E+00 -0.24523756229E+04  0.24523756229E+04  0.00000000000E+00 0. -1.
          2    1    1    2  501    0  0.61901161925E+01 -0.46568043578E+02  0.43170166998E+03  0.43425019526E+03  0.00000000000E+00 0.  1.
          2    1    1    2  502    0 -0.61901161925E+01  0.46568043578E+02 -0.24508762676E+04  0.24513264530E+04  0.00000000000E+00 0. -1.
</event>
<event>
 4    1  0.6688462E+003  0.2790725E+02  0.7546771E-02  0.1438701E+00
          2   -1    0    0  501    0  0.00000000000E+00  0.00000000000E+00  0.19149636412E+02  0.19149636412E+02  0.00000000000E+00 0. -1.
          2   -1    0    0  502    0 -0.00000000000E+00 -0.00000000000E+00 -0.10014133979E+04  0.10014133979E+04  0.00000000000E+00 0.  1.
          2    1    1    2  501    0 -0.16048454834E+02 -0.22831156039E+02 -0.99094408569E+03  0.99133697377E+03  0.00000000000E+00 0.  1.
          2    1    1    2  502    0  0.16048454834E+02  0.22831156039E+02  0.86803241788E+01  0.29226060571E+02  0.00000000000E+00 0. -1.
</event>
<event>
 4    1  0.6688462E+003  0.2340278E+02  0.7546771E-02  0.1487501E+00
          2   -1    0    0  501    0  0.00000000000E+00  0.00000000000E+00  0.24784196410E+01  0.24784196410E+01  0.00000000000E+00 0.  1.
          2   -1    0    0  502    0 -0.00000000000E+00 -0.00000000000E+00 -0.17685185311E+04  0.17685185311E+04  0.00000000000E+00 0. -1.
          2    1    1    2  501    0 -0.88388005970E+01 -0.21669461491E+02 -0.17113497845E+04  0.17115097939E+04  0.00000000000E+00 0. -1.
          2    1    1    2  502    0  0.88388005970E+01  0.21669461491E+02 -0.54690326944E+02  0.59487156753E+02  0.00000000000E+00 0.  1.
</event>
<event>
 4    1  0.6688462E+003  0.4834909E+02  0.7546771E-02  0.1305493E+00
          2   -1    0    0  502    0  0.00000000000E+00  0.00000000000E+00  0.16983946746E+04  0.16983946746E+04  0.00000000000E+00 0.  1.
          2   -1    0    0  501    0 -0.00000000000E+00 -0.00000000000E+00 -0.11764054754E+02  0.11764054754E+02  0.00000000000E+00 0. -1.
          2    1    1    2  501    0  0.47071641275E+02  0.11040597429E+02  0.16468175773E+04  0.16475271673E+04  0.00000000000E+00 0.  1.
          2    1    1    2  502    0 -0.47071641275E+02 -0.11040597429E+02  0.39813042540E+02  0.62631562013E+02  0.00000000000E+00 0. -1.
</event>
<event>
 4    1  0.6688462E+003  0.3465916E+02  0.7546771E-02  0.1382975E+00
          2   -1    0    0  501    0  0.00000000000E+00  0.00000000000E+00  0.25064068144E+04  0.25064068144E+04  0.00000000000E+00 0. -1.
          2   -1    0    0  502    0 -0.00000000000E+00 -0.00000000000E+00 -0.10523212010E+01  0.10523212010E+01  0.00000000000E+00 0.  1.
          2    1    1    2  501    0  0.98436166594E+01 -0.33231926069E+02  0.32750074932E+03  0.32932961984E+03  0.00000000000E+00 0.  1.
          2    1    1    2  502    0 -0.98436166594E+01  0.33231926069E+02  0.21778537439E+04  0.21781295158E+04  0.00000000000E+00 0. -1.
</event>
<event>
 4    1  0.6688462E+003  0.3705485E+02  0.7546771E-02  0.1366666E+00
          2   -1    0    0  501    0  0.00000000000E+00  0.00000000000E+00  0.52399186401E+01  0.52399186401E+01  0.00000000000E+00 0.  1.
          2   -1    0    0  502    0 -0.00000000000E+00 -0.00000000000E+00 -0.44768120688E+03  0.44768120688E+03  0.00000000000E+00 0.  1.
          2    1    1    2  501    0 -0.24730203007E+02  0.27594909970E+02 -0.36705060008E+03  0.36891625746E+03  0.00000000000E+00 0.  1.
          2    1    1    2  502    0  0.24730203007E+02 -0.27594909970E+02 -0.75390688157E+02  0.84004868060E+02  0.00000000000E+00 0.  1.
</event>
<event>
 4    1  0.6688462E+003  0.2830416E+02  0.7546771E-02  0.1434930E+00
          2   -1    0    0  501    0  0.00000000000E+00  0.00000000000E+00  0.10111957412E+02  0.10111957412E+02  0.00000000000E+00 0. -1.
          2   -1    0    0  502    0 -0.00000000000E+00 -0.00000000000E+00 -0.88488239949E+03  0.88488239949E+03  0.00000000000E+00 0.  1.
          2    1    1    2  501    0 -0.27057871522E+02 -0.83064621320E+01 -0.86438000097E+03  0.86484328742E+03  0.00000000000E+00 0.  1.
          2    1    1    2  502    0  0.27057871522E+02  0.83064621320E+01 -0.10390441113E+02  0.30151069483E+02  0.00000000000E+00 0. -1.
</event>
<event>
 4    1  0.6688462E+003  0.8999804E+02  0.7546771E-02  0.1182368E+00
          2   -1    0    0  502    0  0.00000000000E+00  0.00000000000E+00  0.10295844105E+04  0.10295844105E+04  0.00000000000E+00 0.  1.
          2   -1    0    0  501    0 -0.00000000000E+00 -0.00000000000E+00 -0.50988844766E+03  0.50988844766E+03  0.00000000000E+00 0.  1.
          2    1    1    2  501    0 -0.67367466489E+02  0.59676390026E+02  0.10236233170E+04  0.10275720618E+04  0.00000000000E+00 0.  1.
          2    1    1    2  502    0  0.67367466489E+02 -0.59676390026E+02 -0.50392735415E+03  0.51190079637E+03  0.00000000000E+00 0.  1.
</event>
<event>
 4    1  0.6688462E+003  0.3911955E+02  0.7546771E-02  0.1353724E+00
          2   -1    0    0  501    0  0.00000000000E+00  0.00000000000E+00  0.25556936336E+04  0.25556936336E+04  0.00000000000E+00 0.  1.
          2   -1    0    0  502    0 -0.00000000000E+00 -0.00000000000E+00 -0.12393642051E+02  0.12393642051E+02  0.00000000000E+00 0.  1.
          2    1    1    2  501    0 -0.52066176707E+01 -0.38771518654E+02  0.19009509231E+02  0.43493688824E+02  0.00000000000E+00 0.  1.
          2    1    1    2  502    0  0.52066176707E+01  0.38771518654E+02  0.25242904823E+04  0.25245935868E+04  0.00000000000E+00 0.  1.
</event>
<event>
 4    1  0.6688462E+003  0.2327641E+02  0.7546771E-02  0.1489056E+00
          2   -1    0    0  502    0  0.00000000000E+00  0.00000000000E+00  0.10283522030E+04  0.10283522030E+04  0.00000000000E+00 0.  1.
          2   -1    0    0  501    0 -0.00000000000E+00 -0.00000000000E+00 -0.18635386804E+02  0.18635386804E+02  0.00000000000E+00 0.  1.
          2    1    1    2  501    0  0.22015790634E+02 -0.75562030047E+01  0.10208991218E+04  0.10211644374E+04  0.00000000000E+00 0.  1.
          2    1    1    2  502    0 -0.22015790634E+02  0.75562030047E+01 -0.11182305635E+02  0.25823152410E+02  0.00000000000E+00 0.  1.
</event>
<event>
 4    1  0.6688462E+003  0.2178569E+02  0.7546771E-02  0.1508336E+00
          2   -1    0    0  501    0  0.00000000000E+00  0.00000000000E+00  0.14813252016E+02  0.14813252016E+02  0.00000000000E+00 0. -1.
          2   -1    0    0  502    0 -0.00000000000E+00 -0.00000000000E+00 -0.73615555914E+02  0.73615555914E+02  0.00000000000E+00 0.  1.
          2    1    1    2  501    0  0.21583474620E+02 -0.29614058767E+01 -0.62628686071E+02  0.66309641987E+02  0.00000000000E+00 0.  1.
          2    1    1    2  502    0 -0.21583474620E+02  0.29614058767E+01  0.38263821738E+01  0.22119165942E+02  0.00000000000E+00 0. -1.
</event>
<event>
 4    1  0.6688462E+003  0.2133283E+02  0.7546771E-02  0.1514566E+00
          2   -1    0    0  501    0  0.00000000000E+00  0.00000000000E+00  0.67925244111E+02  0.67925244111E+02  0.00000000000E+00 0. -1.
          2   -1    0    0  502    0 -0.00000000000E+00 -0.00000000000E+00 -0.68164423399E+01  0.68164423399E+01  0.00000000000E+00 0. -1.
          2    1    1    2  501    0 -0.44704825781E+01  0.20859157707E+02  0.25667100160E+02  0.33374986223E+02  0.00000000000E+00 0. -1.
          2    1    1    2  502    0  0.44704825781E+01 -0.20859157707E+02  0.35441701611E+02  0.41366700229E+02  0.00000000000E+00 0. -1.
</event>
<event>
 4    1  0.6688462E+003  0.2071200E+02  0.7546771E-02  0.1523417E+00
          2   -1    0    0  502    0  0.00000000000E+00  0.00000000000E+00  0.71042145133E+02  0.71042145133E+02  0.00000000000E+00 0.  1.
          2   -1    0    0  501    0 -0.00000000000E+00 -0.00000000000E+00 -0.33929152729E+03  0.33929152729E+03  0.00000000000E+00 0. -1.
          2    1    1    2  501    0 -0.12143470500E+02 -0.16778649886E+02  0.69208237197E+02  0.72241034486E+02  0.00000000000E+00 0.  1.
          2    1    1    2  502    0  0.12143470500E+02  0.16778649886E+02 -0.33745761935E+03  0.33809263793E+03  0.00000000000E+00 0. -1.
</event>
<event>
 4    1  0.6688462E+003  0.2882081E+02  0.7546771E-02  0.1430128E+00
          2   -1    0    0  501    0  0.00000000000E+00  0.00000000000E+00  0.95384454850E+03  0.95384454850E+03  0.00000000000E+00 0.  1.
          2   -1    0    0  502    0 -0.00000000000E+00 -0.00000000000E+00 -0.98388814732E+00  0.98388814732E+00  0.00000000000E+00 0.  1.
          2    1    1    2  501    0 -0.26155719632E+02 -0.12104449682E+02  0.31459716430E+03  0.31591456940E+03  0.00000000000E+00 0.  1.
          2    1    1    2  502    0  0.26155719632E+02  0.12104449682E+02  0.63826349605E+03  0.63891386725E+03  0.00000000000E+00 0.  1.
</event>
<event>
 4    1  0.6688462E+003  0.2529309E+02  0.7546771E-02  0.1465551E+00
          2   -1    0    0  502    0  0.00000000000E+00  0.00000000000E+00  0.62922098649E+00  0.62922098649E+00  0.00000000000E+00 0.  1.
          2   -1    0    0  501    0 -0.00000000000E+00 -0.00000000000E+00 -0.18995942875E+04  0.18995942875E+04  0.00000000000E+00 0. -1.
          2    1    1    2  501    0 -0.77571774843E+01  0.24074188135E+02 -0.30175228803E+03  0.30281047483E+03  0.00000000000E+00 0.  1.
          2    1    1    2  502    0  0.77571774843E+01 -0.24074188135E+02 -0.15972127784E+04  0.15974130336E+04  0.00000000000E+00 0. -1.
</event>
<event>
 4    1  0.6688462E+003  0.2069261E+02  0.7546771E-02  0.1523699E+00
          2   -1    0    0  501    0  0.00000000000E+00  0.00000000000E+00  0.33054144687E+03  0.33054144687E+03  0.00000000000E+00 0.  1.
          2   -1    0    0  502    0 -0.00000000000E+00 -0.00000000000E+00 -0.89410366972E+02  0.89410366972E+02  0.00000000000E+00 0. -1.
          2    1    1    2  501    0  0.19773417004E+01 -0.20597916302E+02 -0.87883722882E+02  0.90286946918E+02  0.00000000000E+00 0. -1.
          2    1    1    2  502    0 -0.19773417004E+01  0.20597916302E+02  0.32901480278E+03  0.32966486692E+03  0.00000000000E+00 0.  1.
</event>
<event>
 4    1  0.6688462E+003  0.2607542E+02  0.7546771E-02  0.1457123E+00
          2   -1    0    0  502    0  0.00000000000E+00  0.00000000000E+00  0.31177714513E+03  0.31177714513E+03  0.00000000000E+00 0.  1.
          2   -1    0    0  501    0 -0.00000000000E+00 -0.00000000000E+00 -0.11548357279E+03  0.11548357279E+03  0.00000000000E+00 0. -1.
          2    1    1    2  501    0  0.26241605425E+01  0.25943040175E+02  0.30975041406E+03  0.31084601745E+03  0.00000000000E+00 0.  1.
          2    1    1    2  502    0 -0.26241605425E+01 -0.25943040175E+02 -0.11345684173E+03  0.11641470047E+03  0.00000000000E+00 0. -1.
</event>
<event>
 4    1  0.6688462E+003  0.2852272E+02  0.7546771E-02  0.1432884E+00
          2   -1    0    0  501    0  0.00000000000E+00  0.00000000000E+00  0.54598849021E+01  0.54598849021E+01  0.00000000000E+00 0.  1.
          2   -1    0    0  502    0 -0.00000000000E+00 -0.00000000000E+00 -0.15609914422E+03  0.15609914422E+03  0.00000000000E+00 0.  1.
          2    1    1    2  501    0 -0.28456619110E+02 -0.19407567513E+01 -0.92541324337E+02  0.96837195426E+02  0.00000000000E+00 0.  1.
          2    1    1    2  502    0  0.28456619110E+02  0.19407567513E+01 -0.58097934978E+02  0.64721833694E+02  0.00000000000E+00 0.  1.
</event>
<event>
 4    1  0.6688462E+003  0.2136880E+02  0.7546771E-02  0.1514064E+00
          2   -1    0    0  502    0  0.00000000000E+00  0.00000000000E+00  0.11206906910E+04  0.11206906910E+04  0.00000000000E+00 0. -1.
          2   -1    0    0  501    0 -0.00000000000E+00 -0.00000000000E+00 -0.92146163173E+00  0.92146163173E+00  0.00000000000E+00 0.  1.
          2    1    1    2  501    0 -0.17322720496E+02 -0.12511957329E+02  0.97873646934E+03  0.97896971462E+03  0.00000000000E+00 0. -1.
          2    1    1    2  502    0  0.17322720496E+02  0.12511957329E+02  0.14103276005E+03  0.14264243803E+03  0.00000000000E+00 0.  1.
</event>
<event>
 4    1  0.6688462E+003  0.2299293E+02  0.7546771E-02  0.1492587E+00
          2   -1    0    0  502    0  0.00000000000E+00  0.00000000000E+00  0.10543315213E+04  0.10543315213E+04  0.00000000000E+00 0. -1.
          2   -1    0    0  501    0 -0.00000000000E+00 -0.00000000000E+00 -0.12757062911E+02  0.12757062911E+02  0.00000000000E+00 0. -1.
          2    1    1    2  501    0 -0.53935430920E+01  0.22351389018E+02  0.10437406128E+04  0.10439938418E+04  0.00000000000E+00 0. -1.
          2    1    1    2  502    0  0.53935430920E+01 -0.22351389018E+02 -0.21661544932E+01  0.23094742333E+02  0.00000000000E+00 0. -1.
</event>
<event>
 4    1  0.6688462E+003  0.3531327E+02  0.7546771E-02  0.1378374E+00
          2   -1    0    0  502    0  0.00000000000E+00  0.00000000000E+00  0.10666659725E+02  0.10666659725E+02  0.00000000000E+00 0. -1.
          2   -1    0    0  501    0 -0.00000000000E+00 -0.00000000000E+00 -0.16379135755E+04  0.16379135755E+04  0.00000000000E+00 0.  1.
          2    1    1    2  501    0  0.11653041202E+02 -0.33335170039E+02 -0.19295436357E+02  0.40241033721E+02  0.00000000000E+00 0. -1.
          2    1    1    2  502    0 -0.11653041202E+02  0.33335170039E+02 -0.16079514795E+04  0.16083392015E+04  0.00000000000E+00 0.  1.
</event>
<event>
 4    1  0.6688462E+003  0.3082242E+02  0.7546771E-02  0.1412581E+00
          2   -1    0    0  501    0  0.00000000000E+00  0.00000000000E+00  0.13040724363E+02  0.13040724363E+02  0.00000000000E+00 0. -1.
          2   -1    0    0  502    0 -0.00000000000E+00 -0.00000000000E+00 -0.24298759374E+03  0.24298759374E+03  0.00000000000E+00 0. -1.
          2    1    1    2  501    0  0.25798285787E+02  0.16866248296E+02 -0.22209221039E+03  0.22422081035E+03  0.00000000000E+00 0. -1.
          2    1    1    2  502    0 -0.25798285787E+02 -0.16866248296E+02 -0.78546589865E+01  0.31807507745E+02  0.00000000000E+00 0. -1.
</event>
<event>
 4    1  0.6688462E+003  0.2009076E+02  0.7546771E-02  0.1532653E+00
          2   -1    0    0  501    0  0.00000000000E+00  0.00000000000E+00  0.31689294200E+03  0.31689294200E+03  0.00000000000E+00 0.  1.
          2   -1    0    0  502    0 -0.00000000000E+00 -0.00000000000E+00 -0.95771865913E+01  0.95771865913E+01  0.00000000000E+00 0.  1.
          2    1    1    2  501    0 -0.74957212830E+01 -0.18640085831E+02  0.16648289944E+01  0.20159620356E+02  0.00000000000E+00 0.  1.
          2    1    1    2  502    0  0.74957212830E+01  0.18640085831E+02  0.30565092642E+03  0.30631050824E+03  0.00000000000E+00 0.  1.
</event>
<event>
 4    1  0.6688462E+003  0.3675492E+02  0.7546771E-02  0.1368628E+00
          2   -1    0    0  501    0  0.00000000000E+00  0.00000000000E+00  0.26930031151E+04  0.26930031151E+04  0.00000000000E+00 0.  1.
          2   -1    0    0  502    0 -0.00000000000E+00 -0.00000000000E+00 -0.11267951223E+03  0.11267951223E+03  0.00000000000E+00 0. -1.
          2    1    1    2  501    0 -0.34919351995E+02 -0.11470097724E+02 -0.10955334707E+03  0.11555457646E+03  0.00000000000E+00 0. -1.
          2    1    1    2  502    0  0.34919351995E+02  0.11470097724E+02  0.26898769499E+04  0.26901280509E+04  0.00000000000E+00 0.  1.
</event>
<event>
 4    1  0.6688462E+003  0.2444570E+02  0.7546771E-02  0.1475101E+00
          2   -1    0    0  501    0  0.00000000000E+00  0.00000000000E+00  0.56779979729E+01  0.56779979729E+01  0.00000000000E+00 0.  1.
          2   -1    0    0  502    0 -0.00000000000E+00 -0.00000000000E+00 -0.67205795760E+03  0.67205795760E+03  0.00000000000E+00 0.  1.
          2    1    1    2  501    0 -0.12586406250E+02  0.20956498326E+02 -0.64439476977E+03  0.64485828812E+03  0.00000000000E+00 0.  1.
          2    1    1    2  502    0  0.12586406250E+02 -0.20956498326E+02 -0.21985189857E+02  0.32877667457E+02  0.00000000000E+00 0.  1.
</event>
<event>
 4    1  0.6688462E+003  0.5643010E+02  0.7546771E-02  0.1272469E+00
          2   -1    0    0  502    0  0.00000000000E+00  0.00000000000E+00  0.14081201050E+02  0.14081201050E+02  0.00000000000E+00 0.  1.
          2   -1    0    0  501    0 -0.00000000000E+00 -0.00000000000E+00 -0.12116664640E+04  0.12116664640E+04  0.00000000000E+00 0. -1.
          2    1    1    2  501    0  0.10998125765E+02  0.55347971697E+02 -0.46062488443E+02  0.72843047595E+02  0.00000000000E+00 0.  1.
          2    1    1    2  502    0 -0.10998125765E+02 -0.55347971697E+02 -0.11515227745E+04  0.11529046175E+04  0.00000000000E+00 0. -1.
</event>
<event>
 4    1  0.6688462E+003  0.2732616E+02  0.7546771E-02  0.1444359E+00
          2   -1    0    0  501    0  0.00000000000E+00  0.00000000000E+00  0.43009821454E+03  0.43009821454E+03  0.00000000000E+00 0. -1.
          2   -1    0    0  502    0 -0.00000000000E+00 -0.00000000000E+00 -0.45434420224E+03  0.45434420224E+03  0.00000000000E+00 0. -1.
          2    1    1    2  501    0 -0.15510476778E+02  0.22497648915E+02 -0.45349847624E+03  0.45432101762E+03  0.00000000000E+00 0. -1.
          2    1    1    2  502    0  0.15510476778E+02 -0.22497648915E+02  0.42925248854E+03  0.43012139916E+03  0.00000000000E+00 0. -1.
</event>
<event>
 4    1  0.6688462E+003  0.2127272E+02  0.7546771E-02  0.1515407E+00
          2   -1    0    0  501    0  0.00000000000E+00  0.00000000000E+00  0.20263569638E+03  0.20263569638E+03  0.00000000000E+00 0.  1.
          2   -1    0    0  502    0 -0.00000000000E+00 -0.00000000000E+00 -0.96132072821E+03  0.96132072821E+03  0.00000000000E+00 0.  1.
          2    1    1    2  501    0  0.11981000319E+02 -0.17577950180E+02 -0.96064434776E+03  0.96087985284E+03  0.00000000000E+00 0.  1.
          2    1    1    2  502    0 -0.11981000319E+02  0.17577950180E+02  0.20195931594E+03  0.20307657175E+03  0.00000000000E+00 0.  1.
</event>
<event>
 4    1  0.6688462E+003  0.2845402E+02  0.7546771E-02  0.1433525E+00
          2   -1    0    0  502    0  0.00000000000E+00  0.00000000000E+00  0.92789242828E+01  0.92789242828E+01  0.00000000000E+00 0. -1.
          2   -1    0    0  501    0 -0.00000000000E+00 -0.00000000000E+00 -0.32864904323E+03  0.32864904323E+03  0.00000000000E+00 0. -1.
          2    1    1    2  501    0 -0.23921990626E+02  0.15406796856E+02 -0.14877452830E+02  0.32108715757E+02  0.00000000000E+00 0. -1.
          2    1    1    2  502    0  0.23921990626E+02 -0.15406796856E+02 -0.30449266612E+03  0.30581925176E+03  0.00000000000E+00 0. -1.
</event>
<event>
 4    1  0.6688462E+003  0.2306354E+02  0.7546771E-02  0.1491702E+00
          2   -1    0    0  501    0  0.00000000000E+00  0.00000000000E+00  0.62297337067E+01  0.62297337067E+01  0.00000000000E+00 0. -1.
          2   -1    0    0  502    0 -0.00000000000E+00 -0.00000000000E+00 -0.23440862739E+03  0.23440862739E+03  0.00000000000E+00 0.  1.
          2    1    1    2  501    0 -0.12688494302E+02  0.19259519813E+02 -0.21002406671E+03  0.21128661952E+03  0.00000000000E+00 0.  1.
          2    1    1    2  502    0  0.12688494302E+02 -0.19259519813E+02 -0.18154826973E+02  0.29351741575E+02  0.00000000000E+00 0. -1.
</event>
<event>
 4    1  0.6688462E+003  0.5361494E+02  0.7546771E-02  0.1283217E+00
          2   -1    0    0  501    0  0.00000000000E+00  0.00000000000E+00  0.20510595855E+03  0.20510595855E+03  0.00000000000E+00 0. -1.
          2   -1    0    0  502    0 -0.00000000000E+00 -0.00000000000E+00 -0.61929238468E+03  0.61929238468E+03  0.00000000000E+00 0.  1.
          2    1    1    2  501    0 -0.15054759453E+02  0.51457902973E+02 -0.61460151974E+03  0.61693564464E+03  0.00000000000E+00 0.  1.
          2    1    1    2  502    0  0.15054759453E+02 -0.51457902973E+02  0.20041509361E+03  0.20746269859E+03  0.00000000000E+00 0. -1.
</event>
<event>
 4    1  0.6688462E+003  0.2168070E+02  0.7546771E-02  0.1509764E+00
          2   -1    0    0  502    0  0.00000000000E+00  0.00000000000E+00  0.66136174636E+00  0.66136174636E+00  0.00000000000E+00 0. -1.
          2   -1    0    0  501    0 -0.00000000000E+00 -0.00000000000E+00 -0.15218448224E+04  0.15218448224E+04  0.00000000000E+00 0. -1.
          2    1    1    2  501    0 -0.18672565244E+02 -0.11017618141E+02 -0.20483612523E+03  0.20598031654E+03  0.00000000000E+00 0. -1.
          2    1    1    2  502    0  0.18672565244E+02  0.11017618141E+02 -0.13163473354E+04  0.13165258676E+04  0.00000000000E+00 0. -1.
</event>
<event>
 4    1  0.6688462E+003  0.2391016E+02  0.7546771E-02  0.1481375E+00
          2   -1    0    0  502    0  0.00000000000E+00  0.00000000000E+00  0.17500235144E+02  0.17500235144E+02  0.00000000000E+00 0.  1.
          2   -1    0    0  501    0 -0.00000000000E+00 -0.00000000000E+00 -0.77492707770E+03  0.77492707770E+03  0.00000000000E+00 0.  1.
          2    1    1    2  501    0 -0.21987852127E+02  0.93930985010E+01  0.90589033305E+01  0.25568724453E+02  0.00000000000E+00 0.  1.
          2    1    1    2  502    0  0.21987852127E+02 -0.93930985010E+01 -0.76648574589E+03  0.76685858839E+03  0.00000000000E+00 0.  1.
</event>
<event>
 4    1  0.6688462E+003  0.2330868E+02  0.7546771E-02  0.1488658E+00
          2   -1    0    0  502    0  0.00000000000E+00  0.00000000000E+00  0.11623603290E+04  0.11623603290E+04  0.00000000000E+00 0. -1.
          2   -1    0    0  501    0 -0.00000000000E+00 -0.00000000000E+00 -0.18870562135E+01  0.18870562135E+01  0.00000000000E+00 0.  1.
          2    1    1    2  501    0  0.21462512264E+02  0.90914955573E+01  0.10851460441E+04  0.10853963478E+04  0.00000000000E+00 0. -1.
          2    1    1    2  502    0 -0.21462512264E+02 -0.90914955573E+01  0.75327228636E+02  0.78851037394E+02  0.00000000000E+00 0.  1.
</event>
<event>
 4    1  0.6688462E+003  0.2710193E+02  0.7546771E-02  0.1446587E+00
          2   -1    0    0  501    0  0.00000000000E+00  0.00000000000E+00  0.28754076572E+03  0.28754076572E+03  0.00000000000E+00 0.  1.
          2   -1    0    0  502    0 -0.00000000000E+00 -0.00000000000E+00 -0.78266771296E+02  0.78266771296E+02  0.00000000000E+00 0. -1.
          2    1    1    2  501    0 -0.19188580366E+01 -0.27033918088E+02 -0.75257203479E+02  0.79988508042E+02  0.00000000000E+00 0. -1.
          2    1    1    2  502    0  0.19188580366E+01  0.27033918088E+02  0.28453119790E+03  0.28581902897E+03  0.00000000000E+00 0.  1.
</event>
<event>
 4    1  0.6688462E+003  0.2404037E+02  0.7546771E-02  0.1479832E+00
          2   -1    0    0  501    0  0.00000000000E+00  0.00000000000E+00  0.72546305945E+02  0.72546305945E+02  0.00000000000E+00 0.  1.
          2   -1    0    0  502    0 -0.00000000000E+00 -0.00000000000E+00 -0.29803510106E+02  0.29803510106E+02  0.00000000000E+00 0. -1.
          2    1    1    2  501    0  0.22340856151E+02 -0.88783873767E+01 -0.22433232748E+02  0.32881446859E+02  0.00000000000E+00 0. -1.
          2    1    1    2  502    0 -0.22340856151E+02  0.88783873767E+01  0.65176028587E+02  0.69468369193E+02  0.00000000000E+00 0.  1.
</event>
<event>
 4    1  0.6688462E+003  0.2003297E+02  0.7546771E-02  0.1533532E+00
          2   -1    0    0  502    0  0.00000000000E+00  0.00000000000E+00  0.97469151200E+03  0.97469151200E+03  0.00000000000E+00 0. -1.
          2   -1    0    0  501    0 -0.00000000000E+00 -0.00000000000E+00 -0.96032187833E+02  0.96032187833E+02  0.00000000000E+00 0. -1.
          2    1    1    2  501    0 -0.98539899878E+01  0.17441866990E+02  0.97354259061E+03  0.97374868194E+03  0.00000000000E+00 0. -1.
          2    1    1    2  502    0  0.98539899878E+01 -0.17441866990E+02 -0.94883266449E+02  0.96975017890E+02  0.00000000000E+00 0. -1.
</event>
<event>
 4    1  0.6688462E+003  0.2211371E+02  0.7546771E-02  0.1503938E+00
          2   -1    0    0  502    0  0.00000000000E+00  0.00000000000E+00  0.41422302934E+03  0.41422302934E+03  0.00000000000E+00 0.  1.
          2   -1    0    0  501    0 -0.00000000000E+00 -0.00000000000E+00 -0.54205233942E+02  0.54205233942E+02  0.00000000000E+00 0. -1.
          2    1    1    2  501    0 -0.18909507510E+02  0.11465014905E+02  0.41165845691E+03  0.41225198749E+03  0.00000000000E+00 0.  1.
          2    1    1    2  502    0  0.18909507510E+02 -0.11465014905E+02 -0.51640661511E+02  0.56176275796E+02  0.00000000000E+00 0. -1.
</event>
<event>
 4    1  0.6688462E+003  0.2863319E+02  0.7546771E-02  0.1431858E+00
          2   -1    0    0  501    0  0.00000000000E+00  0.00000000000E+00  0.12412933366E+04  0.12412933366E+04  0.00000000000E+00 0. -1.
          2   -1    0    0  502    0 -0.00000000000E+00 -0.00000000000E+00 -0.25896451372E+01  0.25896451372E+01  0.00000000000E+00 0. -1.
          2    1    1    2  501    0 -0.55809401555E+00 -0.28627746777E+02  0.82550984175E+02  0.87375765191E+02  0.00000000000E+00 0. -1.
          2    1    1    2  502    0  0.55809401555E+00  0.28627746777E+02  0.11561527073E+04  0.11565072165E+04  0.00000000000E+00 0. -1.
</event>
<event>
 4    1  0.6688462E+003  0.2031141E+02  0.7546771E-02  0.1529327E+00
          2   -1    0    0  502    0  0.00000000000E+00  0.00000000000E+00  0.74711885403E+03  0.74711885403E+03  0.00000000000E+00 0.  1.
          2   -1    0    0  501    0 -0.00000000000E+00 -0.00000000000E+00 -0.67574227827E+01  0.67574227827E+01  0.00000000000E+00 0. -1.
          2    1    1    2  501    0 -0.17919413291E+02 -0.95628456336E+01  0.73138965421E+03  0.73167163377E+03  0.00000000000E+00 0.  1.
          2    1    1    2  502    0  0.17919413291E+02  0.95628456336E+01  0.89717770450E+01  0.22204643043E+02  0.00000000000E+00 0. -1.
</event>
<event>
 4    1  0.6688462E+003  0.2652030E+02  0.7546771E-02  0.1452487E+00
          2   -1    0    0  501    0  0.00000000000E+00  0.00000000000E+00  0.41778858104E+00  0.41778858104E+00  0.00000000000E+00 0. -1.
          2   -1    0    0  502    0 -0.00000000000E+00 -0.00000000000E+00 -0.18716421653E+04  0.18716421653E+04  0.00000000000E+00 0. -1.
          2    1    1    2  501    0 -0.21391239213E+02 -0.15676141404E+02 -0.12324219528E+04  0.12327072630E+04  0.00000000000E+00 0. -1.
          2    1    1    2  502    0  0.21391239213E+02  0.15676141404E+02 -0.63880242391E+03  0.63935269086E+03  0.00000000000E+00 0. -1.
</event>
<event>
 4    1  0.6688462E+003  0.3610981E+02  0.7546771E-02  0.1372924E+00
          2   -1    0    0  502    0  0.00000000000E+00  0.00000000000E+00  0.73805605339E+01  0.73805605339E+01  0.00000000000E+00 0.  1.
          2   -1    0    0  501    0 -0.00000000000E+00 -0.00000000000E+00 -0.26844578735E+03  0.26844578735E+03  0.00000000000E+00 0.  1.
          2    1    1    2  501    0 -0.29795807638E+02  0.20399227197E+02 -0.49893987003E+02  0.61590003751E+02  0.00000000000E+00 0.  1.
          2    1    1    2  502    0  0.29795807638E+02 -0.20399227197E+02 -0.21117123982E+03  0.21423634414E+03  0.00000000000E+00 0.  1.
</event>
<event>
 4    1  0.6688462E+003  0.2045900E+02  0.7546771E-02  0.1527131E+00
          2   -1    0    0  501    0  0.00000000000E+00  0.00000000000E+00  0.30570490312E+03  0.30570490312E+03  0.00000000000E+00 0. -1.
          2   -1    0    0  502    0 -0.00000000000E+00 -0.00000000000E+00 -0.10023969975E+02  0.10023969975E+02  0.00000000000E+00 0. -1.
          2    1    1    2  501    0 -0.11806487486E+01  0.20424900888E+02  0.11532583301E+01  0.20491474143E+02  0.00000000000E+00 0. -1.
          2    1    1    2  502    0  0.11806487486E+01 -0.20424900888E+02  0.29452767482E+03  0.29523739896E+03  0.00000000000E+00 0. -1.
</event>
<event>
 4    1  0.6688462E+003  0.4172818E+02  0.7546771E-02  0.1338646E+00
          2   -1    0    0  502    0  0.00000000000E+00  0.00000000000E+00  0.15838999781E+04  0.15838999781E+04  0.00000000000E+00 0.  1.
          2   -1    0    0  501    0 -0.00000000000E+00 -0.00000000000E+00 -0.43532783247E+01  0.43532783247E+01  0.00000000000E+00 0.  1.
          2    1    1    2  501    0  0.24058764765E+02  0.34094235694E+02  0.14763457624E+04  0.14769353579E+04  0.00000000000E+00 0.  1.
          2    1    1    2  502    0 -0.24058764765E+02 -0.34094235694E+02  0.10320093728E+03  0.11131789850E+03  0.00000000000E+00 0.  1.
</event>
<event>
 4    1  0.7938206E+003  0.3167118E+02  0.7546771E-02  0.1405609E+00
          2   -1    0    0  502    0  0.00000000000E+00  0.00000000000E+00  0.93730929277E+03  0.93730929277E+03  0.00000000000E+00 0. -1.
          2   -1    0    0  501    0 -0.00000000000E+00 -0.00000000000E+00 -0.36180997438E+03  0.36180997438E+03  0.00000000000E+00 0.  1.
          2    1    1    2  501    0 -0.75365572386E+01  0.30761401490E+02  0.93634795611E+03  0.93688342841E+03  0.00000000000E+00 0. -1.
          2    1    1    2  502    0  0.75365572386E+01 -0.30761401490E+02 -0.36084863772E+03  0.36223583873E+03  0.00000000000E+00 0.  1.
</event>
<event>
 4    1  0.6688462E+003  0.5838303E+02  0.7546771E-02  0.1265428E+00
          2   -1    0    0  501    0  0.00000000000E+00  0.00000000000E+00  0.21296779891E+03  0.21296779891E+03  0.00000000000E+00 0.  1.
          2   -1    0    0  502    0 -0.00000000000E+00 -0.00000000000E+00 -0.16008374077E+02  0.16008374077E+02  0.00000000000E+00 0. -1.
          2    1    1    2  501    0 -0.57994220974E+02 -0.67266864645E+01  0.96850710405E+02  0.11308686079E+03  0.00000000000E+00 0.  1.
          2    1    1    2  502    0  0.57994220974E+02  0.67266864645E+01  0.10010871443E+03  0.11588931220E+03  0.00000000000E+00 0. -1.
</event>
<event>
 4    1  0.6688462E+003  0.2337910E+02  0.7546771E-02  0.1487792E+00
          2   -1    0    0  501    0  0.00000000000E+00  0.00000000000E+00  0.15340519885E+03  0.15340519885E+03  0.00000000000E+00 0. -1.
          2   -1    0    0  502    0 -0.00000000000E+00 -0.00000000000E+00 -0.36898493972E+02  0.36898493972E+02  0.00000000000E+00 0.  1.
          2    1    1    2  501    0 -0.10694517114E+02 -0.20789654079E+02 -0.32187856818E+02  0.39782414954E+02  0.00000000000E+00 0.  1.
          2    1    1    2  502    0  0.10694517114E+02  0.20789654079E+02  0.14869456170E+03  0.15052127787E+03  0.00000000000E+00 0. -1.
</event>
<event>
 4    1  0.6688462E+003  0.2375806E+02  0.7546771E-02  0.1483192E+00
          2   -1    0    0  502    0  0.00000000000E+00  0.00000000000E+00  0.72417041767E+03  0.72417041767E+03  0.00000000000E+00 0. -1.
          2   -1    0    0  501    0 -0.00000000000E+00 -0.00000000000E+00 -0.12046721947E+03  0.12046721947E+03  0.00000000000E+00 0. -1.
          2    1    1    2  501    0 -0.23545335666E+02  0.31721423170E+01  0.72280197426E+03  0.72319232526E+03  0.00000000000E+00 0. -1.
          2    1    1    2  502    0  0.23545335666E+02 -0.31721423170E+01 -0.11909877606E+03  0.12144531188E+03  0.00000000000E+00 0. -1.
</event>
<event>
 4    1  0.6688462E+003  0.2714709E+02  0.7546771E-02  0.1446136E+00
          2   -1    0    0  501    0  0.00000000000E+00  0.00000000000E+00  0.14004763234E+04  0.14004763234E+04  0.00000000000E+00 0. -1.
          2   -1    0    0  502    0 -0.00000000000E+00 -0.00000000000E+00 -0.68229703657E+00  0.68229703657E+00  0.00000000000E+00 0.  1.
          2    1    1    2  501    0  0.21509103625E+02 -0.16562699662E+02  0.36482805066E+03  0.36583667272E+03  0.00000000000E+00 0.  1.
          2    1    1    2  502    0 -0.21509103625E+02  0.16562699662E+02  0.10349659757E+04  0.10353219477E+04  0.00000000000E+00 0. -1.
</event>
<event>
 4    1  0.6688462E+003  0.2230954E+02  0.7546771E-02  0.1501355E+00
          2   -1    0    0  501    0  0.00000000000E+00  0.00000000000E+00  0.22286226001E+03  0.22286226001E+03  0.00000000000E+00 0.  1.
          2   -1    0    0  502    0 -0.00000000000E+00 -0.00000000000E+00 -0.32628750424E+03  0.32628750424E+03  0.00000000000E+00 0. -1.
          2    1    1    2  501    0  0.97580824814E+01 -0.20062291674E+02 -0.32534622117E+03  0.32611022577E+03  0.00000000000E+00 0. -1.
          2    1    1    2  502    0 -0.97580824814E+01  0.20062291674E+02  0.22192097694E+03  0.22303953848E+03  0.00000000000E+00 0.  1.
</event>
<event>
 4    1  0.6688462E+003  0.5242113E+02  0.7546771E-02  0.1288003E+00
          2   -1    0    0  501    0  0.00000000000E+00  0.00000000000E+00  0.13452761284E+04  0.13452761284E+04  0.00000000000E+00 0.  1.
          2   -1    0    0  502    0 -0.00000000000E+00 -0.00000000000E+00 -0.55880944937E+01  0.55880944937E+01  0.00000000000E+00 0.  1.
          2    1    1    2  501    0 -0.12145473410E+02  0.50994729679E+02  0.13184305433E+03  0.14188222565E+03  0.00000000000E+00 0.  1.
          2    1    1    2  502    0  0.12145473410E+02 -0.50994729679E+02  0.12078449796E+04  0.12089819972E+04  0.00000000000E+00 0.  1.
</event>
<event>
 4    1  0.6688462E+003  0.3042342E+02  0.7546771E-02  0.1415952E+00
          2   -1    0    0  501    0  0.00000000000E+00  0.00000000000E+00  0.96079531858E+02  0.96079531858E+02  0.00000000000E+00 0.  1.
          2   -1    0    0  502    0 -0.00000000000E+00 -0.00000000000E+00 -0.21256720257E+03  0.21256720257E+03  0.00000000000E+00 0. -1.
          2    1    1    2  501    0 -0.27903042034E+02  0.12124545564E+02 -0.20902969884E+03  0.21123209831E+03  0.00000000000E+00 0. -1.
          2    1    1    2  502    0  0.27903042034E+02 -0.12124545564E+02  0.92542028128E+02  0.97414636117E+02  0.00000000000E+00 0.  1.
</event>
<event>
 4    1  0.6688462E+003  0.2147308E+02  0.7546771E-02  0.1512616E+00
          2   -1    0    0  501    0  0.00000000000E+00  0.00000000000E+00  0.16838315700E+01  0.16838315700E+01  0.00000000000E+00 0.  1.
          2   -1    0    0  502    0 -0.00000000000E+00 -0.00000000000E+00 -0.65718152896E+03  0.65718152896E+03  0.00000000000E+00 0. -1.
          2    1    1    2  501    0  0.59084732441E+00  0.21464951860E+02 -0.57935389985E+03  0.57975170076E+03  0.00000000000E+00 0. -1.
          2    1    1    2  502    0 -0.59084732441E+00 -0.21464951860E+02 -0.76143797540E+02  0.79113659773E+02  0.00000000000E+00 0.  1.
</event>
<event>
 4    1  0.6688462E+003  0.3348754E+02  0.7546771E-02  0.1391520E+00
          2   -1    0    0  502    0  0.00000000000E+00  0.00000000000E+00  0.19250172467E+03  0.19250172467E+03  0.00000000000E+00 0.  1.
          2   -1    0    0  501    0 -0.00000000000E+00 -0.00000000000E+00 -0.71909547364E+03  0.71909547364E+03  0.00000000000E+00 0.  1.
          2    1    1    2  501    0 -0.30115122572E+02  0.14645636489E+02  0.19065172977E+03  0.19357039376E+03  0.00000000000E+00 0.  1.
          2    1    1    2  502    0  0.30115122572E+02 -0.14645636489E+02 -0.71724547874E+03  0.71802680455E+03  0.00000000000E+00 0.  1.
</event>
<event>
 4    1  0.6688462E+003  0.2799748E+02  0.7546771E-02  0.1437838E+00
          2   -1    0    0  501    0  0.00000000000E+00  0.00000000000E+00  0.31900400010E+01  0.31900400010E+01  0.00000000000E+00 0. -1.
          2   -1    0    0  502    0 -0.00000000000E+00 -0.00000000000E+00 -0.36963435733E+03  0.36963435733E+03  0.00000000000E+00 0.  1.
          2    1    1    2  501    0  0.15275035025E+02 -0.23463419754E+02 -0.29115355752E+03  0.29249658599E+03  0.00000000000E+00 0.  1.
          2    1    1    2  502    0 -0.15275035025E+02  0.23463419754E+02 -0.75290759809E+02  0.80327811337E+02  0.00000000000E+00 0. -1.
</event>
<event>
 4    1  0.6688462E+003  0.2356208E+02  0.7546771E-02  0.1485558E+00
          2   -1    0    0  501    0  0.00000000000E+00  0.00000000000E+00  0.57158397089E+03  0.57158397089E+03  0.00000000000E+00 0.  1.
          2   -1    0    0  502    0 -0.00000000000E+00 -0.00000000000E+00 -0.16649557823E+01  0.16649557823E+01  0.00000000000E+00 0.  1.
          2    1    1    2  501    0 -0.10237052054E+02 -0.21222026354E+02  0.99952482265E+02  0.10269211434E+03  0.00000000000E+00 0.  1.
          2    1    1    2  502    0  0.10237052054E+02  0.21222026354E+02  0.46996653284E+03  0.47055681233E+03  0.00000000000E+00 0.  1.
</event>
<event>
 4    1  0.6688462E+003  0.6014318E+02  0.7546771E-02  0.1259347E+00
          2   -1    0    0  501    0  0.00000000000E+00  0.00000000000E+00  0.14920117573E+02  0.14920117573E+02  0.00000000000E+00 0. -1.
          2   -1    0    0  502    0 -0.00000000000E+00 -0.00000000000E+00 -0.19716633099E+04  0.19716633099E+04  0.00000000000E+00 0.  1.
          2    1    1    2  501    0 -0.60001269607E+02 -0.41290671456E+01 -0.19085928175E+04  0.19095401919E+04  0.00000000000E+00 0.  1.
          2    1    1    2  502    0  0.60001269607E+02  0.41290671456E+01 -0.48150374856E+02  0.77043235581E+02  0.00000000000E+00 0. -1.
</event>
<event>
 4    1  0.6688462E+003  0.2911241E+02  0.7546771E-02  0.1427470E+00
          2   -1    0    0  502    0  0.00000000000E+00  0.00000000000E+00  0.65276805812E+01  0.65276805812E+01  0.00000000000E+00 0.  1.
          2   -1    0    0  501    0 -0.00000000000E+00 -0.00000000000E+00 -0.94756631306E+03  0.94756631306E+03  0.00000000000E+00 0. -1.
          2    1    1    2  501    0  0.29107172633E+02  0.55214688741E+00 -0.27358627922E+02  0.39950305214E+02  0.00000000000E+00 0.  1.
          2    1    1    2  502    0 -0.29107172633E+02 -0.55214688741E+00 -0.91368000456E+03  0.91414368843E+03  0.00000000000E+00 0. -1.
</event>
<event>
 4    1  0.6688462E+003  0.3417737E+02  0.7546771E-02  0.1386441E+00
          2   -1    0    0  501    0  0.00000000000E+00  0.00000000000E+00  0.69719459543E+02  0.69719459543E+02  0.00000000000E+00 0.  1.
          2   -1    0    0  502    0 -0.00000000000E+00 -0.00000000000E+00 -0.32296292368E+02  0.32296292368E+02  0.00000000000E+00 0.  1.
          2    1    1    2  501    0  0.43688803536E+01 -0.33896986980E+02  0.54096309335E+02  0.63988307725E+02  0.00000000000E+00 0.  1.
          2    1    1    2  502    0 -0.43688803536E+01  0.33896986980E+02 -0.16673142160E+02  0.38027444186E+02  0.00000000000E+00 0.  1.
</event>
<event>
 4    1  0.6688462E+003  0.3779679E+02  0.7546771E-02  0.1361904E+00
          2   -1    0    0  501    0  0.00000000000E+00  0.00000000000E+00  0.75998613260E+01  0.75998613260E+01  0.00000000000E+00 0. -1.
          2   -1    0    0  502    0 -0.00000000000E+00 -0.00000000000E+00 -0.54438836807E+03  0.54438836807E+03  0.00000000000E+00 0.  1.
          2    1    1    2  501    0 -0.42408946459E+00 -0.37794408767E+02 -0.49171102080E+03  0.49316156091E+03  0.00000000000E+00 0.  1.
          2    1    1    2  502    0  0.42408946459E+00  0.37794408767E+02 -0.45077485949E+02  0.58826668488E+02  0.00000000000E+00 0. -1.
</event>
<event>
 4    1  0.6688462E+003  0.2154118E+02  0.7546771E-02  0.1511677E+00
          2   -1    0    0  502    0  0.00000000000E+00  0.00000000000E+00  0.91816054914E+02  0.91816054914E+02  0.00000000000E+00 0.  1.
          2   -1    0    0  501    0 -0.00000000000E+00 -0.00000000000E+00 -0.11472375582E+04  0.11472375582E+04  0.00000000000E+00 0. -1.
          2    1    1    2  501    0  0.21522345775E+02 -0.90059492865E+00  0.90449974745E+02  0.92979677190E+02  0.00000000000E+00 0.  1.
          2    1    1    2  502    0 -0.21522345775E+02  0.90059492865E+00 -0.11458714780E+04  0.11460739359E+04  0.00000000000E+00 0. -1.
</event>
<event>
 4    1  0.6688462E+003  0.2529386E+02  0.7546771E-02  0.1465543E+00
          2   -1    0    0  501    0  0.00000000000E+00  0.00000000000E+00  0.10968594393E+03  0.10968594393E+03  0.00000000000E+00 0.  1.
          2   -1    0    0  502    0 -0.00000000000E+00 -0.00000000000E+00 -0.53608361039E+03  0.53608361039E+03  0.00000000000E+00 0. -1.
          2    1    1    2  501    0  0.15835445739E+02  0.19723534936E+02 -0.53432224141E+03  0.53492058928E+03  0.00000000000E+00 0. -1.
          2    1    1    2  502    0 -0.15835445739E+02 -0.19723534936E+02  0.10792457495E+03  0.11084896504E+03  0.00000000000E+00 0.  1.
</event>
<event>
 4    1  0.6688462E+003  0.2062708E+02  0.7546771E-02  0.1524656E+00
          2   -1    0    0  502    0  0.00000000000E+00  0.00000000000E+00  0.18675100714E+03  0.18675100714E+03  0.00000000000E+00 0. -1.
          2   -1    0    0  501    0 -0.00000000000E+00 -0.00000000000E+00 -0.79981382229E+02  0.79981382229E+02  0.00000000000E+00 0. -1.
          2    1    1    2  501    0  0.52899504763E+01 -0.19937221787E+02  0.18483778361E+03  0.18598516779E+03  0.00000000000E+00 0. -1.
          2    1    1    2  502    0 -0.52899504763E+01  0.19937221787E+02 -0.78068158703E+02  0.80747221574E+02  0.00000000000E+00 0. -1.
</event>
<event>
 4    1  0.6688462E+003  0.4191052E+02  0.7546771E-02  0.1337640E+00
          2   -1    0    0  501    0  0.00000000000E+00  0.00000000000E+00  0.80679210069E+03  0.80679210069E+03  0.00000000000E+00 0.  1.
          2   -1    0    0  502    0 -0.00000000000E+00 -0.00000000000E+00 -0.66154035749E+01  0.66154035749E+01  0.00000000000E+00 0.  1.
          2    1    1    2  501    0  0.36921160404E+02  0.19832294597E+02  0.66963523239E+02  0.78997502739E+02  0.00000000000E+00 0.  1.
          2    1    1    2  502    0 -0.36921160404E+02 -0.19832294597E+02  0.73321317388E+03  0.73441000152E+03  0.00000000000E+00 0.  1.
</event>
<event>
 4    1  0.6688462E+003  0.2625984E+02  0.7546771E-02  0.1455188E+00
          2   -1    0    0  502    0  0.00000000000E+00  0.00000000000E+00  0.69361389480E+02  0.69361389480E+02  0.00000000000E+00 0. -1.
          2   -1    0    0  501    0 -0.00000000000E+00 -0.00000000000E+00 -0.10066671681E+03  0.10066671681E+03  0.00000000000E+00 0.  1.
          2    1    1    2  501    0  0.26069991929E+02  0.31519199681E+01  0.65054296452E+02  0.70154405176E+02  0.00000000000E+00 0. -1.
          2    1    1    2  502    0 -0.26069991929E+02 -0.31519199681E+01 -0.96359623782E+02  0.99873701114E+02  0.00000000000E+00 0.  1.
</event>
<event>
 4    1  0.6688462E+003  0.2699917E+02  0.7546771E-02  0.1447616E+00
          2   -1    0    0  501    0  0.00000000000E+00  0.00000000000E+00  0.76401832708E+01  0.76401832708E+01  0.00000000000E+00 0. -1.
          2   -1    0    0  502    0 -0.00000000000E+00 -0.00000000000E+00 -0.20052607739E+04  0.20052607739E+04  0.00000000000E+00 0.  1.
          2    1    1    2  501    0 -0.17200017457E+02  0.20811407640E+02 -0.19810254228E+04  0.19812093986E+04  0.00000000000E+00 0.  1.
          2    1    1    2  502    0  0.17200017457E+02 -0.20811407640E+02 -0.16595167783E+02  0.31691558533E+02  0.00000000000E+00 0. -1.
</event>
<event>
 4    1  0.6688462E+003  0.2022214E+02  0.7546771E-02  0.1530667E+00
          2   -1    0    0  502    0  0.00000000000E+00  0.00000000000E+00  0.34642321471E+02  0.34642321471E+02  0.00000000000E+00 0.  1.
          2   -1    0    0  501    0 -0.00000000000E+00 -0.00000000000E+00 -0.15889892700E+03  0.15889892700E+03  0.00000000000E+00 0. -1.
          2    1    1    2  501    0  0.56023021405E+01  0.19430625533E+02  0.30978450348E+02  0.36994585872E+02  0.00000000000E+00 0.  1.
          2    1    1    2  502    0 -0.56023021405E+01 -0.19430625533E+02 -0.15523505588E+03  0.15654666260E+03  0.00000000000E+00 0. -1.
</event>
<event>
 4    1  0.6688462E+003  0.2170165E+02  0.7546771E-02  0.1509478E+00
          2   -1    0    0  501    0  0.00000000000E+00  0.00000000000E+00  0.97452711763E+03  0.97452711763E+03  0.00000000000E+00 0. -1.
          2   -1    0    0  502    0 -0.00000000000E+00 -0.00000000000E+00 -0.77504736732E+01  0.77504736732E+01  0.00000000000E+00 0.  1.
          2    1    1    2  501    0  0.19421028324E+02  0.96842822195E+01  0.78081663273E+01  0.23063588721E+02  0.00000000000E+00 0.  1.
          2    1    1    2  502    0 -0.19421028324E+02 -0.96842822195E+01  0.95896847763E+03  0.95921400259E+03  0.00000000000E+00 0. -1.
</event>
<event>
 4    1  0.6688462E+003  0.2619769E+02  0.7546771E-02  0.1455838E+00
          2   -1    0    0  501    0  0.00000000000E+00  0.00000000000E+00  0.39440610833E+01  0.39440610833E+01  0.00000000000E+00 0. -1.
          2   -1    0    0  502    0 -0.00000000000E+00 -0.00000000000E+00 -0.19059503080E+03  0.19059503080E+03  0.00000000000E+00 0.  1.
          2    1    1    2  501    0 -0.19232160573E+02  0.17788845351E+02 -0.12201586143E+03  0.12479659234E+03  0.00000000000E+00 0.  1.
          2    1    1    2  502    0  0.19232160573E+02 -0.17788845351E+02 -0.64635108286E+02  0.69742499542E+02  0.00000000000E+00 0. -1.
</event>
<event>
 4    1  0.6688462E+003  0.2794843E+02  0.7546771E-02  0.1438307E+00
          2   -1    0    0  501    0  0.00000000000E+00  0.00000000000E+00  0.94557657821E+03  0.94557657821E+03  0.00000000000E+00 0. -1.
          2   -1    0    0  502    0 -0.00000000000E+00 -0.00000000000E+00 -0.52465929956E+01  0.52465929956E+01  0.00000000000E+00 0.  1.
          2    1    1    2  501    0  0.26087772939E+02  0.10027093979E+02  0.33782023106E+02  0.43844493334E+02  0.00000000000E+00 0.  1.
          2    1    1    2  502    0 -0.26087772939E+02 -0.10027093979E+02  0.90654796211E+03  0.90697867787E+03  0.00000000000E+00 0. -1.
</event>
<event>
 4    1  0.6688462E+003  0.2726082E+02  0.7546771E-02  0.1445006E+00
          2   -1    0    0  501    0  0.00000000000E+00  0.00000000000E+00  0.28395029216E+02  0.28395029216E+02  0.00000000000E+00 0. -1.
          2   -1    0    0  502    0 -0.00000000000E+00 -0.00000000000E+00 -0.16566361524E+04  0.16566361524E+04  0.00000000000E+00 0.  1.
          2    1    1    2  501    0  0.25185546126E+02  0.10432674123E+02 -0.16499545302E+04  0.16501797187E+04  0.00000000000E+00 0.  1.
          2    1    1    2  502    0 -0.25185546126E+02 -0.10432674123E+02  0.21713406990E+02  0.34851462898E+02  0.00000000000E+00 0. -1.
</event>
<event>
 4    1  0.6688462E+003  0.3092830E+02  0.7546771E-02  0.1411697E+00
          2   -1    0    0  501    0  0.00000000000E+00  0.00000000000E+00  0.11846513080E+03  0.11846513080E+03  0.00000000000E+00 0.  1.
          2   -1    0    0  502    0 -0.00000000000E+00 -0.00000000000E+00 -0.17812396460E+02  0.17812396460E+02  0.00000000000E+00 0. -1.
          2    1    1    2  501    0  0.17982689399E+02  0.25163115489E+02 -0.54221697252E-01  0.30928343621E+02  0.00000000000E+00 0. -1.
          2    1    1    2  502    0 -0.17982689399E+02 -0.25163115489E+02  0.10070695604E+03  0.10534918364E+03  0.00000000000E+00 0.  1.
</event>
<event>
 4    1  0.6688462E+003  0.2932992E+02  0.7546771E-02  0.1425510E+00
          2   -1    0    0  502    0  0.00000000000E+00  0.00000000000E+00  0.14813427968E+02  0.14813427968E+02  0.00000000000E+00 0.  1.
          2   -1    0    0  501    0 -0.00000000000E+00 -0.00000000000E+00 -0.47238098427E+03  0.47238098427E+03  0.00000000000E+00 0. -1.
          2    1    1    2  501    0 -0.28439074914E+02 -0.71737778918E+01 -0.65066776152E+00  0.29337134144E+02  0.00000000000E+00 0.  1.
          2    1    1    2  502    0  0.28439074914E+02  0.71737778918E+01 -0.45691688854E+03  0.45785727809E+03  0.00000000000E+00 0. -1.
</event>
<event>
 4    1  0.6688462E+003  0.6182149E+02  0.7546771E-02  0.1253766E+00
          2   -1    0    0  502    0  0.00000000000E+00  0.00000000000E+00  0.78494124619E+02  0.78494124619E+02  0.00000000000E+00 0.  1.
          2   -1    0    0  501    0 -0.00000000000E+00 -0.00000000000E+00 -0.12458575928E+03  0.12458575928E+03  0.00000000000E+00 0.  1.
          2    1    1    2  501    0  0.95032612795E+01  0.61086701673E+02  0.56206286880E+02  0.83552640778E+02  0.00000000000E+00 0.  1.
          2    1    1    2  502    0 -0.95032612795E+01 -0.61086701673E+02 -0.10229792154E+03  0.11952724312E+03  0.00000000000E+00 0.  1.
</event>
<event>
 4    1  0.6688462E+003  0.2605760E+02  0.7546771E-02  0.1457311E+00
          2   -1    0    0  501    0  0.00000000000E+00  0.00000000000E+00  0.85503950694E+03  0.85503950694E+03  0.00000000000E+00 0. -1.
          2   -1    0    0  502    0 -0.00000000000E+00 -0.00000000000E+00 -0.79541855807E+00  0.79541855807E+00  0.00000000000E+00 0. -1.
          2    1    1    2  501    0  0.21288723913E+02  0.15026266174E+02  0.40978910914E+03  0.41061674639E+03  0.00000000000E+00 0. -1.
          2    1    1    2  502    0 -0.21288723913E+02 -0.15026266174E+02  0.44445497924E+03  0.44521817911E+03  0.00000000000E+00 0. -1.
</event>
<event>
 4    1  0.6688462E+003  0.2146095E+02  0.7546771E-02  0.1512784E+00
          2   -1    0    0  502    0  0.00000000000E+00  0.00000000000E+00  0.13034626601E+04  0.13034626601E+04  0.00000000000E+00 0.  1.
          2   -1    0    0  501    0 -0.00000000000E+00 -0.00000000000E+00 -0.27450199946E+01  0.27450199946E+01  0.00000000000E+00 0.  1.
          2    1    1    2  501    0  0.19626616446E+02  0.86814903408E+01  0.12599806909E+04  0.12601634473E+04  0.00000000000E+00 0.  1.
          2    1    1    2  502    0 -0.19626616446E+02 -0.86814903408E+01  0.40736949214E+02  0.46044232852E+02  0.00000000000E+00 0.  1.
</event>
<event>
 4    1  0.6688462E+003  0.2417277E+02  0.7546771E-02  0.1478274E+00
          2   -1    0    0  501    0  0.00000000000E+00  0.00000000000E+00  0.54178767154E+01  0.54178767154E+01  0.00000000000E+00 0.  1.
          2   -1    0    0  502    0 -0.00000000000E+00 -0.00000000000E+00 -0.65445433226E+03  0.65445433226E+03  0.00000000000E+00 0.  1.
          2    1    1    2  501    0 -0.23329080261E+02 -0.63306137698E+01 -0.62604533592E+03  0.62651183970E+03  0.00000000000E+00 0.  1.
          2    1    1    2  502    0  0.23329080261E+02  0.63306137698E+01 -0.22991119621E+02  0.33360369272E+02  0.00000000000E+00 0.  1.
</event>
<event>
 4    1  0.6688462E+003  0.3152659E+02  0.7546771E-02  0.1406778E+00
          2   -1    0    0  501    0  0.00000000000E+00  0.00000000000E+00  0.96742976162E+00  0.96742976162E+00  0.00000000000E+00 0. -1.
          2   -1    0    0  502    0 -0.00000000000E+00 -0.00000000000E+00 -0.12072171016E+04  0.12072171016E+04  0.00000000000E+00 0. -1.
          2    1    1    2  501    0 -0.10538027142E+01 -0.31508975598E+02 -0.83627739114E+03  0.83687143635E+03  0.00000000000E+00 0. -1.
          2    1    1    2  502    0  0.10538027142E+01  0.31508975598E+02 -0.36997228072E+03  0.37131309503E+03  0.00000000000E+00 0. -1.
</event>
<event>
 4    1  0.6688462E+003  0.2538895E+02  0.7546771E-02  0.1464499E+00
          2   -1    0    0  501    0  0.00000000000E+00  0.00000000000E+00  0.27244556636E+03  0.27244556636E+03  0.00000000000E+00 0.  1.
          2   -1    0    0  502    0 -0.00000000000E+00 -0.00000000000E+00 -0.87205584809E+01  0.87205584809E+01  0.00000000000E+00 0.  1.
          2    1    1    2  501    0 -0.21929703033E+02 -0.12794026166E+02  0.11856093003E+02  0.28020812300E+02  0.00000000000E+00 0.  1.
          2    1    1    2  502    0  0.21929703033E+02  0.12794026166E+02  0.25186891488E+03  0.25314531254E+03  0.00000000000E+00 0.  1.
</event>
<event>
 4    1  0.6688462E+003  0.4272732E+02  0.7546771E-02  0.1333205E+00
          2   -1    0    0  501    0  0.00000000000E+00  0.00000000000E+00  0.31159545900E+03  0.31159545900E+03  0.00000000000E+00 0. -1.
          2   -1    0    0  502    0 -0.00000000000E+00 -0.00000000000E+00 -0.23955951811E+04  0.23955951811E+04  0.00000000000E+00 0. -1.
          2    1    1    2  501    0  0.30321073474E+02  0.30104097127E+02 -0.23939389099E+04  0.23943201808E+04  0.00000000000E+00 0. -1.
          2    1    1    2  502    0 -0.30321073474E+02 -0.30104097127E+02  0.30993918777E+03  0.31287045926E+03  0.00000000000E+00 0. -1.
</event>
<event>
 4    1  0.6688462E+003  0.4852672E+02  0.7546771E-02  0.1304690E+00
          2   -1    0    0  501    0  0.00000000000E+00  0.00000000000E+00  0.90104843622E+02  0.90104843622E+02  0.00000000000E+00 0. -1.
          2   -1    0    0  502    0 -0.00000000000E+00 -0.00000000000E+00 -0.19111543052E+03  0.19111543052E+03  0.00000000000E+00 0. -1.
          2    1    1    2  501    0 -0.48474219806E+02 -0.22566172966E+01 -0.18114815044E+03  0.18753531592E+03  0.00000000000E+00 0. -1.
          2    1    1    2  502    0  0.48474219806E+02  0.22566172966E+01  0.80137563542E+02  0.93684958227E+02  0.00000000000E+00 0. -1.
</event>
