<event>
 4    1  0.3195479E+006  0.2148759E+02  0.7546771E-02  0.1512416E+00
         21   -1    0    0  504  501  0.00000000000E+00  0.00000000000E+00  0.15277023225E+03  0.15277023225E+03  0.00000000000E+00 0.  1.
         21   -1    0    0  503  502 -0.00000000000E+00 -0.00000000000E+00 -0.11945637299E+02  0.11945637299E+02  0.00000000000E+00 0.  1.
         21    1    1    2  503  501  0.91313530173E+01  0.19450828791E+02  0.14159338505E+03  0.14321453501E+03  0.00000000000E+00 0.  1.
         21    1    1    2  504  502 -0.91313530173E+01 -0.19450828791E+02 -0.76879010247E+00  0.21501334535E+02  0.00000000000E+00 0.  1.
</event>
<event>
 4    1  0.3195479E+006  0.2779359E+02  0.7546771E-02  0.1439795E+00
         21   -1    0    0  504  501  0.00000000000E+00  0.00000000000E+00  0.10371693826E+03  0.10371693826E+03  0.00000000000E+00 0. -1.
         21   -1    0    0  501  502 -0.00000000000E+00 -0.00000000000E+00 -0.11622027377E+03  0.11622027377E+03  0.00000000000E+00 0. -1.
         21    1    1    2  503  502 -0.27782077197E+02  0.79983935475E+00 -0.11263825567E+03  0.11601663759E+03  0.00000000000E+00 0. -1.
         21    1    1    2  504  503  0.27782077197E+02 -0.79983935475E+00  0.10013492016E+03  0.10392057444E+03  0.00000000000E+00 0. -1.
</event>
<event>
 4    1  0.3195479E+006  0.2010279E+02  0.7546771E-02  0.1532470E+00
         21   -1    0    0  503  501  0.00000000000E+00  0.00000000000E+00  0.33951631755E+03  0.33951631755E+03  0.00000000000E+00 0. -1.
         21   -1    0    0  504  502 -0.00000000000E+00 -0.00000000000E+00 -0.40599944672E+01  0.40599944672E+01  0.00000000000E+00 0.  1.
         21    1    1    2  503  502  0.18850825228E+02 -0.69834550779E+01  0.31215543825E+03  0.31280207782E+03  0.00000000000E+00 0. -1.
         21    1    1    2  504  501 -0.18850825228E+02  0.69834550779E+01  0.23300884826E+02  0.30774234195E+02  0.00000000000E+00 0.  1.
</event>
<event>
 4    1  0.3195479E+006  0.2394345E+02  0.7546771E-02  0.1480979E+00
         21   -1    0    0  503  501  0.00000000000E+00  0.00000000000E+00  0.76773053195E+03  0.76773053195E+03  0.00000000000E+00 0.  1.
         21   -1    0    0  501  502 -0.00000000000E+00 -0.00000000000E+00 -0.11054256831E+01  0.11054256831E+01  0.00000000000E+00 0.  1.
         21    1    1    2  503  504 -0.10761430715E+02 -0.21388786596E+02  0.60229084997E+03  0.60276658545E+03  0.00000000000E+00 0.  1.
         21    1    1    2  504  502  0.10761430715E+02  0.21388786596E+02  0.16433425630E+03  0.16606937218E+03  0.00000000000E+00 0.  1.
</event>
<event>
 4    1  0.3195479E+006  0.3754207E+02  0.7546771E-02  0.1363524E+00
         21   -1    0    0  504  501  0.00000000000E+00  0.00000000000E+00  0.20149098579E+02  0.20149098579E+02  0.00000000000E+00 0.  1.
         21   -1    0    0  503  502 -0.00000000000E+00 -0.00000000000E+00 -0.96623047682E+02  0.96623047682E+02  0.00000000000E+00 0. -1.
         21    1    1    2  503  501  0.48790122310E+01  0.37223680290E+02 -0.75598792172E+01  0.38295677412E+02  0.00000000000E+00 0.  1.
         21    1    1    2  504  502 -0.48790122310E+01 -0.37223680290E+02 -0.68914069886E+02  0.78476468848E+02  0.00000000000E+00 0. -1.
</event>
<event>
 4    1  0.3195479E+006  0.2491398E+02  0.7546771E-02  0.1469768E+00
         21   -1    0    0  503  501  0.00000000000E+00  0.00000000000E+00  0.17052757560E+02  0.17052757560E+02  0.00000000000E+00 0.  1.
         21   -1    0    0  504  502 -0.00000000000E+00 -0.00000000000E+00 -0.57473820733E+02  0.57473820733E+02  0.00000000000E+00 0. -1.
         21    1    1    2  503  502  0.19075041276E+02  0.16026511222E+02 -0.42775063071E+02  0.49501639189E+02  0.00000000000E+00 0. -1.
         21    1    1    2  504  501 -0.19075041276E+02 -0.16026511222E+02  0.23539998979E+01  0.25024939104E+02  0.00000000000E+00 0.  1.
</event>
<event>
 4    1  0.3195479E+006  0.2592034E+02  0.7546771E-02  0.1458766E+00
         21   -1    0    0  502  501  0.00000000000E+00  0.00000000000E+00  0.13043500862E+03  0.13043500862E+03  0.00000000000E+00 0.  1.
         21   -1    0    0  503  502 -0.00000000000E+00 -0.00000000000E+00 -0.55254749642E+01  0.55254749642E+01  0.00000000000E+00 0.  1.
         21    1    1    2  503  504  0.22096130025E+02 -0.13550832838E+02  0.44756160854E+02  0.51720189163E+02  0.00000000000E+00 0.  1.
         21    1    1    2  504  501 -0.22096130025E+02  0.13550832838E+02  0.80153372803E+02  0.84240294423E+02  0.00000000000E+00 0.  1.
</event>
<event>
 4    1  0.3195479E+006  0.2148935E+02  0.7546771E-02  0.1512392E+00
         21   -1    0    0  504  501  0.00000000000E+00  0.00000000000E+00  0.15613208539E+03  0.15613208539E+03  0.00000000000E+00 0.  1.
         21   -1    0    0  501  502 -0.00000000000E+00 -0.00000000000E+00 -0.49656965876E+02  0.49656965876E+02  0.00000000000E+00 0.  1.
         21    1    1    2  503  502 -0.23452128843E+01  0.21360992068E+02 -0.46545588443E+02  0.51266790509E+02  0.00000000000E+00 0.  1.
         21    1    1    2  504  503  0.23452128843E+01 -0.21360992068E+02  0.15302070796E+03  0.15452226076E+03  0.00000000000E+00 0.  1.
</event>
<event>
 4    1  0.3195479E+006  0.2907700E+02  0.7546771E-02  0.1427790E+00
         21   -1    0    0  502  501  0.00000000000E+00  0.00000000000E+00  0.13423608760E+03  0.13423608760E+03  0.00000000000E+00 0.  1.
         21   -1    0    0  504  502 -0.00000000000E+00 -0.00000000000E+00 -0.11793259672E+02  0.11793259672E+02  0.00000000000E+00 0. -1.
         21    1    1    2  503  501  0.89090000572E+01 -0.27678539883E+02  0.11106069092E+03  0.11480395864E+03  0.00000000000E+00 0.  1.
         21    1    1    2  504  503 -0.89090000572E+01  0.27678539883E+02  0.11382137003E+02  0.31225388626E+02  0.00000000000E+00 0. -1.
</event>
<event>
 4    1  0.3195479E+006  0.2187246E+02  0.7546771E-02  0.1507164E+00
         21   -1    0    0  503  501  0.00000000000E+00  0.00000000000E+00  0.10261589176E+02  0.10261589176E+02  0.00000000000E+00 0.  1.
         21   -1    0    0  504  502 -0.00000000000E+00 -0.00000000000E+00 -0.51069238215E+02  0.51069238215E+02  0.00000000000E+00 0.  1.
         21    1    1    2  503  502 -0.14095979417E+02 -0.16724473866E+02 -0.11353432800E+02  0.24643560988E+02  0.00000000000E+00 0.  1.
         21    1    1    2  504  501  0.14095979417E+02  0.16724473866E+02 -0.29454216240E+02  0.36687266403E+02  0.00000000000E+00 0.  1.
</event>
<event>
 4    1  0.3195479E+006  0.2137872E+02  0.7546771E-02  0.1513926E+00
         21   -1    0    0  504  501  0.00000000000E+00  0.00000000000E+00  0.98913962355E+01  0.98913962355E+01  0.00000000000E+00 0.  1.
         21   -1    0    0  501  502 -0.00000000000E+00 -0.00000000000E+00 -0.48517164970E+02  0.48517164970E+02  0.00000000000E+00 0.  1.
         21    1    1    2  503  502 -0.20452298733E+02  0.62252095586E+01 -0.12939953663E+02  0.24989841102E+02  0.00000000000E+00 0.  1.
         21    1    1    2  504  503  0.20452298733E+02 -0.62252095586E+01 -0.25685815071E+02  0.33418720104E+02  0.00000000000E+00 0.  1.
</event>
<event>
 4    1  0.3195479E+006  0.2545855E+02  0.7546771E-02  0.1463738E+00
         21   -1    0    0  504  501  0.00000000000E+00  0.00000000000E+00  0.19895665179E+02  0.19895665179E+02  0.00000000000E+00 0. -1.
         21   -1    0    0  503  502 -0.00000000000E+00 -0.00000000000E+00 -0.25828394379E+03  0.25828394379E+03  0.00000000000E+00 0. -1.
         21    1    1    2  503  501  0.23832701897E+02  0.89520912886E+01 -0.24921685117E+03  0.25051382502E+03  0.00000000000E+00 0. -1.
         21    1    1    2  504  502 -0.23832701897E+02 -0.89520912886E+01  0.10828572556E+02  0.27665783953E+02  0.00000000000E+00 0. -1.
</event>
<event>
 4    1  0.3195479E+006  0.2581856E+02  0.7546771E-02  0.1459851E+00
         21   -1    0    0  502  501  0.00000000000E+00  0.00000000000E+00  0.82822739669E+02  0.82822739669E+02  0.00000000000E+00 0. -1.
         21   -1    0    0  503  502 -0.00000000000E+00 -0.00000000000E+00 -0.16126616655E+02  0.16126616655E+02  0.00000000000E+00 0. -1.
         21    1    1    2  503  504 -0.19447109408E+02  0.16982585936E+02 -0.16679421555E+01  0.25872385287E+02  0.00000000000E+00 0. -1.
         21    1    1    2  504  501  0.19447109408E+02 -0.16982585936E+02  0.68364065170E+02  0.73076971037E+02  0.00000000000E+00 0. -1.
</event>
<event>
 4    1  0.3195479E+006  0.2155371E+02  0.7546771E-02  0.1511504E+00
         21   -1    0    0  503  501  0.00000000000E+00  0.00000000000E+00  0.67435573112E+03  0.67435573112E+03  0.00000000000E+00 0.  1.
         21   -1    0    0  504  502 -0.00000000000E+00 -0.00000000000E+00 -0.34544221463E+01  0.34544221463E+01  0.00000000000E+00 0.  1.
         21    1    1    2  503  502 -0.15322674214E+02 -0.15158431423E+02  0.32215820986E+02  0.38761082417E+02  0.00000000000E+00 0.  1.
         21    1    1    2  504  501  0.15322674214E+02  0.15158431423E+02  0.63868548799E+03  0.63904907085E+03  0.00000000000E+00 0.  1.
</event>
<event>
 4    1  0.3195479E+006  0.2029505E+02  0.7546771E-02  0.1529572E+00
         21   -1    0    0  504  501  0.00000000000E+00  0.00000000000E+00  0.31389000233E+02  0.31389000233E+02  0.00000000000E+00 0. -1.
         21   -1    0    0  501  502 -0.00000000000E+00 -0.00000000000E+00 -0.68132620715E+02  0.68132620715E+02  0.00000000000E+00 0. -1.
         21    1    1    2  503  502  0.18752676289E+02 -0.77605612773E+01 -0.63084709270E+02  0.66268919736E+02  0.00000000000E+00 0. -1.
         21    1    1    2  504  503 -0.18752676289E+02  0.77605612773E+01  0.26341088787E+02  0.33252701211E+02  0.00000000000E+00 0. -1.
</event>
<event>
 4    1  0.3195479E+006  0.2006262E+02  0.7546771E-02  0.1533081E+00
         21   -1    0    0  503  501  0.00000000000E+00  0.00000000000E+00  0.59388185827E+02  0.59388185827E+02  0.00000000000E+00 0. -1.
         21   -1    0    0  504  502 -0.00000000000E+00 -0.00000000000E+00 -0.12032133221E+03  0.12032133221E+03  0.00000000000E+00 0.  1.
         21    1    1    2  503  502 -0.19851238220E+02  0.29046840628E+01  0.56820788593E+02  0.60258699494E+02  0.00000000000E+00 0. -1.
         21    1    1    2  504  501  0.19851238220E+02 -0.29046840628E+01 -0.11775393497E+03  0.11945081854E+03  0.00000000000E+00 0.  1.
</event>
<event>
 4    1  0.3195479E+006  0.2756188E+02  0.7546771E-02  0.1442044E+00
         21   -1    0    0  504  501  0.00000000000E+00  0.00000000000E+00  0.46334567412E+02  0.46334567412E+02  0.00000000000E+00 0.  1.
         21   -1    0    0  503  502 -0.00000000000E+00 -0.00000000000E+00 -0.42169914471E+02  0.42169914471E+02  0.00000000000E+00 0.  1.
         21    1    1    2  503  501  0.11580963459E+02  0.25010769555E+02 -0.32514172113E+02  0.42624273561E+02  0.00000000000E+00 0.  1.
         21    1    1    2  504  502 -0.11580963459E+02 -0.25010769555E+02  0.36678825054E+02  0.45880208323E+02  0.00000000000E+00 0.  1.
</event>
<event>
 4    1  0.3195479E+006  0.2436927E+02  0.7546771E-02  0.1475985E+00
         21   -1    0    0  504  501  0.00000000000E+00  0.00000000000E+00  0.10338911572E+01  0.10338911572E+01  0.00000000000E+00 0.  1.
         21   -1    0    0  503  502 -0.00000000000E+00 -0.00000000000E+00 -0.57730563402E+03  0.57730563402E+03  0.00000000000E+00 0.  1.
         21    1    1    2  503  501 -0.28081621639E+01 -0.24206930347E+02 -0.26760102897E+03  0.26870833995E+03  0.00000000000E+00 0.  1.
         21    1    1    2  504  502  0.28081621639E+01  0.24206930347E+02 -0.30867071390E+03  0.30963118523E+03  0.00000000000E+00 0.  1.
</event>
<event>
 4    1  0.3195479E+006  0.2915471E+02  0.7546771E-02  0.1427087E+00
         21   -1    0    0  504  501  0.00000000000E+00  0.00000000000E+00  0.16045414007E+03  0.16045414007E+03  0.00000000000E+00 0. -1.
         21   -1    0    0  503  502 -0.00000000000E+00 -0.00000000000E+00 -0.95377622246E+01  0.95377622246E+01  0.00000000000E+00 0.  1.
         21    1    1    2  503  501 -0.28952469048E+02  0.34280259474E+01  0.13213092973E+03  0.13530919930E+03  0.00000000000E+00 0. -1.
         21    1    1    2  504  502  0.28952469048E+02 -0.34280259474E+01  0.18785448124E+02  0.34682702996E+02  0.00000000000E+00 0.  1.
</event>
<event>
 4    1  0.3195479E+006  0.2052837E+02  0.7546771E-02  0.1526106E+00
         21   -1    0    0  503  501  0.00000000000E+00  0.00000000000E+00  0.41014368945E+01  0.41014368945E+01  0.00000000000E+00 0. -1.
         21   -1    0    0  504  502 -0.00000000000E+00 -0.00000000000E+00 -0.11647258453E+03  0.11647258453E+03  0.00000000000E+00 0. -1.
         21    1    1    2  503  502 -0.90802244572E+01  0.18410966933E+02 -0.35490713751E+02  0.41000060270E+02  0.00000000000E+00 0. -1.
         21    1    1    2  504  501  0.90802244572E+01 -0.18410966933E+02 -0.76880433888E+02  0.79573961158E+02  0.00000000000E+00 0. -1.
</event>
<event>
 4    1  0.3195479E+006  0.8946718E+02  0.7546771E-02  0.1183428E+00
         21   -1    0    0  503  501  0.00000000000E+00  0.00000000000E+00  0.17865709539E+02  0.17865709539E+02  0.00000000000E+00 0.  1.
         21   -1    0    0  504  502 -0.00000000000E+00 -0.00000000000E+00 -0.44819533407E+03  0.44819533407E+03  0.00000000000E+00 0. -1.
         21    1    1    2  503  502  0.47782380838E+02 -0.75638747120E+02 -0.21069074051E+03  0.22889946291E+03  0.00000000000E+00 0.  1.
         21    1    1    2  504  501 -0.47782380838E+02  0.75638747120E+02 -0.21963888401E+03  0.23716158069E+03  0.00000000000E+00 0. -1.
</event>
<event>
 4    1  0.3195479E+006  0.2158316E+02  0.7546771E-02  0.1511099E+00
         21   -1    0    0  504  501  0.00000000000E+00  0.00000000000E+00  0.10882040223E+03  0.10882040223E+03  0.00000000000E+00 0.  1.
         21   -1    0    0  501  502 -0.00000000000E+00 -0.00000000000E+00 -0.17758007848E+03  0.17758007848E+03  0.00000000000E+00 0.  1.
         21    1    1    2  503  502  0.13080110445E+02 -0.17168090338E+02 -0.17584355632E+03  0.17716317031E+03  0.00000000000E+00 0.  1.
         21    1    1    2  504  503 -0.13080110445E+02  0.17168090338E+02  0.10708388007E+03  0.10923731041E+03  0.00000000000E+00 0.  1.
</event>
<event>
 4    1  0.3195479E+006  0.2262409E+02  0.7546771E-02  0.1497273E+00
         21   -1    0    0  503  501  0.00000000000E+00  0.00000000000E+00  0.27197888868E+03  0.27197888868E+03  0.00000000000E+00 0. -1.
         21   -1    0    0  504  502 -0.00000000000E+00 -0.00000000000E+00 -0.21951601311E+01  0.21951601311E+01  0.00000000000E+00 0. -1.
         21    1    1    2  503  502  0.54746281770E+01 -0.21951715790E+02  0.83109194841E+02  0.86133545421E+02  0.00000000000E+00 0. -1.
         21    1    1    2  504  501 -0.54746281770E+01  0.21951715790E+02  0.18667453371E+03  0.18804050339E+03  0.00000000000E+00 0. -1.
</event>
<event>
 4    1  0.3195479E+006  0.2520738E+02  0.7546771E-02  0.1466497E+00
         21   -1    0    0  502  501  0.00000000000E+00  0.00000000000E+00  0.14438159915E+01  0.14438159915E+01  0.00000000000E+00 0.  1.
         21   -1    0    0  504  502 -0.00000000000E+00 -0.00000000000E+00 -0.61174968330E+03  0.61174968330E+03  0.00000000000E+00 0.  1.
         21    1    1    2  503  501 -0.14738493696E+02  0.20449662943E+02 -0.14274312484E+03  0.14495175611E+03  0.00000000000E+00 0.  1.
         21    1    1    2  504  503  0.14738493696E+02 -0.20449662943E+02 -0.46756274247E+03  0.46824174318E+03  0.00000000000E+00 0.  1.
</event>
<event>
 4    1  0.3195479E+006  0.2196272E+02  0.7546771E-02  0.1505951E+00
         21   -1    0    0  503  501  0.00000000000E+00  0.00000000000E+00  0.10341164513E+02  0.10341164513E+02  0.00000000000E+00 0. -1.
         21   -1    0    0  504  502 -0.00000000000E+00 -0.00000000000E+00 -0.98283583924E+02  0.98283583924E+02  0.00000000000E+00 0. -1.
         21    1    1    2  503  502  0.14850260628E+02  0.16181183503E+02 -0.83339499316E+02  0.86184877366E+02  0.00000000000E+00 0. -1.
         21    1    1    2  504  501 -0.14850260628E+02 -0.16181183503E+02 -0.46029200946E+01  0.22439871071E+02  0.00000000000E+00 0. -1.
</event>
<event>
 4    1  0.3195479E+006  0.3408483E+02  0.7546771E-02  0.1387114E+00
         21   -1    0    0  504  501  0.00000000000E+00  0.00000000000E+00  0.94062804223E+01  0.94062804223E+01  0.00000000000E+00 0. -1.
         21   -1    0    0  503  502 -0.00000000000E+00 -0.00000000000E+00 -0.73794369745E+03  0.73794369745E+03  0.00000000000E+00 0.  1.
         21    1    1    2  503  501 -0.12036202945E+02 -0.31888955927E+02 -0.70524148339E+03  0.70606467522E+03  0.00000000000E+00 0.  1.
         21    1    1    2  504  502  0.12036202945E+02  0.31888955927E+02 -0.23295933636E+02  0.41285302657E+02  0.00000000000E+00 0. -1.
</event>
<event>
 4    1  0.3195479E+006  0.2704839E+02  0.7546771E-02  0.1447123E+00
         21   -1    0    0  504  501  0.00000000000E+00  0.00000000000E+00  0.80993336554E+01  0.80993336554E+01  0.00000000000E+00 0. -1.
         21   -1    0    0  503  502 -0.00000000000E+00 -0.00000000000E+00 -0.97778488265E+02  0.97778488265E+02  0.00000000000E+00 0. -1.
         21    1    1    2  503  501 -0.74502392103E+01 -0.26002105449E+02 -0.59450496510E+02  0.65314447769E+02  0.00000000000E+00 0. -1.
         21    1    1    2  504  502  0.74502392103E+01  0.26002105449E+02 -0.30228658100E+02  0.40563374152E+02  0.00000000000E+00 0. -1.
</event>
<event>
 4    1  0.3195479E+006  0.2246445E+02  0.7546771E-02  0.1499335E+00
         21   -1    0    0  503  501  0.00000000000E+00  0.00000000000E+00  0.17832597218E+02  0.17832597218E+02  0.00000000000E+00 0.  1.
         21   -1    0    0  504  502 -0.00000000000E+00 -0.00000000000E+00 -0.59067850547E+02  0.59067850547E+02  0.00000000000E+00 0.  1.
         21    1    1    2  503  502  0.22435041875E+02  0.11491570814E+01  0.71332147839E+01  0.23569777663E+02  0.00000000000E+00 0.  1.
         21    1    1    2  504  501 -0.22435041875E+02 -0.11491570814E+01 -0.48368468113E+02  0.53330670102E+02  0.00000000000E+00 0.  1.
</event>
<event>
 4    1  0.3195479E+006  0.2298221E+02  0.7546771E-02  0.1492722E+00
         21   -1    0    0  504  501  0.00000000000E+00  0.00000000000E+00  0.18975366994E+03  0.18975366994E+03  0.00000000000E+00 0.  1.
         21   -1    0    0  501  502 -0.00000000000E+00 -0.00000000000E+00 -0.42401611159E+01  0.42401611159E+01  0.00000000000E+00 0.  1.
         21    1    1    2  503  502 -0.16333365460E+02  0.16167960941E+02  0.35904972021E+02  0.42630374196E+02  0.00000000000E+00 0.  1.
         21    1    1    2  504  503  0.16333365460E+02 -0.16167960941E+02  0.14960853680E+03  0.15136345686E+03  0.00000000000E+00 0.  1.
</event>
<event>
 4    1  0.3195479E+006  0.2510607E+02  0.7546771E-02  0.1467620E+00
         21   -1    0    0  503  501  0.00000000000E+00  0.00000000000E+00  0.27800098870E+02  0.27800098870E+02  0.00000000000E+00 0.  1.
         21   -1    0    0  504  502 -0.00000000000E+00 -0.00000000000E+00 -0.66913299921E+02  0.66913299921E+02  0.00000000000E+00 0. -1.
         21    1    1    2  503  502 -0.16359137538E+02 -0.19044513460E+02 -0.58063066531E+02  0.63258474285E+02  0.00000000000E+00 0. -1.
         21    1    1    2  504  501  0.16359137538E+02  0.19044513460E+02  0.18949865481E+02  0.31454924506E+02  0.00000000000E+00 0.  1.
</event>
<event>
 4    1  0.3195479E+006  0.2281828E+02  0.7546771E-02  0.1494793E+00
         21   -1    0    0  503  501  0.00000000000E+00  0.00000000000E+00  0.51315612034E+02  0.51315612034E+02  0.00000000000E+00 0.  1.
         21   -1    0    0  504  502 -0.00000000000E+00 -0.00000000000E+00 -0.13721739031E+02  0.13721739031E+02  0.00000000000E+00 0. -1.
         21    1    1    2  503  502 -0.14151618300E+02 -0.17899872177E+02  0.35395900001E+02  0.42113459384E+02  0.00000000000E+00 0.  1.
         21    1    1    2  504  501  0.14151618300E+02  0.17899872177E+02  0.21979730026E+01  0.22923891681E+02  0.00000000000E+00 0. -1.
</event>
<event>
 4    1  0.3195479E+006  0.2228364E+02  0.7546771E-02  0.1501695E+00
         21   -1    0    0  502  501  0.00000000000E+00  0.00000000000E+00  0.81972113940E+02  0.81972113940E+02  0.00000000000E+00 0. -1.
         21   -1    0    0  503  502 -0.00000000000E+00 -0.00000000000E+00 -0.54578534235E+02  0.54578534235E+02  0.00000000000E+00 0. -1.
         21    1    1    2  503  504 -0.25200395351E+01 -0.22140688551E+02 -0.50678183667E+02  0.55360987966E+02  0.00000000000E+00 0. -1.
         21    1    1    2  504  501  0.25200395351E+01  0.22140688551E+02  0.78071763372E+02  0.81189660209E+02  0.00000000000E+00 0. -1.
</event>
<event>
 4    1  0.3195479E+006  0.2036621E+02  0.7546771E-02  0.1528509E+00
         21   -1    0    0  503  501  0.00000000000E+00  0.00000000000E+00  0.24537649776E+02  0.24537649776E+02  0.00000000000E+00 0.  1.
         21   -1    0    0  501  502 -0.00000000000E+00 -0.00000000000E+00 -0.28478828072E+02  0.28478828072E+02  0.00000000000E+00 0.  1.
         21    1    1    2  503  504 -0.43039277017E+01 -0.19906252123E+02  0.14929089366E+02  0.25251938074E+02  0.00000000000E+00 0.  1.
         21    1    1    2  504  502  0.43039277017E+01  0.19906252123E+02 -0.18870267662E+02  0.27764539774E+02  0.00000000000E+00 0.  1.
</event>
<event>
 4    1  0.3195479E+006  0.2089981E+02  0.7546771E-02  0.1520700E+00
         21   -1    0    0  504  501  0.00000000000E+00  0.00000000000E+00  0.12402616857E+01  0.12402616857E+01  0.00000000000E+00 0.  1.
         21   -1    0    0  503  502 -0.00000000000E+00 -0.00000000000E+00 -0.39940877259E+03  0.39940877259E+03  0.00000000000E+00 0.  1.
         21    1    1    2  503  501  0.20585356208E+02 -0.36118138725E+01 -0.26796592851E+03  0.26877972567E+03  0.00000000000E+00 0.  1.
         21    1    1    2  504  502 -0.20585356208E+02  0.36118138725E+01 -0.13020258239E+03  0.13186930860E+03  0.00000000000E+00 0.  1.
</event>
<event>
 4    1  0.3195479E+006  0.2074487E+02  0.7546771E-02  0.1522939E+00
         21   -1    0    0  503  501  0.00000000000E+00  0.00000000000E+00  0.13119616232E+03  0.13119616232E+03  0.00000000000E+00 0. -1.
         21   -1    0    0  504  502 -0.00000000000E+00 -0.00000000000E+00 -0.13764506056E+02  0.13764506056E+02  0.00000000000E+00 0. -1.
         21    1    1    2  503  502  0.93548981657E+00  0.20723764480E+02  0.12197299424E+03  0.12372453629E+03  0.00000000000E+00 0. -1.
         21    1    1    2  504  501 -0.93548981657E+00 -0.20723764480E+02 -0.45413379784E+01  0.21236132088E+02  0.00000000000E+00 0. -1.
</event>
<event>
 4    1  0.3195479E+006  0.2336516E+02  0.7546771E-02  0.1487963E+00
         21   -1    0    0  504  501  0.00000000000E+00  0.00000000000E+00  0.18246452411E+03  0.18246452411E+03  0.00000000000E+00 0. -1.
         21   -1    0    0  501  502 -0.00000000000E+00 -0.00000000000E+00 -0.13267307230E+02  0.13267307230E+02  0.00000000000E+00 0.  1.
         21    1    1    2  503  502  0.10098387633E+02 -0.21070196808E+02 -0.15281006114E+01  0.23415074584E+02  0.00000000000E+00 0.  1.
         21    1    1    2  504  503 -0.10098387633E+02  0.21070196808E+02  0.17072531749E+03  0.17231675675E+03  0.00000000000E+00 0. -1.
</event>
<event>
 4    1  0.3195479E+006  0.2404893E+02  0.7546771E-02  0.1479731E+00
         21   -1    0    0  504  501  0.00000000000E+00  0.00000000000E+00  0.15287400247E+02  0.15287400247E+02  0.00000000000E+00 0. -1.
         21   -1    0    0  503  502 -0.00000000000E+00 -0.00000000000E+00 -0.63142390238E+02  0.63142390238E+02  0.00000000000E+00 0. -1.
         21    1    1    2  503  501  0.82865244238E+01 -0.22576190933E+02  0.90046956652E+00  0.24065779221E+02  0.00000000000E+00 0. -1.
         21    1    1    2  504  502 -0.82865244238E+01  0.22576190933E+02 -0.48755459558E+02  0.54364011264E+02  0.00000000000E+00 0. -1.
</event>
<event>
 4    1  0.3195479E+006  0.2280189E+02  0.7546771E-02  0.1495001E+00
         21   -1    0    0  503  501  0.00000000000E+00  0.00000000000E+00  0.27695165683E+03  0.27695165683E+03  0.00000000000E+00 0.  1.
         21   -1    0    0  501  502 -0.00000000000E+00 -0.00000000000E+00 -0.13090987344E+02  0.13090987344E+02  0.00000000000E+00 0.  1.
         21    1    1    2  503  504  0.79974887007E+01  0.21353373960E+02  0.26615104304E+03  0.26712600794E+03  0.00000000000E+00 0.  1.
         21    1    1    2  504  502 -0.79974887007E+01 -0.21353373960E+02 -0.22903735633E+01  0.22916636229E+02  0.00000000000E+00 0.  1.
</event>
<event>
 4    1  0.3195479E+006  0.2266257E+02  0.7546771E-02  0.1496779E+00
         21   -1    0    0  504  501  0.00000000000E+00  0.00000000000E+00  0.97541947062E+01  0.97541947062E+01  0.00000000000E+00 0.  1.
         21   -1    0    0  503  502 -0.00000000000E+00 -0.00000000000E+00 -0.11852349533E+03  0.11852349533E+03  0.00000000000E+00 0. -1.
         21    1    1    2  503  501  0.22401891651E+02 -0.34274084488E+01 -0.65697853926E+01  0.23595634307E+02  0.00000000000E+00 0.  1.
         21    1    1    2  504  502 -0.22401891651E+02  0.34274084488E+01 -0.10219951523E+03  0.10468205573E+03  0.00000000000E+00 0. -1.
</event>
<event>
 4    1  0.3195479E+006  0.5718140E+02  0.7546771E-02  0.1269722E+00
         21   -1    0    0  503  501  0.00000000000E+00  0.00000000000E+00  0.79249751650E+02  0.79249751650E+02  0.00000000000E+00 0. -1.
         21   -1    0    0  504  502 -0.00000000000E+00 -0.00000000000E+00 -0.42685521394E+02  0.42685521394E+02  0.00000000000E+00 0. -1.
         21    1    1    2  503  502 -0.57180874405E+02  0.24577705649E+00  0.29430177992E+02  0.64310560413E+02  0.00000000000E+00 0. -1.
         21    1    1    2  504  501  0.57180874405E+02 -0.24577705649E+00  0.71340522641E+01  0.57624712631E+02  0.00000000000E+00 0. -1.
</event>
<event>
 4    1  0.3195479E+006  0.2141016E+02  0.7546771E-02  0.1513489E+00
         21   -1    0    0  502  501  0.00000000000E+00  0.00000000000E+00  0.75599998703E+02  0.75599998703E+02  0.00000000000E+00 0. -1.
         21   -1    0    0  504  502 -0.00000000000E+00 -0.00000000000E+00 -0.14499829538E+03  0.14499829538E+03  0.00000000000E+00 0. -1.
         21    1    1    2  503  501  0.19835291598E+02 -0.80595483805E+01  0.73269168702E+02  0.76333257465E+02  0.00000000000E+00 0. -1.
         21    1    1    2  504  503 -0.19835291598E+02  0.80595483805E+01 -0.14266746538E+03  0.14426503662E+03  0.00000000000E+00 0. -1.
</event>
<event>
 4    1  0.3195479E+006  0.2004957E+02  0.7546771E-02  0.1533279E+00
         21   -1    0    0  503  501  0.00000000000E+00  0.00000000000E+00  0.38470675421E+02  0.38470675421E+02  0.00000000000E+00 0.  1.
         21   -1    0    0  504  502 -0.00000000000E+00 -0.00000000000E+00 -0.10728090359E+02  0.10728090359E+02  0.00000000000E+00 0.  1.
         21    1    1    2  503  502 -0.33268635698E+01  0.19771630863E+02  0.17837978153E+02  0.26836148621E+02  0.00000000000E+00 0.  1.
         21    1    1    2  504  501  0.33268635698E+01 -0.19771630863E+02  0.99046069090E+01  0.22362617160E+02  0.00000000000E+00 0.  1.
</event>
<event>
 4    1  0.3195479E+006  0.2196286E+02  0.7546771E-02  0.1505949E+00
         21   -1    0    0  504  501  0.00000000000E+00  0.00000000000E+00  0.19011258224E+01  0.19011258224E+01  0.00000000000E+00 0. -1.
         21   -1    0    0  503  502 -0.00000000000E+00 -0.00000000000E+00 -0.54716410261E+03  0.54716410261E+03  0.00000000000E+00 0.  1.
         21    1    1    2  503  501 -0.39049694346E+01 -0.21612919637E+02 -0.47367617948E+03  0.47418507999E+03  0.00000000000E+00 0.  1.
         21    1    1    2  504  502  0.39049694346E+01  0.21612919637E+02 -0.71586797308E+02  0.74880148440E+02  0.00000000000E+00 0. -1.
</event>
<event>
 4    1  0.3195479E+006  0.4046337E+02  0.7546771E-02  0.1345792E+00
         21   -1    0    0  503  501  0.00000000000E+00  0.00000000000E+00  0.42612233190E+02  0.42612233190E+02  0.00000000000E+00 0. -1.
         21   -1    0    0  501  502 -0.00000000000E+00 -0.00000000000E+00 -0.12917210331E+03  0.12917210331E+03  0.00000000000E+00 0.  1.
         21    1    1    2  503  504  0.31418232904E+02 -0.25498613001E+02  0.28713130110E+02  0.49615808615E+02  0.00000000000E+00 0. -1.
         21    1    1    2  504  502 -0.31418232904E+02  0.25498613001E+02 -0.11527300023E+03  0.12216852789E+03  0.00000000000E+00 0.  1.
</event>
<event>
 4    1  0.3195479E+006  0.2203751E+02  0.7546771E-02  0.1504951E+00
         21   -1    0    0  502  501  0.00000000000E+00  0.00000000000E+00  0.25533514066E+02  0.25533514066E+02  0.00000000000E+00 0.  1.
         21   -1    0    0  504  502 -0.00000000000E+00 -0.00000000000E+00 -0.80463472152E+02  0.80463472152E+02  0.00000000000E+00 0. -1.
         21    1    1    2  503  501  0.19852646565E+02 -0.95668378757E+01  0.18847857948E+02  0.28998167387E+02  0.00000000000E+00 0.  1.
         21    1    1    2  504  503 -0.19852646565E+02  0.95668378757E+01 -0.73777816034E+02  0.76998818831E+02  0.00000000000E+00 0. -1.
</event>
<event>
 4    1  0.3195479E+006  0.4731670E+02  0.7546771E-02  0.1310245E+00
         21   -1    0    0  504  501  0.00000000000E+00  0.00000000000E+00  0.32331885595E+03  0.32331885595E+03  0.00000000000E+00 0. -1.
         21   -1    0    0  503  502 -0.00000000000E+00 -0.00000000000E+00 -0.69250295624E+01  0.69250295624E+01  0.00000000000E+00 0. -1.
         21    1    1    2  503  501  0.18408466781E+02 -0.43588973816E+02  0.15941752287E+03  0.16629136143E+03  0.00000000000E+00 0. -1.
         21    1    1    2  504  502 -0.18408466781E+02  0.43588973816E+02  0.15697630352E+03  0.16395252408E+03  0.00000000000E+00 0. -1.
</event>
<event>
 4    1  0.3195479E+006  0.1068658E+03  0.7546771E-02  0.1152414E+00
         21   -1    0    0  502  501  0.00000000000E+00  0.00000000000E+00  0.44707604069E+03  0.44707604069E+03  0.00000000000E+00 0. -1.
         21   -1    0    0  503  502 -0.00000000000E+00 -0.00000000000E+00 -0.48467810599E+03  0.48467810599E+03  0.00000000000E+00 0. -1.
         21    1    1    2  503  504 -0.25325798284E+01  0.10683582922E+03 -0.47223516168E+03  0.48417595593E+03  0.00000000000E+00 0. -1.
         21    1    1    2  504  501  0.25325798284E+01 -0.10683582922E+03  0.43463309639E+03  0.44757819076E+03  0.00000000000E+00 0. -1.
</event>
<event>
 4    1  0.3195479E+006  0.2036373E+02  0.7546771E-02  0.1528546E+00
         21   -1    0    0  504  501  0.00000000000E+00  0.00000000000E+00  0.12965613798E+04  0.12965613798E+04  0.00000000000E+00 0.  1.
         21   -1    0    0  501  502 -0.00000000000E+00 -0.00000000000E+00 -0.12949721915E+01  0.12949721915E+01  0.00000000000E+00 0. -1.
         21    1    1    2  503  502 -0.13926175353E+02 -0.14857430620E+02  0.84514470396E+02  0.86933177273E+02  0.00000000000E+00 0. -1.
         21    1    1    2  504  503  0.13926175353E+02  0.14857430620E+02  0.12107519372E+04  0.12109231747E+04  0.00000000000E+00 0.  1.
</event>
<event>
 4    1  0.3195479E+006  0.2683449E+02  0.7546771E-02  0.1449278E+00
         21   -1    0    0  504  501  0.00000000000E+00  0.00000000000E+00  0.26790009880E+03  0.26790009880E+03  0.00000000000E+00 0.  1.
         21   -1    0    0  503  502 -0.00000000000E+00 -0.00000000000E+00 -0.26972654431E+01  0.26972654431E+01  0.00000000000E+00 0.  1.
         21    1    1    2  503  501  0.26833817381E+02  0.19062011701E+00  0.12463114123E+03  0.12748729919E+03  0.00000000000E+00 0.  1.
         21    1    1    2  504  502 -0.26833817381E+02 -0.19062011701E+00  0.14057169214E+03  0.14311006506E+03  0.00000000000E+00 0.  1.
</event>
<event>
 4    1  0.3195479E+006  0.2565842E+02  0.7546771E-02  0.1461571E+00
         21   -1    0    0  503  501  0.00000000000E+00  0.00000000000E+00  0.27386521096E+02  0.27386521096E+02  0.00000000000E+00 0. -1.
         21   -1    0    0  504  502 -0.00000000000E+00 -0.00000000000E+00 -0.87858590565E+02  0.87858590565E+02  0.00000000000E+00 0.  1.
         21    1    1    2  503  502 -0.22967873950E+02  0.11438142925E+02 -0.79346742692E+02  0.83392205410E+02  0.00000000000E+00 0.  1.
         21    1    1    2  504  501  0.22967873950E+02 -0.11438142925E+02  0.18874673224E+02  0.31852906251E+02  0.00000000000E+00 0. -1.
</event>
<event>
 4    1  0.3195479E+006  0.2356577E+02  0.7546771E-02  0.1485513E+00
         21   -1    0    0  502  501  0.00000000000E+00  0.00000000000E+00  0.24516846659E+03  0.24516846659E+03  0.00000000000E+00 0.  1.
         21   -1    0    0  504  502 -0.00000000000E+00 -0.00000000000E+00 -0.35648674679E+01  0.35648674679E+01  0.00000000000E+00 0.  1.
         21    1    1    2  503  501  0.23206343800E+02 -0.41001241719E+01  0.19589582341E+03  0.19730818290E+03  0.00000000000E+00 0.  1.
         21    1    1    2  504  503 -0.23206343800E+02  0.41001241719E+01  0.45707775708E+02  0.51425151152E+02  0.00000000000E+00 0.  1.
</event>
<event>
 4    1  0.3195479E+006  0.2743069E+02  0.7546771E-02  0.1443329E+00
         21   -1    0    0  503  501  0.00000000000E+00  0.00000000000E+00  0.63535536074E+01  0.63535536074E+01  0.00000000000E+00 0. -1.
         21   -1    0    0  504  502 -0.00000000000E+00 -0.00000000000E+00 -0.12366691049E+03  0.12366691049E+03  0.00000000000E+00 0. -1.
         21    1    1    2  503  502  0.18480516678E+02  0.20270990114E+02 -0.45276864648E+02  0.52938048786E+02  0.00000000000E+00 0. -1.
         21    1    1    2  504  501 -0.18480516678E+02 -0.20270990114E+02 -0.72036492235E+02  0.77082415313E+02  0.00000000000E+00 0. -1.
</event>
<event>
 4    1  0.3195479E+006  0.3187895E+02  0.7546771E-02  0.1403942E+00
         21   -1    0    0  504  501  0.00000000000E+00  0.00000000000E+00  0.15408514221E+04  0.15408514221E+04  0.00000000000E+00 0.  1.
         21   -1    0    0  501  502 -0.00000000000E+00 -0.00000000000E+00 -0.16069593607E+01  0.16069593607E+01  0.00000000000E+00 0. -1.
         21    1    1    2  503  502 -0.31876362459E+02  0.40612964323E+00  0.17744730318E+03  0.18028813836E+03  0.00000000000E+00 0. -1.
         21    1    1    2  504  503  0.31876362459E+02 -0.40612964323E+00  0.13617971595E+04  0.13621702431E+04  0.00000000000E+00 0.  1.
</event>
<event>
 4    1  0.3195479E+006  0.2152723E+02  0.7546771E-02  0.1511869E+00
         21   -1    0    0  504  501  0.00000000000E+00  0.00000000000E+00  0.27941427645E+03  0.27941427645E+03  0.00000000000E+00 0.  1.
         21   -1    0    0  503  502 -0.00000000000E+00 -0.00000000000E+00 -0.16912380854E+01  0.16912380854E+01  0.00000000000E+00 0.  1.
         21    1    1    2  503  501  0.51499444029E+01 -0.20902142719E+02  0.15840296592E+03  0.15985906640E+03  0.00000000000E+00 0.  1.
         21    1    1    2  504  502 -0.51499444029E+01  0.20902142719E+02  0.11932007244E+03  0.12124644813E+03  0.00000000000E+00 0.  1.
</event>
<event>
 4    1  0.3195479E+006  0.4774793E+02  0.7546771E-02  0.1308243E+00
         21   -1    0    0  503  501  0.00000000000E+00  0.00000000000E+00  0.15898809243E+03  0.15898809243E+03  0.00000000000E+00 0.  1.
         21   -1    0    0  501  502 -0.00000000000E+00 -0.00000000000E+00 -0.70383010683E+02  0.70383010683E+02  0.00000000000E+00 0. -1.
         21    1    1    2  503  504  0.47726947536E+02  0.14152408023E+01  0.14664035143E+03  0.15421821259E+03  0.00000000000E+00 0.  1.
         21    1    1    2  504  502 -0.47726947536E+02 -0.14152408023E+01 -0.58035269678E+02  0.75152890525E+02  0.00000000000E+00 0. -1.
</event>
<event>
 4    1  0.3195479E+006  0.3020789E+02  0.7546771E-02  0.1417798E+00
         21   -1    0    0  502  501  0.00000000000E+00  0.00000000000E+00  0.37585469530E+03  0.37585469530E+03  0.00000000000E+00 0. -1.
         21   -1    0    0  503  502 -0.00000000000E+00 -0.00000000000E+00 -0.15744660644E+03  0.15744660644E+03  0.00000000000E+00 0. -1.
         21    1    1    2  503  504  0.29339796169E+02  0.71898035189E+01 -0.15538272724E+03  0.15829184704E+03  0.00000000000E+00 0. -1.
         21    1    1    2  504  501 -0.29339796169E+02 -0.71898035189E+01  0.37379081611E+03  0.37500945471E+03  0.00000000000E+00 0. -1.
</event>
<event>
 4    1  0.3195479E+006  0.2428539E+02  0.7546771E-02  0.1476959E+00
         21   -1    0    0  504  501  0.00000000000E+00  0.00000000000E+00  0.64683997655E+02  0.64683997655E+02  0.00000000000E+00 0. -1.
         21   -1    0    0  503  502 -0.00000000000E+00 -0.00000000000E+00 -0.29459481359E+02  0.29459481359E+02  0.00000000000E+00 0. -1.
         21    1    1    2  503  501  0.20829140643E+02 -0.12487083566E+02 -0.21502474248E+02  0.32436657576E+02  0.00000000000E+00 0. -1.
         21    1    1    2  504  502 -0.20829140643E+02  0.12487083566E+02  0.56726990543E+02  0.61706821438E+02  0.00000000000E+00 0. -1.
</event>
<event>
 4    1  0.3195479E+006  0.2022348E+02  0.7546771E-02  0.1530646E+00
         21   -1    0    0  502  501  0.00000000000E+00  0.00000000000E+00  0.17851554708E+03  0.17851554708E+03  0.00000000000E+00 0. -1.
         21   -1    0    0  504  502 -0.00000000000E+00 -0.00000000000E+00 -0.40049179695E+02  0.40049179695E+02  0.00000000000E+00 0.  1.
         21    1    1    2  503  501 -0.39774666576E+01  0.19828487020E+02  0.17534370980E+03  0.17650610670E+03  0.00000000000E+00 0. -1.
         21    1    1    2  504  503  0.39774666576E+01 -0.19828487020E+02 -0.36877342415E+02  0.42058620069E+02  0.00000000000E+00 0.  1.
</event>
<event>
 4    1  0.3195479E+006  0.3809354E+02  0.7546771E-02  0.1360035E+00
         21   -1    0    0  504  501  0.00000000000E+00  0.00000000000E+00  0.22608275346E+03  0.22608275346E+03  0.00000000000E+00 0. -1.
         21   -1    0    0  503  502 -0.00000000000E+00 -0.00000000000E+00 -0.86213795651E+01  0.86213795651E+01  0.00000000000E+00 0. -1.
         21    1    1    2  503  501 -0.34001596782E+02  0.17175841944E+02  0.49411508190E+02  0.62390826825E+02  0.00000000000E+00 0. -1.
         21    1    1    2  504  502  0.34001596782E+02 -0.17175841944E+02  0.16804986571E+03  0.17231330620E+03  0.00000000000E+00 0. -1.
</event>
<event>
 4    1  0.3195479E+006  0.2556517E+02  0.7546771E-02  0.1462579E+00
         21   -1    0    0  502  501  0.00000000000E+00  0.00000000000E+00  0.91000132997E+02  0.91000132997E+02  0.00000000000E+00 0. -1.
         21   -1    0    0  503  502 -0.00000000000E+00 -0.00000000000E+00 -0.64036331214E+02  0.64036331214E+02  0.00000000000E+00 0. -1.
         21    1    1    2  503  504 -0.25554280030E+02 -0.74597499763E+00 -0.59559954569E+02  0.64814858596E+02  0.00000000000E+00 0. -1.
         21    1    1    2  504  501  0.25554280030E+02  0.74597499763E+00  0.86523756352E+02  0.90221605615E+02  0.00000000000E+00 0. -1.
</event>
<event>
 4    1  0.3195479E+006  0.2178275E+02  0.7546771E-02  0.1508376E+00
         21   -1    0    0  504  501  0.00000000000E+00  0.00000000000E+00  0.14271401334E+02  0.14271401334E+02  0.00000000000E+00 0. -1.
         21   -1    0    0  501  502 -0.00000000000E+00 -0.00000000000E+00 -0.18638222683E+03  0.18638222683E+03  0.00000000000E+00 0. -1.
         21    1    1    2  503  502  0.23832422525E+01 -0.21651987076E+02 -0.17699471549E+03  0.17833008074E+03  0.00000000000E+00 0. -1.
         21    1    1    2  504  503 -0.23832422525E+01  0.21651987076E+02  0.48838899910E+01  0.22323547420E+02  0.00000000000E+00 0. -1.
</event>
<event>
 4    1  0.3195479E+006  0.2456541E+02  0.7546771E-02  0.1473724E+00
         21   -1    0    0  503  501  0.00000000000E+00  0.00000000000E+00  0.39147818781E+03  0.39147818781E+03  0.00000000000E+00 0. -1.
         21   -1    0    0  504  502 -0.00000000000E+00 -0.00000000000E+00 -0.10569682790E+02  0.10569682790E+02  0.00000000000E+00 0. -1.
         21    1    1    2  503  502 -0.19320501821E+02 -0.15171601233E+02  0.46664350706E+01  0.25004697376E+02  0.00000000000E+00 0. -1.
         21    1    1    2  504  501  0.19320501821E+02  0.15171601233E+02  0.37624206995E+03  0.37704317322E+03  0.00000000000E+00 0. -1.
</event>
<event>
 4    1  0.3195479E+006  0.2874627E+02  0.7546771E-02  0.1430813E+00
         21   -1    0    0  502  501  0.00000000000E+00  0.00000000000E+00  0.21389581706E+02  0.21389581706E+02  0.00000000000E+00 0.  1.
         21   -1    0    0  504  502 -0.00000000000E+00 -0.00000000000E+00 -0.52143101150E+02  0.52143101150E+02  0.00000000000E+00 0.  1.
         21    1    1    2  503  501 -0.25828238728E+02  0.12619435152E+02  0.33377312776E+01  0.28939393730E+02  0.00000000000E+00 0.  1.
         21    1    1    2  504  503  0.25828238728E+02 -0.12619435152E+02 -0.34091250722E+02  0.44593289127E+02  0.00000000000E+00 0.  1.
</event>
<event>
 4    1  0.3195479E+006  0.2791933E+02  0.7546771E-02  0.1438586E+00
         21   -1    0    0  502  501  0.00000000000E+00  0.00000000000E+00  0.80304804969E+02  0.80304804969E+02  0.00000000000E+00 0.  1.
         21   -1    0    0  504  502 -0.00000000000E+00 -0.00000000000E+00 -0.12631996545E+02  0.12631996545E+02  0.00000000000E+00 0.  1.
         21    1    1    2  503  501 -0.11126662567E+01 -0.27897146045E+02  0.56198479183E+02  0.62751556523E+02  0.00000000000E+00 0.  1.
         21    1    1    2  504  503  0.11126662567E+01  0.27897146045E+02  0.11474329241E+02  0.30185244991E+02  0.00000000000E+00 0.  1.
</event>
<event>
 4    1  0.3195479E+006  0.2725243E+02  0.7546771E-02  0.1445089E+00
         21   -1    0    0  502  501  0.00000000000E+00  0.00000000000E+00  0.10422265405E+02  0.10422265405E+02  0.00000000000E+00 0.  1.
         21   -1    0    0  503  502 -0.00000000000E+00 -0.00000000000E+00 -0.16483610610E+03  0.16483610610E+03  0.00000000000E+00 0. -1.
         21    1    1    2  503  504  0.13870398741E+02  0.23458626759E+02 -0.14323126302E+03  0.14580085678E+03  0.00000000000E+00 0. -1.
         21    1    1    2  504  501 -0.13870398741E+02 -0.23458626759E+02 -0.11182577678E+02  0.29457514731E+02  0.00000000000E+00 0.  1.
</event>
<event>
 4    1  0.3195479E+006  0.2288829E+02  0.7546771E-02  0.1493906E+00
         21   -1    0    0  504  501  0.00000000000E+00  0.00000000000E+00  0.97728721580E+03  0.97728721580E+03  0.00000000000E+00 0.  1.
         21   -1    0    0  503  502 -0.00000000000E+00 -0.00000000000E+00 -0.54742490206E+00  0.54742490206E+00  0.00000000000E+00 0.  1.
         21    1    1    2  503  501 -0.83682524228E-01 -0.22888137929E+02  0.55884984183E+03  0.55931835262E+03  0.00000000000E+00 0.  1.
         21    1    1    2  504  502  0.83682524228E-01  0.22888137929E+02  0.41788994907E+03  0.41851628808E+03  0.00000000000E+00 0.  1.
</event>
<event>
 4    1  0.3195479E+006  0.3014789E+02  0.7546771E-02  0.1418316E+00
         21   -1    0    0  503  501  0.00000000000E+00  0.00000000000E+00  0.11711774518E+02  0.11711774518E+02  0.00000000000E+00 0. -1.
         21   -1    0    0  504  502 -0.00000000000E+00 -0.00000000000E+00 -0.37414758770E+03  0.37414758770E+03  0.00000000000E+00 0.  1.
         21    1    1    2  503  502 -0.12023531329E+02  0.27646518979E+02 -0.35297746591E+03  0.35426259576E+03  0.00000000000E+00 0.  1.
         21    1    1    2  504  501  0.12023531329E+02 -0.27646518979E+02 -0.94583472716E+01  0.31596766454E+02  0.00000000000E+00 0. -1.
</event>
<event>
 4    1  0.3195479E+006  0.2372756E+02  0.7546771E-02  0.1483559E+00
         21   -1    0    0  504  501  0.00000000000E+00  0.00000000000E+00  0.12953279059E+02  0.12953279059E+02  0.00000000000E+00 0. -1.
         21   -1    0    0  503  502 -0.00000000000E+00 -0.00000000000E+00 -0.19370373139E+03  0.19370373139E+03  0.00000000000E+00 0.  1.
         21    1    1    2  503  501 -0.31685741420E+01 -0.23515039243E+02  0.62532910340E+00  0.23735795103E+02  0.00000000000E+00 0. -1.
         21    1    1    2  504  502  0.31685741420E+01  0.23515039243E+02 -0.18137578143E+03  0.18292121535E+03  0.00000000000E+00 0.  1.
</event>
<event>
 4    1  0.3195479E+006  0.4721428E+02  0.7546771E-02  0.1310724E+00
         21   -1    0    0  504  501  0.00000000000E+00  0.00000000000E+00  0.47002007627E+02  0.47002007627E+02  0.00000000000E+00 0. -1.
         21   -1    0    0  503  502 -0.00000000000E+00 -0.00000000000E+00 -0.99444926848E+02  0.99444926848E+02  0.00000000000E+00 0. -1.
         21    1    1    2  503  501  0.19617506112E+01 -0.47173502470E+02  0.26736762688E+02  0.54259029477E+02  0.00000000000E+00 0. -1.
         21    1    1    2  504  502 -0.19617506112E+01  0.47173502470E+02 -0.79179681909E+02  0.92187904998E+02  0.00000000000E+00 0. -1.
</event>
<event>
 4    1  0.3195479E+006  0.2226455E+02  0.7546771E-02  0.1501946E+00
         21   -1    0    0  504  501  0.00000000000E+00  0.00000000000E+00  0.47156714079E+02  0.47156714079E+02  0.00000000000E+00 0. -1.
         21   -1    0    0  503  502 -0.00000000000E+00 -0.00000000000E+00 -0.15063366897E+02  0.15063366897E+02  0.00000000000E+00 0. -1.
         21    1    1    2  503  501  0.12938406516E+02 -0.18119263055E+02 -0.10539445586E+01  0.22289478593E+02  0.00000000000E+00 0. -1.
         21    1    1    2  504  502 -0.12938406516E+02  0.18119263055E+02  0.33147291741E+02  0.39930602382E+02  0.00000000000E+00 0. -1.
</event>
<event>
 4    1  0.3195479E+006  0.3680393E+02  0.7546771E-02  0.1368306E+00
         21   -1    0    0  503  501  0.00000000000E+00  0.00000000000E+00  0.18155683877E+03  0.18155683877E+03  0.00000000000E+00 0.  1.
         21   -1    0    0  504  502 -0.00000000000E+00 -0.00000000000E+00 -0.75779294251E+01  0.75779294251E+01  0.00000000000E+00 0.  1.
         21    1    1    2  503  502 -0.29885029547E+02 -0.21480558015E+02  0.98754786840E+02  0.10538992973E+03  0.00000000000E+00 0.  1.
         21    1    1    2  504  501  0.29885029547E+02  0.21480558015E+02  0.75224122501E+02  0.83744838466E+02  0.00000000000E+00 0.  1.
</event>
<event>
 4    1  0.3195479E+006  0.2026987E+02  0.7546771E-02  0.1529949E+00
         21   -1    0    0  503  501  0.00000000000E+00  0.00000000000E+00  0.11226157189E+03  0.11226157189E+03  0.00000000000E+00 0. -1.
         21   -1    0    0  504  502 -0.00000000000E+00 -0.00000000000E+00 -0.11335889865E+02  0.11335889865E+02  0.00000000000E+00 0. -1.
         21    1    1    2  503  502  0.13646134195E+02 -0.14988350239E+02  0.10131607386E+03  0.10332383290E+03  0.00000000000E+00 0. -1.
         21    1    1    2  504  501 -0.13646134195E+02  0.14988350239E+02 -0.39039183784E+00  0.20273628860E+02  0.00000000000E+00 0. -1.
</event>
<event>
 4    1  0.3195479E+006  0.2204616E+02  0.7546771E-02  0.1504836E+00
         21   -1    0    0  502  501  0.00000000000E+00  0.00000000000E+00  0.37258850386E+03  0.37258850386E+03  0.00000000000E+00 0. -1.
         21   -1    0    0  504  502 -0.00000000000E+00 -0.00000000000E+00 -0.53396942928E+01  0.53396942928E+01  0.00000000000E+00 0. -1.
         21    1    1    2  503  501  0.20814339877E+01 -0.21947686463E+02  0.34789299964E+03  0.34859083824E+03  0.00000000000E+00 0. -1.
         21    1    1    2  504  503 -0.20814339877E+01  0.21947686463E+02  0.19355809927E+02  0.29337359909E+02  0.00000000000E+00 0. -1.
</event>
<event>
 4    1  0.3195479E+006  0.3034659E+02  0.7546771E-02  0.1416608E+00
         21   -1    0    0  504  501  0.00000000000E+00  0.00000000000E+00  0.36170926054E+02  0.36170926054E+02  0.00000000000E+00 0.  1.
         21   -1    0    0  501  502 -0.00000000000E+00 -0.00000000000E+00 -0.29750589981E+02  0.29750589981E+02  0.00000000000E+00 0.  1.
         21    1    1    2  503  502  0.25399247994E+02  0.16607031547E+02 -0.93069107006E+01  0.31741674220E+02  0.00000000000E+00 0.  1.
         21    1    1    2  504  503 -0.25399247994E+02 -0.16607031547E+02  0.15727246774E+02  0.34179841816E+02  0.00000000000E+00 0.  1.
</event>
<event>
 4    1  0.3195479E+006  0.2155900E+02  0.7546771E-02  0.1511431E+00
         21   -1    0    0  503  501  0.00000000000E+00  0.00000000000E+00  0.23480455215E+02  0.23480455215E+02  0.00000000000E+00 0.  1.
         21   -1    0    0  501  502 -0.00000000000E+00 -0.00000000000E+00 -0.32152103352E+03  0.32152103352E+03  0.00000000000E+00 0. -1.
         21    1    1    2  503  504 -0.14588510196E+01 -0.21509580598E+02  0.18086014682E+02  0.28140615325E+02  0.00000000000E+00 0.  1.
         21    1    1    2  504  502  0.14588510196E+01  0.21509580598E+02 -0.31612659299E+03  0.31686087341E+03  0.00000000000E+00 0. -1.
</event>
<event>
 4    1  0.3195479E+006  0.2068523E+02  0.7546771E-02  0.1523807E+00
         21   -1    0    0  504  501  0.00000000000E+00  0.00000000000E+00  0.29965431103E+02  0.29965431103E+02  0.00000000000E+00 0. -1.
         21   -1    0    0  503  502 -0.00000000000E+00 -0.00000000000E+00 -0.15376553698E+02  0.15376553698E+02  0.00000000000E+00 0. -1.
         21    1    1    2  503  501 -0.14935511814E+02 -0.14311162442E+02  0.12377192740E+01  0.20722230396E+02  0.00000000000E+00 0. -1.
         21    1    1    2  504  502  0.14935511814E+02  0.14311162442E+02  0.13351158131E+02  0.24619754406E+02  0.00000000000E+00 0. -1.
</event>
<event>
 4    1  0.3195479E+006  0.2208044E+02  0.7546771E-02  0.1504380E+00
         21   -1    0    0  503  501  0.00000000000E+00  0.00000000000E+00  0.77948225413E+01  0.77948225413E+01  0.00000000000E+00 0.  1.
         21   -1    0    0  504  502 -0.00000000000E+00 -0.00000000000E+00 -0.68941998165E+02  0.68941998165E+02  0.00000000000E+00 0.  1.
         21    1    1    2  503  502  0.19809971772E+02 -0.97524852297E+01 -0.42258843327E+02  0.47679720942E+02  0.00000000000E+00 0.  1.
         21    1    1    2  504  501 -0.19809971772E+02  0.97524852297E+01 -0.18888332297E+02  0.29057099764E+02  0.00000000000E+00 0.  1.
</event>
<event>
 4    1  0.3195479E+006  0.4817285E+02  0.7546771E-02  0.1306295E+00
         21   -1    0    0  503  501  0.00000000000E+00  0.00000000000E+00  0.17258620942E+03  0.17258620942E+03  0.00000000000E+00 0.  1.
         21   -1    0    0  504  502 -0.00000000000E+00 -0.00000000000E+00 -0.14499411053E+02  0.14499411053E+02  0.00000000000E+00 0.  1.
         21    1    1    2  503  502  0.29304989303E+02  0.38234024450E+02  0.10425495831E+03  0.11484650346E+03  0.00000000000E+00 0.  1.
         21    1    1    2  504  501 -0.29304989303E+02 -0.38234024450E+02  0.53831840054E+02  0.72239117017E+02  0.00000000000E+00 0.  1.
</event>
<event>
 4    1  0.3195479E+006  0.2144957E+02  0.7546771E-02  0.1512942E+00
         21   -1    0    0  503  501  0.00000000000E+00  0.00000000000E+00  0.17673099349E+03  0.17673099349E+03  0.00000000000E+00 0.  1.
         21   -1    0    0  504  502 -0.00000000000E+00 -0.00000000000E+00 -0.24387077056E+02  0.24387077056E+02  0.00000000000E+00 0.  1.
         21    1    1    2  503  502 -0.43172623064E+01 -0.21010598141E+02 -0.18868342963E+02  0.28567435206E+02  0.00000000000E+00 0.  1.
         21    1    1    2  504  501  0.43172623064E+01  0.21010598141E+02  0.17121225939E+03  0.17255063534E+03  0.00000000000E+00 0.  1.
</event>
<event>
 4    1  0.3195479E+006  0.2008626E+02  0.7546771E-02  0.1532721E+00
         21   -1    0    0  503  501  0.00000000000E+00  0.00000000000E+00  0.17438399431E+02  0.17438399431E+02  0.00000000000E+00 0. -1.
         21   -1    0    0  501  502 -0.00000000000E+00 -0.00000000000E+00 -0.88789324958E+02  0.88789324958E+02  0.00000000000E+00 0. -1.
         21    1    1    2  503  504 -0.17247218397E+02  0.10295202843E+02  0.99970926585E+01  0.22436568490E+02  0.00000000000E+00 0. -1.
         21    1    1    2  504  502  0.17247218397E+02 -0.10295202843E+02 -0.81348018186E+02  0.83791155898E+02  0.00000000000E+00 0. -1.
</event>
<event>
 4    1  0.3195479E+006  0.2362206E+02  0.7546771E-02  0.1484831E+00
         21   -1    0    0  504  501  0.00000000000E+00  0.00000000000E+00  0.20071151896E+02  0.20071151896E+02  0.00000000000E+00 0.  1.
         21   -1    0    0  501  502 -0.00000000000E+00 -0.00000000000E+00 -0.17792678863E+03  0.17792678863E+03  0.00000000000E+00 0. -1.
         21    1    1    2  503  502  0.23366034474E+02 -0.34684248256E+01 -0.16986414562E+03  0.17149877406E+03  0.00000000000E+00 0. -1.
         21    1    1    2  504  503 -0.23366034474E+02  0.34684248256E+01  0.12008508882E+02  0.26499166466E+02  0.00000000000E+00 0.  1.
</event>
<event>
 4    1  0.3195479E+006  0.2316815E+02  0.7546771E-02  0.1490397E+00
         21   -1    0    0  502  501  0.00000000000E+00  0.00000000000E+00  0.18138025136E+01  0.18138025136E+01  0.00000000000E+00 0. -1.
         21   -1    0    0  503  502 -0.00000000000E+00 -0.00000000000E+00 -0.37239755796E+03  0.37239755796E+03  0.00000000000E+00 0. -1.
         21    1    1    2  503  504 -0.18764985028E+02  0.13588176996E+02 -0.27007607388E+03  0.27106797837E+03  0.00000000000E+00 0. -1.
         21    1    1    2  504  501  0.18764985028E+02 -0.13588176996E+02 -0.10050768157E+03  0.10314338210E+03  0.00000000000E+00 0. -1.
</event>
<event>
 4    1  0.3195479E+006  0.2055688E+02  0.7546771E-02  0.1525686E+00
         21   -1    0    0  503  501  0.00000000000E+00  0.00000000000E+00  0.40411597410E+01  0.40411597410E+01  0.00000000000E+00 0. -1.
         21   -1    0    0  504  502 -0.00000000000E+00 -0.00000000000E+00 -0.11995542098E+03  0.11995542098E+03  0.00000000000E+00 0. -1.
         21    1    1    2  503  502  0.20940494315E+01  0.20449943373E+02 -0.80160579536E+02  0.82754478661E+02  0.00000000000E+00 0. -1.
         21    1    1    2  504  501 -0.20940494315E+01 -0.20449943373E+02 -0.35753681704E+02  0.41242102060E+02  0.00000000000E+00 0. -1.
</event>
<event>
 4    1  0.3195479E+006  0.3188440E+02  0.7546771E-02  0.1403898E+00
         21   -1    0    0  503  501  0.00000000000E+00  0.00000000000E+00  0.12553288123E+03  0.12553288123E+03  0.00000000000E+00 0. -1.
         21   -1    0    0  504  502 -0.00000000000E+00 -0.00000000000E+00 -0.81884152540E+01  0.81884152540E+01  0.00000000000E+00 0. -1.
         21    1    1    2  503  502  0.30935380583E+02  0.77212217186E+01  0.51661921238E+02  0.60708888497E+02  0.00000000000E+00 0. -1.
         21    1    1    2  504  501 -0.30935380583E+02 -0.77212217186E+01  0.65682544734E+02  0.73012407982E+02  0.00000000000E+00 0. -1.
</event>
<event>
 4    1  0.3195479E+006  0.2170213E+02  0.7546771E-02  0.1509472E+00
         21   -1    0    0  503  501  0.00000000000E+00  0.00000000000E+00  0.39160441784E+02  0.39160441784E+02  0.00000000000E+00 0. -1.
         21   -1    0    0  504  502 -0.00000000000E+00 -0.00000000000E+00 -0.22400452333E+02  0.22400452333E+02  0.00000000000E+00 0. -1.
         21    1    1    2  503  502  0.20627430356E+00 -0.21701145005E+02  0.29326346622E+02  0.36483103621E+02  0.00000000000E+00 0. -1.
         21    1    1    2  504  501 -0.20627430356E+00  0.21701145005E+02 -0.12566357171E+02  0.25077790496E+02  0.00000000000E+00 0. -1.
</event>
<event>
 4    1  0.3195479E+006  0.2579241E+02  0.7546771E-02  0.1460131E+00
         21   -1    0    0  503  501  0.00000000000E+00  0.00000000000E+00  0.16060353579E+03  0.16060353579E+03  0.00000000000E+00 0.  1.
         21   -1    0    0  504  502 -0.00000000000E+00 -0.00000000000E+00 -0.44465699120E+01  0.44465699120E+01  0.00000000000E+00 0.  1.
         21    1    1    2  503  502 -0.15460014954E+02 -0.20645494865E+02  0.99670310952E+02  0.10295348176E+03  0.00000000000E+00 0.  1.
         21    1    1    2  504  501  0.15460014954E+02  0.20645494865E+02  0.56486654921E+02  0.62096623941E+02  0.00000000000E+00 0.  1.
</event>
<event>
 4    1  0.3195479E+006  0.2331270E+02  0.7546771E-02  0.1488608E+00
         21   -1    0    0  503  501  0.00000000000E+00  0.00000000000E+00  0.98073740765E+02  0.98073740765E+02  0.00000000000E+00 0.  1.
         21   -1    0    0  501  502 -0.00000000000E+00 -0.00000000000E+00 -0.11050094691E+02  0.11050094691E+02  0.00000000000E+00 0.  1.
         21    1    1    2  503  504 -0.18328226747E+02 -0.14406876908E+02  0.82035211355E+02  0.85283397564E+02  0.00000000000E+00 0.  1.
         21    1    1    2  504  502  0.18328226747E+02  0.14406876908E+02  0.49884347185E+01  0.23840437891E+02  0.00000000000E+00 0.  1.
</event>
<event>
 4    1  0.3195479E+006  0.2355146E+02  0.7546771E-02  0.1485687E+00
         21   -1    0    0  503  501  0.00000000000E+00  0.00000000000E+00  0.31902427436E+01  0.31902427436E+01  0.00000000000E+00 0. -1.
         21   -1    0    0  504  502 -0.00000000000E+00 -0.00000000000E+00 -0.18471531962E+03  0.18471531962E+03  0.00000000000E+00 0. -1.
         21    1    1    2  503  502 -0.22588212824E+02  0.66666379915E+01 -0.67991633581E+02  0.71955080833E+02  0.00000000000E+00 0. -1.
         21    1    1    2  504  501  0.22588212824E+02 -0.66666379915E+01 -0.11353344330E+03  0.11595048153E+03  0.00000000000E+00 0. -1.
</event>
<event>
 4    1  0.3195479E+006  0.2315915E+02  0.7546771E-02  0.1490509E+00
         21   -1    0    0  503  501  0.00000000000E+00  0.00000000000E+00  0.29763038766E+02  0.29763038766E+02  0.00000000000E+00 0.  1.
         21   -1    0    0  504  502 -0.00000000000E+00 -0.00000000000E+00 -0.18123368338E+02  0.18123368338E+02  0.00000000000E+00 0.  1.
         21    1    1    2  503  502 -0.10761350901E+02 -0.20507066228E+02  0.40164426961E+01  0.23504855891E+02  0.00000000000E+00 0.  1.
         21    1    1    2  504  501  0.10761350901E+02  0.20507066228E+02  0.76232277315E+01  0.24381551213E+02  0.00000000000E+00 0.  1.
</event>
<event>
 4    1  0.3195479E+006  0.2041793E+02  0.7546771E-02  0.1527740E+00
         21   -1    0    0  504  501  0.00000000000E+00  0.00000000000E+00  0.49864257199E+01  0.49864257199E+01  0.00000000000E+00 0.  1.
         21   -1    0    0  501  502 -0.00000000000E+00 -0.00000000000E+00 -0.11904530492E+03  0.11904530492E+03  0.00000000000E+00 0. -1.
         21    1    1    2  503  502 -0.17221360278E+02  0.10968891062E+02 -0.90866553218E+02  0.93132283955E+02  0.00000000000E+00 0. -1.
         21    1    1    2  504  503  0.17221360278E+02 -0.10968891062E+02 -0.23192325981E+02  0.30899446684E+02  0.00000000000E+00 0.  1.
</event>
<event>
 4    1  0.3195479E+006  0.2138694E+02  0.7546771E-02  0.1513812E+00
         21   -1    0    0  504  501  0.00000000000E+00  0.00000000000E+00  0.15899493684E+03  0.15899493684E+03  0.00000000000E+00 0. -1.
         21   -1    0    0  503  502 -0.00000000000E+00 -0.00000000000E+00 -0.10204896113E+02  0.10204896113E+02  0.00000000000E+00 0.  1.
         21    1    1    2  503  501  0.32806196938E+01  0.21133825659E+02  0.27047207779E+01  0.21557285707E+02  0.00000000000E+00 0.  1.
         21    1    1    2  504  502 -0.32806196938E+01 -0.21133825659E+02  0.14608531995E+03  0.14764254725E+03  0.00000000000E+00 0. -1.
</event>
<event>
 4    1  0.3195479E+006  0.3109893E+02  0.7546771E-02  0.1410281E+00
         21   -1    0    0  504  501  0.00000000000E+00  0.00000000000E+00  0.77653432930E+02  0.77653432930E+02  0.00000000000E+00 0.  1.
         21   -1    0    0  501  502 -0.00000000000E+00 -0.00000000000E+00 -0.27504978478E+02  0.27504978478E+02  0.00000000000E+00 0.  1.
         21    1    1    2  503  502 -0.30700722969E+02  0.49607248032E+01 -0.13819712819E+02  0.34031274496E+02  0.00000000000E+00 0.  1.
         21    1    1    2  504  503  0.30700722969E+02 -0.49607248032E+01  0.63968167271E+02  0.71127136913E+02  0.00000000000E+00 0.  1.
</event>
<event>
 4    1  0.3195479E+006  0.2455353E+02  0.7546771E-02  0.1473860E+00
         21   -1    0    0  503  501  0.00000000000E+00  0.00000000000E+00  0.59031341237E+01  0.59031341237E+01  0.00000000000E+00 0. -1.
         21   -1    0    0  504  502 -0.00000000000E+00 -0.00000000000E+00 -0.10334139404E+03  0.10334139404E+03  0.00000000000E+00 0. -1.
         21    1    1    2  503  502  0.24431815411E+02 -0.24417791391E+01 -0.42800583772E+02  0.49343346673E+02  0.00000000000E+00 0. -1.
         21    1    1    2  504  501 -0.24431815411E+02  0.24417791391E+01 -0.54637676147E+02  0.59901181494E+02  0.00000000000E+00 0. -1.
</event>
<event>
 4    1  0.3195479E+006  0.2199093E+02  0.7546771E-02  0.1505573E+00
         21   -1    0    0  504  501  0.00000000000E+00  0.00000000000E+00  0.55240291702E+00  0.55240291702E+00  0.00000000000E+00 0.  1.
         21   -1    0    0  503  502 -0.00000000000E+00 -0.00000000000E+00 -0.10496532920E+04  0.10496532920E+04  0.00000000000E+00 0.  1.
         21    1    1    2  503  501 -0.17882579610E+02  0.12799001192E+02 -0.73846962499E+03  0.73879698708E+03  0.00000000000E+00 0.  1.
         21    1    1    2  504  502  0.17882579610E+02 -0.12799001192E+02 -0.31063126413E+03  0.31140870788E+03  0.00000000000E+00 0.  1.
</event>
<event>
 4    1  0.3195479E+006  0.4076054E+02  0.7546771E-02  0.1344086E+00
         21   -1    0    0  502  501  0.00000000000E+00  0.00000000000E+00  0.51513843970E+02  0.51513843970E+02  0.00000000000E+00 0. -1.
         21   -1    0    0  503  502 -0.00000000000E+00 -0.00000000000E+00 -0.21765012489E+03  0.21765012489E+03  0.00000000000E+00 0.  1.
         21    1    1    2  503  504  0.37855446391E+02 -0.15112484592E+02 -0.20727917889E+03  0.21124885801E+03  0.00000000000E+00 0.  1.
         21    1    1    2  504  501 -0.37855446391E+02  0.15112484592E+02  0.41142897962E+02  0.57915110850E+02  0.00000000000E+00 0. -1.
</event>
<event>
 4    1  0.3195479E+006  0.2587932E+02  0.7546771E-02  0.1459202E+00
         21   -1    0    0  503  501  0.00000000000E+00  0.00000000000E+00  0.17267287946E+03  0.17267287946E+03  0.00000000000E+00 0. -1.
         21   -1    0    0  504  502 -0.00000000000E+00 -0.00000000000E+00 -0.38815870483E+01  0.38815870483E+01  0.00000000000E+00 0. -1.
         21    1    1    2  503  502 -0.17732462673E+02  0.18849378885E+02  0.86819970477E+02  0.90594958968E+02  0.00000000000E+00 0. -1.
         21    1    1    2  504  501  0.17732462673E+02 -0.18849378885E+02  0.81971321936E+02  0.85959507542E+02  0.00000000000E+00 0. -1.
</event>
<event>
 4    1  0.3195479E+006  0.2756353E+02  0.7546771E-02  0.1442028E+00
         21   -1    0    0  503  501  0.00000000000E+00  0.00000000000E+00  0.43393565885E+03  0.43393565885E+03  0.00000000000E+00 0.  1.
         21   -1    0    0  504  502 -0.00000000000E+00 -0.00000000000E+00 -0.65905500881E+02  0.65905500881E+02  0.00000000000E+00 0. -1.
         21    1    1    2  503  502 -0.27551543385E+02  0.81281739338E+00  0.43059364522E+03  0.43147495352E+03  0.00000000000E+00 0.  1.
         21    1    1    2  504  501  0.27551543385E+02 -0.81281739338E+00 -0.62563487247E+02  0.68366206210E+02  0.00000000000E+00 0. -1.
</event>
<event>
 4    1  0.3195479E+006  0.2611534E+02  0.7546771E-02  0.1456703E+00
         21   -1    0    0  502  501  0.00000000000E+00  0.00000000000E+00  0.11163508856E+03  0.11163508856E+03  0.00000000000E+00 0.  1.
         21   -1    0    0  503  502 -0.00000000000E+00 -0.00000000000E+00 -0.61401441104E+01  0.61401441104E+01  0.00000000000E+00 0.  1.
         21    1    1    2  503  504  0.17729156561E+01 -0.26055087921E+02  0.48572921694E+02  0.55148341393E+02  0.00000000000E+00 0.  1.
         21    1    1    2  504  501 -0.17729156561E+01  0.26055087921E+02  0.56922022758E+02  0.62626891280E+02  0.00000000000E+00 0.  1.
</event>
<event>
 4    1  0.3195479E+006  0.2455997E+02  0.7546771E-02  0.1473787E+00
         21   -1    0    0  504  501  0.00000000000E+00  0.00000000000E+00  0.51427112139E+02  0.51427112139E+02  0.00000000000E+00 0. -1.
         21   -1    0    0  501  502 -0.00000000000E+00 -0.00000000000E+00 -0.19012173378E+02  0.19012173378E+02  0.00000000000E+00 0.  1.
         21    1    1    2  503  502 -0.15618089396E+02 -0.18954353268E+02 -0.55910645340E+01  0.25188335134E+02  0.00000000000E+00 0.  1.
         21    1    1    2  504  503  0.15618089396E+02  0.18954353268E+02  0.38006003294E+02  0.45250950383E+02  0.00000000000E+00 0. -1.
</event>
<event>
 4    1  0.3195479E+006  0.2486186E+02  0.7546771E-02  0.1470355E+00
         21   -1    0    0  503  501  0.00000000000E+00  0.00000000000E+00  0.46712270190E+03  0.46712270190E+03  0.00000000000E+00 0. -1.
         21   -1    0    0  504  502 -0.00000000000E+00 -0.00000000000E+00 -0.20488705084E+01  0.20488705084E+01  0.00000000000E+00 0. -1.
         21    1    1    2  503  502 -0.23690684277E+02  0.75408084396E+01  0.37214295661E+03  0.37297250900E+03  0.00000000000E+00 0. -1.
         21    1    1    2  504  501  0.23690684277E+02 -0.75408084396E+01  0.92930874780E+02  0.96199063409E+02  0.00000000000E+00 0. -1.
</event>
<event>
 4    1  0.3195479E+006  0.3015017E+02  0.7546771E-02  0.1418296E+00
         21   -1    0    0  503  501  0.00000000000E+00  0.00000000000E+00  0.21910590920E+03  0.21910590920E+03  0.00000000000E+00 0.  1.
         21   -1    0    0  504  502 -0.00000000000E+00 -0.00000000000E+00 -0.43772248074E+01  0.43772248074E+01  0.00000000000E+00 0.  1.
         21    1    1    2  503  502 -0.22894536502E+02  0.19618172992E+02  0.13288908010E+03  0.13626643066E+03  0.00000000000E+00 0.  1.
         21    1    1    2  504  501  0.22894536502E+02 -0.19618172992E+02  0.81839604291E+02  0.87216703353E+02  0.00000000000E+00 0.  1.
</event>
<event>
 4    1  0.3195479E+006  0.2905886E+02  0.7546771E-02  0.1427955E+00
         21   -1    0    0  503  501  0.00000000000E+00  0.00000000000E+00  0.64420721938E+02  0.64420721938E+02  0.00000000000E+00 0. -1.
         21   -1    0    0  504  502 -0.00000000000E+00 -0.00000000000E+00 -0.14109956974E+02  0.14109956974E+02  0.00000000000E+00 0. -1.
         21    1    1    2  503  502 -0.83720088516E+01  0.27826723858E+02  0.14691236737E+02  0.32561473089E+02  0.00000000000E+00 0. -1.
         21    1    1    2  504  501  0.83720088516E+01 -0.27826723858E+02  0.35619528227E+02  0.45969205823E+02  0.00000000000E+00 0. -1.
</event>
<event>
 4    1  0.3195479E+006  0.2255136E+02  0.7546771E-02  0.1498210E+00
         21   -1    0    0  502  501  0.00000000000E+00  0.00000000000E+00  0.15541581162E+02  0.15541581162E+02  0.00000000000E+00 0.  1.
         21   -1    0    0  503  502 -0.00000000000E+00 -0.00000000000E+00 -0.12598918618E+03  0.12598918618E+03  0.00000000000E+00 0.  1.
         21    1    1    2  503  504 -0.18014855331E+02  0.13565730345E+02 -0.11610971301E+03  0.11827945514E+03  0.00000000000E+00 0.  1.
         21    1    1    2  504  501  0.18014855331E+02 -0.13565730345E+02  0.56621079913E+01  0.23251312206E+02  0.00000000000E+00 0.  1.
</event>
<event>
 4    1  0.3195479E+006  0.2155418E+02  0.7546771E-02  0.1511498E+00
         21   -1    0    0  503  501  0.00000000000E+00  0.00000000000E+00  0.18192259324E+02  0.18192259324E+02  0.00000000000E+00 0.  1.
         21   -1    0    0  504  502 -0.00000000000E+00 -0.00000000000E+00 -0.28129288594E+02  0.28129288594E+02  0.00000000000E+00 0.  1.
         21    1    1    2  503  502 -0.28394374221E+00 -0.21552308654E+02  0.20619425375E+01  0.21652580432E+02  0.00000000000E+00 0.  1.
         21    1    1    2  504  501  0.28394374221E+00  0.21552308654E+02 -0.11998971808E+02  0.24668967485E+02  0.00000000000E+00 0.  1.
</event>
<event>
 4    1  0.3195479E+006  0.3705441E+02  0.7546771E-02  0.1366669E+00
         21   -1    0    0  503  501  0.00000000000E+00  0.00000000000E+00  0.83157782689E+01  0.83157782689E+01  0.00000000000E+00 0. -1.
         21   -1    0    0  504  502 -0.00000000000E+00 -0.00000000000E+00 -0.17054738641E+03  0.17054738641E+03  0.00000000000E+00 0. -1.
         21    1    1    2  503  502  0.36293930735E+02 -0.74685918808E+01 -0.97082316222E+02  0.10391345147E+03  0.00000000000E+00 0. -1.
         21    1    1    2  504  501 -0.36293930735E+02  0.74685918808E+01 -0.65149291919E+02  0.74949713211E+02  0.00000000000E+00 0. -1.
</event>
<event>
 4    1  0.3195479E+006  0.2078948E+02  0.7546771E-02  0.1522292E+00
         21   -1    0    0  504  501  0.00000000000E+00  0.00000000000E+00  0.59037300783E+00  0.59037300783E+00  0.00000000000E+00 0.  1.
         21   -1    0    0  501  502 -0.00000000000E+00 -0.00000000000E+00 -0.14039715937E+04  0.14039715937E+04  0.00000000000E+00 0.  1.
         21    1    1    2  503  502 -0.10191048662E+02 -0.18120292725E+02 -0.11875159268E+04  0.11876978904E+04  0.00000000000E+00 0.  1.
         21    1    1    2  504  503  0.10191048662E+02  0.18120292725E+02 -0.21586529391E+03  0.21686407632E+03  0.00000000000E+00 0.  1.
</event>
<event>
 4    1  0.3195479E+006  0.6870111E+02  0.7546771E-02  0.1232828E+00
         21   -1    0    0  502  501  0.00000000000E+00  0.00000000000E+00  0.14614379405E+03  0.14614379405E+03  0.00000000000E+00 0.  1.
         21   -1    0    0  504  502 -0.00000000000E+00 -0.00000000000E+00 -0.16683376023E+03  0.16683376023E+03  0.00000000000E+00 0.  1.
         21    1    1    2  503  501 -0.60233071345E+02 -0.33042694071E+02  0.13018322778E+03  0.14719889711E+03  0.00000000000E+00 0.  1.
         21    1    1    2  504  503  0.60233071345E+02  0.33042694071E+02 -0.15087319396E+03  0.16577865716E+03  0.00000000000E+00 0.  1.
</event>
<event>
 4    1  0.3195479E+006  0.2099300E+02  0.7546771E-02  0.1519365E+00
         21   -1    0    0  502  501  0.00000000000E+00  0.00000000000E+00  0.38307379109E+02  0.38307379109E+02  0.00000000000E+00 0.  1.
         21   -1    0    0  503  502 -0.00000000000E+00 -0.00000000000E+00 -0.15306680215E+02  0.15306680215E+02  0.00000000000E+00 0. -1.
         21    1    1    2  503  504  0.16300386179E+02  0.13228890221E+02 -0.18602580094E+01  0.21075262416E+02  0.00000000000E+00 0. -1.
         21    1    1    2  504  501 -0.16300386179E+02 -0.13228890221E+02  0.24860956903E+02  0.32538796907E+02  0.00000000000E+00 0.  1.
</event>
<event>
 4    1  0.3195479E+006  0.2451192E+02  0.7546771E-02  0.1474338E+00
         21   -1    0    0  502  501  0.00000000000E+00  0.00000000000E+00  0.31102170644E+02  0.31102170644E+02  0.00000000000E+00 0. -1.
         21   -1    0    0  503  502 -0.00000000000E+00 -0.00000000000E+00 -0.26687388561E+02  0.26687388561E+02  0.00000000000E+00 0. -1.
         21    1    1    2  503  504 -0.38846335489E+01  0.24202140670E+02 -0.12976390098E+02  0.27734828119E+02  0.00000000000E+00 0. -1.
         21    1    1    2  504  501  0.38846335489E+01 -0.24202140670E+02  0.17391172181E+02  0.30054731086E+02  0.00000000000E+00 0. -1.
</event>
<event>
 4    1  0.3195479E+006  0.2707741E+02  0.7546771E-02  0.1446832E+00
         21   -1    0    0  502  501  0.00000000000E+00  0.00000000000E+00  0.14541489756E+03  0.14541489756E+03  0.00000000000E+00 0.  1.
         21   -1    0    0  504  502 -0.00000000000E+00 -0.00000000000E+00 -0.12277428358E+02  0.12277428358E+02  0.00000000000E+00 0.  1.
         21    1    1    2  503  501 -0.18266856058E+02  0.19987700160E+02  0.12709698222E+03  0.12994933273E+03  0.00000000000E+00 0.  1.
         21    1    1    2  504  503  0.18266856058E+02 -0.19987700160E+02  0.60404869822E+01  0.27742993186E+02  0.00000000000E+00 0.  1.
</event>
<event>
 4    1  0.3195479E+006  0.2445930E+02  0.7546771E-02  0.1474944E+00
         21   -1    0    0  502  501  0.00000000000E+00  0.00000000000E+00  0.16660902952E+04  0.16660902952E+04  0.00000000000E+00 0. -1.
         21   -1    0    0  503  502 -0.00000000000E+00 -0.00000000000E+00 -0.11994310707E+01  0.11994310707E+01  0.00000000000E+00 0. -1.
         21    1    1    2  503  504  0.26434525733E+01  0.24316036608E+02  0.13465637406E+03  0.13685976966E+03  0.00000000000E+00 0. -1.
         21    1    1    2  504  501 -0.26434525733E+01 -0.24316036608E+02  0.15302344901E+04  0.15304299566E+04  0.00000000000E+00 0. -1.
</event>
<event>
 4    1  0.3195479E+006  0.2015945E+02  0.7546771E-02  0.1531612E+00
         21   -1    0    0  503  501  0.00000000000E+00  0.00000000000E+00  0.16331771175E+03  0.16331771175E+03  0.00000000000E+00 0. -1.
         21   -1    0    0  504  502 -0.00000000000E+00 -0.00000000000E+00 -0.74111334624E+01  0.74111334624E+01  0.00000000000E+00 0.  1.
         21    1    1    2  503  502  0.17522698496E+02  0.99678618935E+01  0.14752566300E+03  0.14889669062E+03  0.00000000000E+00 0. -1.
         21    1    1    2  504  501 -0.17522698496E+02 -0.99678618935E+01  0.83809152919E+01  0.21832154599E+02  0.00000000000E+00 0.  1.
</event>
<event>
 4    1  0.3195479E+006  0.2292316E+02  0.7546771E-02  0.1493465E+00
         21   -1    0    0  504  501  0.00000000000E+00  0.00000000000E+00  0.92955554049E+02  0.92955554049E+02  0.00000000000E+00 0.  1.
         21   -1    0    0  503  502 -0.00000000000E+00 -0.00000000000E+00 -0.58248656120E+01  0.58248656120E+01  0.00000000000E+00 0. -1.
         21    1    1    2  503  501  0.21248934574E+02 -0.85996498725E+01  0.35079766757E+02  0.41905384310E+02  0.00000000000E+00 0. -1.
         21    1    1    2  504  502 -0.21248934574E+02  0.85996498725E+01  0.52050921679E+02  0.56875035350E+02  0.00000000000E+00 0.  1.
</event>
<event>
 4    1  0.3195479E+006  0.2092170E+02  0.7546771E-02  0.1520386E+00
         21   -1    0    0  504  501  0.00000000000E+00  0.00000000000E+00  0.23799844638E+02  0.23799844638E+02  0.00000000000E+00 0.  1.
         21   -1    0    0  503  502 -0.00000000000E+00 -0.00000000000E+00 -0.24305362583E+02  0.24305362583E+02  0.00000000000E+00 0. -1.
         21    1    1    2  503  501  0.18340018897E+02 -0.10067836828E+02  0.11611547421E+02  0.23927926467E+02  0.00000000000E+00 0.  1.
         21    1    1    2  504  502 -0.18340018897E+02  0.10067836828E+02 -0.12117065367E+02  0.24177280753E+02  0.00000000000E+00 0. -1.
</event>
<event>
 4    1  0.3195479E+006  0.3030231E+02  0.7546771E-02  0.1416987E+00
         21   -1    0    0  503  501  0.00000000000E+00  0.00000000000E+00  0.10563101750E+03  0.10563101750E+03  0.00000000000E+00 0.  1.
         21   -1    0    0  504  502 -0.00000000000E+00 -0.00000000000E+00 -0.18491643185E+02  0.18491643185E+02  0.00000000000E+00 0.  1.
         21    1    1    2  503  502  0.22233244553E+02  0.20589145673E+02 -0.16076438355E+01  0.30344927115E+02  0.00000000000E+00 0.  1.
         21    1    1    2  504  501 -0.22233244553E+02 -0.20589145673E+02  0.88747018154E+02  0.93777733573E+02  0.00000000000E+00 0.  1.
</event>
<event>
 4    1  0.3195479E+006  0.2886531E+02  0.7546771E-02  0.1429720E+00
         21   -1    0    0  504  501  0.00000000000E+00  0.00000000000E+00  0.15086525485E+03  0.15086525485E+03  0.00000000000E+00 0. -1.
         21   -1    0    0  503  502 -0.00000000000E+00 -0.00000000000E+00 -0.10546423984E+04  0.10546423984E+04  0.00000000000E+00 0.  1.
         21    1    1    2  503  501 -0.17176370991E+02 -0.23198676173E+02  0.14928496135E+03  0.15205001145E+03  0.00000000000E+00 0. -1.
         21    1    1    2  504  502  0.17176370991E+02  0.23198676173E+02 -0.10530621049E+04  0.10534576418E+04  0.00000000000E+00 0.  1.
</event>
<event>
 4    1  0.3195479E+006  0.2417724E+02  0.7546771E-02  0.1478222E+00
         21   -1    0    0  503  501  0.00000000000E+00  0.00000000000E+00  0.78612581409E+00  0.78612581409E+00  0.00000000000E+00 0.  1.
         21   -1    0    0  504  502 -0.00000000000E+00 -0.00000000000E+00 -0.86657502304E+03  0.86657502304E+03  0.00000000000E+00 0.  1.
         21    1    1    2  503  502  0.19406575664E+02 -0.14419566385E+02 -0.26950296091E+03  0.27058526385E+03  0.00000000000E+00 0.  1.
         21    1    1    2  504  501 -0.19406575664E+02  0.14419566385E+02 -0.59628593632E+03  0.59677588501E+03  0.00000000000E+00 0.  1.
</event>
<event>
 4    1  0.3195479E+006  0.5419239E+02  0.7546771E-02  0.1280952E+00
         21   -1    0    0  502  501  0.00000000000E+00  0.00000000000E+00  0.43151014417E+03  0.43151014417E+03  0.00000000000E+00 0. -1.
         21   -1    0    0  504  502 -0.00000000000E+00 -0.00000000000E+00 -0.13758497174E+02  0.13758497174E+02  0.00000000000E+00 0.  1.
         21    1    1    2  503  501  0.52455642850E+02 -0.13609563850E+02  0.36713910385E+03  0.37111714629E+03  0.00000000000E+00 0. -1.
         21    1    1    2  504  503 -0.52455642850E+02  0.13609563850E+02  0.50612543146E+02  0.74151495054E+02  0.00000000000E+00 0.  1.
</event>
<event>
 4    1  0.3195479E+006  0.2910248E+02  0.7546771E-02  0.1427559E+00
         21   -1    0    0  502  501  0.00000000000E+00  0.00000000000E+00  0.43310236403E+03  0.43310236403E+03  0.00000000000E+00 0. -1.
         21   -1    0    0  504  502 -0.00000000000E+00 -0.00000000000E+00 -0.14052336594E+02  0.14052336594E+02  0.00000000000E+00 0.  1.
         21    1    1    2  503  501  0.99624943774E+01  0.27344163209E+02  0.41696309733E+03  0.41797748635E+03  0.00000000000E+00 0. -1.
         21    1    1    2  504  503 -0.99624943774E+01 -0.27344163209E+02  0.20869301055E+01  0.29177214279E+02  0.00000000000E+00 0.  1.
</event>
<event>
 4    1  0.3195479E+006  0.2296490E+02  0.7546771E-02  0.1492939E+00
         21   -1    0    0  503  501  0.00000000000E+00  0.00000000000E+00  0.31362715167E+02  0.31362715167E+02  0.00000000000E+00 0. -1.
         21   -1    0    0  504  502 -0.00000000000E+00 -0.00000000000E+00 -0.28075178838E+02  0.28075178838E+02  0.00000000000E+00 0. -1.
         21    1    1    2  503  502 -0.22941164062E+02  0.10437895436E+01 -0.17176724661E+02  0.28677977181E+02  0.00000000000E+00 0. -1.
         21    1    1    2  504  501  0.22941164062E+02 -0.10437895436E+01  0.20464260990E+02  0.30759916823E+02  0.00000000000E+00 0. -1.
</event>
<event>
 4    1  0.3195479E+006  0.2123738E+02  0.7546771E-02  0.1515902E+00
         21   -1    0    0  502  501  0.00000000000E+00  0.00000000000E+00  0.14346903571E+03  0.14346903571E+03  0.00000000000E+00 0.  1.
         21   -1    0    0  503  502 -0.00000000000E+00 -0.00000000000E+00 -0.20655203546E+02  0.20655203546E+02  0.00000000000E+00 0. -1.
         21    1    1    2  503  504 -0.15003302092E+02 -0.15030881549E+02 -0.14152651066E+02  0.25521050252E+02  0.00000000000E+00 0. -1.
         21    1    1    2  504  501  0.15003302092E+02  0.15030881549E+02  0.13696648323E+03  0.13860318901E+03  0.00000000000E+00 0.  1.
</event>
<event>
 4    1  0.3195479E+006  0.4261955E+02  0.7546771E-02  0.1333783E+00
         21   -1    0    0  504  501  0.00000000000E+00  0.00000000000E+00  0.21316514966E+03  0.21316514966E+03  0.00000000000E+00 0.  1.
         21   -1    0    0  503  502 -0.00000000000E+00 -0.00000000000E+00 -0.44178093376E+03  0.44178093376E+03  0.00000000000E+00 0.  1.
         21    1    1    2  503  501  0.25408261769E+02 -0.34217625926E+02 -0.43860735313E+03  0.44067316223E+03  0.00000000000E+00 0.  1.
         21    1    1    2  504  502 -0.25408261769E+02  0.34217625926E+02  0.20999156903E+03  0.21427292118E+03  0.00000000000E+00 0.  1.
</event>
<event>
 4    1  0.3195479E+006  0.3926040E+02  0.7546771E-02  0.1352875E+00
         21   -1    0    0  504  501  0.00000000000E+00  0.00000000000E+00  0.75468531657E+01  0.75468531657E+01  0.00000000000E+00 0.  1.
         21   -1    0    0  501  502 -0.00000000000E+00 -0.00000000000E+00 -0.49097019477E+03  0.49097019477E+03  0.00000000000E+00 0.  1.
         21    1    1    2  503  502  0.15824249367E+02  0.35930101875E+02 -0.43219553224E+03  0.43397506516E+03  0.00000000000E+00 0.  1.
         21    1    1    2  504  503 -0.15824249367E+02 -0.35930101875E+02 -0.51227809359E+02  0.64541982775E+02  0.00000000000E+00 0.  1.
</event>
<event>
 4    1  0.3195479E+006  0.2165459E+02  0.7546771E-02  0.1510121E+00
         21   -1    0    0  504  501  0.00000000000E+00  0.00000000000E+00  0.16884910523E+03  0.16884910523E+03  0.00000000000E+00 0. -1.
         21   -1    0    0  503  502 -0.00000000000E+00 -0.00000000000E+00 -0.28371227544E+02  0.28371227544E+02  0.00000000000E+00 0.  1.
         21    1    1    2  503  501  0.21559695451E+02 -0.20250807190E+01 -0.23420653240E+02  0.31897467267E+02  0.00000000000E+00 0.  1.
         21    1    1    2  504  502 -0.21559695451E+02  0.20250807190E+01  0.16389853092E+03  0.16532286550E+03  0.00000000000E+00 0. -1.
</event>
<event>
 4    1  0.3195479E+006  0.2314305E+02  0.7546771E-02  0.1490710E+00
         21   -1    0    0  503  501  0.00000000000E+00  0.00000000000E+00  0.17389320132E+03  0.17389320132E+03  0.00000000000E+00 0. -1.
         21   -1    0    0  501  502 -0.00000000000E+00 -0.00000000000E+00 -0.35893740616E+02  0.35893740616E+02  0.00000000000E+00 0. -1.
         21    1    1    2  503  504  0.12453954720E+02 -0.19506398666E+02  0.16929180259E+03  0.17086636592E+03  0.00000000000E+00 0. -1.
         21    1    1    2  504  502 -0.12453954720E+02  0.19506398666E+02 -0.31292341886E+02  0.38920576021E+02  0.00000000000E+00 0. -1.
</event>
<event>
 4    1  0.3195479E+006  0.2576942E+02  0.7546771E-02  0.1460377E+00
         21   -1    0    0  503  501  0.00000000000E+00  0.00000000000E+00  0.82201988892E+02  0.82201988892E+02  0.00000000000E+00 0. -1.
         21   -1    0    0  504  502 -0.00000000000E+00 -0.00000000000E+00 -0.22195025796E+03  0.22195025796E+03  0.00000000000E+00 0.  1.
         21    1    1    2  503  502 -0.12751506372E+02  0.22393353056E+02 -0.21915701110E+03  0.22066685000E+03  0.00000000000E+00 0.  1.
         21    1    1    2  504  501  0.12751506372E+02 -0.22393353056E+02  0.79408742032E+02  0.83485396849E+02  0.00000000000E+00 0. -1.
</event>
<event>
 4    1  0.3195479E+006  0.2289634E+02  0.7546771E-02  0.1493804E+00
         21   -1    0    0  504  501  0.00000000000E+00  0.00000000000E+00  0.76464187517E+01  0.76464187517E+01  0.00000000000E+00 0. -1.
         21   -1    0    0  503  502 -0.00000000000E+00 -0.00000000000E+00 -0.10334409561E+04  0.10334409561E+04  0.00000000000E+00 0. -1.
         21    1    1    2  503  501  0.21988183657E+02 -0.63845347054E+01 -0.99168264607E+01  0.24951672309E+02  0.00000000000E+00 0. -1.
         21    1    1    2  504  502 -0.21988183657E+02  0.63845347054E+01 -0.10158777109E+04  0.10161357026E+04  0.00000000000E+00 0. -1.
</event>
<event>
 4    1  0.3195479E+006  0.2604425E+02  0.7546771E-02  0.1457452E+00
         21   -1    0    0  504  501  0.00000000000E+00  0.00000000000E+00  0.10791750657E+03  0.10791750657E+03  0.00000000000E+00 0.  1.
         21   -1    0    0  503  502 -0.00000000000E+00 -0.00000000000E+00 -0.69882778611E+01  0.69882778611E+01  0.00000000000E+00 0.  1.
         21    1    1    2  503  501 -0.74427740204E+01 -0.24958124130E+02  0.32243621251E+02  0.41448208123E+02  0.00000000000E+00 0.  1.
         21    1    1    2  504  502  0.74427740204E+01  0.24958124130E+02  0.68685607453E+02  0.73457576304E+02  0.00000000000E+00 0.  1.
</event>
<event>
 4    1  0.3195479E+006  0.2677368E+02  0.7546771E-02  0.1449895E+00
         21   -1    0    0  504  501  0.00000000000E+00  0.00000000000E+00  0.30158185181E+02  0.30158185181E+02  0.00000000000E+00 0.  1.
         21   -1    0    0  501  502 -0.00000000000E+00 -0.00000000000E+00 -0.34436669943E+02  0.34436669943E+02  0.00000000000E+00 0.  1.
         21    1    1    2  503  502 -0.21944841766E+01  0.26683595271E+02 -0.20115201305E+02  0.33488077594E+02  0.00000000000E+00 0.  1.
         21    1    1    2  504  503  0.21944841766E+01 -0.26683595271E+02  0.15836716544E+02  0.31106777530E+02  0.00000000000E+00 0.  1.
</event>
<event>
 4    1  0.3195479E+006  0.3079303E+02  0.7546771E-02  0.1412828E+00
         21   -1    0    0  503  501  0.00000000000E+00  0.00000000000E+00  0.56815278934E+03  0.56815278934E+03  0.00000000000E+00 0. -1.
         21   -1    0    0  504  502 -0.00000000000E+00 -0.00000000000E+00 -0.51576117259E+02  0.51576117259E+02  0.00000000000E+00 0. -1.
         21    1    1    2  503  502 -0.23199621138E+02 -0.20248164578E+02 -0.46521485846E+02  0.55789418666E+02  0.00000000000E+00 0. -1.
         21    1    1    2  504  501  0.23199621138E+02  0.20248164578E+02  0.56309815793E+03  0.56393948793E+03  0.00000000000E+00 0. -1.
</event>
<event>
 4    1  0.3195479E+006  0.2691783E+02  0.7546771E-02  0.1448435E+00
         21   -1    0    0  504  501  0.00000000000E+00  0.00000000000E+00  0.18761939288E+02  0.18761939288E+02  0.00000000000E+00 0.  1.
         21   -1    0    0  501  502 -0.00000000000E+00 -0.00000000000E+00 -0.16291205018E+03  0.16291205018E+03  0.00000000000E+00 0.  1.
         21    1    1    2  503  502  0.26872695174E+02  0.15582171155E+01 -0.15141818883E+03  0.15379218997E+03  0.00000000000E+00 0.  1.
         21    1    1    2  504  503 -0.26872695174E+02 -0.15582171155E+01  0.72680779376E+01  0.27881799501E+02  0.00000000000E+00 0.  1.
</event>
<event>
 4    1  0.3195479E+006  0.2451868E+02  0.7546771E-02  0.1474261E+00
         21   -1    0    0  503  501  0.00000000000E+00  0.00000000000E+00  0.77839008582E+03  0.77839008582E+03  0.00000000000E+00 0. -1.
         21   -1    0    0  501  502 -0.00000000000E+00 -0.00000000000E+00 -0.12837808975E+02  0.12837808975E+02  0.00000000000E+00 0. -1.
         21    1    1    2  503  504 -0.12796259851E+02  0.20914617401E+02  0.76630550261E+03  0.76669765150E+03  0.00000000000E+00 0. -1.
         21    1    1    2  504  502  0.12796259851E+02 -0.20914617401E+02 -0.75322576060E+00  0.24530243298E+02  0.00000000000E+00 0. -1.
</event>
<event>
 4    1  0.3195479E+006  0.2229919E+02  0.7546771E-02  0.1501491E+00
         21   -1    0    0  504  501  0.00000000000E+00  0.00000000000E+00  0.16357234733E+02  0.16357234733E+02  0.00000000000E+00 0. -1.
         21   -1    0    0  503  502 -0.00000000000E+00 -0.00000000000E+00 -0.30906898432E+02  0.30906898432E+02  0.00000000000E+00 0. -1.
         21    1    1    2  503  501  0.16680611312E+02  0.14799030445E+02 -0.42473095216E+01  0.22700082248E+02  0.00000000000E+00 0. -1.
         21    1    1    2  504  502 -0.16680611312E+02 -0.14799030445E+02 -0.10302354177E+02  0.24564050917E+02  0.00000000000E+00 0. -1.
</event>
<event>
 4    1  0.3195479E+006  0.2632188E+02  0.7546771E-02  0.1454541E+00
         21   -1    0    0  503  501  0.00000000000E+00  0.00000000000E+00  0.13247793995E+03  0.13247793995E+03  0.00000000000E+00 0. -1.
         21   -1    0    0  501  502 -0.00000000000E+00 -0.00000000000E+00 -0.30905882105E+02  0.30905882105E+02  0.00000000000E+00 0.  1.
         21    1    1    2  503  504  0.24458588589E+02  0.97272138259E+01  0.12524591094E+03  0.12798194971E+03  0.00000000000E+00 0. -1.
         21    1    1    2  504  502 -0.24458588589E+02 -0.97272138259E+01 -0.23673853100E+02  0.35401872340E+02  0.00000000000E+00 0.  1.
</event>
<event>
 4    1  0.3195479E+006  0.2117415E+02  0.7546771E-02  0.1516793E+00
         21   -1    0    0  502  501  0.00000000000E+00  0.00000000000E+00  0.66474218194E+03  0.66474218194E+03  0.00000000000E+00 0. -1.
         21   -1    0    0  504  502 -0.00000000000E+00 -0.00000000000E+00 -0.35919416428E+01  0.35919416428E+01  0.00000000000E+00 0. -1.
         21    1    1    2  503  501  0.11539386789E+01 -0.21142681644E+02  0.63173893142E+03  0.63209368137E+03  0.00000000000E+00 0. -1.
         21    1    1    2  504  503 -0.11539386789E+01  0.21142681644E+02  0.29411308874E+02  0.36240442206E+02  0.00000000000E+00 0. -1.
</event>
<event>
 4    1  0.3195479E+006  0.2824897E+02  0.7546771E-02  0.1435450E+00
         21   -1    0    0  504  501  0.00000000000E+00  0.00000000000E+00  0.31075076152E+03  0.31075076152E+03  0.00000000000E+00 0.  1.
         21   -1    0    0  503  502 -0.00000000000E+00 -0.00000000000E+00 -0.37984960760E+01  0.37984960760E+01  0.00000000000E+00 0.  1.
         21    1    1    2  503  501  0.27670574440E+02  0.56871245602E+01  0.63961270465E+02  0.69921729062E+02  0.00000000000E+00 0.  1.
         21    1    1    2  504  502 -0.27670574440E+02 -0.56871245602E+01  0.24299099498E+03  0.24462752854E+03  0.00000000000E+00 0.  1.
</event>
<event>
 4    1  0.3195479E+006  0.2816346E+02  0.7546771E-02  0.1436258E+00
         21   -1    0    0  502  501  0.00000000000E+00  0.00000000000E+00  0.17529614315E+02  0.17529614315E+02  0.00000000000E+00 0. -1.
         21   -1    0    0  503  502 -0.00000000000E+00 -0.00000000000E+00 -0.47993005483E+02  0.47993005483E+02  0.00000000000E+00 0. -1.
         21    1    1    2  503  504 -0.26546179553E+02 -0.94064277317E+01 -0.23066739621E+02  0.36404052086E+02  0.00000000000E+00 0. -1.
         21    1    1    2  504  501  0.26546179553E+02  0.94064277317E+01 -0.73966515462E+01  0.29118567712E+02  0.00000000000E+00 0. -1.
</event>
<event>
 4    1  0.3195479E+006  0.2124208E+02  0.7546771E-02  0.1515837E+00
         21   -1    0    0  504  501  0.00000000000E+00  0.00000000000E+00  0.88833351274E+02  0.88833351274E+02  0.00000000000E+00 0. -1.
         21   -1    0    0  503  502 -0.00000000000E+00 -0.00000000000E+00 -0.95887317777E+01  0.95887317777E+01  0.00000000000E+00 0. -1.
         21    1    1    2  503  501  0.21180673299E+02 -0.16139532456E+01  0.73369297050E+02  0.76382455552E+02  0.00000000000E+00 0. -1.
         21    1    1    2  504  502 -0.21180673299E+02  0.16139532456E+01  0.58753224463E+01  0.22039627500E+02  0.00000000000E+00 0. -1.
</event>
<event>
 4    1  0.3195479E+006  0.2406006E+02  0.7546771E-02  0.1479599E+00
         21   -1    0    0  503  501  0.00000000000E+00  0.00000000000E+00  0.32107873079E+03  0.32107873079E+03  0.00000000000E+00 0. -1.
         21   -1    0    0  501  502 -0.00000000000E+00 -0.00000000000E+00 -0.20560751525E+01  0.20560751525E+01  0.00000000000E+00 0. -1.
         21    1    1    2  503  504  0.22888172657E+02  0.74174048932E+01  0.21620162434E+03  0.21753626987E+03  0.00000000000E+00 0. -1.
         21    1    1    2  504  502 -0.22888172657E+02 -0.74174048932E+01  0.10282103129E+03  0.10559853607E+03  0.00000000000E+00 0. -1.
</event>
<event>
 4    1  0.3195479E+006  0.3600174E+02  0.7546771E-02  0.1373654E+00
         21   -1    0    0  503  501  0.00000000000E+00  0.00000000000E+00  0.48923786987E+03  0.48923786987E+03  0.00000000000E+00 0.  1.
         21   -1    0    0  501  502 -0.00000000000E+00 -0.00000000000E+00 -0.41768675606E+01  0.41768675606E+01  0.00000000000E+00 0.  1.
         21    1    1    2  503  504 -0.26248391056E+02 -0.24640364518E+02  0.39172766033E+03  0.39337855237E+03  0.00000000000E+00 0.  1.
         21    1    1    2  504  502  0.26248391056E+02  0.24640364518E+02  0.93333341980E+02  0.10003618506E+03  0.00000000000E+00 0.  1.
</event>
<event>
 4    1  0.3195479E+006  0.2913409E+02  0.7546771E-02  0.1427273E+00
         21   -1    0    0  502  501  0.00000000000E+00  0.00000000000E+00  0.11999299216E+03  0.11999299216E+03  0.00000000000E+00 0.  1.
         21   -1    0    0  503  502 -0.00000000000E+00 -0.00000000000E+00 -0.13899610465E+02  0.13899610465E+02  0.00000000000E+00 0. -1.
         21    1    1    2  503  504 -0.10048900764E+02  0.27346202006E+02  0.61323768662E+01  0.29772490940E+02  0.00000000000E+00 0. -1.
         21    1    1    2  504  501  0.10048900764E+02 -0.27346202006E+02  0.99961004831E+02  0.10412011169E+03  0.00000000000E+00 0.  1.
</event>
<event>
 4    1  0.3195479E+006  0.2194962E+02  0.7546771E-02  0.1506126E+00
         21   -1    0    0  502  501  0.00000000000E+00  0.00000000000E+00  0.54899374727E+01  0.54899374727E+01  0.00000000000E+00 0.  1.
         21   -1    0    0  504  502 -0.00000000000E+00 -0.00000000000E+00 -0.16217439461E+03  0.16217439461E+03  0.00000000000E+00 0.  1.
         21    1    1    2  503  501  0.15613948804E+02 -0.15426936479E+02 -0.21554572183E+02  0.30763376738E+02  0.00000000000E+00 0.  1.
         21    1    1    2  504  503 -0.15613948804E+02  0.15426936479E+02 -0.13512988496E+03  0.13690095535E+03  0.00000000000E+00 0.  1.
</event>
<event>
 4    1  0.3195479E+006  0.6036769E+02  0.7546771E-02  0.1258588E+00
         21   -1    0    0  502  501  0.00000000000E+00  0.00000000000E+00  0.15574348317E+03  0.15574348317E+03  0.00000000000E+00 0.  1.
         21   -1    0    0  503  502 -0.00000000000E+00 -0.00000000000E+00 -0.23399198119E+02  0.23399198119E+02  0.00000000000E+00 0.  1.
         21    1    1    2  503  504 -0.11232355708E+02 -0.59313510096E+02  0.66349721956E+02  0.89702530055E+02  0.00000000000E+00 0.  1.
         21    1    1    2  504  501  0.11232355708E+02  0.59313510096E+02  0.65994563098E+02  0.89440151236E+02  0.00000000000E+00 0.  1.
</event>
<event>
 4    1  0.3195479E+006  0.2466005E+02  0.7546771E-02  0.1472643E+00
         21   -1    0    0  504  501  0.00000000000E+00  0.00000000000E+00  0.49459598524E+02  0.49459598524E+02  0.00000000000E+00 0. -1.
         21   -1    0    0  503  502 -0.00000000000E+00 -0.00000000000E+00 -0.13370797297E+02  0.13370797297E+02  0.00000000000E+00 0. -1.
         21    1    1    2  503  501 -0.95824967976E+01  0.22722095775E+02  0.91344168143E+01  0.26297441926E+02  0.00000000000E+00 0. -1.
         21    1    1    2  504  502  0.95824967976E+01 -0.22722095775E+02  0.26954384412E+02  0.36532953895E+02  0.00000000000E+00 0. -1.
</event>
<event>
 4    1  0.3195479E+006  0.2109653E+02  0.7546771E-02  0.1517891E+00
         21   -1    0    0  503  501  0.00000000000E+00  0.00000000000E+00  0.81459372395E+03  0.81459372395E+03  0.00000000000E+00 0. -1.
         21   -1    0    0  504  502 -0.00000000000E+00 -0.00000000000E+00 -0.17712934468E+03  0.17712934468E+03  0.00000000000E+00 0.  1.
         21    1    1    2  503  502 -0.64773978336E+01 -0.20077517215E+02 -0.17636400188E+03  0.17762129529E+03  0.00000000000E+00 0.  1.
         21    1    1    2  504  501  0.64773978336E+01  0.20077517215E+02  0.81382838116E+03  0.81410177334E+03  0.00000000000E+00 0. -1.
</event>
<event>
 4    1  0.3195479E+006  0.2029940E+02  0.7546771E-02  0.1529507E+00
         21   -1    0    0  504  501  0.00000000000E+00  0.00000000000E+00  0.46823993872E+02  0.46823993872E+02  0.00000000000E+00 0.  1.
         21   -1    0    0  503  502 -0.00000000000E+00 -0.00000000000E+00 -0.10436262242E+02  0.10436262242E+02  0.00000000000E+00 0. -1.
         21    1    1    2  503  501  0.20157968684E+02  0.23920598782E+01  0.29529247192E+02  0.35833533062E+02  0.00000000000E+00 0.  1.
         21    1    1    2  504  502 -0.20157968684E+02 -0.23920598782E+01  0.68584844380E+01  0.21426723052E+02  0.00000000000E+00 0. -1.
</event>
<event>
 4    1  0.3195479E+006  0.2382406E+02  0.7546771E-02  0.1482402E+00
         21   -1    0    0  504  501  0.00000000000E+00  0.00000000000E+00  0.73750396784E+01  0.73750396784E+01  0.00000000000E+00 0. -1.
         21   -1    0    0  503  502 -0.00000000000E+00 -0.00000000000E+00 -0.49790623901E+03  0.49790623901E+03  0.00000000000E+00 0.  1.
         21    1    1    2  503  501 -0.15530015902E+02  0.18066665893E+02 -0.47756203828E+03  0.47815592249E+03  0.00000000000E+00 0.  1.
         21    1    1    2  504  502  0.15530015902E+02 -0.18066665893E+02 -0.12969161056E+02  0.27125356198E+02  0.00000000000E+00 0. -1.
</event>
<event>
 4    1  0.3195479E+006  0.2573754E+02  0.7546771E-02  0.1460719E+00
         21   -1    0    0  503  501  0.00000000000E+00  0.00000000000E+00  0.81632002269E+03  0.81632002269E+03  0.00000000000E+00 0. -1.
         21   -1    0    0  504  502 -0.00000000000E+00 -0.00000000000E+00 -0.28831172524E+01  0.28831172524E+01  0.00000000000E+00 0. -1.
         21    1    1    2  503  502  0.70164411945E+00  0.25727973872E+02  0.59511717234E+02  0.64838764888E+02  0.00000000000E+00 0. -1.
         21    1    1    2  504  501 -0.70164411945E+00 -0.25727973872E+02  0.75392518820E+03  0.75436437505E+03  0.00000000000E+00 0. -1.
</event>
<event>
 4    1  0.3195479E+006  0.2188380E+02  0.7546771E-02  0.1507011E+00
         21   -1    0    0  504  501  0.00000000000E+00  0.00000000000E+00  0.10898577021E+02  0.10898577021E+02  0.00000000000E+00 0. -1.
         21   -1    0    0  503  502 -0.00000000000E+00 -0.00000000000E+00 -0.44007017743E+02  0.44007017743E+02  0.00000000000E+00 0. -1.
         21    1    1    2  503  501 -0.21883800102E+02 -0.87688784304E-02 -0.15495667717E+02  0.26814483060E+02  0.00000000000E+00 0. -1.
         21    1    1    2  504  502  0.21883800102E+02  0.87688784304E-02 -0.17612773006E+02  0.28091111704E+02  0.00000000000E+00 0. -1.
</event>
<event>
 4    1  0.3195479E+006  0.2374263E+02  0.7546771E-02  0.1483378E+00
         21   -1    0    0  503  501  0.00000000000E+00  0.00000000000E+00  0.63434505925E+02  0.63434505925E+02  0.00000000000E+00 0. -1.
         21   -1    0    0  504  502 -0.00000000000E+00 -0.00000000000E+00 -0.15046556441E+02  0.15046556441E+02  0.00000000000E+00 0.  1.
         21    1    1    2  503  502  0.75319736386E+01 -0.22516252928E+02  0.49301725599E+02  0.54720859093E+02  0.00000000000E+00 0. -1.
         21    1    1    2  504  501 -0.75319736386E+01  0.22516252928E+02 -0.91377611480E+00  0.23760203274E+02  0.00000000000E+00 0.  1.
</event>
<event>
 4    1  0.3195479E+006  0.2294021E+02  0.7546771E-02  0.1493250E+00
         21   -1    0    0  504  501  0.00000000000E+00  0.00000000000E+00  0.15535254114E+02  0.15535254114E+02  0.00000000000E+00 0.  1.
         21   -1    0    0  503  502 -0.00000000000E+00 -0.00000000000E+00 -0.34230864853E+02  0.34230864853E+02  0.00000000000E+00 0.  1.
         21    1    1    2  503  501  0.20694671670E+02 -0.98986757255E+01 -0.11885710986E+02  0.25836473101E+02  0.00000000000E+00 0.  1.
         21    1    1    2  504  502 -0.20694671670E+02  0.98986757255E+01 -0.68098997529E+01  0.23929645867E+02  0.00000000000E+00 0.  1.
</event>
<event>
 4    1  0.3195479E+006  0.2054173E+02  0.7546771E-02  0.1525909E+00
         21   -1    0    0  503  501  0.00000000000E+00  0.00000000000E+00  0.19262653679E+03  0.19262653679E+03  0.00000000000E+00 0. -1.
         21   -1    0    0  504  502 -0.00000000000E+00 -0.00000000000E+00 -0.41386233995E+01  0.41386233995E+01  0.00000000000E+00 0.  1.
         21    1    1    2  503  502 -0.18307040612E+02 -0.93174462287E+01  0.16174186567E+03  0.16304107964E+03  0.00000000000E+00 0. -1.
         21    1    1    2  504  501  0.18307040612E+02  0.93174462287E+01  0.26746047725E+02  0.33724080552E+02  0.00000000000E+00 0.  1.
</event>
<event>
 4    1  0.3195479E+006  0.2387270E+02  0.7546771E-02  0.1481821E+00
         21   -1    0    0  504  501  0.00000000000E+00  0.00000000000E+00  0.80049907584E+02  0.80049907584E+02  0.00000000000E+00 0.  1.
         21   -1    0    0  503  502 -0.00000000000E+00 -0.00000000000E+00 -0.72238839842E+01  0.72238839842E+01  0.00000000000E+00 0.  1.
         21    1    1    2  503  501 -0.56924935225E+01 -0.23184071959E+02  0.41661519329E+02  0.48016537441E+02  0.00000000000E+00 0.  1.
         21    1    1    2  504  502  0.56924935225E+01  0.23184071959E+02  0.31164504271E+02  0.39257254127E+02  0.00000000000E+00 0.  1.
</event>
<event>
 4    1  0.3195479E+006  0.3186624E+02  0.7546771E-02  0.1404043E+00
         21   -1    0    0  504  501  0.00000000000E+00  0.00000000000E+00  0.12995261740E+02  0.12995261740E+02  0.00000000000E+00 0.  1.
         21   -1    0    0  503  502 -0.00000000000E+00 -0.00000000000E+00 -0.10211943266E+03  0.10211943266E+03  0.00000000000E+00 0. -1.
         21    1    1    2  503  501  0.76465052113E+01  0.30935225384E+02 -0.72452876154E+02  0.79150972670E+02  0.00000000000E+00 0. -1.
         21    1    1    2  504  502 -0.76465052113E+01 -0.30935225384E+02 -0.16671294764E+02  0.35963721729E+02  0.00000000000E+00 0.  1.
</event>
<event>
 4    1  0.3195479E+006  0.2493466E+02  0.7546771E-02  0.1469536E+00
         21   -1    0    0  503  501  0.00000000000E+00  0.00000000000E+00  0.10934280549E+02  0.10934280549E+02  0.00000000000E+00 0. -1.
         21   -1    0    0  504  502 -0.00000000000E+00 -0.00000000000E+00 -0.10033462615E+03  0.10033462615E+03  0.00000000000E+00 0.  1.
         21    1    1    2  503  502  0.18711182848E+02  0.16481172140E+02 -0.80792026733E+01  0.26210893051E+02  0.00000000000E+00 0. -1.
         21    1    1    2  504  501 -0.18711182848E+02 -0.16481172140E+02 -0.81321142927E+02  0.85058013647E+02  0.00000000000E+00 0.  1.
</event>
<event>
 4    1  0.3195479E+006  0.2978898E+02  0.7546771E-02  0.1421439E+00
         21   -1    0    0  503  501  0.00000000000E+00  0.00000000000E+00  0.23618738351E+03  0.23618738351E+03  0.00000000000E+00 0. -1.
         21   -1    0    0  501  502 -0.00000000000E+00 -0.00000000000E+00 -0.70870411017E+01  0.70870411017E+01  0.00000000000E+00 0. -1.
         21    1    1    2  503  504 -0.24763387966E+02 -0.16557710144E+02  0.19792813483E+03  0.20015726244E+03  0.00000000000E+00 0. -1.
         21    1    1    2  504  502  0.24763387966E+02  0.16557710144E+02  0.31172207580E+02  0.43117162177E+02  0.00000000000E+00 0. -1.
</event>
<event>
 4    1  0.3195479E+006  0.2042642E+02  0.7546771E-02  0.1527614E+00
         21   -1    0    0  502  501  0.00000000000E+00  0.00000000000E+00  0.33646044901E+02  0.33646044901E+02  0.00000000000E+00 0. -1.
         21   -1    0    0  504  502 -0.00000000000E+00 -0.00000000000E+00 -0.12410208036E+02  0.12410208036E+02  0.00000000000E+00 0. -1.
         21    1    1    2  503  501 -0.84718310149E+01  0.18586730448E+02  0.11251364126E+02  0.23320198631E+02  0.00000000000E+00 0. -1.
         21    1    1    2  504  503  0.84718310149E+01 -0.18586730448E+02  0.99844727393E+01  0.22736054306E+02  0.00000000000E+00 0. -1.
</event>
<event>
 4    1  0.3195479E+006  0.2088361E+02  0.7546771E-02  0.1520933E+00
         21   -1    0    0  502  501  0.00000000000E+00  0.00000000000E+00  0.12701439762E+03  0.12701439762E+03  0.00000000000E+00 0. -1.
         21   -1    0    0  504  502 -0.00000000000E+00 -0.00000000000E+00 -0.46369421238E+01  0.46369421238E+01  0.00000000000E+00 0. -1.
         21    1    1    2  503  501  0.60965756036E+01 -0.19973901136E+02  0.94720938090E+02  0.96995778636E+02  0.00000000000E+00 0. -1.
         21    1    1    2  504  503 -0.60965756036E+01  0.19973901136E+02  0.27656517411E+02  0.34655561112E+02  0.00000000000E+00 0. -1.
</event>
<event>
 4    1  0.3195479E+006  0.2563735E+02  0.7546771E-02  0.1461798E+00
         21   -1    0    0  504  501  0.00000000000E+00  0.00000000000E+00  0.34568226773E+02  0.34568226773E+02  0.00000000000E+00 0.  1.
         21   -1    0    0  503  502 -0.00000000000E+00 -0.00000000000E+00 -0.19883621806E+02  0.19883621806E+02  0.00000000000E+00 0.  1.
         21    1    1    2  503  501  0.16608267404E+02  0.19530464492E+02  0.16478981197E+01  0.25690254137E+02  0.00000000000E+00 0.  1.
         21    1    1    2  504  502 -0.16608267404E+02 -0.19530464492E+02  0.13036706847E+02  0.28761594442E+02  0.00000000000E+00 0.  1.
</event>
<event>
 4    1  0.3195479E+006  0.4036025E+02  0.7546771E-02  0.1346388E+00
         21   -1    0    0  504  501  0.00000000000E+00  0.00000000000E+00  0.11168487387E+04  0.11168487387E+04  0.00000000000E+00 0.  1.
         21   -1    0    0  503  502 -0.00000000000E+00 -0.00000000000E+00 -0.43387500334E+01  0.43387500334E+01  0.00000000000E+00 0. -1.
         21    1    1    2  503  501 -0.40312056398E+02 -0.19718053034E+01  0.99504242643E+02  0.10737804343E+03  0.00000000000E+00 0. -1.
         21    1    1    2  504  502  0.40312056398E+02  0.19718053034E+01  0.10130057461E+04  0.10138094453E+04  0.00000000000E+00 0.  1.
</event>
<event>
 4    1  0.3195479E+006  0.3281660E+02  0.7546771E-02  0.1396599E+00
         21   -1    0    0  503  501  0.00000000000E+00  0.00000000000E+00  0.31015535007E+01  0.31015535007E+01  0.00000000000E+00 0. -1.
         21   -1    0    0  504  502 -0.00000000000E+00 -0.00000000000E+00 -0.43702459320E+03  0.43702459320E+03  0.00000000000E+00 0. -1.
         21    1    1    2  503  502  0.23308060163E+02 -0.23101163125E+02 -0.11720592252E+03  0.12171342440E+03  0.00000000000E+00 0. -1.
         21    1    1    2  504  501 -0.23308060163E+02  0.23101163125E+02 -0.31671711718E+03  0.31841272230E+03  0.00000000000E+00 0. -1.
</event>
<event>
 4    1  0.3195479E+006  0.3473171E+02  0.7546771E-02  0.1382459E+00
         21   -1    0    0  503  501  0.00000000000E+00  0.00000000000E+00  0.22276275422E+02  0.22276275422E+02  0.00000000000E+00 0. -1.
         21   -1    0    0  504  502 -0.00000000000E+00 -0.00000000000E+00 -0.14191896270E+03  0.14191896270E+03  0.00000000000E+00 0. -1.
         21    1    1    2  503  502  0.30485467975E+02 -0.16641154611E+02 -0.12438339719E+03  0.12914147777E+03  0.00000000000E+00 0. -1.
         21    1    1    2  504  501 -0.30485467975E+02  0.16641154611E+02  0.47407099099E+01  0.35053760353E+02  0.00000000000E+00 0. -1.
</event>
<event>
 4    1  0.3195479E+006  0.3240624E+02  0.7546771E-02  0.1399777E+00
         21   -1    0    0  502  501  0.00000000000E+00  0.00000000000E+00  0.28918133054E+02  0.28918133054E+02  0.00000000000E+00 0.  1.
         21   -1    0    0  503  502 -0.00000000000E+00 -0.00000000000E+00 -0.37881755367E+02  0.37881755367E+02  0.00000000000E+00 0.  1.
         21    1    1    2  503  504  0.88563543841E+01 -0.31172573281E+02 -0.11274161726E+02  0.34311383833E+02  0.00000000000E+00 0.  1.
         21    1    1    2  504  501 -0.88563543841E+01  0.31172573281E+02  0.23105394136E+01  0.32488504587E+02  0.00000000000E+00 0.  1.
</event>
<event>
 4    1  0.3195479E+006  0.2871545E+02  0.7546771E-02  0.1431097E+00
         21   -1    0    0  502  501  0.00000000000E+00  0.00000000000E+00  0.24293343404E+03  0.24293343404E+03  0.00000000000E+00 0. -1.
         21   -1    0    0  504  502 -0.00000000000E+00 -0.00000000000E+00 -0.13031634720E+02  0.13031634720E+02  0.00000000000E+00 0. -1.
         21    1    1    2  503  501  0.89984630543E+01  0.27269120185E+02  0.22501123048E+03  0.22683613269E+03  0.00000000000E+00 0. -1.
         21    1    1    2  504  503 -0.89984630543E+01 -0.27269120185E+02  0.48905688436E+01  0.29128936071E+02  0.00000000000E+00 0. -1.
</event>
<event>
 4    1  0.3195479E+006  0.2049045E+02  0.7546771E-02  0.1526666E+00
         21   -1    0    0  504  501  0.00000000000E+00  0.00000000000E+00  0.27162307693E+02  0.27162307693E+02  0.00000000000E+00 0.  1.
         21   -1    0    0  503  502 -0.00000000000E+00 -0.00000000000E+00 -0.16642136984E+02  0.16642136984E+02  0.00000000000E+00 0. -1.
         21    1    1    2  503  501  0.90698880349E+01  0.18373775184E+02 -0.58372033735E+00  0.20498761253E+02  0.00000000000E+00 0. -1.
         21    1    1    2  504  502 -0.90698880349E+01 -0.18373775184E+02  0.11103891046E+02  0.23305683424E+02  0.00000000000E+00 0.  1.
</event>
<event>
 4    1  0.3195479E+006  0.2088695E+02  0.7546771E-02  0.1520885E+00
         21   -1    0    0  504  501  0.00000000000E+00  0.00000000000E+00  0.45845302193E+02  0.45845302193E+02  0.00000000000E+00 0.  1.
         21   -1    0    0  503  502 -0.00000000000E+00 -0.00000000000E+00 -0.80743712004E+02  0.80743712004E+02  0.00000000000E+00 0. -1.
         21    1    1    2  503  501 -0.20827968919E+02  0.15685289189E+01 -0.76897050269E+02  0.79683253650E+02  0.00000000000E+00 0. -1.
         21    1    1    2  504  502  0.20827968919E+02 -0.15685289189E+01  0.41998640457E+02  0.46905760547E+02  0.00000000000E+00 0.  1.
</event>
<event>
 4    1  0.3195479E+006  0.2458712E+02  0.7546771E-02  0.1473476E+00
         21   -1    0    0  502  501  0.00000000000E+00  0.00000000000E+00  0.10287495232E+03  0.10287495232E+03  0.00000000000E+00 0.  1.
         21   -1    0    0  504  502 -0.00000000000E+00 -0.00000000000E+00 -0.50415058677E+02  0.50415058677E+02  0.00000000000E+00 0.  1.
         21    1    1    2  503  501 -0.17335802831E+02  0.17435498197E+02  0.98269772562E+02  0.10129893808E+03  0.00000000000E+00 0.  1.
         21    1    1    2  504  503  0.17335802831E+02 -0.17435498197E+02 -0.45809878914E+02  0.51991072919E+02  0.00000000000E+00 0.  1.
</event>
<event>
 4    1  0.3195479E+006  0.2211807E+02  0.7546771E-02  0.1503880E+00
         21   -1    0    0  503  501  0.00000000000E+00  0.00000000000E+00  0.95095145514E+02  0.95095145514E+02  0.00000000000E+00 0.  1.
         21   -1    0    0  504  502 -0.00000000000E+00 -0.00000000000E+00 -0.29079136070E+03  0.29079136070E+03  0.00000000000E+00 0.  1.
         21    1    1    2  503  502 -0.87691267724E+01  0.20305454987E+02 -0.28907705636E+03  0.28992197847E+03  0.00000000000E+00 0.  1.
         21    1    1    2  504  501  0.87691267724E+01 -0.20305454987E+02  0.93380841174E+02  0.95964527743E+02  0.00000000000E+00 0.  1.
</event>
<event>
 4    1  0.3195479E+006  0.2086026E+02  0.7546771E-02  0.1521269E+00
         21   -1    0    0  503  501  0.00000000000E+00  0.00000000000E+00  0.37689854721E+03  0.37689854721E+03  0.00000000000E+00 0. -1.
         21   -1    0    0  504  502 -0.00000000000E+00 -0.00000000000E+00 -0.81710055970E+01  0.81710055970E+01  0.00000000000E+00 0. -1.
         21    1    1    2  503  502 -0.36403786098E+01 -0.20540153964E+02  0.36277827281E+03  0.36337752477E+03  0.00000000000E+00 0. -1.
         21    1    1    2  504  501  0.36403786098E+01  0.20540153964E+02  0.59492688030E+01  0.21692028042E+02  0.00000000000E+00 0. -1.
</event>
<event>
 4    1  0.3195479E+006  0.2689466E+02  0.7546771E-02  0.1448669E+00
         21   -1    0    0  503  501  0.00000000000E+00  0.00000000000E+00  0.40342570851E+02  0.40342570851E+02  0.00000000000E+00 0. -1.
         21   -1    0    0  504  502 -0.00000000000E+00 -0.00000000000E+00 -0.21499770248E+02  0.21499770248E+02  0.00000000000E+00 0. -1.
         21    1    1    2  503  502  0.39366133343E-01 -0.26894627007E+02  0.22021935099E+02  0.34760439252E+02  0.00000000000E+00 0. -1.
         21    1    1    2  504  501 -0.39366133343E-01  0.26894627007E+02 -0.31791344960E+01  0.27081901847E+02  0.00000000000E+00 0. -1.
</event>
<event>
 4    1  0.3195479E+006  0.2326897E+02  0.7546771E-02  0.1489148E+00
         21   -1    0    0  503  501  0.00000000000E+00  0.00000000000E+00  0.21337776993E+02  0.21337776993E+02  0.00000000000E+00 0. -1.
         21   -1    0    0  504  502 -0.00000000000E+00 -0.00000000000E+00 -0.90317289538E+02  0.90317289538E+02  0.00000000000E+00 0. -1.
         21    1    1    2  503  502 -0.15544487923E+02  0.17315128526E+02  0.12850106460E+02  0.26581384778E+02  0.00000000000E+00 0. -1.
         21    1    1    2  504  501  0.15544487923E+02 -0.17315128526E+02 -0.81829619005E+02  0.85073681754E+02  0.00000000000E+00 0. -1.
</event>
<event>
 4    1  0.3195479E+006  0.2985489E+02  0.7546771E-02  0.1420862E+00
         21   -1    0    0  503  501  0.00000000000E+00  0.00000000000E+00  0.19331703941E+02  0.19331703941E+02  0.00000000000E+00 0.  1.
         21   -1    0    0  504  502 -0.00000000000E+00 -0.00000000000E+00 -0.31400182363E+03  0.31400182363E+03  0.00000000000E+00 0.  1.
         21    1    1    2  503  502  0.25585267868E+02 -0.15385329709E+02  0.66099464343E+01  0.30577862809E+02  0.00000000000E+00 0.  1.
         21    1    1    2  504  501 -0.25585267868E+02  0.15385329709E+02 -0.30128006613E+03  0.30275566476E+03  0.00000000000E+00 0.  1.
</event>
<event>
 4    1  0.3195479E+006  0.2042542E+02  0.7546771E-02  0.1527629E+00
         21   -1    0    0  503  501  0.00000000000E+00  0.00000000000E+00  0.30169635688E+03  0.30169635688E+03  0.00000000000E+00 0.  1.
         21   -1    0    0  504  502 -0.00000000000E+00 -0.00000000000E+00 -0.52024704627E+02  0.52024704627E+02  0.00000000000E+00 0.  1.
         21    1    1    2  503  502 -0.17313351096E+02  0.10837243940E+02  0.29933000910E+03  0.30002608608E+03  0.00000000000E+00 0.  1.
         21    1    1    2  504  501  0.17313351096E+02 -0.10837243940E+02 -0.49658356841E+02  0.53694975431E+02  0.00000000000E+00 0.  1.
</event>
<event>
 4    1  0.3195479E+006  0.2775545E+02  0.7546771E-02  0.1440164E+00
         21   -1    0    0  503  501  0.00000000000E+00  0.00000000000E+00  0.43522239320E+02  0.43522239320E+02  0.00000000000E+00 0. -1.
         21   -1    0    0  504  502 -0.00000000000E+00 -0.00000000000E+00 -0.22214902665E+02  0.22214902665E+02  0.00000000000E+00 0. -1.
         21    1    1    2  503  502 -0.23961752137E+02 -0.14007125945E+02  0.25470626113E+02  0.37671181788E+02  0.00000000000E+00 0. -1.
         21    1    1    2  504  501  0.23961752137E+02  0.14007125945E+02 -0.41632894589E+01  0.28065960197E+02  0.00000000000E+00 0. -1.
</event>
<event>
 4    1  0.3195479E+006  0.2103688E+02  0.7546771E-02  0.1518739E+00
         21   -1    0    0  504  501  0.00000000000E+00  0.00000000000E+00  0.84386808141E+02  0.84386808141E+02  0.00000000000E+00 0. -1.
         21   -1    0    0  501  502 -0.00000000000E+00 -0.00000000000E+00 -0.14145015730E+02  0.14145015730E+02  0.00000000000E+00 0. -1.
         21    1    1    2  503  502 -0.16935950229E+02 -0.12478931271E+02 -0.39593381290E+01  0.21406225596E+02  0.00000000000E+00 0. -1.
         21    1    1    2  504  503  0.16935950229E+02  0.12478931271E+02  0.74201130541E+02  0.77125598275E+02  0.00000000000E+00 0. -1.
</event>
<event>
 4    1  0.3195479E+006  0.2756348E+02  0.7546771E-02  0.1442028E+00
         21   -1    0    0  502  501  0.00000000000E+00  0.00000000000E+00  0.21727640392E+02  0.21727640392E+02  0.00000000000E+00 0. -1.
         21   -1    0    0  503  502 -0.00000000000E+00 -0.00000000000E+00 -0.74915233779E+02  0.74915233779E+02  0.00000000000E+00 0.  1.
         21    1    1    2  503  504  0.23820309030E+02 -0.13868616613E+02 -0.61879985416E+02  0.67741259541E+02  0.00000000000E+00 0.  1.
         21    1    1    2  504  501 -0.23820309030E+02  0.13868616613E+02  0.86923920293E+01  0.28901614630E+02  0.00000000000E+00 0. -1.
</event>
<event>
 4    1  0.3195479E+006  0.2687623E+02  0.7546771E-02  0.1448855E+00
         21   -1    0    0  504  501  0.00000000000E+00  0.00000000000E+00  0.19145783244E+01  0.19145783244E+01  0.00000000000E+00 0. -1.
         21   -1    0    0  503  502 -0.00000000000E+00 -0.00000000000E+00 -0.50209478076E+03  0.50209478076E+03  0.00000000000E+00 0.  1.
         21    1    1    2  503  501 -0.24734941774E+02 -0.10512590183E+02 -0.12444401799E+03  0.12731317886E+03  0.00000000000E+00 0. -1.
         21    1    1    2  504  502  0.24734941774E+02  0.10512590183E+02 -0.37573618444E+03  0.37669618022E+03  0.00000000000E+00 0.  1.
</event>
<event>
 4    1  0.3195479E+006  0.3528798E+02  0.7546771E-02  0.1378550E+00
         21   -1    0    0  502  501  0.00000000000E+00  0.00000000000E+00  0.49159536545E+03  0.49159536545E+03  0.00000000000E+00 0. -1.
         21   -1    0    0  504  502 -0.00000000000E+00 -0.00000000000E+00 -0.12069820060E+02  0.12069820060E+02  0.00000000000E+00 0.  1.
         21    1    1    2  503  501  0.93473205207E+01 -0.34027478725E+02  0.46361525450E+03  0.46495628388E+03  0.00000000000E+00 0. -1.
         21    1    1    2  504  503 -0.93473205207E+01  0.34027478725E+02  0.15910290881E+02  0.38708901627E+02  0.00000000000E+00 0.  1.
</event>
<event>
 4    1  0.3195479E+006  0.2789801E+02  0.7546771E-02  0.1438790E+00
         21   -1    0    0  503  501  0.00000000000E+00  0.00000000000E+00  0.73100736094E+02  0.73100736094E+02  0.00000000000E+00 0.  1.
         21   -1    0    0  501  502 -0.00000000000E+00 -0.00000000000E+00 -0.23178465701E+03  0.23178465701E+03  0.00000000000E+00 0. -1.
         21    1    1    2  503  504  0.27674434072E+02 -0.35248402089E+01  0.69558381703E+02  0.74944427844E+02  0.00000000000E+00 0.  1.
         21    1    1    2  504  502 -0.27674434072E+02  0.35248402089E+01 -0.22824230262E+03  0.22994096526E+03  0.00000000000E+00 0. -1.
</event>
<event>
 4    1  0.3195479E+006  0.2097131E+02  0.7546771E-02  0.1519675E+00
         21   -1    0    0  502  501  0.00000000000E+00  0.00000000000E+00  0.26493609678E+02  0.26493609678E+02  0.00000000000E+00 0.  1.
         21   -1    0    0  503  502 -0.00000000000E+00 -0.00000000000E+00 -0.26114256987E+02  0.26114256987E+02  0.00000000000E+00 0.  1.
         21    1    1    2  503  504 -0.16732438765E+02 -0.12642051999E+02 -0.15687289782E+02  0.26189445325E+02  0.00000000000E+00 0.  1.
         21    1    1    2  504  501  0.16732438765E+02  0.12642051999E+02  0.16066642473E+02  0.26418421340E+02  0.00000000000E+00 0.  1.
</event>
<event>
 4    1  0.3195479E+006  0.3074918E+02  0.7546771E-02  0.1413196E+00
         21   -1    0    0  504  501  0.00000000000E+00  0.00000000000E+00  0.20046558804E+03  0.20046558804E+03  0.00000000000E+00 0. -1.
         21   -1    0    0  503  502 -0.00000000000E+00 -0.00000000000E+00 -0.63252075226E+02  0.63252075226E+02  0.00000000000E+00 0.  1.
         21    1    1    2  503  501 -0.23313386316E+02  0.20049888859E+02 -0.58240617800E+02  0.65859559568E+02  0.00000000000E+00 0.  1.
         21    1    1    2  504  502  0.23313386316E+02 -0.20049888859E+02  0.19545413061E+03  0.19785810370E+03  0.00000000000E+00 0. -1.
</event>
<event>
 4    1  0.3195479E+006  0.2248575E+02  0.7546771E-02  0.1499059E+00
         21   -1    0    0  503  501  0.00000000000E+00  0.00000000000E+00  0.18536700779E+01  0.18536700779E+01  0.00000000000E+00 0.  1.
         21   -1    0    0  501  502 -0.00000000000E+00 -0.00000000000E+00 -0.37737885077E+03  0.37737885077E+03  0.00000000000E+00 0.  1.
         21    1    1    2  503  504 -0.16138617246E+02 -0.15657399496E+02 -0.87926067369E+02  0.90755729563E+02  0.00000000000E+00 0.  1.
         21    1    1    2  504  502  0.16138617246E+02  0.15657399496E+02 -0.28759911332E+03  0.28847679128E+03  0.00000000000E+00 0.  1.
</event>
<event>
 4    1  0.3195479E+006  0.2666890E+02  0.7546771E-02  0.1450963E+00
         21   -1    0    0  504  501  0.00000000000E+00  0.00000000000E+00  0.32450235224E+01  0.32450235224E+01  0.00000000000E+00 0. -1.
         21   -1    0    0  503  502 -0.00000000000E+00 -0.00000000000E+00 -0.26443226814E+03  0.26443226814E+03  0.00000000000E+00 0. -1.
         21    1    1    2  503  501  0.23666328196E+02 -0.12293707509E+02 -0.75224827622E+02  0.79812311240E+02  0.00000000000E+00 0. -1.
         21    1    1    2  504  502 -0.23666328196E+02  0.12293707509E+02 -0.18596241699E+03  0.18786498042E+03  0.00000000000E+00 0. -1.
</event>
<event>
 4    1  0.3195479E+006  0.3122536E+02  0.7546771E-02  0.1409239E+00
         21   -1    0    0  502  501  0.00000000000E+00  0.00000000000E+00  0.24735289374E+02  0.24735289374E+02  0.00000000000E+00 0. -1.
         21   -1    0    0  503  502 -0.00000000000E+00 -0.00000000000E+00 -0.43494346080E+02  0.43494346080E+02  0.00000000000E+00 0. -1.
         21    1    1    2  503  504  0.23012172257E+01  0.31140447107E+02 -0.19823031867E+02  0.36986154695E+02  0.00000000000E+00 0. -1.
         21    1    1    2  504  501 -0.23012172257E+01 -0.31140447107E+02  0.10639751603E+01  0.31243480758E+02  0.00000000000E+00 0. -1.
</event>
<event>
 4    1  0.3195479E+006  0.2660289E+02  0.7546771E-02  0.1451638E+00
         21   -1    0    0  504  501  0.00000000000E+00  0.00000000000E+00  0.96139128892E+01  0.96139128892E+01  0.00000000000E+00 0. -1.
         21   -1    0    0  503  502 -0.00000000000E+00 -0.00000000000E+00 -0.21839728730E+03  0.21839728730E+03  0.00000000000E+00 0. -1.
         21    1    1    2  503  501 -0.69835579214E+01 -0.25669895736E+02 -0.19721617353E+03  0.19900234353E+03  0.00000000000E+00 0. -1.
         21    1    1    2  504  502  0.69835579214E+01  0.25669895736E+02 -0.11567200876E+02  0.29008856655E+02  0.00000000000E+00 0. -1.
</event>
<event>
 4    1  0.3195479E+006  0.3721932E+02  0.7546771E-02  0.1365599E+00
         21   -1    0    0  504  501  0.00000000000E+00  0.00000000000E+00  0.87795235346E+03  0.87795235346E+03  0.00000000000E+00 0. -1.
         21   -1    0    0  501  502 -0.00000000000E+00 -0.00000000000E+00 -0.26251222047E+01  0.26251222047E+01  0.00000000000E+00 0. -1.
         21    1    1    2  503  502 -0.52775574424E+01 -0.36843251604E+02  0.15956908859E+03  0.16385228663E+03  0.00000000000E+00 0. -1.
         21    1    1    2  504  503  0.52775574424E+01  0.36843251604E+02  0.71575814267E+03  0.71672518904E+03  0.00000000000E+00 0. -1.
</event>
<event>
 4    1  0.3195479E+006  0.3862109E+02  0.7546771E-02  0.1356761E+00
         21   -1    0    0  504  501  0.00000000000E+00  0.00000000000E+00  0.40453130035E+02  0.40453130035E+02  0.00000000000E+00 0.  1.
         21   -1    0    0  503  502 -0.00000000000E+00 -0.00000000000E+00 -0.38615343520E+02  0.38615343520E+02  0.00000000000E+00 0.  1.
         21    1    1    2  503  501  0.27248707364E+01 -0.38524845505E+02  0.93189522241E+01  0.39729479134E+02  0.00000000000E+00 0.  1.
         21    1    1    2  504  502 -0.27248707364E+01  0.38524845505E+02 -0.74811657085E+01  0.39338994421E+02  0.00000000000E+00 0.  1.
</event>
<event>
 4    1  0.3195479E+006  0.3900321E+02  0.7546771E-02  0.1354428E+00
         21   -1    0    0  502  501  0.00000000000E+00  0.00000000000E+00  0.17350292366E+02  0.17350292366E+02  0.00000000000E+00 0.  1.
         21   -1    0    0  504  502 -0.00000000000E+00 -0.00000000000E+00 -0.13825448537E+03  0.13825448537E+03  0.00000000000E+00 0.  1.
         21    1    1    2  503  501 -0.26943227376E+02 -0.28201288431E+02 -0.13395028985E+02  0.41239264932E+02  0.00000000000E+00 0.  1.
         21    1    1    2  504  503  0.26943227376E+02  0.28201288431E+02 -0.10750916402E+03  0.11436551280E+03  0.00000000000E+00 0.  1.
</event>
<event>
 4    1  0.3195479E+006  0.2108112E+02  0.7546771E-02  0.1518110E+00
         21   -1    0    0  504  501  0.00000000000E+00  0.00000000000E+00  0.28879132067E+03  0.28879132067E+03  0.00000000000E+00 0.  1.
         21   -1    0    0  501  502 -0.00000000000E+00 -0.00000000000E+00 -0.41174848321E+02  0.41174848321E+02  0.00000000000E+00 0.  1.
         21    1    1    2  503  502  0.21078610502E+02 -0.32543134758E+00 -0.38062439253E+02  0.43510493081E+02  0.00000000000E+00 0.  1.
         21    1    1    2  504  503 -0.21078610502E+02  0.32543134758E+00  0.28567891160E+03  0.28645567591E+03  0.00000000000E+00 0.  1.
</event>
<event>
 4    1  0.3195479E+006  0.2847099E+02  0.7546771E-02  0.1433366E+00
         21   -1    0    0  503  501  0.00000000000E+00  0.00000000000E+00  0.14320438535E+03  0.14320438535E+03  0.00000000000E+00 0.  1.
         21   -1    0    0  504  502 -0.00000000000E+00 -0.00000000000E+00 -0.61634006105E+01  0.61634006105E+01  0.00000000000E+00 0.  1.
         21    1    1    2  503  502  0.97750076189E+01 -0.26740356168E+02  0.89855411417E+02  0.94258115740E+02  0.00000000000E+00 0.  1.
         21    1    1    2  504  501 -0.97750076189E+01  0.26740356168E+02  0.47185573318E+02  0.55109670216E+02  0.00000000000E+00 0.  1.
</event>
<event>
 4    1  0.3195479E+006  0.2018932E+02  0.7546771E-02  0.1531161E+00
         21   -1    0    0  502  501  0.00000000000E+00  0.00000000000E+00  0.47664661378E+02  0.47664661378E+02  0.00000000000E+00 0. -1.
         21   -1    0    0  504  502 -0.00000000000E+00 -0.00000000000E+00 -0.42830271508E+02  0.42830271508E+02  0.00000000000E+00 0. -1.
         21    1    1    2  503  501 -0.13884162916E+02  0.14657380571E+02  0.42896298692E+02  0.47409927510E+02  0.00000000000E+00 0. -1.
         21    1    1    2  504  503  0.13884162916E+02 -0.14657380571E+02 -0.38061908821E+02  0.43085005376E+02  0.00000000000E+00 0. -1.
</event>
<event>
 4    1  0.3195479E+006  0.2623669E+02  0.7546771E-02  0.1455430E+00
         21   -1    0    0  504  501  0.00000000000E+00  0.00000000000E+00  0.83067548580E+03  0.83067548580E+03  0.00000000000E+00 0.  1.
         21   -1    0    0  503  502 -0.00000000000E+00 -0.00000000000E+00 -0.54458841299E+01  0.54458841299E+01  0.00000000000E+00 0.  1.
         21    1    1    2  503  501 -0.19994630668E+02 -0.16987599471E+02  0.27673341795E+02  0.38133681142E+02  0.00000000000E+00 0.  1.
         21    1    1    2  504  502  0.19994630668E+02  0.16987599471E+02  0.79755625988E+03  0.79798768879E+03  0.00000000000E+00 0.  1.
</event>
<event>
 4    1  0.3195479E+006  0.2969106E+02  0.7546771E-02  0.1422300E+00
         21   -1    0    0  502  501  0.00000000000E+00  0.00000000000E+00  0.41149180761E+03  0.41149180761E+03  0.00000000000E+00 0.  1.
         21   -1    0    0  504  502 -0.00000000000E+00 -0.00000000000E+00 -0.25089085295E+01  0.25089085295E+01  0.00000000000E+00 0.  1.
         21    1    1    2  503  501 -0.11337872048E+02 -0.27441057604E+02  0.28361414092E+03  0.28516405789E+03  0.00000000000E+00 0.  1.
         21    1    1    2  504  503  0.11337872048E+02  0.27441057604E+02  0.12536875816E+03  0.12883665824E+03  0.00000000000E+00 0.  1.
</event>
<event>
 4    1  0.3195479E+006  0.3257497E+02  0.7546771E-02  0.1398463E+00
         21   -1    0    0  504  501  0.00000000000E+00  0.00000000000E+00  0.28165112072E+02  0.28165112072E+02  0.00000000000E+00 0. -1.
         21   -1    0    0  501  502 -0.00000000000E+00 -0.00000000000E+00 -0.78310837333E+02  0.78310837333E+02  0.00000000000E+00 0. -1.
         21    1    1    2  503  502 -0.86792702678E+01 -0.31397438960E+02 -0.63422708422E+02  0.71299150410E+02  0.00000000000E+00 0. -1.
         21    1    1    2  504  503  0.86792702678E+01  0.31397438960E+02  0.13276983160E+02  0.35176798994E+02  0.00000000000E+00 0. -1.
</event>
<event>
 4    1  0.3195479E+006  0.2114894E+02  0.7546771E-02  0.1517149E+00
         21   -1    0    0  503  501  0.00000000000E+00  0.00000000000E+00  0.16689364349E+03  0.16689364349E+03  0.00000000000E+00 0.  1.
         21   -1    0    0  504  502 -0.00000000000E+00 -0.00000000000E+00 -0.35757620231E+01  0.35757620231E+01  0.00000000000E+00 0. -1.
         21    1    1    2  503  502  0.21041149557E+02  0.21325341382E+01  0.38998579264E+02  0.44364026656E+02  0.00000000000E+00 0. -1.
         21    1    1    2  504  501 -0.21041149557E+02 -0.21325341382E+01  0.12431930220E+03  0.12610537885E+03  0.00000000000E+00 0.  1.
</event>
<event>
 4    1  0.3195479E+006  0.2631948E+02  0.7546771E-02  0.1454566E+00
         21   -1    0    0  503  501  0.00000000000E+00  0.00000000000E+00  0.15907171811E+03  0.15907171811E+03  0.00000000000E+00 0.  1.
         21   -1    0    0  504  502 -0.00000000000E+00 -0.00000000000E+00 -0.66302424143E+03  0.66302424143E+03  0.00000000000E+00 0. -1.
         21    1    1    2  503  502  0.41833936982E+01  0.25984881158E+02 -0.66167213928E+03  0.66219539015E+03  0.00000000000E+00 0. -1.
         21    1    1    2  504  501 -0.41833936982E+01 -0.25984881158E+02  0.15771961596E+03  0.15990056939E+03  0.00000000000E+00 0.  1.
</event>
<event>
 4    1  0.3195479E+006  0.2430892E+02  0.7546771E-02  0.1476685E+00
         21   -1    0    0  503  501  0.00000000000E+00  0.00000000000E+00  0.32672320724E+03  0.32672320724E+03  0.00000000000E+00 0.  1.
         21   -1    0    0  504  502 -0.00000000000E+00 -0.00000000000E+00 -0.95691000716E+01  0.95691000716E+01  0.00000000000E+00 0.  1.
         21    1    1    2  503  502 -0.28126995152E+01 -0.24145647606E+02  0.71528785217E+01  0.25339440563E+02  0.00000000000E+00 0.  1.
         21    1    1    2  504  501  0.28126995152E+01  0.24145647606E+02  0.31000122865E+03  0.31095286675E+03  0.00000000000E+00 0.  1.
</event>
<event>
 4    1  0.3195479E+006  0.2738970E+02  0.7546771E-02  0.1443732E+00
         21   -1    0    0  503  501  0.00000000000E+00  0.00000000000E+00  0.17682146672E+03  0.17682146672E+03  0.00000000000E+00 0. -1.
         21   -1    0    0  504  502 -0.00000000000E+00 -0.00000000000E+00 -0.31301568403E+02  0.31301568403E+02  0.00000000000E+00 0. -1.
         21    1    1    2  503  502  0.53954430994E+01  0.26853018640E+02 -0.23992540388E+02  0.36412050348E+02  0.00000000000E+00 0. -1.
         21    1    1    2  504  501 -0.53954430994E+01 -0.26853018640E+02  0.16951243871E+03  0.17171098478E+03  0.00000000000E+00 0. -1.
</event>
<event>
 4    1  0.3195479E+006  0.2225154E+02  0.7546771E-02  0.1502117E+00
         21   -1    0    0  504  501  0.00000000000E+00  0.00000000000E+00  0.48156871870E+01  0.48156871870E+01  0.00000000000E+00 0.  1.
         21   -1    0    0  503  502 -0.00000000000E+00 -0.00000000000E+00 -0.10289959288E+03  0.10289959288E+03  0.00000000000E+00 0.  1.
         21    1    1    2  503  501 -0.19233035284E+02  0.11190243783E+02 -0.47509772116E+02  0.52462459423E+02  0.00000000000E+00 0.  1.
         21    1    1    2  504  502  0.19233035284E+02 -0.11190243783E+02 -0.50574133579E+02  0.55252820647E+02  0.00000000000E+00 0.  1.
</event>
<event>
 4    1  0.3195479E+006  0.4010919E+02  0.7546771E-02  0.1347847E+00
         21   -1    0    0  502  501  0.00000000000E+00  0.00000000000E+00  0.13036582465E+03  0.13036582465E+03  0.00000000000E+00 0. -1.
         21   -1    0    0  504  502 -0.00000000000E+00 -0.00000000000E+00 -0.49430259574E+02  0.49430259574E+02  0.00000000000E+00 0. -1.
         21    1    1    2  503  501 -0.29795661840E+02  0.26850805771E+02  0.11833994663E+03  0.12495235173E+03  0.00000000000E+00 0. -1.
         21    1    1    2  504  503  0.29795661840E+02 -0.26850805771E+02 -0.37404381549E+02  0.54843732497E+02  0.00000000000E+00 0. -1.
</event>
<event>
 4    1  0.3195479E+006  0.2008545E+02  0.7546771E-02  0.1532733E+00
         21   -1    0    0  503  501  0.00000000000E+00  0.00000000000E+00  0.52699618484E+01  0.52699618484E+01  0.00000000000E+00 0.  1.
         21   -1    0    0  504  502 -0.00000000000E+00 -0.00000000000E+00 -0.28031505055E+03  0.28031505055E+03  0.00000000000E+00 0.  1.
         21    1    1    2  503  502 -0.19626862531E+02  0.42675197564E+01 -0.15779247425E+02  0.25542319922E+02  0.00000000000E+00 0.  1.
         21    1    1    2  504  501  0.19626862531E+02 -0.42675197564E+01 -0.25926584127E+03  0.26004269247E+03  0.00000000000E+00 0.  1.
</event>
<event>
 4    1  0.3195479E+006  0.2085222E+02  0.7546771E-02  0.1521385E+00
         21   -1    0    0  503  501  0.00000000000E+00  0.00000000000E+00  0.10923502602E+02  0.10923502602E+02  0.00000000000E+00 0. -1.
         21   -1    0    0  501  502 -0.00000000000E+00 -0.00000000000E+00 -0.64958002815E+02  0.64958002815E+02  0.00000000000E+00 0. -1.
         21    1    1    2  503  504  0.19814933583E+02  0.64948764737E+01 -0.34080874118E+01  0.21128891904E+02  0.00000000000E+00 0. -1.
         21    1    1    2  504  502 -0.19814933583E+02 -0.64948764737E+01 -0.50626412801E+02  0.54752613512E+02  0.00000000000E+00 0. -1.
</event>
<event>
 4    1  0.3195479E+006  0.2007125E+02  0.7546771E-02  0.1532949E+00
         21   -1    0    0  502  501  0.00000000000E+00  0.00000000000E+00  0.76851947000E+00  0.76851947000E+00  0.00000000000E+00 0.  1.
         21   -1    0    0  503  502 -0.00000000000E+00 -0.00000000000E+00 -0.52830037247E+03  0.52830037247E+03  0.00000000000E+00 0.  1.
         21    1    1    2  503  504 -0.20071198186E+02  0.46887066060E-01 -0.28708118149E+03  0.28778196601E+03  0.00000000000E+00 0.  1.
         21    1    1    2  504  501  0.20071198186E+02 -0.46887066060E-01 -0.24045067150E+03  0.24128692592E+03  0.00000000000E+00 0.  1.
</event>
<event>
 4    1  0.3195479E+006  0.2922111E+02  0.7546771E-02  0.1426488E+00
         21   -1    0    0  504  501  0.00000000000E+00  0.00000000000E+00  0.57024294030E+03  0.57024294030E+03  0.00000000000E+00 0.  1.
         21   -1    0    0  503  502 -0.00000000000E+00 -0.00000000000E+00 -0.56508410342E+01  0.56508410342E+01  0.00000000000E+00 0.  1.
         21    1    1    2  503  501 -0.64322209962E+01 -0.28504386636E+02  0.35430419462E+02  0.45925898442E+02  0.00000000000E+00 0.  1.
         21    1    1    2  504  502  0.64322209962E+01  0.28504386636E+02  0.52916167981E+03  0.52996788290E+03  0.00000000000E+00 0.  1.
</event>
<event>
 4    1  0.3195479E+006  0.2839495E+02  0.7546771E-02  0.1434077E+00
         21   -1    0    0  504  501  0.00000000000E+00  0.00000000000E+00  0.42574471542E+03  0.42574471542E+03  0.00000000000E+00 0. -1.
         21   -1    0    0  501  502 -0.00000000000E+00 -0.00000000000E+00 -0.48564582539E+03  0.48564582539E+03  0.00000000000E+00 0. -1.
         21    1    1    2  503  502 -0.27814204209E+02  0.57134476077E+01 -0.48475645645E+03  0.48558737165E+03  0.00000000000E+00 0. -1.
         21    1    1    2  504  503  0.27814204209E+02 -0.57134476077E+01  0.42485534648E+03  0.42580316917E+03  0.00000000000E+00 0. -1.
</event>
<event>
 4    1  0.3195479E+006  0.2561458E+02  0.7546771E-02  0.1462044E+00
         21   -1    0    0  504  501  0.00000000000E+00  0.00000000000E+00  0.65928894804E+01  0.65928894804E+01  0.00000000000E+00 0.  1.
         21   -1    0    0  503  502 -0.00000000000E+00 -0.00000000000E+00 -0.12695823934E+03  0.12695823934E+03  0.00000000000E+00 0.  1.
         21    1    1    2  503  501 -0.12514283230E+00  0.25614273712E+02 -0.91227303413E+02  0.94755092562E+02  0.00000000000E+00 0.  1.
         21    1    1    2  504  502  0.12514283230E+00 -0.25614273712E+02 -0.29138046444E+02  0.38796036255E+02  0.00000000000E+00 0.  1.
</event>
<event>
 4    1  0.3195479E+006  0.2344359E+02  0.7546771E-02  0.1487002E+00
         21   -1    0    0  504  501  0.00000000000E+00  0.00000000000E+00  0.57818112680E+01  0.57818112680E+01  0.00000000000E+00 0.  1.
         21   -1    0    0  503  502 -0.00000000000E+00 -0.00000000000E+00 -0.99704620015E+02  0.99704620015E+02  0.00000000000E+00 0.  1.
         21    1    1    2  503  501  0.23407356889E+02 -0.13028353809E+01 -0.35574034203E+02  0.42604150573E+02  0.00000000000E+00 0.  1.
         21    1    1    2  504  502 -0.23407356889E+02  0.13028353809E+01 -0.58348774544E+02  0.62882280711E+02  0.00000000000E+00 0.  1.
</event>
<event>
 4    1  0.3195479E+006  0.2148298E+02  0.7546771E-02  0.1512480E+00
         21   -1    0    0  504  501  0.00000000000E+00  0.00000000000E+00  0.25444970663E+03  0.25444970663E+03  0.00000000000E+00 0.  1.
         21   -1    0    0  501  502 -0.00000000000E+00 -0.00000000000E+00 -0.26000178763E+01  0.26000178763E+01  0.00000000000E+00 0.  1.
         21    1    1    2  503  502 -0.16916616492E+02 -0.13241848094E+02  0.55248664456E+02  0.59278439408E+02  0.00000000000E+00 0.  1.
         21    1    1    2  504  503  0.16916616492E+02  0.13241848094E+02  0.19660102430E+03  0.19777128510E+03  0.00000000000E+00 0.  1.
</event>
<event>
 4    1  0.3195479E+006  0.2463613E+02  0.7546771E-02  0.1472915E+00
         21   -1    0    0  503  501  0.00000000000E+00  0.00000000000E+00  0.34518999585E+01  0.34518999585E+01  0.00000000000E+00 0. -1.
         21   -1    0    0  504  502 -0.00000000000E+00 -0.00000000000E+00 -0.32802170662E+03  0.32802170662E+03  0.00000000000E+00 0.  1.
         21    1    1    2  503  502 -0.21272424302E+02 -0.12426696529E+02 -0.27517784124E+03  0.27627845216E+03  0.00000000000E+00 0.  1.
         21    1    1    2  504  501  0.21272424302E+02  0.12426696529E+02 -0.49391965422E+02  0.55195154411E+02  0.00000000000E+00 0. -1.
</event>
<event>
 4    1  0.3195479E+006  0.2051570E+02  0.7546771E-02  0.1526293E+00
         21   -1    0    0  504  501  0.00000000000E+00  0.00000000000E+00  0.37631608109E+01  0.37631608109E+01  0.00000000000E+00 0.  1.
         21   -1    0    0  503  502 -0.00000000000E+00 -0.00000000000E+00 -0.10125981264E+04  0.10125981264E+04  0.00000000000E+00 0.  1.
         21    1    1    2  503  501 -0.24460627143E+01  0.20369358903E+02 -0.25123211801E+02  0.32435625107E+02  0.00000000000E+00 0.  1.
         21    1    1    2  504  502  0.24460627143E+01 -0.20369358903E+02 -0.98371175381E+03  0.98392566213E+03  0.00000000000E+00 0.  1.
</event>
<event>
 4    1  0.3195479E+006  0.2284949E+02  0.7546771E-02  0.1494397E+00
         21   -1    0    0  503  501  0.00000000000E+00  0.00000000000E+00  0.62137388783E+03  0.62137388783E+03  0.00000000000E+00 0.  1.
         21   -1    0    0  504  502 -0.00000000000E+00 -0.00000000000E+00 -0.22080848832E+02  0.22080848832E+02  0.00000000000E+00 0. -1.
         21    1    1    2  503  502 -0.13797785949E+02 -0.18213187715E+02 -0.15900201888E+02  0.27837304537E+02  0.00000000000E+00 0. -1.
         21    1    1    2  504  501  0.13797785949E+02  0.18213187715E+02  0.61519324088E+03  0.61561743212E+03  0.00000000000E+00 0.  1.
</event>
<event>
 4    1  0.3195479E+006  0.2177193E+02  0.7546771E-02  0.1508523E+00
         21   -1    0    0  504  501  0.00000000000E+00  0.00000000000E+00  0.26561904833E+02  0.26561904833E+02  0.00000000000E+00 0. -1.
         21   -1    0    0  503  502 -0.00000000000E+00 -0.00000000000E+00 -0.20629869656E+03  0.20629869656E+03  0.00000000000E+00 0.  1.
         21    1    1    2  503  501  0.12670950222E+02 -0.17704915764E+02 -0.20114894168E+03  0.20232378447E+03  0.00000000000E+00 0.  1.
         21    1    1    2  504  502 -0.12670950222E+02  0.17704915764E+02  0.21412149960E+02  0.30536816921E+02  0.00000000000E+00 0. -1.
</event>
<event>
 4    1  0.3195479E+006  0.2113126E+02  0.7546771E-02  0.1517399E+00
         21   -1    0    0  503  501  0.00000000000E+00  0.00000000000E+00  0.94288954787E+02  0.94288954787E+02  0.00000000000E+00 0. -1.
         21   -1    0    0  504  502 -0.00000000000E+00 -0.00000000000E+00 -0.26331471876E+02  0.26331471876E+02  0.00000000000E+00 0.  1.
         21    1    1    2  503  502  0.21000264806E+02  0.23492878383E+01  0.88596895094E+02  0.91082051445E+02  0.00000000000E+00 0. -1.
         21    1    1    2  504  501 -0.21000264806E+02 -0.23492878383E+01 -0.20639412183E+02  0.29538375218E+02  0.00000000000E+00 0.  1.
</event>
<event>
 4    1  0.3195479E+006  0.2139127E+02  0.7546771E-02  0.1513751E+00
         21   -1    0    0  504  501  0.00000000000E+00  0.00000000000E+00  0.13112818880E+03  0.13112818880E+03  0.00000000000E+00 0.  1.
         21   -1    0    0  501  502 -0.00000000000E+00 -0.00000000000E+00 -0.12194359999E+04  0.12194359999E+04  0.00000000000E+00 0. -1.
         21    1    1    2  503  502  0.21103439229E+02  0.34973378926E+01 -0.12184690935E+04  0.12186568502E+04  0.00000000000E+00 0. -1.
         21    1    1    2  504  503 -0.21103439229E+02 -0.34973378926E+01  0.13016128244E+03  0.13190733856E+03  0.00000000000E+00 0.  1.
</event>
<event>
 4    1  0.3195479E+006  0.3018640E+02  0.7546771E-02  0.1417983E+00
         21   -1    0    0  504  501  0.00000000000E+00  0.00000000000E+00  0.31387365943E+01  0.31387365943E+01  0.00000000000E+00 0.  1.
         21   -1    0    0  501  502 -0.00000000000E+00 -0.00000000000E+00 -0.39470904396E+03  0.39470904396E+03  0.00000000000E+00 0. -1.
         21    1    1    2  503  502  0.21688940129E+02  0.20995446664E+02 -0.29808819048E+03  0.29961273038E+03  0.00000000000E+00 0. -1.
         21    1    1    2  504  503 -0.21688940129E+02 -0.20995446664E+02 -0.93482116886E+02  0.98235050171E+02  0.00000000000E+00 0.  1.
</event>
<event>
 4    1  0.3195479E+006  0.2077601E+02  0.7546771E-02  0.1522487E+00
         21   -1    0    0  503  501  0.00000000000E+00  0.00000000000E+00  0.54066646830E+03  0.54066646830E+03  0.00000000000E+00 0. -1.
         21   -1    0    0  501  502 -0.00000000000E+00 -0.00000000000E+00 -0.63026148930E+02  0.63026148930E+02  0.00000000000E+00 0.  1.
         21    1    1    2  503  504  0.13278841004E+02 -0.15978580908E+02  0.53874863032E+03  0.53914907895E+03  0.00000000000E+00 0. -1.
         21    1    1    2  504  502 -0.13278841004E+02  0.15978580908E+02 -0.61108310949E+02  0.64543538277E+02  0.00000000000E+00 0.  1.
</event>
<event>
 4    1  0.3195479E+006  0.4937716E+02  0.7546771E-02  0.1300896E+00
         21   -1    0    0  503  501  0.00000000000E+00  0.00000000000E+00  0.35906990412E+03  0.35906990412E+03  0.00000000000E+00 0.  1.
         21   -1    0    0  504  502 -0.00000000000E+00 -0.00000000000E+00 -0.79619777757E+02  0.79619777757E+02  0.00000000000E+00 0.  1.
         21    1    1    2  503  502 -0.49271988862E+02  0.32210551473E+01  0.34950853794E+03  0.35297920926E+03  0.00000000000E+00 0.  1.
         21    1    1    2  504  501  0.49271988862E+02 -0.32210551473E+01 -0.70058411575E+02  0.85710472610E+02  0.00000000000E+00 0.  1.
</event>
<event>
 4    1  0.3195479E+006  0.6016176E+02  0.7546771E-02  0.1259284E+00
         21   -1    0    0  503  501  0.00000000000E+00  0.00000000000E+00  0.45633696441E+02  0.45633696441E+02  0.00000000000E+00 0.  1.
         21   -1    0    0  504  502 -0.00000000000E+00 -0.00000000000E+00 -0.79447978815E+02  0.79447978815E+02  0.00000000000E+00 0.  1.
         21    1    1    2  503  502  0.49464045650E+02  0.34245370358E+02 -0.14348595911E+02  0.61849166588E+02  0.00000000000E+00 0.  1.
         21    1    1    2  504  501 -0.49464045650E+02 -0.34245370358E+02 -0.19465686462E+02  0.63232508668E+02  0.00000000000E+00 0.  1.
</event>
<event>
 4    1  0.3195479E+006  0.3392670E+02  0.7546771E-02  0.1388270E+00
         21   -1    0    0  503  501  0.00000000000E+00  0.00000000000E+00  0.20944208415E+03  0.20944208415E+03  0.00000000000E+00 0. -1.
         21   -1    0    0  504  502 -0.00000000000E+00 -0.00000000000E+00 -0.12168543535E+02  0.12168543535E+02  0.00000000000E+00 0. -1.
         21    1    1    2  503  502 -0.23401380462E+02 -0.24564124733E+02  0.18069049829E+03  0.18384797253E+03  0.00000000000E+00 0. -1.
         21    1    1    2  504  501  0.23401380462E+02  0.24564124733E+02  0.16583042323E+02  0.37762655151E+02  0.00000000000E+00 0. -1.
</event>
<event>
 4    1  0.3195479E+006  0.2015699E+02  0.7546771E-02  0.1531649E+00
         21   -1    0    0  504  501  0.00000000000E+00  0.00000000000E+00  0.12173003527E+03  0.12173003527E+03  0.00000000000E+00 0. -1.
         21   -1    0    0  503  502 -0.00000000000E+00 -0.00000000000E+00 -0.74871057212E+01  0.74871057212E+01  0.00000000000E+00 0.  1.
         21    1    1    2  503  501 -0.17475570020E+02  0.10045330867E+02  0.90238464490E+01  0.22084701141E+02  0.00000000000E+00 0.  1.
         21    1    1    2  504  502  0.17475570020E+02 -0.10045330867E+02  0.10521908310E+03  0.10713243984E+03  0.00000000000E+00 0. -1.
</event>
<event>
 4    1  0.3195479E+006  0.2478707E+02  0.7546771E-02  0.1471200E+00
         21   -1    0    0  504  501  0.00000000000E+00  0.00000000000E+00  0.14471196932E+03  0.14471196932E+03  0.00000000000E+00 0. -1.
         21   -1    0    0  503  502 -0.00000000000E+00 -0.00000000000E+00 -0.14883699180E+03  0.14883699180E+03  0.00000000000E+00 0.  1.
         21    1    1    2  503  501  0.21979646954E+02 -0.11458357630E+02  0.14260340720E+03  0.14474159936E+03  0.00000000000E+00 0. -1.
         21    1    1    2  504  502 -0.21979646954E+02  0.11458357630E+02 -0.14672842967E+03  0.14880736176E+03  0.00000000000E+00 0.  1.
</event>
<event>
 4    1  0.3195479E+006  0.3587926E+02  0.7546771E-02  0.1374485E+00
         21   -1    0    0  503  501  0.00000000000E+00  0.00000000000E+00  0.15195242672E+03  0.15195242672E+03  0.00000000000E+00 0.  1.
         21   -1    0    0  504  502 -0.00000000000E+00 -0.00000000000E+00 -0.19416905865E+02  0.19416905865E+02  0.00000000000E+00 0. -1.
         21    1    1    2  503  502  0.34426961521E+02  0.10104731542E+02  0.13059896479E+03  0.13543784878E+03  0.00000000000E+00 0.  1.
         21    1    1    2  504  501 -0.34426961521E+02 -0.10104731542E+02  0.19365560708E+01  0.35931483807E+02  0.00000000000E+00 0. -1.
</event>
<event>
 4    1  0.3195479E+006  0.3703848E+02  0.7546771E-02  0.1366772E+00
         21   -1    0    0  503  501  0.00000000000E+00  0.00000000000E+00  0.16567065715E+02  0.16567065715E+02  0.00000000000E+00 0.  1.
         21   -1    0    0  504  502 -0.00000000000E+00 -0.00000000000E+00 -0.14812845754E+03  0.14812845754E+03  0.00000000000E+00 0. -1.
         21    1    1    2  503  502  0.23163867148E+02  0.28901281937E+02 -0.11096160180E+02  0.38664888589E+02  0.00000000000E+00 0.  1.
         21    1    1    2  504  501 -0.23163867148E+02 -0.28901281937E+02 -0.12046523164E+03  0.12603063466E+03  0.00000000000E+00 0. -1.
</event>
<event>
 4    1  0.3195479E+006  0.2517541E+02  0.7546771E-02  0.1466851E+00
         21   -1    0    0  504  501  0.00000000000E+00  0.00000000000E+00  0.59170852032E+03  0.59170852032E+03  0.00000000000E+00 0.  1.
         21   -1    0    0  503  502 -0.00000000000E+00 -0.00000000000E+00 -0.29435812291E+01  0.29435812291E+01  0.00000000000E+00 0.  1.
         21    1    1    2  503  501  0.24782871479E+02  0.44283777756E+01  0.57245467479E+02  0.62536747560E+02  0.00000000000E+00 0.  1.
         21    1    1    2  504  502 -0.24782871479E+02 -0.44283777756E+01  0.53151947161E+03  0.53211535398E+03  0.00000000000E+00 0.  1.
</event>
<event>
 4    1  0.3195479E+006  0.2211536E+02  0.7546771E-02  0.1503916E+00
         21   -1    0    0  504  501  0.00000000000E+00  0.00000000000E+00  0.57331679127E+01  0.57331679127E+01  0.00000000000E+00 0. -1.
         21   -1    0    0  503  502 -0.00000000000E+00 -0.00000000000E+00 -0.13596097112E+03  0.13596097112E+03  0.00000000000E+00 0.  1.
         21    1    1    2  503  501  0.62597635217E+01  0.21210957607E+02 -0.21871079534E+02  0.31103592750E+02  0.00000000000E+00 0. -1.
         21    1    1    2  504  502 -0.62597635217E+01 -0.21210957607E+02 -0.10835672368E+03  0.11059054628E+03  0.00000000000E+00 0.  1.
</event>
<event>
 4    1  0.3195479E+006  0.3341103E+02  0.7546771E-02  0.1392092E+00
         21   -1    0    0  503  501  0.00000000000E+00  0.00000000000E+00  0.14223926232E+02  0.14223926232E+02  0.00000000000E+00 0. -1.
         21   -1    0    0  501  502 -0.00000000000E+00 -0.00000000000E+00 -0.44348292898E+03  0.44348292898E+03  0.00000000000E+00 0. -1.
         21    1    1    2  503  504 -0.78965170818E-01 -0.33410937893E+02 -0.70105441138E+01  0.34138610621E+02  0.00000000000E+00 0. -1.
         21    1    1    2  504  502  0.78965170818E-01  0.33410937893E+02 -0.42224845863E+03  0.42356824459E+03  0.00000000000E+00 0. -1.
</event>
<event>
 4    1  0.3195479E+006  0.2751015E+02  0.7546771E-02  0.1442550E+00
         21   -1    0    0  504  501  0.00000000000E+00  0.00000000000E+00  0.14833184683E+03  0.14833184683E+03  0.00000000000E+00 0. -1.
         21   -1    0    0  503  502 -0.00000000000E+00 -0.00000000000E+00 -0.10115428816E+03  0.10115428816E+03  0.00000000000E+00 0.  1.
         21    1    1    2  503  501 -0.25031293056E+02  0.11412402783E+02  0.14514517968E+03  0.14772925152E+03  0.00000000000E+00 0. -1.
         21    1    1    2  504  502  0.25031293056E+02 -0.11412402783E+02 -0.97967621004E+02  0.10175688347E+03  0.00000000000E+00 0.  1.
</event>
<event>
 4    1  0.3195479E+006  0.2678801E+02  0.7546771E-02  0.1449749E+00
         21   -1    0    0  503  501  0.00000000000E+00  0.00000000000E+00  0.46246850097E+02  0.46246850097E+02  0.00000000000E+00 0.  1.
         21   -1    0    0  504  502 -0.00000000000E+00 -0.00000000000E+00 -0.15517081678E+02  0.15517081678E+02  0.00000000000E+00 0.  1.
         21    1    1    2  503  502  0.80308408705E+01 -0.25555883005E+02  0.15207707760E+02  0.30803764974E+02  0.00000000000E+00 0.  1.
         21    1    1    2  504  501 -0.80308408705E+01  0.25555883005E+02  0.15522060658E+02  0.30960166801E+02  0.00000000000E+00 0.  1.
</event>
<event>
 4    1  0.3195479E+006  0.2194859E+02  0.7546771E-02  0.1506140E+00
         21   -1    0    0  502  501  0.00000000000E+00  0.00000000000E+00  0.18054105356E+01  0.18054105356E+01  0.00000000000E+00 0.  1.
         21   -1    0    0  504  502 -0.00000000000E+00 -0.00000000000E+00 -0.47311683311E+03  0.47311683311E+03  0.00000000000E+00 0.  1.
         21    1    1    2  503  501  0.76552628058E+01  0.20570309713E+02 -0.78857060282E+02  0.81854606753E+02  0.00000000000E+00 0.  1.
         21    1    1    2  504  503 -0.76552628058E+01 -0.20570309713E+02 -0.39245436229E+03  0.39306763689E+03  0.00000000000E+00 0.  1.
</event>
<event>
 4    1  0.3195479E+006  0.2163852E+02  0.7546771E-02  0.1510340E+00
         21   -1    0    0  504  501  0.00000000000E+00  0.00000000000E+00  0.74337124314E+02  0.74337124314E+02  0.00000000000E+00 0. -1.
         21   -1    0    0  503  502 -0.00000000000E+00 -0.00000000000E+00 -0.90865316429E+02  0.90865316429E+02  0.00000000000E+00 0. -1.
         21    1    1    2  503  501  0.48210617443E+01  0.21094618259E+02 -0.87950995244E+02  0.90573744100E+02  0.00000000000E+00 0. -1.
         21    1    1    2  504  502 -0.48210617443E+01 -0.21094618259E+02  0.71422803129E+02  0.74628696643E+02  0.00000000000E+00 0. -1.
</event>
<event>
 4    1  0.3195479E+006  0.2055775E+02  0.7546771E-02  0.1525674E+00
         21   -1    0    0  503  501  0.00000000000E+00  0.00000000000E+00  0.62384712088E+02  0.62384712088E+02  0.00000000000E+00 0. -1.
         21   -1    0    0  504  502 -0.00000000000E+00 -0.00000000000E+00 -0.75424849345E+02  0.75424849345E+02  0.00000000000E+00 0.  1.
         21    1    1    2  503  502  0.19058116088E+02 -0.77077483288E+01  0.59217511147E+02  0.62684406351E+02  0.00000000000E+00 0. -1.
         21    1    1    2  504  501 -0.19058116088E+02  0.77077483288E+01 -0.72257648404E+02  0.75125155082E+02  0.00000000000E+00 0.  1.
</event>
<event>
 4    1  0.3195479E+006  0.2412777E+02  0.7546771E-02  0.1478802E+00
         21   -1    0    0  504  501  0.00000000000E+00  0.00000000000E+00  0.79666621848E+03  0.79666621848E+03  0.00000000000E+00 0. -1.
         21   -1    0    0  503  502 -0.00000000000E+00 -0.00000000000E+00 -0.41672865166E+01  0.41672865166E+01  0.00000000000E+00 0.  1.
         21    1    1    2  503  501 -0.16634117962E+02 -0.17477287201E+02  0.75986897961E+03  0.76025194220E+03  0.00000000000E+00 0. -1.
         21    1    1    2  504  502  0.16634117962E+02  0.17477287201E+02  0.32629952355E+02  0.40581562796E+02  0.00000000000E+00 0.  1.
</event>
<event>
 4    1  0.3195479E+006  0.2360788E+02  0.7546771E-02  0.1485003E+00
         21   -1    0    0  502  501  0.00000000000E+00  0.00000000000E+00  0.19155791986E+01  0.19155791986E+01  0.00000000000E+00 0.  1.
         21   -1    0    0  504  502 -0.00000000000E+00 -0.00000000000E+00 -0.49978033822E+03  0.49978033822E+03  0.00000000000E+00 0. -1.
         21    1    1    2  503  501 -0.22277441462E+02 -0.78132885672E+01 -0.86780875249E+02  0.89934710681E+02  0.00000000000E+00 0.  1.
         21    1    1    2  504  503  0.22277441462E+02  0.78132885672E+01 -0.41108388377E+03  0.41176120674E+03  0.00000000000E+00 0. -1.
</event>
<event>
 4    1  0.3195479E+006  0.3051716E+02  0.7546771E-02  0.1415155E+00
         21   -1    0    0  502  501  0.00000000000E+00  0.00000000000E+00  0.60690028197E+02  0.60690028197E+02  0.00000000000E+00 0.  1.
         21   -1    0    0  503  502 -0.00000000000E+00 -0.00000000000E+00 -0.25736054116E+02  0.25736054116E+02  0.00000000000E+00 0.  1.
         21    1    1    2  503  504 -0.28727752530E+02 -0.10296266397E+02 -0.99811309536E+01  0.32107940486E+02  0.00000000000E+00 0.  1.
         21    1    1    2  504  501  0.28727752530E+02  0.10296266397E+02  0.44935105034E+02  0.54318141827E+02  0.00000000000E+00 0.  1.
</event>
<event>
 4    1  0.3195479E+006  0.2247098E+02  0.7546771E-02  0.1499250E+00
         21   -1    0    0  504  501  0.00000000000E+00  0.00000000000E+00  0.46414818817E+01  0.46414818817E+01  0.00000000000E+00 0.  1.
         21   -1    0    0  503  502 -0.00000000000E+00 -0.00000000000E+00 -0.87312898649E+03  0.87312898649E+03  0.00000000000E+00 0. -1.
         21    1    1    2  503  501  0.16725220930E+02 -0.15007069417E+02 -0.23609781592E+02  0.32593970830E+02  0.00000000000E+00 0.  1.
         21    1    1    2  504  502 -0.16725220930E+02  0.15007069417E+02 -0.84487772302E+03  0.84517649754E+03  0.00000000000E+00 0. -1.
</event>
<event>
 4    1  0.3195479E+006  0.3202837E+02  0.7546771E-02  0.1402752E+00
         21   -1    0    0  503  501  0.00000000000E+00  0.00000000000E+00  0.39700889259E+02  0.39700889259E+02  0.00000000000E+00 0.  1.
         21   -1    0    0  504  502 -0.00000000000E+00 -0.00000000000E+00 -0.16735765893E+03  0.16735765893E+03  0.00000000000E+00 0.  1.
         21    1    1    2  503  502 -0.27914418375E+02  0.15703553594E+02 -0.15903076406E+03  0.16222392014E+03  0.00000000000E+00 0.  1.
         21    1    1    2  504  501  0.27914418375E+02 -0.15703553594E+02  0.31373994387E+02  0.44834628051E+02  0.00000000000E+00 0.  1.
</event>
<event>
 4    1  0.3195479E+006  0.2889683E+02  0.7546771E-02  0.1429431E+00
         21   -1    0    0  503  501  0.00000000000E+00  0.00000000000E+00  0.39585967919E+01  0.39585967919E+01  0.00000000000E+00 0. -1.
         21   -1    0    0  504  502 -0.00000000000E+00 -0.00000000000E+00 -0.27593700891E+03  0.27593700891E+03  0.00000000000E+00 0. -1.
         21    1    1    2  503  502  0.27298333775E+01 -0.28767603259E+02 -0.68067700446E+02  0.73947541079E+02  0.00000000000E+00 0. -1.
         21    1    1    2  504  501 -0.27298333775E+01  0.28767603259E+02 -0.20391071168E+03  0.20594806463E+03  0.00000000000E+00 0. -1.
</event>
<event>
 4    1  0.3195479E+006  0.2155538E+02  0.7546771E-02  0.1511481E+00
         21   -1    0    0  503  501  0.00000000000E+00  0.00000000000E+00  0.13595565175E+03  0.13595565175E+03  0.00000000000E+00 0. -1.
         21   -1    0    0  504  502 -0.00000000000E+00 -0.00000000000E+00 -0.27247555834E+02  0.27247555834E+02  0.00000000000E+00 0.  1.
         21    1    1    2  503  502 -0.20576164247E+02 -0.64230817290E+01  0.13066678700E+03  0.13243278951E+03  0.00000000000E+00 0. -1.
         21    1    1    2  504  501  0.20576164247E+02  0.64230817290E+01 -0.21958691083E+02  0.30770418068E+02  0.00000000000E+00 0.  1.
</event>
<event>
 4    1  0.3195479E+006  0.2491681E+02  0.7546771E-02  0.1469736E+00
         21   -1    0    0  502  501  0.00000000000E+00  0.00000000000E+00  0.12216972272E+02  0.12216972272E+02  0.00000000000E+00 0. -1.
         21   -1    0    0  504  502 -0.00000000000E+00 -0.00000000000E+00 -0.17282503768E+03  0.17282503768E+03  0.00000000000E+00 0.  1.
         21    1    1    2  503  501  0.21444972222E+02  0.12687015730E+02 -0.25668657837E+01  0.25048672653E+02  0.00000000000E+00 0. -1.
         21    1    1    2  504  503 -0.21444972222E+02 -0.12687015730E+02 -0.15804119963E+03  0.15999333730E+03  0.00000000000E+00 0.  1.
</event>
<event>
 4    1  0.3195479E+006  0.2168885E+02  0.7546771E-02  0.1509653E+00
         21   -1    0    0  504  501  0.00000000000E+00  0.00000000000E+00  0.47248937168E+02  0.47248937168E+02  0.00000000000E+00 0. -1.
         21   -1    0    0  501  502 -0.00000000000E+00 -0.00000000000E+00 -0.52739710864E+02  0.52739710864E+02  0.00000000000E+00 0. -1.
         21    1    1    2  503  502 -0.21666343179E+02 -0.98774098246E+00 -0.47774305933E+02  0.52467040763E+02  0.00000000000E+00 0. -1.
         21    1    1    2  504  503  0.21666343179E+02  0.98774098246E+00  0.42283532237E+02  0.47521607269E+02  0.00000000000E+00 0. -1.
</event>
<event>
 4    1  0.3195479E+006  0.2560850E+02  0.7546771E-02  0.1462110E+00
         21   -1    0    0  503  501  0.00000000000E+00  0.00000000000E+00  0.82216316903E+01  0.82216316903E+01  0.00000000000E+00 0.  1.
         21   -1    0    0  504  502 -0.00000000000E+00 -0.00000000000E+00 -0.81742156862E+02  0.81742156862E+02  0.00000000000E+00 0.  1.
         21    1    1    2  503  502  0.24650266246E+02 -0.69397036825E+01 -0.43756746676E+02  0.50699585726E+02  0.00000000000E+00 0.  1.
         21    1    1    2  504  501 -0.24650266246E+02  0.69397036825E+01 -0.29763778495E+02  0.39264202825E+02  0.00000000000E+00 0.  1.
</event>
<event>
 4    1  0.3195479E+006  0.2089439E+02  0.7546771E-02  0.1520778E+00
         21   -1    0    0  504  501  0.00000000000E+00  0.00000000000E+00  0.54844988390E+02  0.54844988390E+02  0.00000000000E+00 0.  1.
         21   -1    0    0  501  502 -0.00000000000E+00 -0.00000000000E+00 -0.86540713795E+01  0.86540713795E+01  0.00000000000E+00 0.  1.
         21    1    1    2  503  502  0.12374060349E+02  0.16836214723E+02  0.14105129814E+02  0.25209723973E+02  0.00000000000E+00 0.  1.
         21    1    1    2  504  503 -0.12374060349E+02 -0.16836214723E+02  0.32085787196E+02  0.38289335796E+02  0.00000000000E+00 0.  1.
</event>
<event>
 4    1  0.3195479E+006  0.2344769E+02  0.7546771E-02  0.1486952E+00
         21   -1    0    0  504  501  0.00000000000E+00  0.00000000000E+00  0.39989602997E+02  0.39989602997E+02  0.00000000000E+00 0.  1.
         21   -1    0    0  503  502 -0.00000000000E+00 -0.00000000000E+00 -0.11285282223E+03  0.11285282223E+03  0.00000000000E+00 0. -1.
         21    1    1    2  503  501  0.22470367653E+02 -0.66990137110E+01  0.35183418437E+02  0.42280812907E+02  0.00000000000E+00 0.  1.
         21    1    1    2  504  502 -0.22470367653E+02  0.66990137110E+01 -0.10804663766E+03  0.11056161232E+03  0.00000000000E+00 0. -1.
</event>
<event>
 4    1  0.3195479E+006  0.2384983E+02  0.7546771E-02  0.1482094E+00
         21   -1    0    0  504  501  0.00000000000E+00  0.00000000000E+00  0.17497372300E+03  0.17497372300E+03  0.00000000000E+00 0. -1.
         21   -1    0    0  503  502 -0.00000000000E+00 -0.00000000000E+00 -0.57634080279E+01  0.57634080279E+01  0.00000000000E+00 0. -1.
         21    1    1    2  503  501  0.15056559499E+02  0.18496331430E+02  0.14427230751E+03  0.14623034219E+03  0.00000000000E+00 0. -1.
         21    1    1    2  504  502 -0.15056559499E+02 -0.18496331430E+02  0.24938007461E+02  0.34506788846E+02  0.00000000000E+00 0. -1.
</event>
<event>
 4    1  0.3195479E+006  0.2144445E+02  0.7546771E-02  0.1513013E+00
         21   -1    0    0  504  501  0.00000000000E+00  0.00000000000E+00  0.80704752460E+02  0.80704752460E+02  0.00000000000E+00 0. -1.
         21   -1    0    0  503  502 -0.00000000000E+00 -0.00000000000E+00 -0.62532354936E+01  0.62532354936E+01  0.00000000000E+00 0. -1.
         21    1    1    2  503  501  0.11035628249E+02 -0.18386929163E+02  0.24271154382E+02  0.32387546834E+02  0.00000000000E+00 0. -1.
         21    1    1    2  504  502 -0.11035628249E+02  0.18386929163E+02  0.50180362584E+02  0.54570441120E+02  0.00000000000E+00 0. -1.
</event>
<event>
 4    1  0.3195479E+006  0.2372809E+02  0.7546771E-02  0.1483552E+00
         21   -1    0    0  503  501  0.00000000000E+00  0.00000000000E+00  0.38013461000E+00  0.38013461000E+00  0.00000000000E+00 0.  1.
         21   -1    0    0  504  502 -0.00000000000E+00 -0.00000000000E+00 -0.18745037131E+04  0.18745037131E+04  0.00000000000E+00 0.  1.
         21    1    1    2  503  502 -0.16389073614E+02  0.17158680240E+02 -0.13665128351E+04  0.13667188264E+04  0.00000000000E+00 0.  1.
         21    1    1    2  504  501  0.16389073614E+02 -0.17158680240E+02 -0.50761074342E+03  0.50816502130E+03  0.00000000000E+00 0.  1.
</event>
<event>
 4    1  0.3195479E+006  0.2194158E+02  0.7546771E-02  0.1506234E+00
         21   -1    0    0  504  501  0.00000000000E+00  0.00000000000E+00  0.66574884193E+01  0.66574884193E+01  0.00000000000E+00 0.  1.
         21   -1    0    0  501  502 -0.00000000000E+00 -0.00000000000E+00 -0.21664721382E+03  0.21664721382E+03  0.00000000000E+00 0. -1.
         21    1    1    2  503  502 -0.68881948085E+01 -0.20832322532E+02 -0.19612745416E+03  0.19735098471E+03  0.00000000000E+00 0. -1.
         21    1    1    2  504  503  0.68881948085E+01  0.20832322532E+02 -0.13862271241E+02  0.25953717532E+02  0.00000000000E+00 0.  1.
</event>
<event>
 4    1  0.3195479E+006  0.2365686E+02  0.7546771E-02  0.1484411E+00
         21   -1    0    0  504  501  0.00000000000E+00  0.00000000000E+00  0.29191915897E+02  0.29191915897E+02  0.00000000000E+00 0. -1.
         21   -1    0    0  503  502 -0.00000000000E+00 -0.00000000000E+00 -0.52225201909E+02  0.52225201909E+02  0.00000000000E+00 0. -1.
         21    1    1    2  503  501  0.23507432108E+02 -0.26547277015E+01  0.20869336685E+02  0.31546412746E+02  0.00000000000E+00 0. -1.
         21    1    1    2  504  502 -0.23507432108E+02  0.26547277015E+01 -0.43902622697E+02  0.49870705060E+02  0.00000000000E+00 0. -1.
</event>
<event>
 4    1  0.3195479E+006  0.2559073E+02  0.7546771E-02  0.1462302E+00
         21   -1    0    0  504  501  0.00000000000E+00  0.00000000000E+00  0.14987006454E+02  0.14987006454E+02  0.00000000000E+00 0. -1.
         21   -1    0    0  503  502 -0.00000000000E+00 -0.00000000000E+00 -0.49728873523E+02  0.49728873523E+02  0.00000000000E+00 0. -1.
         21    1    1    2  503  501  0.76816116489E+00  0.25579194719E+02 -0.61013635595E+01  0.26308019905E+02  0.00000000000E+00 0. -1.
         21    1    1    2  504  502 -0.76816116489E+00 -0.25579194719E+02 -0.28640503509E+02  0.38407860072E+02  0.00000000000E+00 0. -1.
</event>
<event>
 4    1  0.3195479E+006  0.2410937E+02  0.7546771E-02  0.1479019E+00
         21   -1    0    0  504  501  0.00000000000E+00  0.00000000000E+00  0.31738478929E+02  0.31738478929E+02  0.00000000000E+00 0.  1.
         21   -1    0    0  503  502 -0.00000000000E+00 -0.00000000000E+00 -0.21616420408E+02  0.21616420408E+02  0.00000000000E+00 0. -1.
         21    1    1    2  503  501  0.20430662620E+02  0.12800377607E+02 -0.53660361232E+01  0.24699311441E+02  0.00000000000E+00 0. -1.
         21    1    1    2  504  502 -0.20430662620E+02 -0.12800377607E+02  0.15488094645E+02  0.28655587897E+02  0.00000000000E+00 0.  1.
</event>
<event>
 4    1  0.3195479E+006  0.2406853E+02  0.7546771E-02  0.1479499E+00
         21   -1    0    0  503  501  0.00000000000E+00  0.00000000000E+00  0.19278899351E+03  0.19278899351E+03  0.00000000000E+00 0.  1.
         21   -1    0    0  504  502 -0.00000000000E+00 -0.00000000000E+00 -0.20153022914E+02  0.20153022914E+02  0.00000000000E+00 0. -1.
         21    1    1    2  503  502 -0.19479063682E+02  0.14137196415E+02  0.18453137586E+03  0.18609439250E+03  0.00000000000E+00 0.  1.
         21    1    1    2  504  501  0.19479063682E+02 -0.14137196415E+02 -0.11895405256E+02  0.26847623928E+02  0.00000000000E+00 0. -1.
</event>
<event>
 4    1  0.3195479E+006  0.3056631E+02  0.7546771E-02  0.1414738E+00
         21   -1    0    0  504  501  0.00000000000E+00  0.00000000000E+00  0.19194582449E+03  0.19194582449E+03  0.00000000000E+00 0.  1.
         21   -1    0    0  503  502 -0.00000000000E+00 -0.00000000000E+00 -0.61980368107E+02  0.61980368107E+02  0.00000000000E+00 0.  1.
         21    1    1    2  503  501 -0.28537642898E+02 -0.10949999575E+02 -0.56893035554E+02  0.64584185737E+02  0.00000000000E+00 0.  1.
         21    1    1    2  504  502  0.28537642898E+02  0.10949999575E+02  0.18685849193E+03  0.18934200686E+03  0.00000000000E+00 0.  1.
</event>
<event>
 4    1  0.3195479E+006  0.2816483E+02  0.7546771E-02  0.1436245E+00
         21   -1    0    0  503  501  0.00000000000E+00  0.00000000000E+00  0.40264856900E+02  0.40264856900E+02  0.00000000000E+00 0. -1.
         21   -1    0    0  504  502 -0.00000000000E+00 -0.00000000000E+00 -0.19704584568E+02  0.19704584568E+02  0.00000000000E+00 0. -1.
         21    1    1    2  503  502  0.17520665160E+02  0.22051851363E+02  0.98755886015E+01  0.29846023293E+02  0.00000000000E+00 0. -1.
         21    1    1    2  504  501 -0.17520665160E+02 -0.22051851363E+02  0.10684683731E+02  0.30123418176E+02  0.00000000000E+00 0. -1.
</event>
<event>
 4    1  0.3195479E+006  0.4505420E+02  0.7546771E-02  0.1321169E+00
         21   -1    0    0  503  501  0.00000000000E+00  0.00000000000E+00  0.25400873852E+01  0.25400873852E+01  0.00000000000E+00 0. -1.
         21   -1    0    0  504  502 -0.00000000000E+00 -0.00000000000E+00 -0.11971459625E+04  0.11971459625E+04  0.00000000000E+00 0. -1.
         21    1    1    2  503  502 -0.20968284998E+02 -0.39877457374E+02 -0.25143532857E+03  0.25544002238E+03  0.00000000000E+00 0. -1.
         21    1    1    2  504  501  0.20968284998E+02  0.39877457374E+02 -0.94317054658E+03  0.94424602753E+03  0.00000000000E+00 0. -1.
</event>
<event>
 4    1  0.3195479E+006  0.2076682E+02  0.7546771E-02  0.1522620E+00
         21   -1    0    0  503  501  0.00000000000E+00  0.00000000000E+00  0.21826928918E+01  0.21826928918E+01  0.00000000000E+00 0. -1.
         21   -1    0    0  504  502 -0.00000000000E+00 -0.00000000000E+00 -0.64319655380E+03  0.64319655380E+03  0.00000000000E+00 0.  1.
         21    1    1    2  503  502  0.63454903004E+00 -0.20757127222E+02 -0.51915102981E+02  0.55914567874E+02  0.00000000000E+00 0. -1.
         21    1    1    2  504  501 -0.63454903004E+00  0.20757127222E+02 -0.58909875793E+03  0.58946467882E+03  0.00000000000E+00 0.  1.
</event>
<event>
 4    1  0.3195479E+006  0.2424190E+02  0.7546771E-02  0.1477466E+00
         21   -1    0    0  503  501  0.00000000000E+00  0.00000000000E+00  0.11616966504E+03  0.11616966504E+03  0.00000000000E+00 0. -1.
         21   -1    0    0  504  502 -0.00000000000E+00 -0.00000000000E+00 -0.66614980809E+01  0.66614980809E+01  0.00000000000E+00 0. -1.
         21    1    1    2  503  502  0.10011150513E+02  0.22078197917E+02  0.84879227890E+02  0.88273174210E+02  0.00000000000E+00 0. -1.
         21    1    1    2  504  501 -0.10011150513E+02 -0.22078197917E+02  0.24628939066E+02  0.34557988909E+02  0.00000000000E+00 0. -1.
</event>
<event>
 4    1  0.3195479E+006  0.2280418E+02  0.7546771E-02  0.1494972E+00
         21   -1    0    0  504  501  0.00000000000E+00  0.00000000000E+00  0.33983408357E+02  0.33983408357E+02  0.00000000000E+00 0. -1.
         21   -1    0    0  503  502 -0.00000000000E+00 -0.00000000000E+00 -0.77340743226E+02  0.77340743226E+02  0.00000000000E+00 0. -1.
         21    1    1    2  503  501  0.21342635723E+02 -0.80325828653E+01 -0.71530948751E+02  0.75078006874E+02  0.00000000000E+00 0. -1.
         21    1    1    2  504  502 -0.21342635723E+02  0.80325828653E+01  0.28173613881E+02  0.36246144708E+02  0.00000000000E+00 0. -1.
</event>
<event>
 4    1  0.3195479E+006  0.3815501E+02  0.7546771E-02  0.1359650E+00
         21   -1    0    0  504  501  0.00000000000E+00  0.00000000000E+00  0.85146203352E+03  0.85146203352E+03  0.00000000000E+00 0.  1.
         21   -1    0    0  503  502 -0.00000000000E+00 -0.00000000000E+00 -0.11133525118E+02  0.11133525118E+02  0.00000000000E+00 0. -1.
         21    1    1    2  503  501 -0.37935886138E+02  0.40832652170E+01  0.23363157168E+02  0.44739709708E+02  0.00000000000E+00 0. -1.
         21    1    1    2  504  502  0.37935886138E+02 -0.40832652170E+01  0.81696535123E+03  0.81785584893E+03  0.00000000000E+00 0.  1.
</event>
<event>
 4    1  0.3195479E+006  0.2062949E+02  0.7546771E-02  0.1524621E+00
         21   -1    0    0  504  501  0.00000000000E+00  0.00000000000E+00  0.26282138185E+02  0.26282138185E+02  0.00000000000E+00 0.  1.
         21   -1    0    0  503  502 -0.00000000000E+00 -0.00000000000E+00 -0.18382552939E+02  0.18382552939E+02  0.00000000000E+00 0.  1.
         21    1    1    2  503  501  0.20015300065E+02 -0.49963576385E+01  0.11657940569E+02  0.23695641048E+02  0.00000000000E+00 0.  1.
         21    1    1    2  504  502 -0.20015300065E+02  0.49963576385E+01 -0.37583553229E+01  0.20969050076E+02  0.00000000000E+00 0.  1.
</event>
<event>
 4    1  0.3195479E+006  0.8317299E+02  0.7546771E-02  0.1196667E+00
         21   -1    0    0  503  501  0.00000000000E+00  0.00000000000E+00  0.30984503689E+03  0.30984503689E+03  0.00000000000E+00 0.  1.
         21   -1    0    0  504  502 -0.00000000000E+00 -0.00000000000E+00 -0.11980881471E+03  0.11980881471E+03  0.00000000000E+00 0.  1.
         21    1    1    2  503  502  0.28424419618E+00  0.83172506183E+02  0.28879737704E+03  0.30053564108E+03  0.00000000000E+00 0.  1.
         21    1    1    2  504  501 -0.28424419618E+00 -0.83172506183E+02 -0.98761154853E+02  0.12911821052E+03  0.00000000000E+00 0.  1.
</event>
<event>
 4    1  0.3195479E+006  0.2055044E+02  0.7546771E-02  0.1525781E+00
         21   -1    0    0  503  501  0.00000000000E+00  0.00000000000E+00  0.15298555238E+03  0.15298555238E+03  0.00000000000E+00 0. -1.
         21   -1    0    0  504  502 -0.00000000000E+00 -0.00000000000E+00 -0.83882014982E+01  0.83882014982E+01  0.00000000000E+00 0. -1.
         21    1    1    2  503  502  0.45765490309E+01  0.20034366981E+02  0.62090963842E+01  0.21467965420E+02  0.00000000000E+00 0. -1.
         21    1    1    2  504  501 -0.45765490309E+01 -0.20034366981E+02  0.13838825450E+03  0.13990578846E+03  0.00000000000E+00 0. -1.
</event>
<event>
 4    1  0.3195479E+006  0.3024903E+02  0.7546771E-02  0.1417444E+00
         21   -1    0    0  502  501  0.00000000000E+00  0.00000000000E+00  0.21510837577E+01  0.21510837577E+01  0.00000000000E+00 0. -1.
         21   -1    0    0  503  502 -0.00000000000E+00 -0.00000000000E+00 -0.43736003753E+03  0.43736003753E+03  0.00000000000E+00 0.  1.
         21    1    1    2  503  504  0.24015747479E+02  0.18391513239E+02 -0.25399200754E+03  0.25578691088E+03  0.00000000000E+00 0. -1.
         21    1    1    2  504  501 -0.24015747479E+02 -0.18391513239E+02 -0.18121694624E+03  0.18372421041E+03  0.00000000000E+00 0.  1.
</event>
<event>
 4    1  0.3195479E+006  0.2418021E+02  0.7546771E-02  0.1478187E+00
         21   -1    0    0  503  501  0.00000000000E+00  0.00000000000E+00  0.81623500434E+02  0.81623500434E+02  0.00000000000E+00 0.  1.
         21   -1    0    0  504  502 -0.00000000000E+00 -0.00000000000E+00 -0.78000878786E+01  0.78000878786E+01  0.00000000000E+00 0.  1.
         21    1    1    2  503  502  0.20862442200E+01  0.24090044042E+02  0.24135096635E+02  0.34164097039E+02  0.00000000000E+00 0.  1.
         21    1    1    2  504  501 -0.20862442200E+01 -0.24090044042E+02  0.49688315920E+02  0.55259491274E+02  0.00000000000E+00 0.  1.
</event>
<event>
 4    1  0.3195479E+006  0.2493060E+02  0.7546771E-02  0.1469581E+00
         21   -1    0    0  502  501  0.00000000000E+00  0.00000000000E+00  0.72540925763E+02  0.72540925763E+02  0.00000000000E+00 0. -1.
         21   -1    0    0  504  502 -0.00000000000E+00 -0.00000000000E+00 -0.13031653692E+02  0.13031653692E+02  0.00000000000E+00 0. -1.
         21    1    1    2  503  501  0.99679283025E+01  0.22851155788E+02  0.54795381270E+02  0.60200238571E+02  0.00000000000E+00 0. -1.
         21    1    1    2  504  503 -0.99679283025E+01 -0.22851155788E+02  0.47138908006E+01  0.25372340884E+02  0.00000000000E+00 0. -1.
</event>
<event>
 4    1  0.3195479E+006  0.2591958E+02  0.7546771E-02  0.1458774E+00
         21   -1    0    0  504  501  0.00000000000E+00  0.00000000000E+00  0.23367622454E+03  0.23367622454E+03  0.00000000000E+00 0.  1.
         21   -1    0    0  503  502 -0.00000000000E+00 -0.00000000000E+00 -0.42085507142E+02  0.42085507142E+02  0.00000000000E+00 0. -1.
         21    1    1    2  503  501 -0.10252125501E+02  0.23805850743E+02  0.22888333452E+03  0.23034627288E+03  0.00000000000E+00 0.  1.
         21    1    1    2  504  502  0.10252125501E+02 -0.23805850743E+02 -0.37292617121E+02  0.45415458807E+02  0.00000000000E+00 0. -1.
</event>
<event>
 4    1  0.3195479E+006  0.2215114E+02  0.7546771E-02  0.1503442E+00
         21   -1    0    0  503  501  0.00000000000E+00  0.00000000000E+00  0.36167841437E+02  0.36167841437E+02  0.00000000000E+00 0.  1.
         21   -1    0    0  504  502 -0.00000000000E+00 -0.00000000000E+00 -0.25680917326E+02  0.25680917326E+02  0.00000000000E+00 0.  1.
         21    1    1    2  503  502 -0.19797043502E+02 -0.99372997182E+01  0.26483049725E+02  0.34525711866E+02  0.00000000000E+00 0.  1.
         21    1    1    2  504  501  0.19797043502E+02  0.99372997182E+01 -0.15996125614E+02  0.27323046897E+02  0.00000000000E+00 0.  1.
</event>
<event>
 4    1  0.3195479E+006  0.2800226E+02  0.7546771E-02  0.1437792E+00
         21   -1    0    0  502  501  0.00000000000E+00  0.00000000000E+00  0.26161478015E+02  0.26161478015E+02  0.00000000000E+00 0.  1.
         21   -1    0    0  503  502 -0.00000000000E+00 -0.00000000000E+00 -0.46070152811E+02  0.46070152811E+02  0.00000000000E+00 0.  1.
         21    1    1    2  503  504 -0.22953146744E+02 -0.16039930971E+02 -0.31302875384E+02  0.41999956408E+02  0.00000000000E+00 0.  1.
         21    1    1    2  504  501  0.22953146744E+02  0.16039930971E+02  0.11394200588E+02  0.30231674417E+02  0.00000000000E+00 0.  1.
</event>
<event>
 4    1  0.3195479E+006  0.3714430E+02  0.7546771E-02  0.1366085E+00
         21   -1    0    0  504  501  0.00000000000E+00  0.00000000000E+00  0.24890594841E+03  0.24890594841E+03  0.00000000000E+00 0. -1.
         21   -1    0    0  501  502 -0.00000000000E+00 -0.00000000000E+00 -0.89487662723E+02  0.89487662723E+02  0.00000000000E+00 0.  1.
         21    1    1    2  503  502  0.37141879014E+02 -0.42385202202E+00 -0.84163698650E+02  0.91995798804E+02  0.00000000000E+00 0.  1.
         21    1    1    2  504  503 -0.37141879014E+02  0.42385202202E+00  0.24358198434E+03  0.24639781233E+03  0.00000000000E+00 0. -1.
</event>
<event>
 4    1  0.3195479E+006  0.5232633E+02  0.7546771E-02  0.1288390E+00
         21   -1    0    0  504  501  0.00000000000E+00  0.00000000000E+00  0.58666271004E+02  0.58666271004E+02  0.00000000000E+00 0.  1.
         21   -1    0    0  503  502 -0.00000000000E+00 -0.00000000000E+00 -0.19742840237E+03  0.19742840237E+03  0.00000000000E+00 0. -1.
         21    1    1    2  503  501  0.63137326655E+01 -0.51944023606E+02 -0.18127441898E+03  0.18867554103E+03  0.00000000000E+00 0. -1.
         21    1    1    2  504  502 -0.63137326655E+01  0.51944023606E+02  0.42512287607E+02  0.67419132345E+02  0.00000000000E+00 0.  1.
</event>
<event>
 4    1  0.3195479E+006  0.2852355E+02  0.7546771E-02  0.1432876E+00
         21   -1    0    0  502  501  0.00000000000E+00  0.00000000000E+00  0.36453498960E+03  0.36453498960E+03  0.00000000000E+00 0.  1.
         21   -1    0    0  503  502 -0.00000000000E+00 -0.00000000000E+00 -0.21268135469E+02  0.21268135469E+02  0.00000000000E+00 0.  1.
         21    1    1    2  503  504  0.14776688498E+02  0.24397586544E+02 -0.10866196936E+02  0.30523220473E+02  0.00000000000E+00 0.  1.
         21    1    1    2  504  501 -0.14776688498E+02 -0.24397586544E+02  0.35413305106E+03  0.35527990459E+03  0.00000000000E+00 0.  1.
</event>
<event>
 4    1  0.3195479E+006  0.2112060E+02  0.7546771E-02  0.1517550E+00
         21   -1    0    0  503  501  0.00000000000E+00  0.00000000000E+00  0.39436744180E+02  0.39436744180E+02  0.00000000000E+00 0.  1.
         21   -1    0    0  504  502 -0.00000000000E+00 -0.00000000000E+00 -0.31068182145E+02  0.31068182145E+02  0.00000000000E+00 0.  1.
         21    1    1    2  503  502 -0.63565994090E+01  0.20141339395E+02  0.32296233593E+02  0.38589203321E+02  0.00000000000E+00 0.  1.
         21    1    1    2  504  501  0.63565994090E+01 -0.20141339395E+02 -0.23927671557E+02  0.31915723004E+02  0.00000000000E+00 0.  1.
</event>
<event>
 4    1  0.3195479E+006  0.2030587E+02  0.7546771E-02  0.1529410E+00
         21   -1    0    0  504  501  0.00000000000E+00  0.00000000000E+00  0.56167079591E+03  0.56167079591E+03  0.00000000000E+00 0.  1.
         21   -1    0    0  503  502 -0.00000000000E+00 -0.00000000000E+00 -0.21361290719E+01  0.21361290719E+01  0.00000000000E+00 0.  1.
         21    1    1    2  503  501 -0.42716319599E+01 -0.19851485601E+02  0.50815023066E+03  0.50855578380E+03  0.00000000000E+00 0.  1.
         21    1    1    2  504  502  0.42716319599E+01  0.19851485601E+02  0.51384436176E+02  0.55251141176E+02  0.00000000000E+00 0.  1.
</event>
<event>
 4    1  0.3195479E+006  0.2355325E+02  0.7546771E-02  0.1485665E+00
         21   -1    0    0  503  501  0.00000000000E+00  0.00000000000E+00  0.16362960643E+04  0.16362960643E+04  0.00000000000E+00 0.  1.
         21   -1    0    0  504  502 -0.00000000000E+00 -0.00000000000E+00 -0.34263895731E+00  0.34263895731E+00  0.00000000000E+00 0.  1.
         21    1    1    2  503  502  0.15942474296E+02 -0.17337625182E+02  0.90194426773E+03  0.90225174859E+03  0.00000000000E+00 0.  1.
         21    1    1    2  504  501 -0.15942474296E+02  0.17337625182E+02  0.73400915765E+03  0.73438695471E+03  0.00000000000E+00 0.  1.
</event>
<event>
 4    1  0.3195479E+006  0.2066344E+02  0.7546771E-02  0.1524125E+00
         21   -1    0    0  503  501  0.00000000000E+00  0.00000000000E+00  0.15158453223E+02  0.15158453223E+02  0.00000000000E+00 0. -1.
         21   -1    0    0  504  502 -0.00000000000E+00 -0.00000000000E+00 -0.10714797261E+03  0.10714797261E+03  0.00000000000E+00 0.  1.
         21    1    1    2  503  502  0.18138482477E+02  0.98981403769E+01  0.65085645892E+01  0.21664236486E+02  0.00000000000E+00 0. -1.
         21    1    1    2  504  501 -0.18138482477E+02 -0.98981403769E+01 -0.98498083980E+02  0.10064218935E+03  0.00000000000E+00 0.  1.
</event>
<event>
 4    1  0.3195479E+006  0.2894692E+02  0.7546771E-02  0.1428974E+00
         21   -1    0    0  502  501  0.00000000000E+00  0.00000000000E+00  0.36825344213E+03  0.36825344213E+03  0.00000000000E+00 0.  1.
         21   -1    0    0  503  502 -0.00000000000E+00 -0.00000000000E+00 -0.81314210395E+01  0.81314210395E+01  0.00000000000E+00 0.  1.
         21    1    1    2  503  504  0.46124293261E+01 -0.28577081370E+02  0.20355381756E+02  0.35387365688E+02  0.00000000000E+00 0.  1.
         21    1    1    2  504  501 -0.46124293261E+01  0.28577081370E+02  0.33976663933E+03  0.34099749748E+03  0.00000000000E+00 0.  1.
</event>
<event>
 4    1  0.3195479E+006  0.3909837E+02  0.7546771E-02  0.1353852E+00
         21   -1    0    0  503  501  0.00000000000E+00  0.00000000000E+00  0.20978320042E+02  0.20978320042E+02  0.00000000000E+00 0.  1.
         21   -1    0    0  504  502 -0.00000000000E+00 -0.00000000000E+00 -0.11954384190E+03  0.11954384190E+03  0.00000000000E+00 0. -1.
         21    1    1    2  503  502 -0.26383344631E+01 -0.39009249476E+02 -0.53802121551E+01  0.39466809299E+02  0.00000000000E+00 0.  1.
         21    1    1    2  504  501  0.26383344631E+01  0.39009249476E+02 -0.93185309700E+02  0.10105535264E+03  0.00000000000E+00 0. -1.
</event>
<event>
 4    1  0.3195479E+006  0.2964521E+02  0.7546771E-02  0.1422705E+00
         21   -1    0    0  502  501  0.00000000000E+00  0.00000000000E+00  0.23420569863E+02  0.23420569863E+02  0.00000000000E+00 0. -1.
         21   -1    0    0  503  502 -0.00000000000E+00 -0.00000000000E+00 -0.63483610087E+02  0.63483610087E+02  0.00000000000E+00 0. -1.
         21    1    1    2  503  504 -0.12957703956E+02 -0.26663395660E+02 -0.47817585491E+02  0.56261534303E+02  0.00000000000E+00 0. -1.
         21    1    1    2  504  501  0.12957703956E+02  0.26663395660E+02  0.77545452660E+01  0.30642645647E+02  0.00000000000E+00 0. -1.
</event>
<event>
 4    1  0.3195479E+006  0.2362149E+02  0.7546771E-02  0.1484838E+00
         21   -1    0    0  504  501  0.00000000000E+00  0.00000000000E+00  0.83374611405E+01  0.83374611405E+01  0.00000000000E+00 0. -1.
         21   -1    0    0  503  502 -0.00000000000E+00 -0.00000000000E+00 -0.22646794675E+03  0.22646794675E+03  0.00000000000E+00 0. -1.
         21    1    1    2  503  501  0.23082132131E+02  0.50189598885E+01 -0.20760582714E+03  0.20894533794E+03  0.00000000000E+00 0. -1.
         21    1    1    2  504  502 -0.23082132131E+02 -0.50189598885E+01 -0.10524658465E+02  0.25860069952E+02  0.00000000000E+00 0. -1.
</event>
<event>
 4    1  0.3195479E+006  0.2441744E+02  0.7546771E-02  0.1475427E+00
         21   -1    0    0  504  501  0.00000000000E+00  0.00000000000E+00  0.12976607927E+03  0.12976607927E+03  0.00000000000E+00 0. -1.
         21   -1    0    0  501  502 -0.00000000000E+00 -0.00000000000E+00 -0.83080522937E+01  0.83080522937E+01  0.00000000000E+00 0. -1.
         21    1    1    2  503  502 -0.14018135285E+02  0.19992582851E+02  0.14573144755E+02  0.28435682407E+02  0.00000000000E+00 0. -1.
         21    1    1    2  504  503  0.14018135285E+02 -0.19992582851E+02  0.10688488222E+03  0.10963844915E+03  0.00000000000E+00 0. -1.
</event>
<event>
 4    1  0.3195479E+006  0.2544385E+02  0.7546771E-02  0.1463899E+00
         21   -1    0    0  504  501  0.00000000000E+00  0.00000000000E+00  0.18719204106E+03  0.18719204106E+03  0.00000000000E+00 0.  1.
         21   -1    0    0  503  502 -0.00000000000E+00 -0.00000000000E+00 -0.89508859677E+02  0.89508859677E+02  0.00000000000E+00 0.  1.
         21    1    1    2  503  501 -0.18319886313E+02  0.17657042920E+02 -0.86809753765E+02  0.90461719793E+02  0.00000000000E+00 0.  1.
         21    1    1    2  504  502  0.18319886313E+02 -0.17657042920E+02  0.18449293515E+03  0.18623918095E+03  0.00000000000E+00 0.  1.
</event>
<event>
 4    1  0.3195479E+006  0.2193384E+02  0.7546771E-02  0.1506338E+00
         21   -1    0    0  504  501  0.00000000000E+00  0.00000000000E+00  0.15734687669E+03  0.15734687669E+03  0.00000000000E+00 0. -1.
         21   -1    0    0  503  502 -0.00000000000E+00 -0.00000000000E+00 -0.22083847545E+02  0.22083847545E+02  0.00000000000E+00 0. -1.
         21    1    1    2  503  501 -0.15931020513E+02  0.15076336644E+02 -0.15641977095E+02  0.26940022061E+02  0.00000000000E+00 0. -1.
         21    1    1    2  504  502  0.15931020513E+02 -0.15076336644E+02  0.15090500624E+03  0.15249070218E+03  0.00000000000E+00 0. -1.
</event>
<event>
 4    1  0.3195479E+006  0.2292391E+02  0.7546771E-02  0.1493456E+00
         21   -1    0    0  504  501  0.00000000000E+00  0.00000000000E+00  0.18015271783E+02  0.18015271783E+02  0.00000000000E+00 0.  1.
         21   -1    0    0  503  502 -0.00000000000E+00 -0.00000000000E+00 -0.31586986402E+02  0.31586986402E+02  0.00000000000E+00 0.  1.
         21    1    1    2  503  501  0.18787740123E+02  0.13134925567E+02 -0.13646338944E+02  0.26678231110E+02  0.00000000000E+00 0.  1.
         21    1    1    2  504  502 -0.18787740123E+02 -0.13134925567E+02  0.74624324679E-01  0.22924027076E+02  0.00000000000E+00 0.  1.
</event>
<event>
 4    1  0.3195479E+006  0.2793200E+02  0.7546771E-02  0.1438464E+00
         21   -1    0    0  503  501  0.00000000000E+00  0.00000000000E+00  0.67767410903E+02  0.67767410903E+02  0.00000000000E+00 0. -1.
         21   -1    0    0  504  502 -0.00000000000E+00 -0.00000000000E+00 -0.32819046286E+02  0.32819046286E+02  0.00000000000E+00 0. -1.
         21    1    1    2  503  502 -0.64214706389E+01  0.27183842768E+02  0.57996979518E+02  0.64372713366E+02  0.00000000000E+00 0. -1.
         21    1    1    2  504  501  0.64214706389E+01 -0.27183842768E+02 -0.23048614902E+02  0.36213743823E+02  0.00000000000E+00 0. -1.
</event>
<event>
 4    1  0.3195479E+006  0.2414173E+02  0.7546771E-02  0.1478638E+00
         21   -1    0    0  502  501  0.00000000000E+00  0.00000000000E+00  0.15965508355E+02  0.15965508355E+02  0.00000000000E+00 0. -1.
         21   -1    0    0  504  502 -0.00000000000E+00 -0.00000000000E+00 -0.10451592211E+03  0.10451592211E+03  0.00000000000E+00 0.  1.
         21    1    1    2  503  501 -0.20146017475E+02  0.13302680767E+02  0.43193618640E+01  0.24525093733E+02  0.00000000000E+00 0. -1.
         21    1    1    2  504  503  0.20146017475E+02 -0.13302680767E+02 -0.92869775623E+02  0.95956336737E+02  0.00000000000E+00 0.  1.
</event>
<event>
 4    1  0.3195479E+006  0.2211426E+02  0.7546771E-02  0.1503930E+00
         21   -1    0    0  503  501  0.00000000000E+00  0.00000000000E+00  0.16509029520E+01  0.16509029520E+01  0.00000000000E+00 0.  1.
         21   -1    0    0  504  502 -0.00000000000E+00 -0.00000000000E+00 -0.85248796052E+03  0.85248796052E+03  0.00000000000E+00 0.  1.
         21    1    1    2  503  502  0.21978275452E+02 -0.24486325301E+01 -0.77039862378E+03  0.77071595281E+03  0.00000000000E+00 0.  1.
         21    1    1    2  504  501 -0.21978275452E+02  0.24486325301E+01 -0.80438433791E+02  0.83422910665E+02  0.00000000000E+00 0.  1.
</event>
<event>
 4    1  0.3195479E+006  0.2147318E+02  0.7546771E-02  0.1512615E+00
         21   -1    0    0  502  501  0.00000000000E+00  0.00000000000E+00  0.10209611262E+03  0.10209611262E+03  0.00000000000E+00 0. -1.
         21   -1    0    0  504  502 -0.00000000000E+00 -0.00000000000E+00 -0.87072233327E+02  0.87072233327E+02  0.00000000000E+00 0.  1.
         21    1    1    2  503  501 -0.18006604157E+02 -0.11698696343E+02  0.99610482455E+02  0.10189870217E+03  0.00000000000E+00 0. -1.
         21    1    1    2  504  503  0.18006604157E+02  0.11698696343E+02 -0.84586603164E+02  0.87269643773E+02  0.00000000000E+00 0.  1.
</event>
<event>
 4    1  0.3195479E+006  0.2073715E+02  0.7546771E-02  0.1523051E+00
         21   -1    0    0  503  501  0.00000000000E+00  0.00000000000E+00  0.54219501429E+03  0.54219501429E+03  0.00000000000E+00 0.  1.
         21   -1    0    0  504  502 -0.00000000000E+00 -0.00000000000E+00 -0.10206160545E+01  0.10206160545E+01  0.00000000000E+00 0.  1.
         21    1    1    2  503  502  0.20467290775E+02 -0.33345990121E+01  0.14235672391E+03  0.14385918944E+03  0.00000000000E+00 0.  1.
         21    1    1    2  504  501 -0.20467290775E+02  0.33345990121E+01  0.39881767432E+03  0.39935644091E+03  0.00000000000E+00 0.  1.
</event>
<event>
 4    1  0.3195479E+006  0.2103714E+02  0.7546771E-02  0.1518735E+00
         21   -1    0    0  503  501  0.00000000000E+00  0.00000000000E+00  0.66049409753E+01  0.66049409753E+01  0.00000000000E+00 0.  1.
         21   -1    0    0  504  502 -0.00000000000E+00 -0.00000000000E+00 -0.72100758423E+02  0.72100758423E+02  0.00000000000E+00 0.  1.
         21    1    1    2  503  502  0.29660001374E+01 -0.20827000032E+02 -0.43210275233E+02  0.48059223598E+02  0.00000000000E+00 0.  1.
         21    1    1    2  504  501 -0.29660001374E+01  0.20827000032E+02 -0.22285542215E+02  0.30646475800E+02  0.00000000000E+00 0.  1.
</event>
<event>
 4    1  0.3195479E+006  0.2088857E+02  0.7546771E-02  0.1520862E+00
         21   -1    0    0  504  501  0.00000000000E+00  0.00000000000E+00  0.33543525701E+02  0.33543525701E+02  0.00000000000E+00 0.  1.
         21   -1    0    0  503  502 -0.00000000000E+00 -0.00000000000E+00 -0.29587469294E+02  0.29587469294E+02  0.00000000000E+00 0.  1.
         21    1    1    2  503  501  0.90099997712E+01  0.18845485533E+02  0.25606994812E+02  0.33046188951E+02  0.00000000000E+00 0.  1.
         21    1    1    2  504  502 -0.90099997712E+01 -0.18845485533E+02 -0.21650938406E+02  0.30084806044E+02  0.00000000000E+00 0.  1.
</event>
<event>
 4    1  0.3195479E+006  0.2807432E+02  0.7546771E-02  0.1437105E+00
         21   -1    0    0  503  501  0.00000000000E+00  0.00000000000E+00  0.20627660102E+03  0.20627660102E+03  0.00000000000E+00 0. -1.
         21   -1    0    0  504  502 -0.00000000000E+00 -0.00000000000E+00 -0.40389215435E+01  0.40389215435E+01  0.00000000000E+00 0. -1.
         21    1    1    2  503  502  0.24306347098E+02  0.14048807789E+02  0.12554937617E+03  0.12864996450E+03  0.00000000000E+00 0. -1.
         21    1    1    2  504  501 -0.24306347098E+02 -0.14048807789E+02  0.76688303304E+02  0.81665558060E+02  0.00000000000E+00 0. -1.
</event>
<event>
 4    1  0.3195479E+006  0.2060166E+02  0.7546771E-02  0.1525029E+00
         21   -1    0    0  504  501  0.00000000000E+00  0.00000000000E+00  0.11148449517E+03  0.11148449517E+03  0.00000000000E+00 0.  1.
         21   -1    0    0  503  502 -0.00000000000E+00 -0.00000000000E+00 -0.18078002378E+03  0.18078002378E+03  0.00000000000E+00 0. -1.
         21    1    1    2  503  501 -0.12209478797E+02 -0.16593880250E+02  0.10993760247E+03  0.11185126137E+03  0.00000000000E+00 0.  1.
         21    1    1    2  504  502  0.12209478797E+02  0.16593880250E+02 -0.17923313107E+03  0.18041325757E+03  0.00000000000E+00 0. -1.
</event>
<event>
 4    1  0.3195479E+006  0.2764800E+02  0.7546771E-02  0.1441205E+00
         21   -1    0    0  504  501  0.00000000000E+00  0.00000000000E+00  0.15134407324E+02  0.15134407324E+02  0.00000000000E+00 0. -1.
         21   -1    0    0  503  502 -0.00000000000E+00 -0.00000000000E+00 -0.51730443644E+02  0.51730443644E+02  0.00000000000E+00 0.  1.
         21    1    1    2  503  501 -0.15755628380E+02  0.22719420804E+02 -0.23436927018E+02  0.36245019732E+02  0.00000000000E+00 0.  1.
         21    1    1    2  504  502  0.15755628380E+02 -0.22719420804E+02 -0.13159109302E+02  0.30619831236E+02  0.00000000000E+00 0. -1.
</event>
<event>
 4    1  0.3195479E+006  0.2459939E+02  0.7546771E-02  0.1473335E+00
         21   -1    0    0  502  501  0.00000000000E+00  0.00000000000E+00  0.34362669905E+01  0.34362669905E+01  0.00000000000E+00 0. -1.
         21   -1    0    0  504  502 -0.00000000000E+00 -0.00000000000E+00 -0.49149077607E+03  0.49149077607E+03  0.00000000000E+00 0.  1.
         21    1    1    2  503  501 -0.24167550961E+02  0.45890614412E+01 -0.45793631629E+02  0.51982561520E+02  0.00000000000E+00 0. -1.
         21    1    1    2  504  503  0.24167550961E+02 -0.45890614412E+01 -0.44226087745E+03  0.44294448154E+03  0.00000000000E+00 0.  1.
</event>
<event>
 4    1  0.3195479E+006  0.2193962E+02  0.7546771E-02  0.1506261E+00
         21   -1    0    0  503  501  0.00000000000E+00  0.00000000000E+00  0.18081448049E+03  0.18081448049E+03  0.00000000000E+00 0.  1.
         21   -1    0    0  504  502 -0.00000000000E+00 -0.00000000000E+00 -0.27435680302E+01  0.27435680302E+01  0.00000000000E+00 0.  1.
         21    1    1    2  503  502 -0.12025482364E+02 -0.18350338318E+02  0.73220583401E+02  0.76436908468E+02  0.00000000000E+00 0.  1.
         21    1    1    2  504  501  0.12025482364E+02  0.18350338318E+02  0.10485032906E+03  0.10712114005E+03  0.00000000000E+00 0.  1.
</event>
<event>
 4    1  0.3195479E+006  0.2039475E+02  0.7546771E-02  0.1528084E+00
         21   -1    0    0  503  501  0.00000000000E+00  0.00000000000E+00  0.49227991797E+01  0.49227991797E+01  0.00000000000E+00 0. -1.
         21   -1    0    0  504  502 -0.00000000000E+00 -0.00000000000E+00 -0.12337350647E+03  0.12337350647E+03  0.00000000000E+00 0. -1.
         21    1    1    2  503  502  0.57665852075E+01 -0.19562522810E+02 -0.23214375075E+02  0.30900696008E+02  0.00000000000E+00 0. -1.
         21    1    1    2  504  501 -0.57665852075E+01  0.19562522810E+02 -0.95236332213E+02  0.97395609640E+02  0.00000000000E+00 0. -1.
</event>
<event>
 4    1  0.3195479E+006  0.2015464E+02  0.7546771E-02  0.1531685E+00
         21   -1    0    0  504  501  0.00000000000E+00  0.00000000000E+00  0.24146507609E+02  0.24146507609E+02  0.00000000000E+00 0.  1.
         21   -1    0    0  501  502 -0.00000000000E+00 -0.00000000000E+00 -0.10166855449E+03  0.10166855449E+03  0.00000000000E+00 0.  1.
         21    1    1    2  503  502  0.11935976326E+02  0.16240131434E+02 -0.96228831931E+02  0.98316822033E+02  0.00000000000E+00 0.  1.
         21    1    1    2  504  503 -0.11935976326E+02 -0.16240131434E+02  0.18706785050E+02  0.27498240067E+02  0.00000000000E+00 0.  1.
</event>
<event>
 4    1  0.3195479E+006  0.4931626E+02  0.7546771E-02  0.1301164E+00
         21   -1    0    0  503  501  0.00000000000E+00  0.00000000000E+00  0.75554258329E+03  0.75554258329E+03  0.00000000000E+00 0.  1.
         21   -1    0    0  501  502 -0.00000000000E+00 -0.00000000000E+00 -0.61976566495E+01  0.61976566495E+01  0.00000000000E+00 0.  1.
         21    1    1    2  503  504  0.25463331288E+02 -0.42234023111E+02  0.63871454005E+03  0.64061560832E+03  0.00000000000E+00 0.  1.
         21    1    1    2  504  502 -0.25463331288E+02  0.42234023111E+02  0.11063038659E+03  0.12112463162E+03  0.00000000000E+00 0.  1.
</event>
<event>
 4    1  0.3195479E+006  0.2682037E+02  0.7546771E-02  0.1449421E+00
         21   -1    0    0  503  501  0.00000000000E+00  0.00000000000E+00  0.21737956433E+03  0.21737956433E+03  0.00000000000E+00 0. -1.
         21   -1    0    0  504  502 -0.00000000000E+00 -0.00000000000E+00 -0.39077297163E+02  0.39077297163E+02  0.00000000000E+00 0. -1.
         21    1    1    2  503  502  0.25128274348E+02 -0.93756107676E+01 -0.33527957951E+02  0.42935488973E+02  0.00000000000E+00 0. -1.
         21    1    1    2  504  501 -0.25128274348E+02  0.93756107676E+01  0.21183022512E+03  0.21352137252E+03  0.00000000000E+00 0. -1.
</event>
<event>
 4    1  0.3195479E+006  0.4523180E+02  0.7546771E-02  0.1320284E+00
         21   -1    0    0  504  501  0.00000000000E+00  0.00000000000E+00  0.11540251611E+02  0.11540251611E+02  0.00000000000E+00 0.  1.
         21   -1    0    0  503  502 -0.00000000000E+00 -0.00000000000E+00 -0.23824362782E+03  0.23824362782E+03  0.00000000000E+00 0. -1.
         21    1    1    2  503  501  0.11733115678E+02  0.43683515079E+02 -0.17652603227E+03  0.18222885491E+03  0.00000000000E+00 0. -1.
         21    1    1    2  504  502 -0.11733115678E+02 -0.43683515079E+02 -0.50177343939E+02  0.67555024521E+02  0.00000000000E+00 0.  1.
</event>
<event>
 4    1  0.3195479E+006  0.2781428E+02  0.7546771E-02  0.1439596E+00
         21   -1    0    0  502  501  0.00000000000E+00  0.00000000000E+00  0.41328662386E+03  0.41328662386E+03  0.00000000000E+00 0. -1.
         21   -1    0    0  503  502 -0.00000000000E+00 -0.00000000000E+00 -0.63309609918E+01  0.63309609918E+01  0.00000000000E+00 0.  1.
         21    1    1    2  503  504  0.23281252357E+02 -0.15218982154E+02  0.27397750059E+02  0.39041911293E+02  0.00000000000E+00 0.  1.
         21    1    1    2  504  501 -0.23281252357E+02  0.15218982154E+02  0.37955791281E+03  0.38057567356E+03  0.00000000000E+00 0. -1.
</event>
<event>
 4    1  0.3195479E+006  0.3088699E+02  0.7546771E-02  0.1412042E+00
         21   -1    0    0  502  501  0.00000000000E+00  0.00000000000E+00  0.13604354667E+03  0.13604354667E+03  0.00000000000E+00 0.  1.
         21   -1    0    0  504  502 -0.00000000000E+00 -0.00000000000E+00 -0.11166983693E+02  0.11166983693E+02  0.00000000000E+00 0.  1.
         21    1    1    2  503  501  0.98640480792E+01 -0.29269556687E+02  0.10733339535E+03  0.11168914070E+03  0.00000000000E+00 0.  1.
         21    1    1    2  504  503 -0.98640480792E+01  0.29269556687E+02  0.17543167626E+02  0.35521389662E+02  0.00000000000E+00 0.  1.
</event>
<event>
 4    1  0.3195479E+006  0.2303004E+02  0.7546771E-02  0.1492121E+00
         21   -1    0    0  502  501  0.00000000000E+00  0.00000000000E+00  0.27321161876E+02  0.27321161876E+02  0.00000000000E+00 0. -1.
         21   -1    0    0  504  502 -0.00000000000E+00 -0.00000000000E+00 -0.53635414069E+02  0.53635414069E+02  0.00000000000E+00 0. -1.
         21    1    1    2  503  501 -0.22724895743E+02 -0.37365643808E+01  0.19176343876E+02  0.29968566271E+02  0.00000000000E+00 0. -1.
         21    1    1    2  504  503  0.22724895743E+02  0.37365643808E+01 -0.45490596069E+02  0.50988009675E+02  0.00000000000E+00 0. -1.
</event>
<event>
 4    1  0.3195479E+006  0.6303839E+02  0.7546771E-02  0.1249844E+00
         21   -1    0    0  504  501  0.00000000000E+00  0.00000000000E+00  0.81010227566E+03  0.81010227566E+03  0.00000000000E+00 0. -1.
         21   -1    0    0  503  502 -0.00000000000E+00 -0.00000000000E+00 -0.67368772158E+01  0.67368772158E+01  0.00000000000E+00 0. -1.
         21    1    1    2  503  501  0.14352381196E+02 -0.61382800401E+02  0.61463550267E+03  0.61785972532E+03  0.00000000000E+00 0. -1.
         21    1    1    2  504  502 -0.14352381196E+02  0.61382800401E+02  0.18872989577E+03  0.19897942755E+03  0.00000000000E+00 0. -1.
</event>
<event>
 4    1  0.3195479E+006  0.5446842E+02  0.7546771E-02  0.1279880E+00
         21   -1    0    0  503  501  0.00000000000E+00  0.00000000000E+00  0.44317124500E+02  0.44317124500E+02  0.00000000000E+00 0. -1.
         21   -1    0    0  504  502 -0.00000000000E+00 -0.00000000000E+00 -0.89517883527E+02  0.89517883527E+02  0.00000000000E+00 0.  1.
         21    1    1    2  503  502  0.38106928470E+02 -0.38918769026E+02 -0.56203424832E+02  0.78266426664E+02  0.00000000000E+00 0.  1.
         21    1    1    2  504  501 -0.38106928470E+02  0.38918769026E+02  0.11002665804E+02  0.55568581363E+02  0.00000000000E+00 0. -1.
</event>
<event>
 4    1  0.3195479E+006  0.3367367E+02  0.7546771E-02  0.1390135E+00
         21   -1    0    0  504  501  0.00000000000E+00  0.00000000000E+00  0.84629005852E+02  0.84629005852E+02  0.00000000000E+00 0.  1.
         21   -1    0    0  503  502 -0.00000000000E+00 -0.00000000000E+00 -0.18372045409E+02  0.18372045409E+02  0.00000000000E+00 0. -1.
         21    1    1    2  503  501 -0.20232582401E+02  0.26917626357E+02  0.63331822391E+01  0.34264051082E+02  0.00000000000E+00 0. -1.
         21    1    1    2  504  502  0.20232582401E+02 -0.26917626357E+02  0.59923778204E+02  0.68737000179E+02  0.00000000000E+00 0.  1.
</event>
<event>
 4    1  0.3195479E+006  0.2742797E+02  0.7546771E-02  0.1443356E+00
         21   -1    0    0  504  501  0.00000000000E+00  0.00000000000E+00  0.75010137238E+00  0.75010137238E+00  0.00000000000E+00 0. -1.
         21   -1    0    0  503  502 -0.00000000000E+00 -0.00000000000E+00 -0.17350408216E+04  0.17350408216E+04  0.00000000000E+00 0. -1.
         21    1    1    2  503  501 -0.15487406840E+02 -0.22636994553E+02 -0.14309171042E+04  0.14311799511E+04  0.00000000000E+00 0. -1.
         21    1    1    2  504  502  0.15487406840E+02  0.22636994553E+02 -0.30337361604E+03  0.30461097190E+03  0.00000000000E+00 0. -1.
</event>
<event>
 4    1  0.3195479E+006  0.2596553E+02  0.7546771E-02  0.1458286E+00
         21   -1    0    0  504  501  0.00000000000E+00  0.00000000000E+00  0.96275623373E+02  0.96275623373E+02  0.00000000000E+00 0.  1.
         21   -1    0    0  503  502 -0.00000000000E+00 -0.00000000000E+00 -0.15305354902E+03  0.15305354902E+03  0.00000000000E+00 0.  1.
         21    1    1    2  503  501 -0.20745185455E+02 -0.15615573040E+02  0.93390243383E+02  0.96932690049E+02  0.00000000000E+00 0.  1.
         21    1    1    2  504  502  0.20745185455E+02  0.15615573040E+02 -0.15016816903E+03  0.15239648234E+03  0.00000000000E+00 0.  1.
</event>
<event>
 4    1  0.3195479E+006  0.2384759E+02  0.7546771E-02  0.1482121E+00
         21   -1    0    0  502  501  0.00000000000E+00  0.00000000000E+00  0.14355085629E+02  0.14355085629E+02  0.00000000000E+00 0.  1.
         21   -1    0    0  504  502 -0.00000000000E+00 -0.00000000000E+00 -0.43998843500E+02  0.43998843500E+02  0.00000000000E+00 0. -1.
         21    1    1    2  503  501 -0.12283896639E+02 -0.20440482101E+02 -0.56143941123E+01  0.24499568290E+02  0.00000000000E+00 0.  1.
         21    1    1    2  504  503  0.12283896639E+02  0.20440482101E+02 -0.24029363758E+02  0.33854360839E+02  0.00000000000E+00 0. -1.
</event>
<event>
 4    1  0.3195479E+006  0.2358694E+02  0.7546771E-02  0.1485257E+00
         21   -1    0    0  504  501  0.00000000000E+00  0.00000000000E+00  0.43942389511E+03  0.43942389511E+03  0.00000000000E+00 0. -1.
         21   -1    0    0  503  502 -0.00000000000E+00 -0.00000000000E+00 -0.28813772762E+01  0.28813772762E+01  0.00000000000E+00 0.  1.
         21    1    1    2  503  501 -0.11350808172E+02 -0.20676140655E+02  0.52687037470E+02  0.57725796278E+02  0.00000000000E+00 0.  1.
         21    1    1    2  504  502  0.11350808172E+02  0.20676140655E+02  0.38385548036E+03  0.38457947610E+03  0.00000000000E+00 0. -1.
</event>
<event>
 4    1  0.3195479E+006  0.2096095E+02  0.7546771E-02  0.1519823E+00
         21   -1    0    0  504  501  0.00000000000E+00  0.00000000000E+00  0.29380260343E+03  0.29380260343E+03  0.00000000000E+00 0.  1.
         21   -1    0    0  503  502 -0.00000000000E+00 -0.00000000000E+00 -0.12427242124E+02  0.12427242124E+02  0.00000000000E+00 0.  1.
         21    1    1    2  503  501  0.20751915418E+02  0.29528585485E+01 -0.29195177881E+01  0.21163292542E+02  0.00000000000E+00 0.  1.
         21    1    1    2  504  502 -0.20751915418E+02 -0.29528585485E+01  0.28429487910E+03  0.28506655301E+03  0.00000000000E+00 0.  1.
</event>
<event>
 4    1  0.3195479E+006  0.2847802E+02  0.7546771E-02  0.1433301E+00
         21   -1    0    0  504  501  0.00000000000E+00  0.00000000000E+00  0.17839760024E+02  0.17839760024E+02  0.00000000000E+00 0.  1.
         21   -1    0    0  503  502 -0.00000000000E+00 -0.00000000000E+00 -0.10304430850E+03  0.10304430850E+03  0.00000000000E+00 0. -1.
         21    1    1    2  503  501  0.23629602581E+02  0.15894632758E+02 -0.87785655515E+02  0.92289321066E+02  0.00000000000E+00 0. -1.
         21    1    1    2  504  502 -0.23629602581E+02 -0.15894632758E+02  0.25811070389E+01  0.28594747459E+02  0.00000000000E+00 0.  1.
</event>
<event>
 4    1  0.3195479E+006  0.2857534E+02  0.7546771E-02  0.1432395E+00
         21   -1    0    0  504  501  0.00000000000E+00  0.00000000000E+00  0.50312707744E+03  0.50312707744E+03  0.00000000000E+00 0.  1.
         21   -1    0    0  501  502 -0.00000000000E+00 -0.00000000000E+00 -0.42860700832E+02  0.42860700832E+02  0.00000000000E+00 0.  1.
         21    1    1    2  503  502 -0.49561148472E+01  0.28142261585E+02 -0.37642274161E+02  0.47259821895E+02  0.00000000000E+00 0.  1.
         21    1    1    2  504  503  0.49561148472E+01 -0.28142261585E+02  0.49790865077E+03  0.49872795638E+03  0.00000000000E+00 0.  1.
</event>
<event>
 4    1  0.3195479E+006  0.2300913E+02  0.7546771E-02  0.1492384E+00
         21   -1    0    0  503  501  0.00000000000E+00  0.00000000000E+00  0.40284812120E+03  0.40284812120E+03  0.00000000000E+00 0. -1.
         21   -1    0    0  501  502 -0.00000000000E+00 -0.00000000000E+00 -0.37179134509E+01  0.37179134509E+01  0.00000000000E+00 0. -1.
         21    1    1    2  503  504  0.22303250435E+02 -0.56555442890E+01  0.36301831019E+03  0.36374677138E+03  0.00000000000E+00 0. -1.
         21    1    1    2  504  502 -0.22303250435E+02  0.56555442890E+01  0.36111897559E+02  0.42819263264E+02  0.00000000000E+00 0. -1.
</event>
<event>
 4    1  0.3195479E+006  0.4276296E+02  0.7546771E-02  0.1333014E+00
         21   -1    0    0  504  501  0.00000000000E+00  0.00000000000E+00  0.32861466043E+03  0.32861466043E+03  0.00000000000E+00 0.  1.
         21   -1    0    0  503  502 -0.00000000000E+00 -0.00000000000E+00 -0.58018524382E+01  0.58018524382E+01  0.00000000000E+00 0.  1.
         21    1    1    2  503  501 -0.35176856174E+02 -0.24315828519E+02  0.19520573621E+03  0.19983480721E+03  0.00000000000E+00 0.  1.
         21    1    1    2  504  502  0.35176856174E+02  0.24315828519E+02  0.12760707179E+03  0.13458170566E+03  0.00000000000E+00 0.  1.
</event>
<event>
 4    1  0.3195479E+006  0.2291386E+02  0.7546771E-02  0.1493583E+00
         21   -1    0    0  502  501  0.00000000000E+00  0.00000000000E+00  0.44559414997E+01  0.44559414997E+01  0.00000000000E+00 0.  1.
         21   -1    0    0  504  502 -0.00000000000E+00 -0.00000000000E+00 -0.23058956118E+03  0.23058956118E+03  0.00000000000E+00 0.  1.
         21    1    1    2  503  501  0.17998651432E+02 -0.14180739513E+02 -0.30884511712E+02  0.38456441466E+02  0.00000000000E+00 0.  1.
         21    1    1    2  504  503 -0.17998651432E+02  0.14180739513E+02 -0.19524910797E+03  0.19658906121E+03  0.00000000000E+00 0.  1.
</event>
<event>
 4    1  0.3195479E+006  0.2225585E+02  0.7546771E-02  0.1502060E+00
         21   -1    0    0  504  501  0.00000000000E+00  0.00000000000E+00  0.24784397088E+02  0.24784397088E+02  0.00000000000E+00 0.  1.
         21   -1    0    0  501  502 -0.00000000000E+00 -0.00000000000E+00 -0.12494100053E+03  0.12494100053E+03  0.00000000000E+00 0. -1.
         21    1    1    2  503  502  0.15836963507E+02  0.15636920363E+02 -0.11869283005E+03  0.12076137875E+03  0.00000000000E+00 0. -1.
         21    1    1    2  504  503 -0.15836963507E+02 -0.15636920363E+02  0.18536226616E+02  0.28964018863E+02  0.00000000000E+00 0.  1.
</event>
<event>
 4    1  0.3195479E+006  0.2154890E+02  0.7546771E-02  0.1511570E+00
         21   -1    0    0  504  501  0.00000000000E+00  0.00000000000E+00  0.96463119566E+02  0.96463119566E+02  0.00000000000E+00 0.  1.
         21   -1    0    0  503  502 -0.00000000000E+00 -0.00000000000E+00 -0.52556320481E+01  0.52556320481E+01  0.00000000000E+00 0.  1.
         21    1    1    2  503  501 -0.12544244869E+02 -0.17521327910E+02  0.60350036319E+02  0.64081837480E+02  0.00000000000E+00 0.  1.
         21    1    1    2  504  502  0.12544244869E+02  0.17521327910E+02  0.30857451199E+02  0.37636914134E+02  0.00000000000E+00 0.  1.
</event>
<event>
 4    1  0.3195479E+006  0.2170943E+02  0.7546771E-02  0.1509372E+00
         21   -1    0    0  503  501  0.00000000000E+00  0.00000000000E+00  0.30286656402E+03  0.30286656402E+03  0.00000000000E+00 0.  1.
         21   -1    0    0  504  502 -0.00000000000E+00 -0.00000000000E+00 -0.19293536160E+02  0.19293536160E+02  0.00000000000E+00 0. -1.
         21    1    1    2  503  502 -0.21677259020E+02 -0.11813648220E+01 -0.12660998399E+02  0.25131654580E+02  0.00000000000E+00 0. -1.
         21    1    1    2  504  501  0.21677259020E+02  0.11813648220E+01  0.29623402626E+03  0.29702844560E+03  0.00000000000E+00 0.  1.
</event>
<event>
 4    1  0.3195479E+006  0.2481050E+02  0.7546771E-02  0.1470935E+00
         21   -1    0    0  502  501  0.00000000000E+00  0.00000000000E+00  0.22116189894E+03  0.22116189894E+03  0.00000000000E+00 0. -1.
         21   -1    0    0  503  502 -0.00000000000E+00 -0.00000000000E+00 -0.32607984737E+01  0.32607984737E+01  0.00000000000E+00 0. -1.
         21    1    1    2  503  504  0.24642766942E+02  0.28800556493E+01  0.66010829672E+02  0.70519432195E+02  0.00000000000E+00 0. -1.
         21    1    1    2  504  501 -0.24642766942E+02 -0.28800556493E+01  0.15189027079E+03  0.15390326522E+03  0.00000000000E+00 0. -1.
</event>
<event>
 4    1  0.3195479E+006  0.2142929E+02  0.7546771E-02  0.1513223E+00
         21   -1    0    0  503  501  0.00000000000E+00  0.00000000000E+00  0.24532436397E+00  0.24532436397E+00  0.00000000000E+00 0. -1.
         21   -1    0    0  501  502 -0.00000000000E+00 -0.00000000000E+00 -0.22453264334E+04  0.22453264334E+04  0.00000000000E+00 0. -1.
         21    1    1    2  503  504 -0.51734488620E+00  0.21423047215E+02 -0.66463187527E+03  0.66497725091E+03  0.00000000000E+00 0. -1.
         21    1    1    2  504  502  0.51734488620E+00 -0.21423047215E+02 -0.15804492338E+04  0.15805945069E+04  0.00000000000E+00 0. -1.
</event>
<event>
 4    1  0.3195479E+006  0.2703938E+02  0.7546771E-02  0.1447213E+00
         21   -1    0    0  503  501  0.00000000000E+00  0.00000000000E+00  0.19406180613E+03  0.19406180613E+03  0.00000000000E+00 0. -1.
         21   -1    0    0  504  502 -0.00000000000E+00 -0.00000000000E+00 -0.41038253600E+02  0.41038253600E+02  0.00000000000E+00 0.  1.
         21    1    1    2  503  502  0.60812224034E+00 -0.27032540118E+02  0.18853611523E+03  0.19046520623E+03  0.00000000000E+00 0. -1.
         21    1    1    2  504  501 -0.60812224034E+00  0.27032540118E+02 -0.35512562698E+02  0.44634853503E+02  0.00000000000E+00 0.  1.
</event>
<event>
 4    1  0.3195479E+006  0.5822310E+02  0.7546771E-02  0.1265992E+00
         21   -1    0    0  504  501  0.00000000000E+00  0.00000000000E+00  0.10254458225E+02  0.10254458225E+02  0.00000000000E+00 0. -1.
         21   -1    0    0  503  502 -0.00000000000E+00 -0.00000000000E+00 -0.34852898347E+03  0.34852898347E+03  0.00000000000E+00 0. -1.
         21    1    1    2  503  501  0.30226786240E+02  0.49762136904E+02 -0.20984631450E+03  0.21777374631E+03  0.00000000000E+00 0. -1.
         21    1    1    2  504  502 -0.30226786240E+02 -0.49762136904E+02 -0.12842821074E+03  0.14100969538E+03  0.00000000000E+00 0. -1.
</event>
<event>
 4    1  0.3195479E+006  0.1098144E+03  0.7546771E-02  0.1147808E+00
         21   -1    0    0  504  501  0.00000000000E+00  0.00000000000E+00  0.44000561207E+03  0.44000561207E+03  0.00000000000E+00 0.  1.
         21   -1    0    0  503  502 -0.00000000000E+00 -0.00000000000E+00 -0.76603393029E+02  0.76603393029E+02  0.00000000000E+00 0.  1.
         21    1    1    2  503  501  0.52528888782E+02  0.96436098595E+02  0.38870327599E+03  0.40391761788E+03  0.00000000000E+00 0.  1.
         21    1    1    2  504  502 -0.52528888782E+02 -0.96436098595E+02 -0.25301056955E+02  0.11269138721E+03  0.00000000000E+00 0.  1.
</event>
<event>
 4    1  0.3195479E+006  0.2432102E+02  0.7546771E-02  0.1476544E+00
         21   -1    0    0  503  501  0.00000000000E+00  0.00000000000E+00  0.29524379266E+03  0.29524379266E+03  0.00000000000E+00 0. -1.
         21   -1    0    0  501  502 -0.00000000000E+00 -0.00000000000E+00 -0.29165067330E+02  0.29165067330E+02  0.00000000000E+00 0.  1.
         21    1    1    2  503  504 -0.33606655190E+01  0.24087715655E+02  0.28957343063E+03  0.29059298657E+03  0.00000000000E+00 0. -1.
         21    1    1    2  504  502  0.33606655190E+01 -0.24087715655E+02 -0.23494705297E+02  0.33815873421E+02  0.00000000000E+00 0.  1.
</event>
<event>
 4    1  0.3195479E+006  0.2102324E+02  0.7546771E-02  0.1518933E+00
         21   -1    0    0  502  501  0.00000000000E+00  0.00000000000E+00  0.48182770710E+02  0.48182770710E+02  0.00000000000E+00 0. -1.
         21   -1    0    0  503  502 -0.00000000000E+00 -0.00000000000E+00 -0.11928613721E+02  0.11928613721E+02  0.00000000000E+00 0. -1.
         21    1    1    2  503  504 -0.20618673413E+02  0.41045178327E+01  0.36810946728E+01  0.21343083609E+02  0.00000000000E+00 0. -1.
         21    1    1    2  504  501  0.20618673413E+02 -0.41045178327E+01  0.32573062316E+02  0.38768300822E+02  0.00000000000E+00 0. -1.
</event>
<event>
 4    1  0.3195479E+006  0.3973350E+02  0.7546771E-02  0.1350055E+00
         21   -1    0    0  502  501  0.00000000000E+00  0.00000000000E+00  0.61416290819E+02  0.61416290819E+02  0.00000000000E+00 0. -1.
         21   -1    0    0  504  502 -0.00000000000E+00 -0.00000000000E+00 -0.75788735696E+02  0.75788735696E+02  0.00000000000E+00 0. -1.
         21    1    1    2  503  501 -0.39604676527E+02 -0.31969824592E+01  0.48581492742E+02  0.62760756343E+02  0.00000000000E+00 0. -1.
         21    1    1    2  504  503  0.39604676527E+02  0.31969824592E+01 -0.62953937619E+02  0.74444270172E+02  0.00000000000E+00 0. -1.
</event>
<event>
 4    1  0.3195479E+006  0.2689866E+02  0.7546771E-02  0.1448629E+00
         21   -1    0    0  504  501  0.00000000000E+00  0.00000000000E+00  0.18747101052E+03  0.18747101052E+03  0.00000000000E+00 0. -1.
         21   -1    0    0  501  502 -0.00000000000E+00 -0.00000000000E+00 -0.75566517336E+01  0.75566517336E+01  0.00000000000E+00 0. -1.
         21    1    1    2  503  502 -0.26230236036E+02 -0.59592386441E+01  0.21748882216E+02  0.34591208209E+02  0.00000000000E+00 0. -1.
         21    1    1    2  504  503  0.26230236036E+02  0.59592386441E+01  0.15816547657E+03  0.16043645405E+03  0.00000000000E+00 0. -1.
</event>
<event>
 4    1  0.3195479E+006  0.2603964E+02  0.7546771E-02  0.1457501E+00
         21   -1    0    0  504  501  0.00000000000E+00  0.00000000000E+00  0.59167701471E+02  0.59167701471E+02  0.00000000000E+00 0. -1.
         21   -1    0    0  501  502 -0.00000000000E+00 -0.00000000000E+00 -0.53469236664E+02  0.53469236664E+02  0.00000000000E+00 0. -1.
         21    1    1    2  503  502 -0.11376175657E+02 -0.23423182010E+02 -0.47070374758E+02  0.53792964297E+02  0.00000000000E+00 0. -1.
         21    1    1    2  504  503  0.11376175657E+02  0.23423182010E+02  0.52768839564E+02  0.58843973838E+02  0.00000000000E+00 0. -1.
</event>
<event>
 4    1  0.3195479E+006  0.2479564E+02  0.7546771E-02  0.1471103E+00
         21   -1    0    0  504  501  0.00000000000E+00  0.00000000000E+00  0.84695738246E+01  0.84695738246E+01  0.00000000000E+00 0. -1.
         21   -1    0    0  503  502 -0.00000000000E+00 -0.00000000000E+00 -0.72595312787E+02  0.72595312787E+02  0.00000000000E+00 0. -1.
         21    1    1    2  503  501  0.19302767512E+00 -0.24794886454E+02 -0.31790779502E+02  0.40317208674E+02  0.00000000000E+00 0. -1.
         21    1    1    2  504  502 -0.19302767512E+00  0.24794886454E+02 -0.32334959460E+02  0.40747677937E+02  0.00000000000E+00 0. -1.
</event>
<event>
 4    1  0.3195479E+006  0.2008025E+02  0.7546771E-02  0.1532813E+00
         21   -1    0    0  504  501  0.00000000000E+00  0.00000000000E+00  0.32396629061E+03  0.32396629061E+03  0.00000000000E+00 0. -1.
         21   -1    0    0  503  502 -0.00000000000E+00 -0.00000000000E+00 -0.29230340766E+01  0.29230340766E+01  0.00000000000E+00 0.  1.
         21    1    1    2  503  501 -0.83915719365E+01  0.18242745684E+02  0.36669683466E+02  0.41807677945E+02  0.00000000000E+00 0.  1.
         21    1    1    2  504  502  0.83915719365E+01 -0.18242745684E+02  0.28437357307E+03  0.28508164674E+03  0.00000000000E+00 0. -1.
</event>
<event>
 4    1  0.3195479E+006  0.2185000E+02  0.7546771E-02  0.1507467E+00
         21   -1    0    0  503  501  0.00000000000E+00  0.00000000000E+00  0.19120746322E+03  0.19120746322E+03  0.00000000000E+00 0.  1.
         21   -1    0    0  501  502 -0.00000000000E+00 -0.00000000000E+00 -0.17771496273E+02  0.17771496273E+02  0.00000000000E+00 0. -1.
         21    1    1    2  503  504  0.59575173556E+00 -0.21841874266E+02  0.18358941139E+03  0.18488508422E+03  0.00000000000E+00 0.  1.
         21    1    1    2  504  502 -0.59575173556E+00  0.21841874266E+02 -0.10153444446E+02  0.24093875274E+02  0.00000000000E+00 0. -1.
</event>
<event>
 4    1  0.3195479E+006  0.2360426E+02  0.7546771E-02  0.1485047E+00
         21   -1    0    0  504  501  0.00000000000E+00  0.00000000000E+00  0.58060478904E+01  0.58060478904E+01  0.00000000000E+00 0.  1.
         21   -1    0    0  501  502 -0.00000000000E+00 -0.00000000000E+00 -0.13477434155E+03  0.13477434155E+03  0.00000000000E+00 0.  1.
         21    1    1    2  503  502  0.19506662450E+02 -0.13291020748E+02 -0.10220443102E+03  0.10489474169E+03  0.00000000000E+00 0.  1.
         21    1    1    2  504  503 -0.19506662450E+02  0.13291020748E+02 -0.26763862635E+02  0.35685647754E+02  0.00000000000E+00 0.  1.
</event>
<event>
 4    1  0.3195479E+006  0.2240858E+02  0.7546771E-02  0.1500061E+00
         21   -1    0    0  503  501  0.00000000000E+00  0.00000000000E+00  0.25382095012E+01  0.25382095012E+01  0.00000000000E+00 0.  1.
         21   -1    0    0  504  502 -0.00000000000E+00 -0.00000000000E+00 -0.20285756967E+03  0.20285756967E+03  0.00000000000E+00 0.  1.
         21    1    1    2  503  502  0.16706822573E+02  0.14934070087E+02 -0.83998681796E+02  0.86936315274E+02  0.00000000000E+00 0.  1.
         21    1    1    2  504  501 -0.16706822573E+02 -0.14934070087E+02 -0.11632067837E+03  0.11845946390E+03  0.00000000000E+00 0.  1.
</event>
<event>
 4    1  0.3195479E+006  0.2584943E+02  0.7546771E-02  0.1459521E+00
         21   -1    0    0  504  501  0.00000000000E+00  0.00000000000E+00  0.15632970850E+02  0.15632970850E+02  0.00000000000E+00 0.  1.
         21   -1    0    0  503  502 -0.00000000000E+00 -0.00000000000E+00 -0.70590894562E+02  0.70590894562E+02  0.00000000000E+00 0.  1.
         21    1    1    2  503  501 -0.25265852898E+02  0.54616794893E+01 -0.54557344967E+02  0.60371327261E+02  0.00000000000E+00 0.  1.
         21    1    1    2  504  502  0.25265852898E+02 -0.54616794893E+01 -0.40057874564E+00  0.25852538150E+02  0.00000000000E+00 0.  1.
</event>
<event>
 4    1  0.3195479E+006  0.2344032E+02  0.7546771E-02  0.1487042E+00
         21   -1    0    0  502  501  0.00000000000E+00  0.00000000000E+00  0.18351332345E+03  0.18351332345E+03  0.00000000000E+00 0.  1.
         21   -1    0    0  504  502 -0.00000000000E+00 -0.00000000000E+00 -0.64623131307E+01  0.64623131307E+01  0.00000000000E+00 0.  1.
         21    1    1    2  503  501  0.18157685051E+02  0.14823875806E+02  0.15811275549E+03  0.15984083417E+03  0.00000000000E+00 0.  1.
         21    1    1    2  504  503 -0.18157685051E+02 -0.14823875806E+02  0.18938254834E+02  0.30134802413E+02  0.00000000000E+00 0.  1.
</event>
<event>
 4    1  0.3195479E+006  0.2133785E+02  0.7546771E-02  0.1514496E+00
         21   -1    0    0  504  501  0.00000000000E+00  0.00000000000E+00  0.12009897386E+02  0.12009897386E+02  0.00000000000E+00 0.  1.
         21   -1    0    0  503  502 -0.00000000000E+00 -0.00000000000E+00 -0.41489244699E+02  0.41489244699E+02  0.00000000000E+00 0.  1.
         21    1    1    2  503  501 -0.13921073698E+01 -0.21292386628E+02 -0.68836658744E+01  0.22420716918E+02  0.00000000000E+00 0.  1.
         21    1    1    2  504  502  0.13921073698E+01  0.21292386628E+02 -0.22595681439E+02  0.31078425168E+02  0.00000000000E+00 0.  1.
</event>
<event>
 4    1  0.3195479E+006  0.3812451E+02  0.7546771E-02  0.1359841E+00
         21   -1    0    0  504  501  0.00000000000E+00  0.00000000000E+00  0.61719333941E+03  0.61719333941E+03  0.00000000000E+00 0. -1.
         21   -1    0    0  503  502 -0.00000000000E+00 -0.00000000000E+00 -0.69197860578E+03  0.69197860578E+03  0.00000000000E+00 0.  1.
         21    1    1    2  503  501 -0.19221994175E+02  0.32924052959E+02 -0.69086379454E+03  0.69191492319E+03  0.00000000000E+00 0.  1.
         21    1    1    2  504  502  0.19221994175E+02 -0.32924052959E+02  0.61607852818E+03  0.61725702199E+03  0.00000000000E+00 0. -1.
</event>
<event>
 4    1  0.3195479E+006  0.2561044E+02  0.7546771E-02  0.1462089E+00
         21   -1    0    0  502  501  0.00000000000E+00  0.00000000000E+00  0.17372453823E+03  0.17372453823E+03  0.00000000000E+00 0.  1.
         21   -1    0    0  504  502 -0.00000000000E+00 -0.00000000000E+00 -0.12511130491E+02  0.12511130491E+02  0.00000000000E+00 0. -1.
         21    1    1    2  503  501  0.62266089560E+01 -0.24841985137E+02  0.15841609550E+03  0.16047290799E+03  0.00000000000E+00 0.  1.
         21    1    1    2  504  503 -0.62266089560E+01  0.24841985137E+02  0.27973122345E+01  0.25762760729E+02  0.00000000000E+00 0. -1.
</event>
<event>
 4    1  0.3195479E+006  0.2063967E+02  0.7546771E-02  0.1524472E+00
         21   -1    0    0  504  501  0.00000000000E+00  0.00000000000E+00  0.36484866726E+03  0.36484866726E+03  0.00000000000E+00 0. -1.
         21   -1    0    0  503  502 -0.00000000000E+00 -0.00000000000E+00 -0.52251296813E+02  0.52251296813E+02  0.00000000000E+00 0. -1.
         21    1    1    2  503  501  0.13392899950E+02 -0.15704336396E+02 -0.49908025673E+02  0.54007471495E+02  0.00000000000E+00 0. -1.
         21    1    1    2  504  502 -0.13392899950E+02  0.15704336396E+02  0.36250539612E+03  0.36309249258E+03  0.00000000000E+00 0. -1.
</event>
<event>
 4    1  0.3195479E+006  0.4826860E+02  0.7546771E-02  0.1305859E+00
         21   -1    0    0  502  501  0.00000000000E+00  0.00000000000E+00  0.13540218637E+02  0.13540218637E+02  0.00000000000E+00 0.  1.
         21   -1    0    0  503  502 -0.00000000000E+00 -0.00000000000E+00 -0.23693162683E+03  0.23693162683E+03  0.00000000000E+00 0.  1.
         21    1    1    2  503  504 -0.40907022930E+02 -0.25621725013E+02 -0.17722165377E+03  0.18367735811E+03  0.00000000000E+00 0.  1.
         21    1    1    2  504  501  0.40907022930E+02  0.25621725013E+02 -0.46169754423E+02  0.66794487356E+02  0.00000000000E+00 0.  1.
</event>
<event>
 4    1  0.3195479E+006  0.5185490E+02  0.7546771E-02  0.1290325E+00
         21   -1    0    0  502  501  0.00000000000E+00  0.00000000000E+00  0.16294001736E+03  0.16294001736E+03  0.00000000000E+00 0.  1.
         21   -1    0    0  503  502 -0.00000000000E+00 -0.00000000000E+00 -0.27377587069E+03  0.27377587069E+03  0.00000000000E+00 0.  1.
         21    1    1    2  503  504 -0.26427889819E+02  0.44614985264E+02 -0.26709253501E+03  0.27207968048E+03  0.00000000000E+00 0.  1.
         21    1    1    2  504  501  0.26427889819E+02 -0.44614985264E+02  0.15625668169E+03  0.16463620757E+03  0.00000000000E+00 0.  1.
</event>
<event>
 4    1  0.3195479E+006  0.3580647E+02  0.7546771E-02  0.1374980E+00
         21   -1    0    0  503  501  0.00000000000E+00  0.00000000000E+00  0.25790695825E+02  0.25790695825E+02  0.00000000000E+00 0.  1.
         21   -1    0    0  504  502 -0.00000000000E+00 -0.00000000000E+00 -0.22851098733E+03  0.22851098733E+03  0.00000000000E+00 0.  1.
         21    1    1    2  503  502  0.24790587060E+02  0.25836607607E+02  0.11112883226E+02  0.37491327971E+02  0.00000000000E+00 0.  1.
         21    1    1    2  504  501 -0.24790587060E+02 -0.25836607607E+02 -0.21383317473E+03  0.21681035519E+03  0.00000000000E+00 0.  1.
</event>
<event>
 4    1  0.3195479E+006  0.4048904E+02  0.7546771E-02  0.1345644E+00
         21   -1    0    0  502  501  0.00000000000E+00  0.00000000000E+00  0.23927980559E+02  0.23927980559E+02  0.00000000000E+00 0. -1.
         21   -1    0    0  503  502 -0.00000000000E+00 -0.00000000000E+00 -0.84802622717E+02  0.84802622717E+02  0.00000000000E+00 0. -1.
         21    1    1    2  503  504 -0.81963273375E+01 -0.39650755399E+02 -0.54264977749E+02  0.67705612733E+02  0.00000000000E+00 0. -1.
         21    1    1    2  504  501  0.81963273375E+01  0.39650755399E+02 -0.66096644095E+01  0.41024990544E+02  0.00000000000E+00 0. -1.
</event>
<event>
 4    1  0.3195479E+006  0.7025298E+02  0.7546771E-02  0.1228485E+00
         21   -1    0    0  503  501  0.00000000000E+00  0.00000000000E+00  0.90790316078E+03  0.90790316078E+03  0.00000000000E+00 0. -1.
         21   -1    0    0  501  502 -0.00000000000E+00 -0.00000000000E+00 -0.14108885024E+02  0.14108885024E+02  0.00000000000E+00 0. -1.
         21    1    1    2  503  504  0.63073246957E+02 -0.30939409800E+02  0.80833923881E+03  0.81138634852E+03  0.00000000000E+00 0. -1.
         21    1    1    2  504  502 -0.63073246957E+02  0.30939409800E+02  0.85455036945E+02  0.11062569729E+03  0.00000000000E+00 0. -1.
</event>
<event>
 4    1  0.3195479E+006  0.2177615E+02  0.7546771E-02  0.1508466E+00
         21   -1    0    0  504  501  0.00000000000E+00  0.00000000000E+00  0.11047828450E+03  0.11047828450E+03  0.00000000000E+00 0. -1.
         21   -1    0    0  503  502 -0.00000000000E+00 -0.00000000000E+00 -0.60179066787E+01  0.60179066787E+01  0.00000000000E+00 0.  1.
         21    1    1    2  503  501  0.18299390408E+02  0.11803946916E+02  0.21038728540E+02  0.30279183454E+02  0.00000000000E+00 0.  1.
         21    1    1    2  504  502 -0.18299390408E+02 -0.11803946916E+02  0.83421649283E+02  0.86217007726E+02  0.00000000000E+00 0. -1.
</event>
<event>
 4    1  0.3195479E+006  0.2006310E+02  0.7546771E-02  0.1533073E+00
         21   -1    0    0  502  501  0.00000000000E+00  0.00000000000E+00  0.40261896407E+02  0.40261896407E+02  0.00000000000E+00 0. -1.
         21   -1    0    0  504  502 -0.00000000000E+00 -0.00000000000E+00 -0.16062618319E+03  0.16062618319E+03  0.00000000000E+00 0. -1.
         21    1    1    2  503  501 -0.19426779895E+02 -0.50127981977E+01  0.37085747084E+02  0.42164920961E+02  0.00000000000E+00 0. -1.
         21    1    1    2  504  503  0.19426779895E+02  0.50127981977E+01 -0.15745003387E+03  0.15872315864E+03  0.00000000000E+00 0. -1.
</event>
<event>
 4    1  0.3195479E+006  0.2163370E+02  0.7546771E-02  0.1510406E+00
         21   -1    0    0  503  501  0.00000000000E+00  0.00000000000E+00  0.41747842052E+02  0.41747842052E+02  0.00000000000E+00 0.  1.
         21   -1    0    0  501  502 -0.00000000000E+00 -0.00000000000E+00 -0.14774067565E+02  0.14774067565E+02  0.00000000000E+00 0.  1.
         21    1    1    2  503  504  0.16623713327E+02  0.13844463618E+02  0.27366429769E+02  0.34884645562E+02  0.00000000000E+00 0.  1.
         21    1    1    2  504  502 -0.16623713327E+02 -0.13844463618E+02 -0.39265528177E+00  0.21637264056E+02  0.00000000000E+00 0.  1.
</event>
<event>
 4    1  0.3195479E+006  0.2858306E+02  0.7546771E-02  0.1432323E+00
         21   -1    0    0  503  501  0.00000000000E+00  0.00000000000E+00  0.50633369698E+03  0.50633369698E+03  0.00000000000E+00 0. -1.
         21   -1    0    0  504  502 -0.00000000000E+00 -0.00000000000E+00 -0.26742423495E+03  0.26742423495E+03  0.00000000000E+00 0. -1.
         21    1    1    2  503  502 -0.18319356758E+02 -0.21940653375E+02 -0.26625532397E+03  0.26778515389E+03  0.00000000000E+00 0. -1.
         21    1    1    2  504  501  0.18319356758E+02  0.21940653375E+02  0.50516478600E+03  0.50597277804E+03  0.00000000000E+00 0. -1.
</event>
<event>
 4    1  0.3195479E+006  0.2350962E+02  0.7546771E-02  0.1486196E+00
         21   -1    0    0  504  501  0.00000000000E+00  0.00000000000E+00  0.24803769567E+02  0.24803769567E+02  0.00000000000E+00 0. -1.
         21   -1    0    0  503  502 -0.00000000000E+00 -0.00000000000E+00 -0.33416649305E+02  0.33416649305E+02  0.00000000000E+00 0.  1.
         21    1    1    2  503  501 -0.75426035796E+01 -0.22266817033E+02 -0.21109289976E+02  0.31595951209E+02  0.00000000000E+00 0.  1.
         21    1    1    2  504  502  0.75426035796E+01  0.22266817033E+02  0.12496410237E+02  0.26624467663E+02  0.00000000000E+00 0. -1.
</event>
<event>
 4    1  0.3195479E+006  0.3119125E+02  0.7546771E-02  0.1409519E+00
         21   -1    0    0  504  501  0.00000000000E+00  0.00000000000E+00  0.66118941298E+02  0.66118941298E+02  0.00000000000E+00 0. -1.
         21   -1    0    0  501  502 -0.00000000000E+00 -0.00000000000E+00 -0.14990124695E+02  0.14990124695E+02  0.00000000000E+00 0. -1.
         21    1    1    2  503  502 -0.22677469238E+02 -0.21415565342E+02  0.31065539737E+02  0.44022287641E+02  0.00000000000E+00 0. -1.
         21    1    1    2  504  503  0.22677469238E+02  0.21415565342E+02  0.20063276867E+02  0.37086778353E+02  0.00000000000E+00 0. -1.
</event>
<event>
 4    1  0.3195479E+006  0.2005538E+02  0.7546771E-02  0.1533191E+00
         21   -1    0    0  502  501  0.00000000000E+00  0.00000000000E+00  0.86943111967E+02  0.86943111967E+02  0.00000000000E+00 0.  1.
         21   -1    0    0  504  502 -0.00000000000E+00 -0.00000000000E+00 -0.10458627282E+02  0.10458627282E+02  0.00000000000E+00 0.  1.
         21    1    1    2  503  501  0.28071162193E+01 -0.19857956912E+02  0.74610552956E+02  0.77258999259E+02  0.00000000000E+00 0.  1.
         21    1    1    2  504  503 -0.28071162193E+01  0.19857956912E+02  0.18739317293E+01  0.20142739990E+02  0.00000000000E+00 0.  1.
</event>
<event>
 4    1  0.3195479E+006  0.2739825E+02  0.7546771E-02  0.1443648E+00
         21   -1    0    0  504  501  0.00000000000E+00  0.00000000000E+00  0.24077280554E+03  0.24077280554E+03  0.00000000000E+00 0. -1.
         21   -1    0    0  503  502 -0.00000000000E+00 -0.00000000000E+00 -0.41669044133E+01  0.41669044133E+01  0.00000000000E+00 0. -1.
         21    1    1    2  503  501 -0.25099936892E+02 -0.10984401114E+02  0.56849414005E+02  0.63107208562E+02  0.00000000000E+00 0. -1.
         21    1    1    2  504  502  0.25099936892E+02  0.10984401114E+02  0.17975648712E+03  0.18183250139E+03  0.00000000000E+00 0. -1.
</event>
<event>
 4    1  0.3195479E+006  0.2339136E+02  0.7546771E-02  0.1487641E+00
         21   -1    0    0  503  501  0.00000000000E+00  0.00000000000E+00  0.19273204813E+03  0.19273204813E+03  0.00000000000E+00 0. -1.
         21   -1    0    0  504  502 -0.00000000000E+00 -0.00000000000E+00 -0.30323429615E+01  0.30323429615E+01  0.00000000000E+00 0. -1.
         21    1    1    2  503  502  0.41350568137E+01  0.23022963724E+02  0.70130263270E+02  0.73928407124E+02  0.00000000000E+00 0. -1.
         21    1    1    2  504  501 -0.41350568137E+01 -0.23022963724E+02  0.11956944189E+03  0.12183598396E+03  0.00000000000E+00 0. -1.
</event>
<event>
 4    1  0.3195479E+006  0.2175209E+02  0.7546771E-02  0.1508792E+00
         21   -1    0    0  503  501  0.00000000000E+00  0.00000000000E+00  0.35870307470E+03  0.35870307470E+03  0.00000000000E+00 0. -1.
         21   -1    0    0  504  502 -0.00000000000E+00 -0.00000000000E+00 -0.17555131643E+01  0.17555131643E+01  0.00000000000E+00 0. -1.
         21    1    1    2  503  502  0.67425770664E+01  0.20680693770E+02  0.88609189171E+02  0.91240023267E+02  0.00000000000E+00 0. -1.
         21    1    1    2  504  501 -0.67425770664E+01 -0.20680693770E+02  0.26833837237E+03  0.26921856460E+03  0.00000000000E+00 0. -1.
</event>
<event>
 4    1  0.3195479E+006  0.2257342E+02  0.7546771E-02  0.1497925E+00
         21   -1    0    0  504  501  0.00000000000E+00  0.00000000000E+00  0.15795619742E+02  0.15795619742E+02  0.00000000000E+00 0. -1.
         21   -1    0    0  503  502 -0.00000000000E+00 -0.00000000000E+00 -0.94945250082E+02  0.94945250082E+02  0.00000000000E+00 0. -1.
         21    1    1    2  503  501 -0.22449068232E+02  0.23661608693E+01 -0.84565810192E+02  0.87526770963E+02  0.00000000000E+00 0. -1.
         21    1    1    2  504  502  0.22449068232E+02 -0.23661608693E+01  0.54161798521E+01  0.23214098861E+02  0.00000000000E+00 0. -1.
</event>
<event>
 4    1  0.3195479E+006  0.2381659E+02  0.7546771E-02  0.1482491E+00
         21   -1    0    0  504  501  0.00000000000E+00  0.00000000000E+00  0.13140316892E+03  0.13140316892E+03  0.00000000000E+00 0.  1.
         21   -1    0    0  503  502 -0.00000000000E+00 -0.00000000000E+00 -0.11768708150E+02  0.11768708150E+02  0.00000000000E+00 0. -1.
         21    1    1    2  503  501  0.22225213064E+02 -0.85597856900E+01  0.28533519444E+01  0.23986905680E+02  0.00000000000E+00 0. -1.
         21    1    1    2  504  502 -0.22225213064E+02  0.85597856900E+01  0.11678110883E+03  0.11918497139E+03  0.00000000000E+00 0.  1.
</event>
<event>
 4    1  0.3195479E+006  0.2805736E+02  0.7546771E-02  0.1437266E+00
         21   -1    0    0  503  501  0.00000000000E+00  0.00000000000E+00  0.34661087024E+02  0.34661087024E+02  0.00000000000E+00 0.  1.
         21   -1    0    0  504  502 -0.00000000000E+00 -0.00000000000E+00 -0.89448662555E+02  0.89448662555E+02  0.00000000000E+00 0.  1.
         21    1    1    2  503  502 -0.23652434802E+02  0.15092300434E+02 -0.80994667182E+02  0.85716692169E+02  0.00000000000E+00 0.  1.
         21    1    1    2  504  501  0.23652434802E+02 -0.15092300434E+02  0.26207091651E+02  0.38393057409E+02  0.00000000000E+00 0.  1.
</event>
<event>
 4    1  0.3195479E+006  0.4350719E+02  0.7546771E-02  0.1329075E+00
         21   -1    0    0  503  501  0.00000000000E+00  0.00000000000E+00  0.35977675301E+02  0.35977675301E+02  0.00000000000E+00 0.  1.
         21   -1    0    0  504  502 -0.00000000000E+00 -0.00000000000E+00 -0.59759716891E+02  0.59759716891E+02  0.00000000000E+00 0. -1.
         21    1    1    2  503  502 -0.35158636651E+02 -0.25627059913E+02 -0.28445495317E+02  0.51980978586E+02  0.00000000000E+00 0.  1.
         21    1    1    2  504  501  0.35158636651E+02  0.25627059913E+02  0.46634537269E+01  0.43756413606E+02  0.00000000000E+00 0. -1.
</event>
<event>
 4    1  0.3195479E+006  0.4760407E+02  0.7546771E-02  0.1308908E+00
         21   -1    0    0  502  501  0.00000000000E+00  0.00000000000E+00  0.41851749599E+02  0.41851749599E+02  0.00000000000E+00 0. -1.
         21   -1    0    0  503  502 -0.00000000000E+00 -0.00000000000E+00 -0.55116687242E+02  0.55116687242E+02  0.00000000000E+00 0. -1.
         21    1    1    2  503  504 -0.15885247083E+02 -0.44875453422E+02 -0.13063356019E+02  0.49363940941E+02  0.00000000000E+00 0. -1.
         21    1    1    2  504  501  0.15885247083E+02  0.44875453422E+02 -0.20158162386E+00  0.47604495900E+02  0.00000000000E+00 0. -1.
</event>
<event>
 4    1  0.3195479E+006  0.2195858E+02  0.7546771E-02  0.1506006E+00
         21   -1    0    0  504  501  0.00000000000E+00  0.00000000000E+00  0.79455109136E+01  0.79455109136E+01  0.00000000000E+00 0.  1.
         21   -1    0    0  503  502 -0.00000000000E+00 -0.00000000000E+00 -0.80202202306E+02  0.80202202306E+02  0.00000000000E+00 0. -1.
         21    1    1    2  503  501  0.20971744881E+02 -0.65088574164E+01 -0.14386905076E+02  0.26251901758E+02  0.00000000000E+00 0.  1.
         21    1    1    2  504  502 -0.20971744881E+02  0.65088574164E+01 -0.57869786316E+02  0.61895811462E+02  0.00000000000E+00 0. -1.
</event>
<event>
 4    1  0.3195479E+006  0.2539574E+02  0.7546771E-02  0.1464425E+00
         21   -1    0    0  503  501  0.00000000000E+00  0.00000000000E+00  0.84152603032E+02  0.84152603032E+02  0.00000000000E+00 0.  1.
         21   -1    0    0  501  502 -0.00000000000E+00 -0.00000000000E+00 -0.29234633714E+02  0.29234633714E+02  0.00000000000E+00 0. -1.
         21    1    1    2  503  504  0.62094340097E+00 -0.25388150851E+02  0.76157644746E+02  0.80280325283E+02  0.00000000000E+00 0.  1.
         21    1    1    2  504  502 -0.62094340097E+00  0.25388150851E+02 -0.21239675428E+02  0.33106911463E+02  0.00000000000E+00 0. -1.
</event>
<event>
 4    1  0.3195479E+006  0.2052006E+02  0.7546771E-02  0.1526229E+00
         21   -1    0    0  502  501  0.00000000000E+00  0.00000000000E+00  0.31709586896E+02  0.31709586896E+02  0.00000000000E+00 0. -1.
         21   -1    0    0  503  502 -0.00000000000E+00 -0.00000000000E+00 -0.34420297839E+02  0.34420297839E+02  0.00000000000E+00 0.  1.
         21    1    1    2  503  504  0.19237827586E+02 -0.71399355311E+01 -0.27268846762E+02  0.34127154780E+02  0.00000000000E+00 0.  1.
         21    1    1    2  504  501 -0.19237827586E+02  0.71399355311E+01  0.24558135820E+02  0.32002729955E+02  0.00000000000E+00 0. -1.
</event>
<event>
 4    1  0.3195479E+006  0.2297015E+02  0.7546771E-02  0.1492873E+00
         21   -1    0    0  503  501  0.00000000000E+00  0.00000000000E+00  0.47787931310E+01  0.47787931310E+01  0.00000000000E+00 0.  1.
         21   -1    0    0  504  502 -0.00000000000E+00 -0.00000000000E+00 -0.32178588662E+03  0.32178588662E+03  0.00000000000E+00 0.  1.
         21    1    1    2  503  502 -0.87734034778E+01  0.21228642715E+02 -0.29084111628E+03  0.29174677856E+03  0.00000000000E+00 0.  1.
         21    1    1    2  504  501  0.87734034778E+01 -0.21228642715E+02 -0.26165977206E+02  0.34817901190E+02  0.00000000000E+00 0.  1.
</event>
<event>
 4    1  0.3195479E+006  0.2806730E+02  0.7546771E-02  0.1437172E+00
         21   -1    0    0  503  501  0.00000000000E+00  0.00000000000E+00  0.42069583973E+01  0.42069583973E+01  0.00000000000E+00 0. -1.
         21   -1    0    0  501  502 -0.00000000000E+00 -0.00000000000E+00 -0.54708333269E+03  0.54708333269E+03  0.00000000000E+00 0.  1.
         21    1    1    2  503  504 -0.14292700264E+02 -0.24155581998E+02 -0.47889889604E+02  0.55508692551E+02  0.00000000000E+00 0. -1.
         21    1    1    2  504  502  0.14292700264E+02  0.24155581998E+02 -0.49498648469E+03  0.49578159854E+03  0.00000000000E+00 0.  1.
</event>
<event>
 4    1  0.3195479E+006  0.2890667E+02  0.7546771E-02  0.1429341E+00
         21   -1    0    0  503  501  0.00000000000E+00  0.00000000000E+00  0.64574593804E+01  0.64574593804E+01  0.00000000000E+00 0. -1.
         21   -1    0    0  501  502 -0.00000000000E+00 -0.00000000000E+00 -0.15578252276E+03  0.15578252276E+03  0.00000000000E+00 0. -1.
         21    1    1    2  503  504  0.67546468782E+00  0.28898778695E+02 -0.41279470781E+02  0.50394348597E+02  0.00000000000E+00 0. -1.
         21    1    1    2  504  502 -0.67546468782E+00 -0.28898778695E+02 -0.10804559260E+03  0.11184563354E+03  0.00000000000E+00 0. -1.
</event>
<event>
 4    1  0.3195479E+006  0.2087125E+02  0.7546771E-02  0.1521111E+00
         21   -1    0    0  502  501  0.00000000000E+00  0.00000000000E+00  0.62678853660E+02  0.62678853660E+02  0.00000000000E+00 0.  1.
         21   -1    0    0  504  502 -0.00000000000E+00 -0.00000000000E+00 -0.73525526430E+01  0.73525526430E+01  0.00000000000E+00 0.  1.
         21    1    1    2  503  501  0.19959482800E+02 -0.61014816869E+01  0.19468459774E+02  0.28541723115E+02  0.00000000000E+00 0.  1.
         21    1    1    2  504  503 -0.19959482800E+02  0.61014816869E+01  0.35857841244E+02  0.41489683189E+02  0.00000000000E+00 0.  1.
</event>
<event>
 4    1  0.3195479E+006  0.2099461E+02  0.7546771E-02  0.1519342E+00
         21   -1    0    0  504  501  0.00000000000E+00  0.00000000000E+00  0.26077545461E+02  0.26077545461E+02  0.00000000000E+00 0.  1.
         21   -1    0    0  501  502 -0.00000000000E+00 -0.00000000000E+00 -0.27402251109E+02  0.27402251109E+02  0.00000000000E+00 0. -1.
         21    1    1    2  503  502 -0.11677900349E+02  0.17447067696E+02 -0.17214634362E+02  0.27149901730E+02  0.00000000000E+00 0. -1.
         21    1    1    2  504  503  0.11677900349E+02 -0.17447067696E+02  0.15889928714E+02  0.26329894840E+02  0.00000000000E+00 0.  1.
</event>
<event>
 4    1  0.3195479E+006  0.2060895E+02  0.7546771E-02  0.1524922E+00
         21   -1    0    0  504  501  0.00000000000E+00  0.00000000000E+00  0.47287309126E+01  0.47287309126E+01  0.00000000000E+00 0.  1.
         21   -1    0    0  503  502 -0.00000000000E+00 -0.00000000000E+00 -0.11781598484E+03  0.11781598484E+03  0.00000000000E+00 0.  1.
         21    1    1    2  503  501 -0.11523051962E+02 -0.17086486612E+02 -0.26674676017E+02  0.33708561106E+02  0.00000000000E+00 0.  1.
         21    1    1    2  504  502  0.11523051962E+02  0.17086486612E+02 -0.86412577913E+02  0.88836154649E+02  0.00000000000E+00 0.  1.
</event>
<event>
 4    1  0.3195479E+006  0.3039837E+02  0.7546771E-02  0.1416166E+00
         21   -1    0    0  503  501  0.00000000000E+00  0.00000000000E+00  0.20176942618E+02  0.20176942618E+02  0.00000000000E+00 0. -1.
         21   -1    0    0  501  502 -0.00000000000E+00 -0.00000000000E+00 -0.22357869897E+03  0.22357869897E+03  0.00000000000E+00 0. -1.
         21    1    1    2  503  504  0.30206901927E+02 -0.34064450377E+01  0.69797009010E+01  0.31189373455E+02  0.00000000000E+00 0. -1.
         21    1    1    2  504  502 -0.30206901927E+02  0.34064450377E+01 -0.21038145725E+03  0.21256626813E+03  0.00000000000E+00 0. -1.
</event>
<event>
 4    1  0.3195479E+006  0.9436270E+02  0.7546771E-02  0.1173952E+00
         21   -1    0    0  504  501  0.00000000000E+00  0.00000000000E+00  0.54608684937E+02  0.54608684937E+02  0.00000000000E+00 0.  1.
         21   -1    0    0  503  502 -0.00000000000E+00 -0.00000000000E+00 -0.19652239776E+03  0.19652239776E+03  0.00000000000E+00 0. -1.
         21    1    1    2  503  501 -0.40603525344E+02 -0.85180234262E+02 -0.19140890110E+02  0.96284434118E+02  0.00000000000E+00 0.  1.
         21    1    1    2  504  502  0.40603525344E+02  0.85180234262E+02 -0.12277282272E+03  0.15484664858E+03  0.00000000000E+00 0. -1.
</event>
<event>
 4    1  0.3195479E+006  0.2438027E+02  0.7546771E-02  0.1475857E+00
         21   -1    0    0  504  501  0.00000000000E+00  0.00000000000E+00  0.13041500546E+03  0.13041500546E+03  0.00000000000E+00 0. -1.
         21   -1    0    0  503  502 -0.00000000000E+00 -0.00000000000E+00 -0.49774466561E+01  0.49774466561E+01  0.00000000000E+00 0.  1.
         21    1    1    2  503  501 -0.13262302040E+02 -0.20457492576E+02  0.82376546924E+02  0.85908632518E+02  0.00000000000E+00 0. -1.
         21    1    1    2  504  502  0.13262302040E+02  0.20457492576E+02  0.43061011879E+02  0.49483819597E+02  0.00000000000E+00 0.  1.
</event>
<event>
 4    1  0.3195479E+006  0.2069237E+02  0.7546771E-02  0.1523703E+00
         21   -1    0    0  503  501  0.00000000000E+00  0.00000000000E+00  0.20763240891E+03  0.20763240891E+03  0.00000000000E+00 0.  1.
         21   -1    0    0  504  502 -0.00000000000E+00 -0.00000000000E+00 -0.20925516269E+02  0.20925516269E+02  0.00000000000E+00 0. -1.
         21    1    1    2  503  502  0.16195655554E+02  0.12879242171E+02 -0.15148498306E+02  0.25644709759E+02  0.00000000000E+00 0. -1.
         21    1    1    2  504  501 -0.16195655554E+02 -0.12879242171E+02  0.20185539094E+03  0.20291321542E+03  0.00000000000E+00 0.  1.
</event>
<event>
 4    1  0.3195479E+006  0.2076439E+02  0.7546771E-02  0.1522655E+00
         21   -1    0    0  504  501  0.00000000000E+00  0.00000000000E+00  0.20127439640E+01  0.20127439640E+01  0.00000000000E+00 0.  1.
         21   -1    0    0  503  502 -0.00000000000E+00 -0.00000000000E+00 -0.26234920186E+03  0.26234920186E+03  0.00000000000E+00 0.  1.
         21    1    1    2  503  501  0.20752554369E+02 -0.70100521615E+00 -0.18678642381E+03  0.18793703211E+03  0.00000000000E+00 0.  1.
         21    1    1    2  504  502 -0.20752554369E+02  0.70100521615E+00 -0.73550034093E+02  0.76424913714E+02  0.00000000000E+00 0.  1.
</event>
<event>
 4    1  0.3195479E+006  0.3840498E+02  0.7546771E-02  0.1358095E+00
         21   -1    0    0  504  501  0.00000000000E+00  0.00000000000E+00  0.38188402808E+03  0.38188402808E+03  0.00000000000E+00 0.  1.
         21   -1    0    0  503  502 -0.00000000000E+00 -0.00000000000E+00 -0.12429832527E+03  0.12429832527E+03  0.00000000000E+00 0.  1.
         21    1    1    2  503  501  0.35638750485E+02 -0.14311600879E+02  0.37792089197E+03  0.37986727030E+03  0.00000000000E+00 0.  1.
         21    1    1    2  504  502 -0.35638750485E+02  0.14311600879E+02 -0.12033518916E+03  0.12631508305E+03  0.00000000000E+00 0.  1.
</event>
<event>
 4    1  0.3195479E+006  0.2101750E+02  0.7546771E-02  0.1519015E+00
         21   -1    0    0  503  501  0.00000000000E+00  0.00000000000E+00  0.57101708968E+02  0.57101708968E+02  0.00000000000E+00 0. -1.
         21   -1    0    0  501  502 -0.00000000000E+00 -0.00000000000E+00 -0.37877878999E+02  0.37877878999E+02  0.00000000000E+00 0.  1.
         21    1    1    2  503  504 -0.20874023620E+02  0.24516043724E+01  0.51975535974E+02  0.56064173639E+02  0.00000000000E+00 0. -1.
         21    1    1    2  504  502  0.20874023620E+02 -0.24516043724E+01 -0.32751706005E+02  0.38915414328E+02  0.00000000000E+00 0.  1.
</event>
<event>
 4    1  0.3195479E+006  0.2822209E+02  0.7546771E-02  0.1435704E+00
         21   -1    0    0  504  501  0.00000000000E+00  0.00000000000E+00  0.32177942858E+02  0.32177942858E+02  0.00000000000E+00 0. -1.
         21   -1    0    0  501  502 -0.00000000000E+00 -0.00000000000E+00 -0.15148822699E+03  0.15148822699E+03  0.00000000000E+00 0. -1.
         21    1    1    2  503  502 -0.29475408767E+01 -0.28067746667E+02 -0.14365125002E+03  0.14639729516E+03  0.00000000000E+00 0. -1.
         21    1    1    2  504  503  0.29475408767E+01  0.28067746667E+02  0.24340965883E+02  0.37268874685E+02  0.00000000000E+00 0. -1.
</event>
<event>
 4    1  0.3195479E+006  0.1004247E+03  0.7546771E-02  0.1163074E+00
         21   -1    0    0  503  501  0.00000000000E+00  0.00000000000E+00  0.13359283184E+03  0.13359283184E+03  0.00000000000E+00 0. -1.
         21   -1    0    0  504  502 -0.00000000000E+00 -0.00000000000E+00 -0.77756358372E+02  0.77756358372E+02  0.00000000000E+00 0. -1.
         21    1    1    2  503  502 -0.23924310319E+02 -0.97533290847E+02  0.98827124777E+01  0.10090977878E+03  0.00000000000E+00 0. -1.
         21    1    1    2  504  501  0.23924310319E+02  0.97533290847E+02  0.45953760985E+02  0.11043941143E+03  0.00000000000E+00 0. -1.
</event>
<event>
 4    1  0.3195479E+006  0.2424679E+02  0.7546771E-02  0.1477409E+00
         21   -1    0    0  503  501  0.00000000000E+00  0.00000000000E+00  0.56686794469E+02  0.56686794469E+02  0.00000000000E+00 0. -1.
         21   -1    0    0  504  502 -0.00000000000E+00 -0.00000000000E+00 -0.33680150254E+02  0.33680150254E+02  0.00000000000E+00 0. -1.
         21    1    1    2  503  502  0.23949822289E+02  0.37832220824E+01  0.49091779026E+02  0.54753169086E+02  0.00000000000E+00 0. -1.
         21    1    1    2  504  501 -0.23949822289E+02 -0.37832220824E+01 -0.26085134811E+02  0.35613775637E+02  0.00000000000E+00 0. -1.
</event>
<event>
 4    1  0.3195479E+006  0.2065376E+02  0.7546771E-02  0.1524266E+00
         21   -1    0    0  504  501  0.00000000000E+00  0.00000000000E+00  0.51476775500E+01  0.51476775500E+01  0.00000000000E+00 0.  1.
         21   -1    0    0  503  502 -0.00000000000E+00 -0.00000000000E+00 -0.92201724695E+02  0.92201724695E+02  0.00000000000E+00 0.  1.
         21    1    1    2  503  501  0.18836659641E+02  0.84710128322E+01 -0.59013798472E+02  0.62523645247E+02  0.00000000000E+00 0.  1.
         21    1    1    2  504  502 -0.18836659641E+02 -0.84710128322E+01 -0.28040248673E+02  0.34825756998E+02  0.00000000000E+00 0.  1.
</event>
<event>
 4    1  0.3195479E+006  0.2634171E+02  0.7546771E-02  0.1454335E+00
         21   -1    0    0  503  501  0.00000000000E+00  0.00000000000E+00  0.32138393876E+01  0.32138393876E+01  0.00000000000E+00 0.  1.
         21   -1    0    0  504  502 -0.00000000000E+00 -0.00000000000E+00 -0.57914817879E+03  0.57914817879E+03  0.00000000000E+00 0.  1.
         21    1    1    2  503  502  0.26050117709E+02 -0.39085959979E+01 -0.57363292330E+02  0.63122365785E+02  0.00000000000E+00 0.  1.
         21    1    1    2  504  501 -0.26050117709E+02  0.39085959979E+01 -0.51857104707E+03  0.51923965239E+03  0.00000000000E+00 0.  1.
</event>
<event>
 4    1  0.3195479E+006  0.2884508E+02  0.7546771E-02  0.1429905E+00
         21   -1    0    0  504  501  0.00000000000E+00  0.00000000000E+00  0.95845436951E+01  0.95845436951E+01  0.00000000000E+00 0.  1.
         21   -1    0    0  503  502 -0.00000000000E+00 -0.00000000000E+00 -0.69997222494E+03  0.69997222494E+03  0.00000000000E+00 0.  1.
         21    1    1    2  503  501  0.20039193960E+02 -0.20747748733E+02 -0.67724445707E+03  0.67785846090E+03  0.00000000000E+00 0.  1.
         21    1    1    2  504  502 -0.20039193960E+02  0.20747748733E+02 -0.13143224176E+02  0.31698307743E+02  0.00000000000E+00 0.  1.
</event>
<event>
 4    1  0.3195479E+006  0.2581449E+02  0.7546771E-02  0.1459894E+00
         21   -1    0    0  503  501  0.00000000000E+00  0.00000000000E+00  0.48164544570E+02  0.48164544570E+02  0.00000000000E+00 0.  1.
         21   -1    0    0  501  502 -0.00000000000E+00 -0.00000000000E+00 -0.14425700092E+02  0.14425700092E+02  0.00000000000E+00 0. -1.
         21    1    1    2  503  504 -0.18756894572E+02 -0.17736027753E+02  0.23198678735E+02  0.34706864875E+02  0.00000000000E+00 0.  1.
         21    1    1    2  504  502  0.18756894572E+02  0.17736027753E+02  0.10540165743E+02  0.27883379786E+02  0.00000000000E+00 0. -1.
</event>
<event>
 4    1  0.3195479E+006  0.2191906E+02  0.7546771E-02  0.1506537E+00
         21   -1    0    0  504  501  0.00000000000E+00  0.00000000000E+00  0.23703436600E+02  0.23703436600E+02  0.00000000000E+00 0.  1.
         21   -1    0    0  503  502 -0.00000000000E+00 -0.00000000000E+00 -0.37299775659E+03  0.37299775659E+03  0.00000000000E+00 0. -1.
         21    1    1    2  503  501  0.14511467932E+02  0.16427485798E+02  0.18238896446E+02  0.28514949320E+02  0.00000000000E+00 0.  1.
         21    1    1    2  504  502 -0.14511467932E+02 -0.16427485798E+02 -0.36753321643E+03  0.36818624387E+03  0.00000000000E+00 0. -1.
</event>
<event>
 4    1  0.3195479E+006  0.2578357E+02  0.7546771E-02  0.1460225E+00
         21   -1    0    0  504  501  0.00000000000E+00  0.00000000000E+00  0.10823091868E+02  0.10823091868E+02  0.00000000000E+00 0.  1.
         21   -1    0    0  501  502 -0.00000000000E+00 -0.00000000000E+00 -0.15521777590E+03  0.15521777590E+03  0.00000000000E+00 0.  1.
         21    1    1    2  503  502 -0.16675609126E+02  0.19665114574E+02 -0.13673338510E+03  0.13914313232E+03  0.00000000000E+00 0.  1.
         21    1    1    2  504  503  0.16675609126E+02 -0.19665114574E+02 -0.76612989331E+01  0.26897735449E+02  0.00000000000E+00 0.  1.
</event>
<event>
 4    1  0.3195479E+006  0.2161260E+02  0.7546771E-02  0.1510695E+00
         21   -1    0    0  503  501  0.00000000000E+00  0.00000000000E+00  0.21961676412E+03  0.21961676412E+03  0.00000000000E+00 0.  1.
         21   -1    0    0  504  502 -0.00000000000E+00 -0.00000000000E+00 -0.21545978766E+01  0.21545978766E+01  0.00000000000E+00 0.  1.
         21    1    1    2  503  502 -0.29252727629E+01 -0.21413713569E+02  0.12130190531E+03  0.12321224202E+03  0.00000000000E+00 0.  1.
         21    1    1    2  504  501  0.29252727629E+01  0.21413713569E+02  0.96160260931E+02  0.98559119983E+02  0.00000000000E+00 0.  1.
</event>
<event>
 4    1  0.3195479E+006  0.2687292E+02  0.7546771E-02  0.1448889E+00
         21   -1    0    0  504  501  0.00000000000E+00  0.00000000000E+00  0.21116244324E+02  0.21116244324E+02  0.00000000000E+00 0.  1.
         21   -1    0    0  503  502 -0.00000000000E+00 -0.00000000000E+00 -0.42723103189E+02  0.42723103189E+02  0.00000000000E+00 0.  1.
         21    1    1    2  503  501 -0.16894188726E+02 -0.20898324587E+02  0.34543677061E+01  0.27094025900E+02  0.00000000000E+00 0.  1.
         21    1    1    2  504  502  0.16894188726E+02  0.20898324587E+02 -0.25061226570E+02  0.36745321613E+02  0.00000000000E+00 0.  1.
</event>
<event>
 4    1  0.3195479E+006  0.3238602E+02  0.7546771E-02  0.1399935E+00
         21   -1    0    0  504  501  0.00000000000E+00  0.00000000000E+00  0.91292240295E+01  0.91292240295E+01  0.00000000000E+00 0.  1.
         21   -1    0    0  501  502 -0.00000000000E+00 -0.00000000000E+00 -0.38565172265E+03  0.38565172265E+03  0.00000000000E+00 0. -1.
         21    1    1    2  503  502 -0.17089222991E+02 -0.27510224988E+02 -0.35365626094E+03  0.35513603721E+03  0.00000000000E+00 0. -1.
         21    1    1    2  504  503  0.17089222991E+02  0.27510224988E+02 -0.22866237679E+02  0.39644909471E+02  0.00000000000E+00 0.  1.
</event>
<event>
 4    1  0.3195479E+006  0.2046095E+02  0.7546771E-02  0.1527102E+00
         21   -1    0    0  503  501  0.00000000000E+00  0.00000000000E+00  0.21355171704E+01  0.21355171704E+01  0.00000000000E+00 0. -1.
         21   -1    0    0  504  502 -0.00000000000E+00 -0.00000000000E+00 -0.48638045402E+03  0.48638045402E+03  0.00000000000E+00 0.  1.
         21    1    1    2  503  502 -0.17959585355E+02 -0.98032575650E+01 -0.43084039944E+03  0.43132597923E+03  0.00000000000E+00 0.  1.
         21    1    1    2  504  501  0.17959585355E+02  0.98032575650E+01 -0.53404537405E+02  0.57189991960E+02  0.00000000000E+00 0. -1.
</event>
<event>
 4    1  0.3195479E+006  0.3865676E+02  0.7546771E-02  0.1356542E+00
         21   -1    0    0  503  501  0.00000000000E+00  0.00000000000E+00  0.86566428167E+02  0.86566428167E+02  0.00000000000E+00 0.  1.
         21   -1    0    0  504  502 -0.00000000000E+00 -0.00000000000E+00 -0.41520418042E+02  0.41520418042E+02  0.00000000000E+00 0. -1.
         21    1    1    2  503  502  0.35951130081E+02  0.14207798986E+02 -0.26429084229E+02  0.46827788751E+02  0.00000000000E+00 0. -1.
         21    1    1    2  504  501 -0.35951130081E+02 -0.14207798986E+02  0.71475094354E+02  0.81259057458E+02  0.00000000000E+00 0.  1.
</event>
<event>
 4    1  0.3195479E+006  0.3083947E+02  0.7546771E-02  0.1412439E+00
         21   -1    0    0  503  501  0.00000000000E+00  0.00000000000E+00  0.37533972769E+03  0.37533972769E+03  0.00000000000E+00 0. -1.
         21   -1    0    0  504  502 -0.00000000000E+00 -0.00000000000E+00 -0.25483051319E+01  0.25483051319E+01  0.00000000000E+00 0. -1.
         21    1    1    2  503  502 -0.30086371201E+02 -0.67737277819E+01  0.20060180637E+03  0.20295851260E+03  0.00000000000E+00 0. -1.
         21    1    1    2  504  501  0.30086371201E+02  0.67737277819E+01  0.17218961619E+03  0.17492952022E+03  0.00000000000E+00 0. -1.
</event>
<event>
 4    1  0.3195479E+006  0.2366961E+02  0.7546771E-02  0.1484257E+00
         21   -1    0    0  503  501  0.00000000000E+00  0.00000000000E+00  0.14343994577E+02  0.14343994577E+02  0.00000000000E+00 0.  1.
         21   -1    0    0  501  502 -0.00000000000E+00 -0.00000000000E+00 -0.77019269222E+02  0.77019269222E+02  0.00000000000E+00 0. -1.
         21    1    1    2  503  504 -0.93883575471E+01  0.21728075620E+02  0.73326387185E+00  0.23680967114E+02  0.00000000000E+00 0.  1.
         21    1    1    2  504  502  0.93883575471E+01 -0.21728075620E+02 -0.63408538517E+02  0.67682296684E+02  0.00000000000E+00 0. -1.
</event>
<event>
 4    1  0.3195479E+006  0.2649269E+02  0.7546771E-02  0.1452772E+00
         21   -1    0    0  504  501  0.00000000000E+00  0.00000000000E+00  0.15098774205E+02  0.15098774205E+02  0.00000000000E+00 0.  1.
         21   -1    0    0  503  502 -0.00000000000E+00 -0.00000000000E+00 -0.12816921416E+03  0.12816921416E+03  0.00000000000E+00 0. -1.
         21    1    1    2  503  501  0.21810330863E+02 -0.15039012255E+02  0.65175121510E+00  0.26500701908E+02  0.00000000000E+00 0.  1.
         21    1    1    2  504  502 -0.21810330863E+02  0.15039012255E+02 -0.11372219117E+03  0.11676728645E+03  0.00000000000E+00 0. -1.
</event>
<event>
 4    1  0.3195479E+006  0.2572350E+02  0.7546771E-02  0.1460870E+00
         21   -1    0    0  502  501  0.00000000000E+00  0.00000000000E+00  0.13603563422E+02  0.13603563422E+02  0.00000000000E+00 0.  1.
         21   -1    0    0  503  502 -0.00000000000E+00 -0.00000000000E+00 -0.92935139542E+02  0.92935139542E+02  0.00000000000E+00 0. -1.
         21    1    1    2  503  504 -0.22005556511E+02  0.13321182456E+02 -0.76441227172E+02  0.80653329943E+02  0.00000000000E+00 0. -1.
         21    1    1    2  504  501  0.22005556511E+02 -0.13321182456E+02 -0.28903489475E+01  0.25885373020E+02  0.00000000000E+00 0.  1.
</event>
<event>
 4    1  0.3195479E+006  0.2339014E+02  0.7546771E-02  0.1487656E+00
         21   -1    0    0  503  501  0.00000000000E+00  0.00000000000E+00  0.13869562850E+02  0.13869562850E+02  0.00000000000E+00 0.  1.
         21   -1    0    0  504  502 -0.00000000000E+00 -0.00000000000E+00 -0.31925206246E+03  0.31925206246E+03  0.00000000000E+00 0.  1.
         21    1    1    2  503  502 -0.22086113926E+02  0.77008046990E+01  0.32404929470E+01  0.23613547296E+02  0.00000000000E+00 0.  1.
         21    1    1    2  504  501  0.22086113926E+02 -0.77008046990E+01 -0.30862299256E+03  0.30950807802E+03  0.00000000000E+00 0.  1.
</event>
<event>
 4    1  0.3195479E+006  0.2218804E+02  0.7546771E-02  0.1502954E+00
         21   -1    0    0  502  501  0.00000000000E+00  0.00000000000E+00  0.23971803338E+03  0.23971803338E+03  0.00000000000E+00 0. -1.
         21   -1    0    0  504  502 -0.00000000000E+00 -0.00000000000E+00 -0.49174275503E+01  0.49174275503E+01  0.00000000000E+00 0. -1.
         21    1    1    2  503  501  0.88751695534E+01 -0.20335695634E+02  0.21074425974E+03  0.21190906580E+03  0.00000000000E+00 0. -1.
         21    1    1    2  504  503 -0.88751695534E+01  0.20335695634E+02  0.24056346088E+02  0.32726395136E+02  0.00000000000E+00 0. -1.
</event>
<event>
 4    1  0.3195479E+006  0.2429405E+02  0.7546771E-02  0.1476858E+00
         21   -1    0    0  503  501  0.00000000000E+00  0.00000000000E+00  0.60473409597E+02  0.60473409597E+02  0.00000000000E+00 0.  1.
         21   -1    0    0  504  502 -0.00000000000E+00 -0.00000000000E+00 -0.25538783098E+02  0.25538783098E+02  0.00000000000E+00 0. -1.
         21    1    1    2  503  502  0.17457778037E+02  0.16894586066E+02  0.51271547102E+02  0.56735990293E+02  0.00000000000E+00 0.  1.
         21    1    1    2  504  501 -0.17457778037E+02 -0.16894586066E+02 -0.16336920602E+02  0.29276202402E+02  0.00000000000E+00 0. -1.
</event>
<event>
 4    1  0.3195479E+006  0.2148551E+02  0.7546771E-02  0.1512445E+00
         21   -1    0    0  503  501  0.00000000000E+00  0.00000000000E+00  0.35536623688E+01  0.35536623688E+01  0.00000000000E+00 0. -1.
         21   -1    0    0  504  502 -0.00000000000E+00 -0.00000000000E+00 -0.17226083704E+03  0.17226083704E+03  0.00000000000E+00 0. -1.
         21    1    1    2  503  502  0.19648844629E+02 -0.86919509437E+01 -0.12794535713E+03  0.12973681635E+03  0.00000000000E+00 0. -1.
         21    1    1    2  504  501 -0.19648844629E+02  0.86919509437E+01 -0.40761817543E+02  0.46077683056E+02  0.00000000000E+00 0. -1.
</event>
<event>
 4    1  0.3195479E+006  0.2566803E+02  0.7546771E-02  0.1461467E+00
         21   -1    0    0  504  501  0.00000000000E+00  0.00000000000E+00  0.22775211687E+03  0.22775211687E+03  0.00000000000E+00 0.  1.
         21   -1    0    0  501  502 -0.00000000000E+00 -0.00000000000E+00 -0.30742670532E+02  0.30742670532E+02  0.00000000000E+00 0.  1.
         21    1    1    2  503  502  0.36581599837E+01 -0.25406018083E+02 -0.24511492951E+02  0.35491705735E+02  0.00000000000E+00 0.  1.
         21    1    1    2  504  503 -0.36581599837E+01  0.25406018083E+02  0.22152093929E+03  0.22300308167E+03  0.00000000000E+00 0.  1.
</event>
<event>
 4    1  0.3195479E+006  0.2832815E+02  0.7546771E-02  0.1434704E+00
         21   -1    0    0  502  501  0.00000000000E+00  0.00000000000E+00  0.12862060198E+04  0.12862060198E+04  0.00000000000E+00 0.  1.
         21   -1    0    0  503  502 -0.00000000000E+00 -0.00000000000E+00 -0.35499462103E+01  0.35499462103E+01  0.00000000000E+00 0.  1.
         21    1    1    2  503  504 -0.15856436480E+02  0.23474617386E+02  0.55856100979E+02  0.62628972975E+02  0.00000000000E+00 0.  1.
         21    1    1    2  504  501  0.15856436480E+02 -0.23474617386E+02  0.12267999726E+04  0.12271269930E+04  0.00000000000E+00 0.  1.
</event>
<event>
 4    1  0.3195479E+006  0.2071338E+02  0.7546771E-02  0.1523397E+00
         21   -1    0    0  502  501  0.00000000000E+00  0.00000000000E+00  0.48337127141E+01  0.48337127141E+01  0.00000000000E+00 0. -1.
         21   -1    0    0  503  502 -0.00000000000E+00 -0.00000000000E+00 -0.13359031976E+03  0.13359031976E+03  0.00000000000E+00 0. -1.
         21    1    1    2  503  504  0.16308109364E+02  0.12770662981E+02 -0.10447199028E+03  0.10650559148E+03  0.00000000000E+00 0. -1.
         21    1    1    2  504  501 -0.16308109364E+02 -0.12770662981E+02 -0.24284616775E+02  0.31918441001E+02  0.00000000000E+00 0. -1.
</event>
<event>
 4    1  0.3195479E+006  0.2277994E+02  0.7546771E-02  0.1495280E+00
         21   -1    0    0  503  501  0.00000000000E+00  0.00000000000E+00  0.24835670708E+01  0.24835670708E+01  0.00000000000E+00 0. -1.
         21   -1    0    0  504  502 -0.00000000000E+00 -0.00000000000E+00 -0.20993132472E+03  0.20993132472E+03  0.00000000000E+00 0. -1.
         21    1    1    2  503  502 -0.18537326329E+02 -0.13239833395E+02 -0.11100864498E+03  0.11332186424E+03  0.00000000000E+00 0. -1.
         21    1    1    2  504  501  0.18537326329E+02  0.13239833395E+02 -0.96439112676E+02  0.99093027553E+02  0.00000000000E+00 0. -1.
</event>
<event>
 4    1  0.3195479E+006  0.2108901E+02  0.7546771E-02  0.1517998E+00
         21   -1    0    0  504  501  0.00000000000E+00  0.00000000000E+00  0.72778856756E+03  0.72778856756E+03  0.00000000000E+00 0. -1.
         21   -1    0    0  503  502 -0.00000000000E+00 -0.00000000000E+00 -0.97897498047E+00  0.97897498047E+00  0.00000000000E+00 0.  1.
         21    1    1    2  503  501  0.68714104750E+01 -0.19938155334E+02  0.58677623073E+03  0.58715508281E+03  0.00000000000E+00 0. -1.
         21    1    1    2  504  502 -0.68714104750E+01  0.19938155334E+02  0.14003336186E+03  0.14161245974E+03  0.00000000000E+00 0.  1.
</event>
<event>
 4    1  0.3195479E+006  0.2058233E+02  0.7546771E-02  0.1525312E+00
         21   -1    0    0  503  501  0.00000000000E+00  0.00000000000E+00  0.75884380275E+01  0.75884380275E+01  0.00000000000E+00 0.  1.
         21   -1    0    0  504  502 -0.00000000000E+00 -0.00000000000E+00 -0.59587147518E+02  0.59587147518E+02  0.00000000000E+00 0.  1.
         21    1    1    2  503  502 -0.11049724921E+02  0.17364784139E+02 -0.17560854015E+02  0.27055789450E+02  0.00000000000E+00 0.  1.
         21    1    1    2  504  501  0.11049724921E+02 -0.17364784139E+02 -0.34437855476E+02  0.40119796096E+02  0.00000000000E+00 0.  1.
</event>
<event>
 4    1  0.3195479E+006  0.2441111E+02  0.7546771E-02  0.1475500E+00
         21   -1    0    0  503  501  0.00000000000E+00  0.00000000000E+00  0.64048584472E+02  0.64048584472E+02  0.00000000000E+00 0.  1.
         21   -1    0    0  504  502 -0.00000000000E+00 -0.00000000000E+00 -0.96617536658E+01  0.96617536658E+01  0.00000000000E+00 0.  1.
         21    1    1    2  503  502  0.19863246186E+02  0.14189920007E+02  0.34286187757E+02  0.42088538223E+02  0.00000000000E+00 0.  1.
         21    1    1    2  504  501 -0.19863246186E+02 -0.14189920007E+02  0.20100643050E+02  0.31621799915E+02  0.00000000000E+00 0.  1.
</event>
<event>
 4    1  0.3195479E+006  0.2192001E+02  0.7546771E-02  0.1506524E+00
         21   -1    0    0  503  501  0.00000000000E+00  0.00000000000E+00  0.78999790942E+02  0.78999790942E+02  0.00000000000E+00 0. -1.
         21   -1    0    0  504  502 -0.00000000000E+00 -0.00000000000E+00 -0.61484619107E+01  0.61484619107E+01  0.00000000000E+00 0. -1.
         21    1    1    2  503  502 -0.21916375194E+02 -0.39938059503E+00  0.32003616822E+02  0.38790701156E+02  0.00000000000E+00 0. -1.
         21    1    1    2  504  501  0.21916375194E+02  0.39938059503E+00  0.40847712210E+02  0.46357551697E+02  0.00000000000E+00 0. -1.
</event>
<event>
 4    1  0.3195479E+006  0.2088643E+02  0.7546771E-02  0.1520893E+00
         21   -1    0    0  502  501  0.00000000000E+00  0.00000000000E+00  0.86319160971E+02  0.86319160971E+02  0.00000000000E+00 0.  1.
         21   -1    0    0  504  502 -0.00000000000E+00 -0.00000000000E+00 -0.63393893134E+01  0.63393893134E+01  0.00000000000E+00 0. -1.
         21    1    1    2  503  501 -0.19560244828E+02 -0.73239116473E+01  0.60852891974E+02  0.64337526539E+02  0.00000000000E+00 0.  1.
         21    1    1    2  504  503  0.19560244828E+02  0.73239116473E+01  0.19126879684E+02  0.28321023746E+02  0.00000000000E+00 0. -1.
</event>
<event>
 4    1  0.3195479E+006  0.9054282E+02  0.7546771E-02  0.1181288E+00
         21   -1    0    0  504  501  0.00000000000E+00  0.00000000000E+00  0.15022715824E+02  0.15022715824E+02  0.00000000000E+00 0.  1.
         21   -1    0    0  503  502 -0.00000000000E+00 -0.00000000000E+00 -0.59788892236E+03  0.59788892236E+03  0.00000000000E+00 0.  1.
         21    1    1    2  503  501 -0.75712369174E+02  0.49655212130E+02 -0.20089796478E+03  0.22035878741E+03  0.00000000000E+00 0.  1.
         21    1    1    2  504  502  0.75712369174E+02 -0.49655212130E+02 -0.38196824175E+03  0.39255285077E+03  0.00000000000E+00 0.  1.
</event>
<event>
 4    1  0.3195479E+006  0.2013381E+02  0.7546771E-02  0.1532000E+00
         21   -1    0    0  502  501  0.00000000000E+00  0.00000000000E+00  0.80326369240E+02  0.80326369240E+02  0.00000000000E+00 0.  1.
         21   -1    0    0  504  502 -0.00000000000E+00 -0.00000000000E+00 -0.43433681909E+02  0.43433681909E+02  0.00000000000E+00 0.  1.
         21    1    1    2  503  501 -0.12004417507E+02 -0.16163668237E+02  0.76620494436E+02  0.79221653468E+02  0.00000000000E+00 0.  1.
         21    1    1    2  504  503  0.12004417507E+02  0.16163668237E+02 -0.39727807105E+02  0.44538397681E+02  0.00000000000E+00 0.  1.
</event>
<event>
 4    1  0.3195479E+006  0.4344792E+02  0.7546771E-02  0.1329385E+00
         21   -1    0    0  503  501  0.00000000000E+00  0.00000000000E+00  0.10136711254E+04  0.10136711254E+04  0.00000000000E+00 0. -1.
         21   -1    0    0  504  502 -0.00000000000E+00 -0.00000000000E+00 -0.20281227117E+01  0.20281227117E+01  0.00000000000E+00 0. -1.
         21    1    1    2  503  502 -0.25606836484E+02  0.35100028139E+02  0.36059070865E+03  0.36319881775E+03  0.00000000000E+00 0. -1.
         21    1    1    2  504  501  0.25606836484E+02 -0.35100028139E+02  0.65105229407E+03  0.65250043040E+03  0.00000000000E+00 0. -1.
</event>
<event>
 4    1  0.3195479E+006  0.2195272E+02  0.7546771E-02  0.1506085E+00
         21   -1    0    0  503  501  0.00000000000E+00  0.00000000000E+00  0.19232133248E+02  0.19232133248E+02  0.00000000000E+00 0. -1.
         21   -1    0    0  504  502 -0.00000000000E+00 -0.00000000000E+00 -0.26157697052E+02  0.26157697052E+02  0.00000000000E+00 0. -1.
         21    1    1    2  503  502  0.20152965480E+02 -0.87051595405E+01  0.11902312178E+01  0.21984960100E+02  0.00000000000E+00 0. -1.
         21    1    1    2  504  501 -0.20152965480E+02  0.87051595405E+01 -0.81157950219E+01  0.23404870200E+02  0.00000000000E+00 0. -1.
</event>
<event>
 4    1  0.3195479E+006  0.2439583E+02  0.7546771E-02  0.1475677E+00
         21   -1    0    0  503  501  0.00000000000E+00  0.00000000000E+00  0.59853759993E+02  0.59853759993E+02  0.00000000000E+00 0. -1.
         21   -1    0    0  504  502 -0.00000000000E+00 -0.00000000000E+00 -0.11262126535E+02  0.11262126535E+02  0.00000000000E+00 0. -1.
         21    1    1    2  503  502  0.22507904442E+02  0.94101504227E+01  0.12128773505E+02  0.27244519450E+02  0.00000000000E+00 0. -1.
         21    1    1    2  504  501 -0.22507904442E+02 -0.94101504227E+01  0.36462859953E+02  0.43871367078E+02  0.00000000000E+00 0. -1.
</event>
<event>
 4    1  0.3195479E+006  0.2057179E+02  0.7546771E-02  0.1525467E+00
         21   -1    0    0  504  501  0.00000000000E+00  0.00000000000E+00  0.30573481425E+03  0.30573481425E+03  0.00000000000E+00 0.  1.
         21   -1    0    0  501  502 -0.00000000000E+00 -0.00000000000E+00 -0.33588695252E+01  0.33588695252E+01  0.00000000000E+00 0. -1.
         21    1    1    2  503  502  0.15781489597E+02  0.13196329883E+02  0.32690077926E+02  0.38624341173E+02  0.00000000000E+00 0. -1.
         21    1    1    2  504  503 -0.15781489597E+02 -0.13196329883E+02  0.26968586680E+03  0.27046934261E+03  0.00000000000E+00 0.  1.
</event>
<event>
 4    1  0.3195479E+006  0.2138876E+02  0.7546771E-02  0.1513786E+00
         21   -1    0    0  503  501  0.00000000000E+00  0.00000000000E+00  0.14618215536E+02  0.14618215536E+02  0.00000000000E+00 0. -1.
         21   -1    0    0  504  502 -0.00000000000E+00 -0.00000000000E+00 -0.48210541725E+02  0.48210541725E+02  0.00000000000E+00 0.  1.
         21    1    1    2  503  502  0.10138687152E+02  0.18833113160E+02 -0.35404116196E+02  0.41363396525E+02  0.00000000000E+00 0.  1.
         21    1    1    2  504  501 -0.10138687152E+02 -0.18833113160E+02  0.18117900068E+01  0.21465360735E+02  0.00000000000E+00 0. -1.
</event>
<event>
 4    1  0.3195479E+006  0.3674487E+02  0.7546771E-02  0.1368694E+00
         21   -1    0    0  502  501  0.00000000000E+00  0.00000000000E+00  0.61706409420E+03  0.61706409420E+03  0.00000000000E+00 0.  1.
         21   -1    0    0  504  502 -0.00000000000E+00 -0.00000000000E+00 -0.14394362361E+02  0.14394362361E+02  0.00000000000E+00 0.  1.
         21    1    1    2  503  501  0.34351644303E+02 -0.13044166930E+02  0.59207853982E+03  0.59321765236E+03  0.00000000000E+00 0.  1.
         21    1    1    2  504  503 -0.34351644303E+02  0.13044166930E+02  0.10591192013E+02  0.38240804195E+02  0.00000000000E+00 0.  1.
</event>
<event>
 4    1  0.3195479E+006  0.3391721E+02  0.7546771E-02  0.1388339E+00
         21   -1    0    0  503  501  0.00000000000E+00  0.00000000000E+00  0.34215618762E+03  0.34215618762E+03  0.00000000000E+00 0. -1.
         21   -1    0    0  504  502 -0.00000000000E+00 -0.00000000000E+00 -0.73570096976E+01  0.73570096976E+01  0.00000000000E+00 0.  1.
         21    1    1    2  503  502 -0.46656183386E+00 -0.33914005600E+02  0.29617535931E+03  0.29811108822E+03  0.00000000000E+00 0. -1.
         21    1    1    2  504  501  0.46656183386E+00  0.33914005600E+02  0.38623818615E+02  0.51402109102E+02  0.00000000000E+00 0.  1.
</event>
<event>
 4    1  0.3195479E+006  0.2326554E+02  0.7546771E-02  0.1489190E+00
         21   -1    0    0  504  501  0.00000000000E+00  0.00000000000E+00  0.25356741788E+02  0.25356741788E+02  0.00000000000E+00 0. -1.
         21   -1    0    0  503  502 -0.00000000000E+00 -0.00000000000E+00 -0.23839685057E+02  0.23839685057E+02  0.00000000000E+00 0. -1.
         21    1    1    2  503  501 -0.23187135818E+02 -0.19084007217E+01  0.87128757793E+01  0.24843499453E+02  0.00000000000E+00 0. -1.
         21    1    1    2  504  502  0.23187135818E+02  0.19084007217E+01 -0.71958190488E+01  0.24352927391E+02  0.00000000000E+00 0. -1.
</event>
<event>
 4    1  0.3195479E+006  0.5758692E+02  0.7546771E-02  0.1268259E+00
         21   -1    0    0  502  501  0.00000000000E+00  0.00000000000E+00  0.40253941353E+01  0.40253941353E+01  0.00000000000E+00 0.  1.
         21   -1    0    0  503  502 -0.00000000000E+00 -0.00000000000E+00 -0.83061854992E+03  0.83061854992E+03  0.00000000000E+00 0. -1.
         21    1    1    2  503  504 -0.35252228178E+02 -0.45536077308E+02 -0.45101485280E+03  0.45467642492E+03  0.00000000000E+00 0.  1.
         21    1    1    2  504  501  0.35252228178E+02  0.45536077308E+02 -0.37557830299E+03  0.37996751914E+03  0.00000000000E+00 0. -1.
</event>
<event>
 4    1  0.3195479E+006  0.2893072E+02  0.7546771E-02  0.1429122E+00
         21   -1    0    0  503  501  0.00000000000E+00  0.00000000000E+00  0.52295827286E+02  0.52295827286E+02  0.00000000000E+00 0. -1.
         21   -1    0    0  501  502 -0.00000000000E+00 -0.00000000000E+00 -0.22192280039E+02  0.22192280039E+02  0.00000000000E+00 0. -1.
         21    1    1    2  503  504 -0.10509910692E+02  0.26954192779E+02  0.34717555892E+02  0.45191762726E+02  0.00000000000E+00 0. -1.
         21    1    1    2  504  502  0.10509910692E+02 -0.26954192779E+02 -0.46140086452E+01  0.29296344600E+02  0.00000000000E+00 0. -1.
</event>
<event>
 4    1  0.3195479E+006  0.2633863E+02  0.7546771E-02  0.1454367E+00
         21   -1    0    0  504  501  0.00000000000E+00  0.00000000000E+00  0.72407008942E+02  0.72407008942E+02  0.00000000000E+00 0. -1.
         21   -1    0    0  503  502 -0.00000000000E+00 -0.00000000000E+00 -0.82883313058E+02  0.82883313058E+02  0.00000000000E+00 0. -1.
         21    1    1    2  503  501 -0.25972132705E+02  0.43785843654E+01 -0.78257845479E+02  0.82571266535E+02  0.00000000000E+00 0. -1.
         21    1    1    2  504  502  0.25972132705E+02 -0.43785843654E+01  0.67781541362E+02  0.72719055465E+02  0.00000000000E+00 0. -1.
</event>
<event>
 4    1  0.3195479E+006  0.2484138E+02  0.7546771E-02  0.1470586E+00
         21   -1    0    0  504  501  0.00000000000E+00  0.00000000000E+00  0.17396637777E+03  0.17396637777E+03  0.00000000000E+00 0.  1.
         21   -1    0    0  501  502 -0.00000000000E+00 -0.00000000000E+00 -0.60277885427E+01  0.60277885427E+01  0.00000000000E+00 0. -1.
         21    1    1    2  503  502 -0.10950696398E+01  0.24817228063E+02  0.26235969727E+02  0.36130597750E+02  0.00000000000E+00 0. -1.
         21    1    1    2  504  503  0.10950696398E+01 -0.24817228063E+02  0.14170261950E+03  0.14386356856E+03  0.00000000000E+00 0.  1.
</event>
<event>
 4    1  0.3195479E+006  0.4137878E+02  0.7546771E-02  0.1340590E+00
         21   -1    0    0  504  501  0.00000000000E+00  0.00000000000E+00  0.43247836202E+02  0.43247836202E+02  0.00000000000E+00 0. -1.
         21   -1    0    0  503  502 -0.00000000000E+00 -0.00000000000E+00 -0.40893073193E+02  0.40893073193E+02  0.00000000000E+00 0. -1.
         21    1    1    2  503  501 -0.41277893738E+02  0.28877508374E+01  0.86858747310E+01  0.42280586989E+02  0.00000000000E+00 0. -1.
         21    1    1    2  504  502  0.41277893738E+02 -0.28877508374E+01 -0.63311117213E+01  0.41860322406E+02  0.00000000000E+00 0. -1.
</event>
<event>
 4    1  0.3195479E+006  0.2175007E+02  0.7546771E-02  0.1508820E+00
         21   -1    0    0  503  501  0.00000000000E+00  0.00000000000E+00  0.31419669420E+01  0.31419669420E+01  0.00000000000E+00 0. -1.
         21   -1    0    0  504  502 -0.00000000000E+00 -0.00000000000E+00 -0.15193510535E+03  0.15193510535E+03  0.00000000000E+00 0. -1.
         21    1    1    2  503  502 -0.83560509573E+01 -0.20080885880E+02 -0.67029379979E+02  0.70469875449E+02  0.00000000000E+00 0. -1.
         21    1    1    2  504  501  0.83560509573E+01  0.20080885880E+02 -0.81763758431E+02  0.84607196846E+02  0.00000000000E+00 0. -1.
</event>
<event>
 4    1  0.3195479E+006  0.3759100E+02  0.7546771E-02  0.1363212E+00
         21   -1    0    0  504  501  0.00000000000E+00  0.00000000000E+00  0.37267865194E+03  0.37267865194E+03  0.00000000000E+00 0. -1.
         21   -1    0    0  501  502 -0.00000000000E+00 -0.00000000000E+00 -0.19262933286E+02  0.19262933286E+02  0.00000000000E+00 0. -1.
         21    1    1    2  503  502 -0.18569171415E+02 -0.32684390719E+02  0.10802918691E+01  0.37606522761E+02  0.00000000000E+00 0. -1.
         21    1    1    2  504  503  0.18569171415E+02  0.32684390719E+02  0.35233542678E+03  0.35433506246E+03  0.00000000000E+00 0. -1.
</event>
<event>
 4    1  0.3195479E+006  0.2296319E+02  0.7546771E-02  0.1492961E+00
         21   -1    0    0  503  501  0.00000000000E+00  0.00000000000E+00  0.15555356114E+03  0.15555356114E+03  0.00000000000E+00 0. -1.
         21   -1    0    0  504  502 -0.00000000000E+00 -0.00000000000E+00 -0.48118697410E+01  0.48118697410E+01  0.00000000000E+00 0. -1.
         21    1    1    2  503  502 -0.17844241355E+02 -0.14453067459E+02  0.31782351995E+02  0.39210024316E+02  0.00000000000E+00 0. -1.
         21    1    1    2  504  501  0.17844241355E+02  0.14453067459E+02  0.11895933940E+03  0.12115540656E+03  0.00000000000E+00 0. -1.
</event>
<event>
 4    1  0.3195479E+006  0.4667852E+02  0.7546771E-02  0.1313253E+00
         21   -1    0    0  504  501  0.00000000000E+00  0.00000000000E+00  0.33309125878E+02  0.33309125878E+02  0.00000000000E+00 0.  1.
         21   -1    0    0  503  502 -0.00000000000E+00 -0.00000000000E+00 -0.79082254179E+02  0.79082254179E+02  0.00000000000E+00 0.  1.
         21    1    1    2  503  501  0.40258092391E+02 -0.23625626477E+02  0.47594591734E+00  0.46680946369E+02  0.00000000000E+00 0.  1.
         21    1    1    2  504  502 -0.40258092391E+02  0.23625626477E+02 -0.46249074219E+02  0.65710433688E+02  0.00000000000E+00 0.  1.
</event>
<event>
 4    1  0.3195479E+006  0.3842257E+02  0.7546771E-02  0.1357986E+00
         21   -1    0    0  503  501  0.00000000000E+00  0.00000000000E+00  0.58309460211E+01  0.58309460211E+01  0.00000000000E+00 0.  1.
         21   -1    0    0  504  502 -0.00000000000E+00 -0.00000000000E+00 -0.30159632251E+03  0.30159632251E+03  0.00000000000E+00 0. -1.
         21    1    1    2  503  502  0.86288504921E+01 -0.37441109176E+02 -0.20946895556E+03  0.21296369893E+03  0.00000000000E+00 0. -1.
         21    1    1    2  504  501 -0.86288504921E+01  0.37441109176E+02 -0.86296420923E+02  0.94463569599E+02  0.00000000000E+00 0.  1.
</event>
<event>
 4    1  0.3195479E+006  0.6609613E+02  0.7546771E-02  0.1240417E+00
         21   -1    0    0  504  501  0.00000000000E+00  0.00000000000E+00  0.20420943221E+03  0.20420943221E+03  0.00000000000E+00 0.  1.
         21   -1    0    0  501  502 -0.00000000000E+00 -0.00000000000E+00 -0.12137288522E+03  0.12137288522E+03  0.00000000000E+00 0.  1.
         21    1    1    2  503  502 -0.17630623056E+02 -0.63701333157E+02 -0.10633115190E+03  0.12519989050E+03  0.00000000000E+00 0.  1.
         21    1    1    2  504  503  0.17630623056E+02  0.63701333157E+02  0.18916769890E+03  0.20038242693E+03  0.00000000000E+00 0.  1.
</event>
<event>
 4    1  0.3195479E+006  0.2431390E+02  0.7546771E-02  0.1476627E+00
         21   -1    0    0  503  501  0.00000000000E+00  0.00000000000E+00  0.17825943597E+02  0.17825943597E+02  0.00000000000E+00 0. -1.
         21   -1    0    0  504  502 -0.00000000000E+00 -0.00000000000E+00 -0.46102731795E+03  0.46102731795E+03  0.00000000000E+00 0.  1.
         21    1    1    2  503  502  0.15217845780E+02  0.18962674430E+02  0.90538716214E+01  0.25944911699E+02  0.00000000000E+00 0. -1.
         21    1    1    2  504  501 -0.15217845780E+02 -0.18962674430E+02 -0.45225524598E+03  0.45290834985E+03  0.00000000000E+00 0.  1.
</event>
<event>
 4    1  0.3195479E+006  0.5616343E+02  0.7546771E-02  0.1273456E+00
         21   -1    0    0  504  501  0.00000000000E+00  0.00000000000E+00  0.26412924816E+02  0.26412924816E+02  0.00000000000E+00 0.  1.
         21   -1    0    0  503  502 -0.00000000000E+00 -0.00000000000E+00 -0.16273115383E+03  0.16273115383E+03  0.00000000000E+00 0.  1.
         21    1    1    2  503  501  0.73553694824E+01  0.55679702804E+02 -0.11694659970E+03  0.12973371939E+03  0.00000000000E+00 0.  1.
         21    1    1    2  504  502 -0.73553694824E+01 -0.55679702804E+02 -0.19371629308E+02  0.59410359254E+02  0.00000000000E+00 0.  1.
</event>
<event>
 4    1  0.3195479E+006  0.3240317E+02  0.7546771E-02  0.1399800E+00
         21   -1    0    0  504  501  0.00000000000E+00  0.00000000000E+00  0.11169942873E+03  0.11169942873E+03  0.00000000000E+00 0. -1.
         21   -1    0    0  503  502 -0.00000000000E+00 -0.00000000000E+00 -0.94245546394E+01  0.94245546394E+01  0.00000000000E+00 0. -1.
         21    1    1    2  503  501  0.21447880970E+02  0.24288970843E+02  0.54233730817E+02  0.63176445460E+02  0.00000000000E+00 0. -1.
         21    1    1    2  504  502 -0.21447880970E+02 -0.24288970843E+02  0.48041143275E+02  0.57947537910E+02  0.00000000000E+00 0. -1.
</event>
<event>
 4    1  0.3195479E+006  0.3380754E+02  0.7546771E-02  0.1389146E+00
         21   -1    0    0  504  501  0.00000000000E+00  0.00000000000E+00  0.52355707745E+03  0.52355707745E+03  0.00000000000E+00 0.  1.
         21   -1    0    0  501  502 -0.00000000000E+00 -0.00000000000E+00 -0.36920122093E+01  0.36920122093E+01  0.00000000000E+00 0.  1.
         21    1    1    2  503  502  0.11166619186E+02 -0.31910127491E+02  0.91396053895E+02  0.97448387817E+02  0.00000000000E+00 0.  1.
         21    1    1    2  504  503 -0.11166619186E+02  0.31910127491E+02  0.42846901135E+03  0.42980070185E+03  0.00000000000E+00 0.  1.
</event>
<event>
 4    1  0.3195479E+006  0.2438090E+02  0.7546771E-02  0.1475850E+00
         21   -1    0    0  503  501  0.00000000000E+00  0.00000000000E+00  0.21502553175E+03  0.21502553175E+03  0.00000000000E+00 0.  1.
         21   -1    0    0  501  502 -0.00000000000E+00 -0.00000000000E+00 -0.35263011583E+02  0.35263011583E+02  0.00000000000E+00 0. -1.
         21    1    1    2  503  504  0.16976416755E+02  0.17499409948E+02  0.21002006892E+03  0.21143050258E+03  0.00000000000E+00 0.  1.
         21    1    1    2  504  502 -0.16976416755E+02 -0.17499409948E+02 -0.30257548751E+02  0.38858040749E+02  0.00000000000E+00 0. -1.
</event>
<event>
 4    1  0.3195479E+006  0.2095299E+02  0.7546771E-02  0.1519937E+00
         21   -1    0    0  504  501  0.00000000000E+00  0.00000000000E+00  0.15193444333E+02  0.15193444333E+02  0.00000000000E+00 0. -1.
         21   -1    0    0  503  502 -0.00000000000E+00 -0.00000000000E+00 -0.79041445458E+02  0.79041445458E+02  0.00000000000E+00 0. -1.
         21    1    1    2  503  501  0.93866982953E+01 -0.18732798384E+02  0.56053103745E+01  0.21689798168E+02  0.00000000000E+00 0. -1.
         21    1    1    2  504  502 -0.93866982953E+01  0.18732798384E+02 -0.69453311500E+02  0.72545091622E+02  0.00000000000E+00 0. -1.
</event>
<event>
 4    1  0.3195479E+006  0.3030946E+02  0.7546771E-02  0.1416926E+00
         21   -1    0    0  503  501  0.00000000000E+00  0.00000000000E+00  0.73977818373E+02  0.73977818373E+02  0.00000000000E+00 0.  1.
         21   -1    0    0  504  502 -0.00000000000E+00 -0.00000000000E+00 -0.14066912271E+02  0.14066912271E+02  0.00000000000E+00 0.  1.
         21    1    1    2  503  502 -0.26811595856E+02 -0.14135123254E+02  0.45027095916E+02  0.54278013490E+02  0.00000000000E+00 0.  1.
         21    1    1    2  504  501  0.26811595856E+02  0.14135123254E+02  0.14883810185E+02  0.33766717155E+02  0.00000000000E+00 0.  1.
</event>
<event>
 4    1  0.3195479E+006  0.2041409E+02  0.7546771E-02  0.1527797E+00
         21   -1    0    0  504  501  0.00000000000E+00  0.00000000000E+00  0.31879636237E+00  0.31879636237E+00  0.00000000000E+00 0. -1.
         21   -1    0    0  503  502 -0.00000000000E+00 -0.00000000000E+00 -0.13867743182E+04  0.13867743182E+04  0.00000000000E+00 0. -1.
         21    1    1    2  503  501 -0.98281029855E+01  0.17892553194E+02 -0.52710812133E+03  0.52750327642E+03  0.00000000000E+00 0. -1.
         21    1    1    2  504  502  0.98281029855E+01 -0.17892553194E+02 -0.85934740050E+03  0.85958983813E+03  0.00000000000E+00 0. -1.
</event>
<event>
 4    1  0.3195479E+006  0.2183618E+02  0.7546771E-02  0.1507653E+00
         21   -1    0    0  502  501  0.00000000000E+00  0.00000000000E+00  0.18109938829E+03  0.18109938829E+03  0.00000000000E+00 0. -1.
         21   -1    0    0  503  502 -0.00000000000E+00 -0.00000000000E+00 -0.14872162658E+02  0.14872162658E+02  0.00000000000E+00 0.  1.
         21    1    1    2  503  504 -0.15597376231E+02  0.15282042261E+02 -0.57764810612E+01  0.22587312687E+02  0.00000000000E+00 0.  1.
         21    1    1    2  504  501  0.15597376231E+02 -0.15282042261E+02  0.17200370669E+03  0.17338423826E+03  0.00000000000E+00 0. -1.
</event>
<event>
 4    1  0.3195479E+006  0.3626649E+02  0.7546771E-02  0.1371872E+00
         21   -1    0    0  502  501  0.00000000000E+00  0.00000000000E+00  0.10832105378E+04  0.10832105378E+04  0.00000000000E+00 0.  1.
         21   -1    0    0  503  502 -0.00000000000E+00 -0.00000000000E+00 -0.89038658218E+02  0.89038658218E+02  0.00000000000E+00 0.  1.
         21    1    1    2  503  504 -0.12072380750E+02 -0.34198186447E+02 -0.85028442066E+02  0.92439679215E+02  0.00000000000E+00 0.  1.
         21    1    1    2  504  501  0.12072380750E+02  0.34198186447E+02  0.10792003217E+04  0.10798095168E+04  0.00000000000E+00 0.  1.
</event>
<event>
 4    1  0.3195479E+006  0.2482479E+02  0.7546771E-02  0.1470773E+00
         21   -1    0    0  504  501  0.00000000000E+00  0.00000000000E+00  0.92750690399E+01  0.92750690399E+01  0.00000000000E+00 0. -1.
         21   -1    0    0  503  502 -0.00000000000E+00 -0.00000000000E+00 -0.71868772757E+02  0.71868772757E+02  0.00000000000E+00 0. -1.
         21    1    1    2  503  501  0.20244655670E+02 -0.14367459427E+02 -0.42443850346E+02  0.49170625436E+02  0.00000000000E+00 0. -1.
         21    1    1    2  504  502 -0.20244655670E+02  0.14367459427E+02 -0.20149853371E+02  0.31973216361E+02  0.00000000000E+00 0. -1.
</event>
<event>
 4    1  0.3195479E+006  0.2132174E+02  0.7546771E-02  0.1514720E+00
         21   -1    0    0  503  501  0.00000000000E+00  0.00000000000E+00  0.20684030647E+01  0.20684030647E+01  0.00000000000E+00 0. -1.
         21   -1    0    0  501  502 -0.00000000000E+00 -0.00000000000E+00 -0.22301269602E+03  0.22301269602E+03  0.00000000000E+00 0. -1.
         21    1    1    2  503  504  0.17420882375E+02  0.12293474630E+02 -0.12399839273E+03  0.12581819447E+03  0.00000000000E+00 0. -1.
         21    1    1    2  504  502 -0.17420882375E+02 -0.12293474630E+02 -0.96945900233E+02  0.99262904617E+02  0.00000000000E+00 0. -1.
</event>
<event>
 4    1  0.3195479E+006  0.2576574E+02  0.7546771E-02  0.1460417E+00
         21   -1    0    0  502  501  0.00000000000E+00  0.00000000000E+00  0.13954043311E+03  0.13954043311E+03  0.00000000000E+00 0.  1.
         21   -1    0    0  503  502 -0.00000000000E+00 -0.00000000000E+00 -0.11673748569E+02  0.11673748569E+02  0.00000000000E+00 0. -1.
         21    1    1    2  503  504 -0.21761814770E+01 -0.25673671112E+02  0.57376940988E+01  0.26396861324E+02  0.00000000000E+00 0. -1.
         21    1    1    2  504  501  0.21761814770E+01  0.25673671112E+02  0.12212899044E+03  0.12481732036E+03  0.00000000000E+00 0.  1.
</event>
<event>
 4    1  0.3195479E+006  0.3531148E+02  0.7546771E-02  0.1378387E+00
         21   -1    0    0  502  501  0.00000000000E+00  0.00000000000E+00  0.34962577757E+02  0.34962577757E+02  0.00000000000E+00 0.  1.
         21   -1    0    0  503  502 -0.00000000000E+00 -0.00000000000E+00 -0.76944797138E+03  0.76944797138E+03  0.00000000000E+00 0. -1.
         21    1    1    2  503  504 -0.34867290943E+02 -0.55832493767E+01 -0.76001629076E+03  0.76083616033E+03  0.00000000000E+00 0. -1.
         21    1    1    2  504  501  0.34867290943E+02  0.55832493767E+01  0.25530897134E+02  0.43574388806E+02  0.00000000000E+00 0.  1.
</event>
<event>
 4    1  0.3195479E+006  0.2229245E+02  0.7546771E-02  0.1501579E+00
         21   -1    0    0  502  501  0.00000000000E+00  0.00000000000E+00  0.45545281882E+02  0.45545281882E+02  0.00000000000E+00 0.  1.
         21   -1    0    0  504  502 -0.00000000000E+00 -0.00000000000E+00 -0.23656727427E+03  0.23656727427E+03  0.00000000000E+00 0. -1.
         21    1    1    2  503  501 -0.22279439801E+02  0.76159040075E+00  0.42253911726E+02  0.47773910390E+02  0.00000000000E+00 0.  1.
         21    1    1    2  504  503  0.22279439801E+02 -0.76159040075E+00 -0.23327590412E+03  0.23433864577E+03  0.00000000000E+00 0. -1.
</event>
<event>
 4    1  0.3195479E+006  0.3256141E+02  0.7546771E-02  0.1398569E+00
         21   -1    0    0  502  501  0.00000000000E+00  0.00000000000E+00  0.86218500537E+02  0.86218500537E+02  0.00000000000E+00 0. -1.
         21   -1    0    0  503  502 -0.00000000000E+00 -0.00000000000E+00 -0.80702536092E+02  0.80702536092E+02  0.00000000000E+00 0.  1.
         21    1    1    2  503  504  0.23193769606E+02 -0.22853765395E+02 -0.74081158371E+02  0.80921341851E+02  0.00000000000E+00 0.  1.
         21    1    1    2  504  501 -0.23193769606E+02  0.22853765395E+02  0.79597122816E+02  0.85999694778E+02  0.00000000000E+00 0. -1.
</event>
<event>
 4    1  0.3195479E+006  0.2186677E+02  0.7546771E-02  0.1507240E+00
         21   -1    0    0  503  501  0.00000000000E+00  0.00000000000E+00  0.30181394004E+01  0.30181394004E+01  0.00000000000E+00 0. -1.
         21   -1    0    0  504  502 -0.00000000000E+00 -0.00000000000E+00 -0.18145344284E+03  0.18145344284E+03  0.00000000000E+00 0. -1.
         21    1    1    2  503  502 -0.18350277391E+02  0.11892144192E+02 -0.12207459537E+03  0.12401758992E+03  0.00000000000E+00 0. -1.
         21    1    1    2  504  501  0.18350277391E+02 -0.11892144192E+02 -0.56360708066E+02  0.60453992320E+02  0.00000000000E+00 0. -1.
</event>
<event>
 4    1  0.3195479E+006  0.2381012E+02  0.7546771E-02  0.1482568E+00
         21   -1    0    0  503  501  0.00000000000E+00  0.00000000000E+00  0.22616974051E+03  0.22616974051E+03  0.00000000000E+00 0. -1.
         21   -1    0    0  504  502 -0.00000000000E+00 -0.00000000000E+00 -0.33020881056E+01  0.33020881056E+01  0.00000000000E+00 0. -1.
         21    1    1    2  503  502  0.18929271186E+02 -0.14443154266E+02  0.55119883620E+02  0.60042681345E+02  0.00000000000E+00 0. -1.
         21    1    1    2  504  501 -0.18929271186E+02  0.14443154266E+02  0.16774776879E+03  0.16942914727E+03  0.00000000000E+00 0. -1.
</event>
<event>
 4    1  0.3195479E+006  0.3314656E+02  0.7546771E-02  0.1394083E+00
         21   -1    0    0  503  501  0.00000000000E+00  0.00000000000E+00  0.89555452620E+02  0.89555452620E+02  0.00000000000E+00 0. -1.
         21   -1    0    0  504  502 -0.00000000000E+00 -0.00000000000E+00 -0.31569602419E+02  0.31569602419E+02  0.00000000000E+00 0. -1.
         21    1    1    2  503  502  0.76761313744E+01  0.32245491212E+02  0.76347566273E+02  0.83232479070E+02  0.00000000000E+00 0. -1.
         21    1    1    2  504  501 -0.76761313744E+01 -0.32245491212E+02 -0.18361716072E+02  0.37892575968E+02  0.00000000000E+00 0. -1.
</event>
<event>
 4    1  0.3195479E+006  0.2187082E+02  0.7546771E-02  0.1507186E+00
         21   -1    0    0  503  501  0.00000000000E+00  0.00000000000E+00  0.92523998917E+01  0.92523998917E+01  0.00000000000E+00 0. -1.
         21   -1    0    0  504  502 -0.00000000000E+00 -0.00000000000E+00 -0.10199459452E+03  0.10199459452E+03  0.00000000000E+00 0. -1.
         21    1    1    2  503  502 -0.17801300053E+02 -0.12706162662E+02 -0.85431609862E+02  0.88186692969E+02  0.00000000000E+00 0. -1.
         21    1    1    2  504  501  0.17801300053E+02  0.12706162662E+02 -0.73105847713E+01  0.23060301448E+02  0.00000000000E+00 0. -1.
</event>
<event>
 4    1  0.3195479E+006  0.4057086E+02  0.7546771E-02  0.1345173E+00
         21   -1    0    0  504  501  0.00000000000E+00  0.00000000000E+00  0.36291501277E+02  0.36291501277E+02  0.00000000000E+00 0. -1.
         21   -1    0    0  501  502 -0.00000000000E+00 -0.00000000000E+00 -0.33250465355E+03  0.33250465355E+03  0.00000000000E+00 0. -1.
         21    1    1    2  503  502 -0.22231562548E+02 -0.33937475184E+02 -0.31946750492E+03  0.32203335432E+03  0.00000000000E+00 0. -1.
         21    1    1    2  504  503  0.22231562548E+02  0.33937475184E+02  0.23254352640E+02  0.46762800514E+02  0.00000000000E+00 0. -1.
</event>
<event>
 4    1  0.3195479E+006  0.2118258E+02  0.7546771E-02  0.1516674E+00
         21   -1    0    0  504  501  0.00000000000E+00  0.00000000000E+00  0.88570444973E+02  0.88570444973E+02  0.00000000000E+00 0. -1.
         21   -1    0    0  501  502 -0.00000000000E+00 -0.00000000000E+00 -0.25257370977E+02  0.25257370977E+02  0.00000000000E+00 0.  1.
         21    1    1    2  503  502 -0.45796790296E+01 -0.20681591948E+02 -0.19230454386E+02  0.28609650145E+02  0.00000000000E+00 0.  1.
         21    1    1    2  504  503  0.45796790296E+01  0.20681591948E+02  0.82543528382E+02  0.85218165806E+02  0.00000000000E+00 0. -1.
</event>
<event>
 4    1  0.3195479E+006  0.2142658E+02  0.7546771E-02  0.1513261E+00
         21   -1    0    0  502  501  0.00000000000E+00  0.00000000000E+00  0.36127510834E+01  0.36127510834E+01  0.00000000000E+00 0. -1.
         21   -1    0    0  503  502 -0.00000000000E+00 -0.00000000000E+00 -0.72870385900E+03  0.72870385900E+03  0.00000000000E+00 0. -1.
         21    1    1    2  503  504 -0.20468524358E+02 -0.63354299528E+01 -0.69524869684E+03  0.69557878678E+03  0.00000000000E+00 0. -1.
         21    1    1    2  504  501  0.20468524358E+02  0.63354299528E+01 -0.29842411074E+02  0.36737823300E+02  0.00000000000E+00 0. -1.
</event>
<event>
 4    1  0.3195479E+006  0.2380168E+02  0.7546771E-02  0.1482670E+00
         21   -1    0    0  503  501  0.00000000000E+00  0.00000000000E+00  0.15342291317E+03  0.15342291317E+03  0.00000000000E+00 0. -1.
         21   -1    0    0  501  502 -0.00000000000E+00 -0.00000000000E+00 -0.10372096330E+02  0.10372096330E+02  0.00000000000E+00 0. -1.
         21    1    1    2  503  504 -0.32995948204E+01  0.23571857499E+02  0.13724748894E+03  0.13929606245E+03  0.00000000000E+00 0. -1.
         21    1    1    2  504  502  0.32995948204E+01 -0.23571857499E+02  0.58033278952E+01  0.24498947051E+02  0.00000000000E+00 0. -1.
</event>
<event>
 4    1  0.3195479E+006  0.4448412E+02  0.7546771E-02  0.1324039E+00
         21   -1    0    0  503  501  0.00000000000E+00  0.00000000000E+00  0.86890454314E+02  0.86890454314E+02  0.00000000000E+00 0. -1.
         21   -1    0    0  504  502 -0.00000000000E+00 -0.00000000000E+00 -0.11641082226E+03  0.11641082226E+03  0.00000000000E+00 0.  1.
         21    1    1    2  503  502  0.21652194423E+02  0.38858965209E+02  0.76406663775E+02  0.88412753433E+02  0.00000000000E+00 0. -1.
         21    1    1    2  504  501 -0.21652194423E+02 -0.38858965209E+02 -0.10592703172E+03  0.11488852314E+03  0.00000000000E+00 0.  1.
</event>
<event>
 4    1  0.3195479E+006  0.2670738E+02  0.7546771E-02  0.1450570E+00
         21   -1    0    0  503  501  0.00000000000E+00  0.00000000000E+00  0.34484535173E+02  0.34484535173E+02  0.00000000000E+00 0.  1.
         21   -1    0    0  504  502 -0.00000000000E+00 -0.00000000000E+00 -0.11405108979E+03  0.11405108979E+03  0.00000000000E+00 0.  1.
         21    1    1    2  503  502 -0.10979845434E+01  0.26684799712E+02 -0.10697989603E+03  0.11026324075E+03  0.00000000000E+00 0.  1.
         21    1    1    2  504  501  0.10979845434E+01 -0.26684799712E+02  0.27413341415E+02  0.38272384212E+02  0.00000000000E+00 0.  1.
</event>
<event>
 4    1  0.3195479E+006  0.2197821E+02  0.7546771E-02  0.1505743E+00
         21   -1    0    0  504  501  0.00000000000E+00  0.00000000000E+00  0.90261238026E+02  0.90261238026E+02  0.00000000000E+00 0. -1.
         21   -1    0    0  501  502 -0.00000000000E+00 -0.00000000000E+00 -0.28515634825E+02  0.28515634825E+02  0.00000000000E+00 0. -1.
         21    1    1    2  503  502 -0.46982309570E+01 -0.21470169099E+02 -0.22653535674E+02  0.31563019719E+02  0.00000000000E+00 0. -1.
         21    1    1    2  504  503  0.46982309570E+01  0.21470169099E+02  0.84399138875E+02  0.87213853132E+02  0.00000000000E+00 0. -1.
</event>
<event>
 4    1  0.3195479E+006  0.2021632E+02  0.7546771E-02  0.1530754E+00
         21   -1    0    0  503  501  0.00000000000E+00  0.00000000000E+00  0.40483202202E+03  0.40483202202E+03  0.00000000000E+00 0.  1.
         21   -1    0    0  501  502 -0.00000000000E+00 -0.00000000000E+00 -0.12548367590E+01  0.12548367590E+01  0.00000000000E+00 0.  1.
         21    1    1    2  503  504  0.19994510995E+02 -0.29864793913E+01  0.29155821526E+03  0.29225826321E+03  0.00000000000E+00 0.  1.
         21    1    1    2  504  502 -0.19994510995E+02  0.29864793913E+01  0.11201897000E+03  0.11382859557E+03  0.00000000000E+00 0.  1.
</event>
<event>
 4    1  0.3195479E+006  0.2049675E+02  0.7546771E-02  0.1526573E+00
         21   -1    0    0  502  501  0.00000000000E+00  0.00000000000E+00  0.12526422251E+03  0.12526422251E+03  0.00000000000E+00 0. -1.
         21   -1    0    0  504  502 -0.00000000000E+00 -0.00000000000E+00 -0.49938699832E+01  0.49938699832E+01  0.00000000000E+00 0.  1.
         21    1    1    2  503  501 -0.15172743866E+02 -0.13780587211E+02  0.97458592091E+02  0.99590631651E+02  0.00000000000E+00 0. -1.
         21    1    1    2  504  503  0.15172743866E+02  0.13780587211E+02  0.22811760436E+02  0.30667460843E+02  0.00000000000E+00 0.  1.
</event>
<event>
 4    1  0.3195479E+006  0.2175235E+02  0.7546771E-02  0.1508789E+00
         21   -1    0    0  504  501  0.00000000000E+00  0.00000000000E+00  0.18220139880E+02  0.18220139880E+02  0.00000000000E+00 0. -1.
         21   -1    0    0  503  502 -0.00000000000E+00 -0.00000000000E+00 -0.14397054643E+03  0.14397054643E+03  0.00000000000E+00 0. -1.
         21    1    1    2  503  501 -0.19973546460E+02 -0.86152386313E+01  0.10542758670E+02  0.24172601333E+02  0.00000000000E+00 0. -1.
         21    1    1    2  504  502  0.19973546460E+02  0.86152386313E+01 -0.13629316522E+03  0.13801808497E+03  0.00000000000E+00 0. -1.
</event>
<event>
 4    1  0.3195479E+006  0.2465408E+02  0.7546771E-02  0.1472711E+00
         21   -1    0    0  504  501  0.00000000000E+00  0.00000000000E+00  0.19319021822E+02  0.19319021822E+02  0.00000000000E+00 0. -1.
         21   -1    0    0  503  502 -0.00000000000E+00 -0.00000000000E+00 -0.31784034341E+02  0.31784034341E+02  0.00000000000E+00 0. -1.
         21    1    1    2  503  501 -0.14458942512E+02  0.19969037617E+02 -0.36622911792E+01  0.24924603479E+02  0.00000000000E+00 0. -1.
         21    1    1    2  504  502  0.14458942512E+02 -0.19969037617E+02 -0.88027213402E+01  0.26178452684E+02  0.00000000000E+00 0. -1.
</event>
<event>
 4    1  0.3195479E+006  0.2283426E+02  0.7546771E-02  0.1494590E+00
         21   -1    0    0  503  501  0.00000000000E+00  0.00000000000E+00  0.26514778923E+02  0.26514778923E+02  0.00000000000E+00 0. -1.
         21   -1    0    0  504  502 -0.00000000000E+00 -0.00000000000E+00 -0.42414911962E+02  0.42414911962E+02  0.00000000000E+00 0. -1.
         21    1    1    2  503  502 -0.18757486043E+02  0.13021517620E+02  0.17291161661E+02  0.28642406941E+02  0.00000000000E+00 0. -1.
         21    1    1    2  504  501  0.18757486043E+02 -0.13021517620E+02 -0.33191294699E+02  0.40287283944E+02  0.00000000000E+00 0. -1.
</event>
<event>
 4    1  0.3195479E+006  0.3061529E+02  0.7546771E-02  0.1414324E+00
         21   -1    0    0  503  501  0.00000000000E+00  0.00000000000E+00  0.42142507613E+03  0.42142507613E+03  0.00000000000E+00 0. -1.
         21   -1    0    0  504  502 -0.00000000000E+00 -0.00000000000E+00 -0.33549910321E+01  0.33549910321E+01  0.00000000000E+00 0. -1.
         21    1    1    2  503  502 -0.29948062298E+02  0.63568424754E+01  0.85725456223E+02  0.91028290801E+02  0.00000000000E+00 0. -1.
         21    1    1    2  504  501  0.29948062298E+02 -0.63568424754E+01  0.33234462887E+03  0.33375177636E+03  0.00000000000E+00 0. -1.
</event>
<event>
 4    1  0.3195479E+006  0.2306704E+02  0.7546771E-02  0.1491658E+00
         21   -1    0    0  504  501  0.00000000000E+00  0.00000000000E+00  0.23180747866E+02  0.23180747866E+02  0.00000000000E+00 0. -1.
         21   -1    0    0  503  502 -0.00000000000E+00 -0.00000000000E+00 -0.31623837214E+02  0.31623837214E+02  0.00000000000E+00 0.  1.
         21    1    1    2  503  501 -0.13341340357E+02 -0.18817464849E+02 -0.18569427861E+02  0.29612699927E+02  0.00000000000E+00 0.  1.
         21    1    1    2  504  502  0.13341340357E+02  0.18817464849E+02  0.10126338513E+02  0.25191885153E+02  0.00000000000E+00 0. -1.
</event>
<event>
 4    1  0.3195479E+006  0.2396439E+02  0.7546771E-02  0.1480731E+00
         21   -1    0    0  502  501  0.00000000000E+00  0.00000000000E+00  0.14474893036E+02  0.14474893036E+02  0.00000000000E+00 0.  1.
         21   -1    0    0  503  502 -0.00000000000E+00 -0.00000000000E+00 -0.25312105686E+03  0.25312105686E+03  0.00000000000E+00 0. -1.
         21    1    1    2  503  504  0.11260656840E+02 -0.21153948133E+02 -0.24218843511E+03  0.24337117746E+03  0.00000000000E+00 0. -1.
         21    1    1    2  504  501 -0.11260656840E+02  0.21153948133E+02  0.35422712848E+01  0.24224772443E+02  0.00000000000E+00 0.  1.
</event>
<event>
 4    1  0.3195479E+006  0.2281818E+02  0.7546771E-02  0.1494794E+00
         21   -1    0    0  502  501  0.00000000000E+00  0.00000000000E+00  0.18321581108E+02  0.18321581108E+02  0.00000000000E+00 0. -1.
         21   -1    0    0  504  502 -0.00000000000E+00 -0.00000000000E+00 -0.68696935961E+02  0.68696935961E+02  0.00000000000E+00 0. -1.
         21    1    1    2  503  501  0.14940724376E+02  0.17246568940E+02  0.81281055245E+01  0.24222623403E+02  0.00000000000E+00 0. -1.
         21    1    1    2  504  503 -0.14940724376E+02 -0.17246568940E+02 -0.58503460378E+02  0.62795893666E+02  0.00000000000E+00 0. -1.
</event>
<event>
 4    1  0.3195479E+006  0.2176168E+02  0.7546771E-02  0.1508662E+00
         21   -1    0    0  504  501  0.00000000000E+00  0.00000000000E+00  0.48789268179E+03  0.48789268179E+03  0.00000000000E+00 0. -1.
         21   -1    0    0  503  502 -0.00000000000E+00 -0.00000000000E+00 -0.30349227002E+01  0.30349227002E+01  0.00000000000E+00 0.  1.
         21    1    1    2  503  501  0.21599385651E+02  0.26527809550E+01  0.39988251564E+02  0.45526156992E+02  0.00000000000E+00 0.  1.
         21    1    1    2  504  502 -0.21599385651E+02 -0.26527809550E+01  0.44486950752E+03  0.44540144750E+03  0.00000000000E+00 0. -1.
</event>
<event>
 4    1  0.3195479E+006  0.2487978E+02  0.7546771E-02  0.1470153E+00
         21   -1    0    0  503  501  0.00000000000E+00  0.00000000000E+00  0.10586116392E+03  0.10586116392E+03  0.00000000000E+00 0. -1.
         21   -1    0    0  504  502 -0.00000000000E+00 -0.00000000000E+00 -0.73594325260E+01  0.73594325260E+01  0.00000000000E+00 0. -1.
         21    1    1    2  503  502  0.49145496295E+01  0.24389563448E+02  0.23590312809E+02  0.34285659709E+02  0.00000000000E+00 0. -1.
         21    1    1    2  504  501 -0.49145496295E+01 -0.24389563448E+02  0.74911418582E+02  0.78934936734E+02  0.00000000000E+00 0. -1.
</event>
<event>
 4    1  0.3195479E+006  0.2598679E+02  0.7546771E-02  0.1458060E+00
         21   -1    0    0  503  501  0.00000000000E+00  0.00000000000E+00  0.27140240394E+03  0.27140240394E+03  0.00000000000E+00 0.  1.
         21   -1    0    0  501  502 -0.00000000000E+00 -0.00000000000E+00 -0.25107001922E+01  0.25107001922E+01  0.00000000000E+00 0.  1.
         21    1    1    2  503  504  0.18161078235E+02 -0.18587319145E+02  0.14740069270E+03  0.14967390355E+03  0.00000000000E+00 0.  1.
         21    1    1    2  504  502 -0.18161078235E+02  0.18587319145E+02  0.12149101105E+03  0.12423920058E+03  0.00000000000E+00 0.  1.
</event>
<event>
 4    1  0.3195479E+006  0.2103650E+02  0.7546771E-02  0.1518744E+00
         21   -1    0    0  503  501  0.00000000000E+00  0.00000000000E+00  0.24882203666E+01  0.24882203666E+01  0.00000000000E+00 0. -1.
         21   -1    0    0  504  502 -0.00000000000E+00 -0.00000000000E+00 -0.18224001948E+03  0.18224001948E+03  0.00000000000E+00 0. -1.
         21    1    1    2  503  502 -0.20470006031E+00 -0.21035506965E+02 -0.10420852991E+03  0.10631063993E+03  0.00000000000E+00 0. -1.
         21    1    1    2  504  501  0.20470006031E+00  0.21035506965E+02 -0.75543269202E+02  0.78417599920E+02  0.00000000000E+00 0. -1.
</event>
<event>
 4    1  0.3195479E+006  0.3250881E+02  0.7546771E-02  0.1398977E+00
         21   -1    0    0  504  501  0.00000000000E+00  0.00000000000E+00  0.93416006778E+01  0.93416006778E+01  0.00000000000E+00 0. -1.
         21   -1    0    0  501  502 -0.00000000000E+00 -0.00000000000E+00 -0.56942383419E+03  0.56942383419E+03  0.00000000000E+00 0. -1.
         21    1    1    2  503  502  0.32484370220E+02 -0.12604264797E+01 -0.53908698983E+03  0.54006629740E+03  0.00000000000E+00 0. -1.
         21    1    1    2  504  503 -0.32484370220E+02  0.12604264797E+01 -0.20995243683E+02  0.38699137469E+02  0.00000000000E+00 0. -1.
</event>
<event>
 4    1  0.3195479E+006  0.2304825E+02  0.7546771E-02  0.1491893E+00
         21   -1    0    0  504  501  0.00000000000E+00  0.00000000000E+00  0.23666583322E+01  0.23666583322E+01  0.00000000000E+00 0.  1.
         21   -1    0    0  503  502 -0.00000000000E+00 -0.00000000000E+00 -0.35708136300E+03  0.35708136300E+03  0.00000000000E+00 0.  1.
         21    1    1    2  503  501 -0.12064225780E+02 -0.19638646882E+02 -0.67828644938E+02  0.71637609320E+02  0.00000000000E+00 0.  1.
         21    1    1    2  504  502  0.12064225780E+02  0.19638646882E+02 -0.28688605973E+03  0.28781041201E+03  0.00000000000E+00 0.  1.
</event>
<event>
 4    1  0.3195479E+006  0.2008555E+02  0.7546771E-02  0.1532732E+00
         21   -1    0    0  502  501  0.00000000000E+00  0.00000000000E+00  0.16063901101E+02  0.16063901101E+02  0.00000000000E+00 0.  1.
         21   -1    0    0  503  502 -0.00000000000E+00 -0.00000000000E+00 -0.19403679296E+03  0.19403679296E+03  0.00000000000E+00 0. -1.
         21    1    1    2  503  504  0.19942360943E+02  0.23940829962E+01 -0.18700302200E+03  0.18807859961E+03  0.00000000000E+00 0. -1.
         21    1    1    2  504  501 -0.19942360943E+02 -0.23940829962E+01  0.90301301467E+01  0.22022094447E+02  0.00000000000E+00 0.  1.
</event>
<event>
 4    1  0.3195479E+006  0.2741180E+02  0.7546771E-02  0.1443515E+00
         21   -1    0    0  503  501  0.00000000000E+00  0.00000000000E+00  0.71809461270E+01  0.71809461270E+01  0.00000000000E+00 0. -1.
         21   -1    0    0  504  502 -0.00000000000E+00 -0.00000000000E+00 -0.15326727643E+03  0.15326727643E+03  0.00000000000E+00 0.  1.
         21    1    1    2  503  502  0.26150045928E+02  0.82208241926E+01 -0.11823133354E+03  0.12136743831E+03  0.00000000000E+00 0.  1.
         21    1    1    2  504  501 -0.26150045928E+02 -0.82208241926E+01 -0.27854996769E+02  0.39080784248E+02  0.00000000000E+00 0. -1.
</event>
<event>
 4    1  0.3195479E+006  0.2723022E+02  0.7546771E-02  0.1445309E+00
         21   -1    0    0  504  501  0.00000000000E+00  0.00000000000E+00  0.31142885171E+01  0.31142885171E+01  0.00000000000E+00 0. -1.
         21   -1    0    0  503  502 -0.00000000000E+00 -0.00000000000E+00 -0.34861715041E+03  0.34861715041E+03  0.00000000000E+00 0. -1.
         21    1    1    2  503  501  0.23319474941E+02 -0.14060119141E+02 -0.27177506024E+03  0.27313580547E+03  0.00000000000E+00 0. -1.
         21    1    1    2  504  502 -0.23319474941E+02  0.14060119141E+02 -0.73727801654E+02  0.78595633457E+02  0.00000000000E+00 0. -1.
</event>
<event>
 4    1  0.3195479E+006  0.2098173E+02  0.7546771E-02  0.1519526E+00
         21   -1    0    0  502  501  0.00000000000E+00  0.00000000000E+00  0.21760204943E+02  0.21760204943E+02  0.00000000000E+00 0. -1.
         21   -1    0    0  503  502 -0.00000000000E+00 -0.00000000000E+00 -0.23305922234E+02  0.23305922234E+02  0.00000000000E+00 0. -1.
         21    1    1    2  503  504 -0.37710752847E+01  0.20640055939E+02 -0.89574497287E+01  0.22813785824E+02  0.00000000000E+00 0. -1.
         21    1    1    2  504  501  0.37710752847E+01 -0.20640055939E+02  0.74117324374E+01  0.22252341353E+02  0.00000000000E+00 0. -1.
</event>
<event>
 4    1  0.3195479E+006  0.2356339E+02  0.7546771E-02  0.1485542E+00
         21   -1    0    0  504  501  0.00000000000E+00  0.00000000000E+00  0.10377485977E+03  0.10377485977E+03  0.00000000000E+00 0. -1.
         21   -1    0    0  503  502 -0.00000000000E+00 -0.00000000000E+00 -0.29526568705E+03  0.29526568705E+03  0.00000000000E+00 0.  1.
         21    1    1    2  503  501  0.83109307509E+01 -0.22049075118E+02 -0.29344971856E+03  0.29439424351E+03  0.00000000000E+00 0.  1.
         21    1    1    2  504  502 -0.83109307509E+01  0.22049075118E+02  0.10195889129E+03  0.10464630331E+03  0.00000000000E+00 0. -1.
</event>
<event>
 4    1  0.3195479E+006  0.2522138E+02  0.7546771E-02  0.1466342E+00
         21   -1    0    0  504  501  0.00000000000E+00  0.00000000000E+00  0.70541860783E+01  0.70541860783E+01  0.00000000000E+00 0.  1.
         21   -1    0    0  503  502 -0.00000000000E+00 -0.00000000000E+00 -0.92197144051E+02  0.92197144051E+02  0.00000000000E+00 0.  1.
         21    1    1    2  503  501  0.15370871862E+02 -0.19996351175E+02 -0.35223732137E+02  0.43322385296E+02  0.00000000000E+00 0.  1.
         21    1    1    2  504  502 -0.15370871862E+02  0.19996351175E+02 -0.49919225836E+02  0.55928944833E+02  0.00000000000E+00 0.  1.
</event>
<event>
 4    1  0.3195479E+006  0.2727634E+02  0.7546771E-02  0.1444852E+00
         21   -1    0    0  502  501  0.00000000000E+00  0.00000000000E+00  0.39642853664E+01  0.39642853664E+01  0.00000000000E+00 0.  1.
         21   -1    0    0  504  502 -0.00000000000E+00 -0.00000000000E+00 -0.57853831356E+03  0.57853831356E+03  0.00000000000E+00 0. -1.
         21    1    1    2  503  501  0.24322496644E+02  0.12345647293E+02 -0.47892584662E+02  0.55115320154E+02  0.00000000000E+00 0.  1.
         21    1    1    2  504  503 -0.24322496644E+02 -0.12345647293E+02 -0.52668144353E+03  0.52738727877E+03  0.00000000000E+00 0. -1.
</event>
<event>
 4    1  0.3195479E+006  0.2663267E+02  0.7546771E-02  0.1451333E+00
         21   -1    0    0  504  501  0.00000000000E+00  0.00000000000E+00  0.17975985546E+01  0.17975985546E+01  0.00000000000E+00 0. -1.
         21   -1    0    0  501  502 -0.00000000000E+00 -0.00000000000E+00 -0.49594910269E+03  0.49594910269E+03  0.00000000000E+00 0.  1.
         21    1    1    2  503  502 -0.18936666169E+02  0.18727039795E+02 -0.35959042881E+03  0.36057534003E+03  0.00000000000E+00 0.  1.
         21    1    1    2  504  503  0.18936666169E+02 -0.18727039795E+02 -0.13456107532E+03  0.13717136121E+03  0.00000000000E+00 0. -1.
</event>
<event>
 4    1  0.3195479E+006  0.2502796E+02  0.7546771E-02  0.1468491E+00
         21   -1    0    0  504  501  0.00000000000E+00  0.00000000000E+00  0.15485906259E+01  0.15485906259E+01  0.00000000000E+00 0.  1.
         21   -1    0    0  503  502 -0.00000000000E+00 -0.00000000000E+00 -0.64421931077E+03  0.64421931077E+03  0.00000000000E+00 0.  1.
         21    1    1    2  503  501 -0.21267095000E+02 -0.13195063382E+02 -0.51829830956E+03  0.51890224197E+03  0.00000000000E+00 0.  1.
         21    1    1    2  504  502  0.21267095000E+02  0.13195063382E+02 -0.12437241058E+03  0.12686565942E+03  0.00000000000E+00 0.  1.
</event>
<event>
 4    1  0.3195479E+006  0.2333849E+02  0.7546771E-02  0.1488291E+00
         21   -1    0    0  503  501  0.00000000000E+00  0.00000000000E+00  0.51976597698E+02  0.51976597698E+02  0.00000000000E+00 0. -1.
         21   -1    0    0  501  502 -0.00000000000E+00 -0.00000000000E+00 -0.31935886717E+02  0.31935886717E+02  0.00000000000E+00 0.  1.
         21    1    1    2  503  504  0.19966146005E+02  0.12084630543E+02  0.44410663441E+02  0.50169635328E+02  0.00000000000E+00 0. -1.
         21    1    1    2  504  502 -0.19966146005E+02 -0.12084630543E+02 -0.24369952460E+02  0.33742849087E+02  0.00000000000E+00 0.  1.
</event>
<event>
 4    1  0.3195479E+006  0.3030969E+02  0.7546771E-02  0.1416924E+00
         21   -1    0    0  504  501  0.00000000000E+00  0.00000000000E+00  0.12824583933E+02  0.12824583933E+02  0.00000000000E+00 0. -1.
         21   -1    0    0  501  502 -0.00000000000E+00 -0.00000000000E+00 -0.72877102003E+02  0.72877102003E+02  0.00000000000E+00 0. -1.
         21    1    1    2  503  502 -0.27853074991E+02 -0.11953391131E+02 -0.35622574852E+02  0.46772269402E+02  0.00000000000E+00 0. -1.
         21    1    1    2  504  503  0.27853074991E+02  0.11953391131E+02 -0.24429943218E+02  0.38929416533E+02  0.00000000000E+00 0. -1.
</event>
<event>
 4    1  0.3195479E+006  0.2582908E+02  0.7546771E-02  0.1459738E+00
         21   -1    0    0  503  501  0.00000000000E+00  0.00000000000E+00  0.71447703015E+02  0.71447703015E+02  0.00000000000E+00 0. -1.
         21   -1    0    0  501  502 -0.00000000000E+00 -0.00000000000E+00 -0.10992843057E+03  0.10992843057E+03  0.00000000000E+00 0. -1.
         21    1    1    2  503  504 -0.78488598362E+01 -0.24607659773E+02  0.67510655393E+02  0.72282986323E+02  0.00000000000E+00 0. -1.
         21    1    1    2  504  502  0.78488598362E+01  0.24607659773E+02 -0.10599138295E+03  0.10909314727E+03  0.00000000000E+00 0. -1.
</event>
<event>
 4    1  0.3195479E+006  0.3933599E+02  0.7546771E-02  0.1352421E+00
         21   -1    0    0  502  501  0.00000000000E+00  0.00000000000E+00  0.26967091468E+03  0.26967091468E+03  0.00000000000E+00 0.  1.
         21   -1    0    0  504  502 -0.00000000000E+00 -0.00000000000E+00 -0.12000451338E+03  0.12000451338E+03  0.00000000000E+00 0.  1.
         21    1    1    2  503  501 -0.38631848311E+02 -0.74094725720E+01  0.26495595082E+03  0.26785999302E+03  0.00000000000E+00 0.  1.
         21    1    1    2  504  503  0.38631848311E+02  0.74094725720E+01 -0.11528954951E+03  0.12181543504E+03  0.00000000000E+00 0.  1.
</event>
<event>
 4    1  0.3195479E+006  0.3149151E+02  0.7546771E-02  0.1407063E+00
         21   -1    0    0  502  501  0.00000000000E+00  0.00000000000E+00  0.64327878559E+03  0.64327878559E+03  0.00000000000E+00 0. -1.
         21   -1    0    0  504  502 -0.00000000000E+00 -0.00000000000E+00 -0.43270739519E+01  0.43270739519E+01  0.00000000000E+00 0.  1.
         21    1    1    2  503  501 -0.25569900584E+02 -0.18381932269E+02  0.57926961938E+03  0.58012499272E+03  0.00000000000E+00 0. -1.
         21    1    1    2  504  503  0.25569900584E+02  0.18381932269E+02  0.59682092263E+02  0.67480866820E+02  0.00000000000E+00 0.  1.
</event>
<event>
 4    1  0.3195479E+006  0.2168571E+02  0.7546771E-02  0.1509696E+00
         21   -1    0    0  503  501  0.00000000000E+00  0.00000000000E+00  0.13401517308E+02  0.13401517308E+02  0.00000000000E+00 0.  1.
         21   -1    0    0  504  502 -0.00000000000E+00 -0.00000000000E+00 -0.47247741914E+02  0.47247741914E+02  0.00000000000E+00 0.  1.
         21    1    1    2  503  502  0.18482888651E+02 -0.11342521293E+02 -0.15409585164E+01  0.21740389033E+02  0.00000000000E+00 0.  1.
         21    1    1    2  504  501 -0.18482888651E+02  0.11342521293E+02 -0.32305266090E+02  0.38908870188E+02  0.00000000000E+00 0.  1.
</event>
<event>
 4    1  0.3195479E+006  0.2305779E+02  0.7546771E-02  0.1491774E+00
         21   -1    0    0  504  501  0.00000000000E+00  0.00000000000E+00  0.41596658586E+01  0.41596658586E+01  0.00000000000E+00 0. -1.
         21   -1    0    0  501  502 -0.00000000000E+00 -0.00000000000E+00 -0.67280441557E+03  0.67280441557E+03  0.00000000000E+00 0. -1.
         21    1    1    2  503  502  0.25140367210E+01  0.22920329660E+02 -0.63896158702E+03  0.63937748755E+03  0.00000000000E+00 0. -1.
         21    1    1    2  504  503 -0.25140367210E+01 -0.22920329660E+02 -0.29683162687E+02  0.37586593879E+02  0.00000000000E+00 0. -1.
</event>
<event>
 4    1  0.3195479E+006  0.2798038E+02  0.7546771E-02  0.1438001E+00
         21   -1    0    0  502  501  0.00000000000E+00  0.00000000000E+00  0.12685784657E+03  0.12685784657E+03  0.00000000000E+00 0.  1.
         21   -1    0    0  504  502 -0.00000000000E+00 -0.00000000000E+00 -0.33583229912E+02  0.33583229912E+02  0.00000000000E+00 0. -1.
         21    1    1    2  503  501  0.26335800842E+02  0.94512976236E+01  0.11911305071E+03  0.12235530345E+03  0.00000000000E+00 0.  1.
         21    1    1    2  504  503 -0.26335800842E+02 -0.94512976236E+01 -0.25838434056E+02  0.38085773029E+02  0.00000000000E+00 0. -1.
</event>
<event>
 4    1  0.3195479E+006  0.2103502E+02  0.7546771E-02  0.1518765E+00
         21   -1    0    0  503  501  0.00000000000E+00  0.00000000000E+00  0.13408936369E+03  0.13408936369E+03  0.00000000000E+00 0.  1.
         21   -1    0    0  504  502 -0.00000000000E+00 -0.00000000000E+00 -0.78938224088E+01  0.78938224088E+01  0.00000000000E+00 0.  1.
         21    1    1    2  503  502 -0.19201876563E+02 -0.85883733129E+01  0.11725523744E+03  0.11912708730E+03  0.00000000000E+00 0.  1.
         21    1    1    2  504  501  0.19201876563E+02  0.85883733129E+01  0.89403038351E+01  0.22856098800E+02  0.00000000000E+00 0.  1.
</event>
<event>
 4    1  0.3195479E+006  0.3025474E+02  0.7546771E-02  0.1417395E+00
         21   -1    0    0  504  501  0.00000000000E+00  0.00000000000E+00  0.20614782410E+01  0.20614782410E+01  0.00000000000E+00 0. -1.
         21   -1    0    0  503  502 -0.00000000000E+00 -0.00000000000E+00 -0.51490476688E+03  0.51490476688E+03  0.00000000000E+00 0.  1.
         21    1    1    2  503  501 -0.39827278507E-01  0.30254715330E+02 -0.16051965157E+03  0.16334597615E+03  0.00000000000E+00 0. -1.
         21    1    1    2  504  502  0.39827278507E-01 -0.30254715330E+02 -0.35232363708E+03  0.35362026897E+03  0.00000000000E+00 0.  1.
</event>
<event>
 4    1  0.3195479E+006  0.2539179E+02  0.7546771E-02  0.1464468E+00
         21   -1    0    0  504  501  0.00000000000E+00  0.00000000000E+00  0.12477811078E+03  0.12477811078E+03  0.00000000000E+00 0. -1.
         21   -1    0    0  503  502 -0.00000000000E+00 -0.00000000000E+00 -0.59172571378E+01  0.59172571378E+01  0.00000000000E+00 0. -1.
         21    1    1    2  503  501  0.15860057188E+02 -0.19829307390E+02  0.82697500502E+02  0.86507915446E+02  0.00000000000E+00 0. -1.
         21    1    1    2  504  502 -0.15860057188E+02  0.19829307390E+02  0.36163353138E+02  0.44187452469E+02  0.00000000000E+00 0. -1.
</event>
<event>
 4    1  0.3195479E+006  0.2000520E+02  0.7546771E-02  0.1533956E+00
         21   -1    0    0  502  501  0.00000000000E+00  0.00000000000E+00  0.64545124929E+03  0.64545124929E+03  0.00000000000E+00 0. -1.
         21   -1    0    0  503  502 -0.00000000000E+00 -0.00000000000E+00 -0.50555102779E+01  0.50555102779E+01  0.00000000000E+00 0.  1.
         21    1    1    2  503  504 -0.91723521032E+01 -0.17778528303E+02  0.15542410207E+02  0.25333271142E+02  0.00000000000E+00 0.  1.
         21    1    1    2  504  501  0.91723521032E+01  0.17778528303E+02  0.62485332880E+03  0.62517348843E+03  0.00000000000E+00 0. -1.
</event>
<event>
 4    1  0.3195479E+006  0.3066723E+02  0.7546771E-02  0.1413885E+00
         21   -1    0    0  503  501  0.00000000000E+00  0.00000000000E+00  0.47227940427E+02  0.47227940427E+02  0.00000000000E+00 0. -1.
         21   -1    0    0  504  502 -0.00000000000E+00 -0.00000000000E+00 -0.90079974184E+02  0.90079974184E+02  0.00000000000E+00 0. -1.
         21    1    1    2  503  502 -0.26353143155E+02  0.15684100079E+02 -0.82018103961E+02  0.87563968199E+02  0.00000000000E+00 0. -1.
         21    1    1    2  504  501  0.26353143155E+02 -0.15684100079E+02  0.39166070204E+02  0.49743946412E+02  0.00000000000E+00 0. -1.
</event>
<event>
 4    1  0.3195479E+006  0.2294136E+02  0.7546771E-02  0.1493236E+00
         21   -1    0    0  502  501  0.00000000000E+00  0.00000000000E+00  0.44550593932E+02  0.44550593932E+02  0.00000000000E+00 0.  1.
         21   -1    0    0  504  502 -0.00000000000E+00 -0.00000000000E+00 -0.22722841912E+02  0.22722841912E+02  0.00000000000E+00 0. -1.
         21    1    1    2  503  501 -0.90704746392E+01 -0.21072074364E+02  0.34220440771E+02  0.41198839726E+02  0.00000000000E+00 0.  1.
         21    1    1    2  504  503  0.90704746392E+01  0.21072074364E+02 -0.12392688752E+02  0.26074596118E+02  0.00000000000E+00 0. -1.
</event>
<event>
 4    1  0.3195479E+006  0.2140332E+02  0.7546771E-02  0.1513584E+00
         21   -1    0    0  502  501  0.00000000000E+00  0.00000000000E+00  0.96425403803E+01  0.96425403803E+01  0.00000000000E+00 0. -1.
         21   -1    0    0  504  502 -0.00000000000E+00 -0.00000000000E+00 -0.87440878510E+02  0.87440878510E+02  0.00000000000E+00 0. -1.
         21    1    1    2  503  501 -0.20323248390E+02  0.67132492862E+01 -0.60956319295E+01  0.22254412365E+02  0.00000000000E+00 0. -1.
         21    1    1    2  504  503  0.20323248390E+02 -0.67132492862E+01 -0.71702706200E+02  0.74829006525E+02  0.00000000000E+00 0. -1.
</event>
<event>
 4    1  0.3195479E+006  0.2609557E+02  0.7546771E-02  0.1456911E+00
         21   -1    0    0  502  501  0.00000000000E+00  0.00000000000E+00  0.67499277155E+01  0.67499277155E+01  0.00000000000E+00 0.  1.
         21   -1    0    0  503  502 -0.00000000000E+00 -0.00000000000E+00 -0.50321390073E+03  0.50321390073E+03  0.00000000000E+00 0. -1.
         21    1    1    2  503  504  0.26089028027E+02 -0.58439163508E+00 -0.47622560066E+03  0.47694003986E+03  0.00000000000E+00 0. -1.
         21    1    1    2  504  501 -0.26089028027E+02  0.58439163508E+00 -0.20238372353E+02  0.33023788585E+02  0.00000000000E+00 0.  1.
</event>
<event>
 4    1  0.3195479E+006  0.2998184E+02  0.7546771E-02  0.1419754E+00
         21   -1    0    0  503  501  0.00000000000E+00  0.00000000000E+00  0.12956579864E+02  0.12956579864E+02  0.00000000000E+00 0. -1.
         21   -1    0    0  504  502 -0.00000000000E+00 -0.00000000000E+00 -0.95877517684E+02  0.95877517684E+02  0.00000000000E+00 0. -1.
         21    1    1    2  503  502  0.10031735009E+02  0.28253760110E+02 -0.70068623407E+02  0.76213664482E+02  0.00000000000E+00 0. -1.
         21    1    1    2  504  501 -0.10031735009E+02 -0.28253760110E+02 -0.12852314413E+02  0.32620433066E+02  0.00000000000E+00 0. -1.
</event>
<event>
 4    1  0.3195479E+006  0.3765625E+02  0.7546771E-02  0.1362796E+00
         21   -1    0    0  504  501  0.00000000000E+00  0.00000000000E+00  0.49391613577E+02  0.49391613577E+02  0.00000000000E+00 0. -1.
         21   -1    0    0  503  502 -0.00000000000E+00 -0.00000000000E+00 -0.21129829428E+03  0.21129829428E+03  0.00000000000E+00 0. -1.
         21    1    1    2  503  501 -0.29221151801E+01  0.37542703319E+02  0.40213463921E+02  0.55091886972E+02  0.00000000000E+00 0. -1.
         21    1    1    2  504  502  0.29221151801E+01 -0.37542703319E+02 -0.20212014462E+03  0.20559802089E+03  0.00000000000E+00 0. -1.
</event>
<event>
 4    1  0.3195479E+006  0.2661833E+02  0.7546771E-02  0.1451480E+00
         21   -1    0    0  504  501  0.00000000000E+00  0.00000000000E+00  0.46014326959E+02  0.46014326959E+02  0.00000000000E+00 0. -1.
         21   -1    0    0  503  502 -0.00000000000E+00 -0.00000000000E+00 -0.91533301266E+02  0.91533301266E+02  0.00000000000E+00 0. -1.
         21    1    1    2  503  501 -0.22786987177E+02 -0.13758219756E+02  0.39963417487E+02  0.48016769286E+02  0.00000000000E+00 0. -1.
         21    1    1    2  504  502  0.22786987177E+02  0.13758219756E+02 -0.85482391795E+02  0.89530858939E+02  0.00000000000E+00 0. -1.
</event>
<event>
 4    1  0.3195479E+006  0.3195746E+02  0.7546771E-02  0.1403316E+00
         21   -1    0    0  504  501  0.00000000000E+00  0.00000000000E+00  0.34282249683E+02  0.34282249683E+02  0.00000000000E+00 0. -1.
         21   -1    0    0  501  502 -0.00000000000E+00 -0.00000000000E+00 -0.31644041605E+03  0.31644041605E+03  0.00000000000E+00 0.  1.
         21    1    1    2  503  502  0.23786404665E+02  0.21342121413E+02 -0.30798199366E+03  0.30963557227E+03  0.00000000000E+00 0.  1.
         21    1    1    2  504  503 -0.23786404665E+02 -0.21342121413E+02  0.25823827295E+02  0.41087093466E+02  0.00000000000E+00 0. -1.
</event>
<event>
 4    1  0.3195479E+006  0.2234721E+02  0.7546771E-02  0.1500862E+00
         21   -1    0    0  504  501  0.00000000000E+00  0.00000000000E+00  0.40295295022E+02  0.40295295022E+02  0.00000000000E+00 0.  1.
         21   -1    0    0  503  502 -0.00000000000E+00 -0.00000000000E+00 -0.13001551943E+02  0.13001551943E+02  0.00000000000E+00 0.  1.
         21    1    1    2  503  501  0.12833539281E+02 -0.18294759362E+02  0.19410024039E+02  0.29599780131E+02  0.00000000000E+00 0.  1.
         21    1    1    2  504  502 -0.12833539281E+02  0.18294759362E+02  0.78837190400E+01  0.23697066833E+02  0.00000000000E+00 0.  1.
</event>
<event>
 4    1  0.3195479E+006  0.8610825E+02  0.7546771E-02  0.1190335E+00
         21   -1    0    0  503  501  0.00000000000E+00  0.00000000000E+00  0.14065020679E+03  0.14065020679E+03  0.00000000000E+00 0.  1.
         21   -1    0    0  504  502 -0.00000000000E+00 -0.00000000000E+00 -0.57730974878E+02  0.57730974878E+02  0.00000000000E+00 0.  1.
         21    1    1    2  503  502  0.50676798617E+02  0.69616757815E+02  0.12227171447E+02  0.86972033484E+02  0.00000000000E+00 0.  1.
         21    1    1    2  504  501 -0.50676798617E+02 -0.69616757815E+02  0.70692060469E+02  0.11140914819E+03  0.00000000000E+00 0.  1.
</event>
<event>
 4    1  0.3195479E+006  0.3635778E+02  0.7546771E-02  0.1371261E+00
         21   -1    0    0  502  501  0.00000000000E+00  0.00000000000E+00  0.32245033661E+02  0.32245033661E+02  0.00000000000E+00 0.  1.
         21   -1    0    0  503  502 -0.00000000000E+00 -0.00000000000E+00 -0.17679584218E+03  0.17679584218E+03  0.00000000000E+00 0.  1.
         21    1    1    2  503  504 -0.48394456485E+01 -0.36034259231E+02 -0.16387979361E+03  0.16786445373E+03  0.00000000000E+00 0.  1.
         21    1    1    2  504  501  0.48394456485E+01  0.36034259231E+02  0.19328985097E+02  0.41176422105E+02  0.00000000000E+00 0.  1.
</event>
<event>
 4    1  0.3195479E+006  0.2115706E+02  0.7546771E-02  0.1517034E+00
         21   -1    0    0  504  501  0.00000000000E+00  0.00000000000E+00  0.22819846777E+03  0.22819846777E+03  0.00000000000E+00 0. -1.
         21   -1    0    0  503  502 -0.00000000000E+00 -0.00000000000E+00 -0.39367069818E+01  0.39367069818E+01  0.00000000000E+00 0.  1.
         21    1    1    2  503  501  0.18170524808E+01 -0.21078890502E+02  0.29916858283E+02  0.36642048442E+02  0.00000000000E+00 0.  1.
         21    1    1    2  504  502 -0.18170524808E+01  0.21078890502E+02  0.19434490250E+03  0.19549312631E+03  0.00000000000E+00 0. -1.
</event>
<event>
 4    1  0.3195479E+006  0.2321315E+02  0.7546771E-02  0.1489839E+00
         21   -1    0    0  503  501  0.00000000000E+00  0.00000000000E+00  0.40819470522E+01  0.40819470522E+01  0.00000000000E+00 0.  1.
         21   -1    0    0  501  502 -0.00000000000E+00 -0.00000000000E+00 -0.20193350871E+03  0.20193350871E+03  0.00000000000E+00 0.  1.
         21    1    1    2  503  504  0.22999845390E+02 -0.31396732053E+01 -0.38310399174E+02  0.44794387156E+02  0.00000000000E+00 0.  1.
         21    1    1    2  504  502 -0.22999845390E+02  0.31396732053E+01 -0.15954116248E+03  0.16122106860E+03  0.00000000000E+00 0.  1.
</event>
<event>
 4    1  0.3195479E+006  0.2169520E+02  0.7546771E-02  0.1509566E+00
         21   -1    0    0  502  501  0.00000000000E+00  0.00000000000E+00  0.43875115447E+01  0.43875115447E+01  0.00000000000E+00 0. -1.
         21   -1    0    0  504  502 -0.00000000000E+00 -0.00000000000E+00 -0.15159320847E+03  0.15159320847E+03  0.00000000000E+00 0. -1.
         21    1    1    2  503  501 -0.21224890027E+02 -0.44928785976E+01 -0.31435219616E+02  0.38194959707E+02  0.00000000000E+00 0. -1.
         21    1    1    2  504  503  0.21224890027E+02  0.44928785976E+01 -0.11577047731E+03  0.11778576031E+03  0.00000000000E+00 0. -1.
</event>
<event>
 4    1  0.3195479E+006  0.3646870E+02  0.7546771E-02  0.1370522E+00
         21   -1    0    0  504  501  0.00000000000E+00  0.00000000000E+00  0.20782405243E+03  0.20782405243E+03  0.00000000000E+00 0. -1.
         21   -1    0    0  503  502 -0.00000000000E+00 -0.00000000000E+00 -0.64283682418E+01  0.64283682418E+01  0.00000000000E+00 0. -1.
         21    1    1    2  503  501  0.96147859020E+01  0.35178433865E+02  0.93516764126E+02  0.10037605038E+03  0.00000000000E+00 0. -1.
         21    1    1    2  504  502 -0.96147859020E+01 -0.35178433865E+02  0.10787892006E+03  0.11387637029E+03  0.00000000000E+00 0. -1.
</event>
<event>
 4    1  0.3195479E+006  0.2087105E+02  0.7546771E-02  0.1521114E+00
         21   -1    0    0  503  501  0.00000000000E+00  0.00000000000E+00  0.74839517962E+03  0.74839517962E+03  0.00000000000E+00 0.  1.
         21   -1    0    0  504  502 -0.00000000000E+00 -0.00000000000E+00 -0.65089577222E+01  0.65089577222E+01  0.00000000000E+00 0. -1.
         21    1    1    2  503  502  0.11249330931E+02  0.17579906886E+02  0.73112370209E+03  0.73142153942E+03  0.00000000000E+00 0.  1.
         21    1    1    2  504  501 -0.11249330931E+02 -0.17579906886E+02  0.10762519810E+02  0.23482597922E+02  0.00000000000E+00 0. -1.
</event>
<event>
 4    1  0.3195479E+006  0.3467937E+02  0.7546771E-02  0.1382831E+00
         21   -1    0    0  503  501  0.00000000000E+00  0.00000000000E+00  0.48267082126E+02  0.48267082126E+02  0.00000000000E+00 0.  1.
         21   -1    0    0  504  502 -0.00000000000E+00 -0.00000000000E+00 -0.26696235054E+02  0.26696235054E+02  0.00000000000E+00 0.  1.
         21    1    1    2  503  502 -0.18166770637E+02 -0.29540268271E+02  0.20462418010E+02  0.40266233443E+02  0.00000000000E+00 0.  1.
         21    1    1    2  504  501  0.18166770637E+02  0.29540268271E+02  0.11084290629E+01  0.34697083737E+02  0.00000000000E+00 0.  1.
</event>
<event>
 4    1  0.3195479E+006  0.2143021E+02  0.7546771E-02  0.1513210E+00
         21   -1    0    0  504  501  0.00000000000E+00  0.00000000000E+00  0.49489799285E+02  0.49489799285E+02  0.00000000000E+00 0.  1.
         21   -1    0    0  503  502 -0.00000000000E+00 -0.00000000000E+00 -0.12270494943E+02  0.12270494943E+02  0.00000000000E+00 0.  1.
         21    1    1    2  503  501 -0.21300595477E+02 -0.23534159105E+01  0.33643306887E+01  0.21692686673E+02  0.00000000000E+00 0.  1.
         21    1    1    2  504  502  0.21300595477E+02  0.23534159105E+01  0.33854973653E+02  0.40067607555E+02  0.00000000000E+00 0.  1.
</event>
<event>
 4    1  0.3195479E+006  0.2158166E+02  0.7546771E-02  0.1511120E+00
         21   -1    0    0  504  501  0.00000000000E+00  0.00000000000E+00  0.10513081698E+02  0.10513081698E+02  0.00000000000E+00 0. -1.
         21   -1    0    0  503  502 -0.00000000000E+00 -0.00000000000E+00 -0.15226732587E+03  0.15226732587E+03  0.00000000000E+00 0. -1.
         21    1    1    2  503  501 -0.21455251356E+02  0.23324212794E+01 -0.23428844317E+01  0.21708457044E+02  0.00000000000E+00 0. -1.
         21    1    1    2  504  502  0.21455251356E+02 -0.23324212794E+01 -0.13941135974E+03  0.14107195053E+03  0.00000000000E+00 0. -1.
</event>
<event>
 4    1  0.3195479E+006  0.2452242E+02  0.7546771E-02  0.1474218E+00
         21   -1    0    0  503  501  0.00000000000E+00  0.00000000000E+00  0.64831713149E+01  0.64831713149E+01  0.00000000000E+00 0. -1.
         21   -1    0    0  501  502 -0.00000000000E+00 -0.00000000000E+00 -0.27935588164E+03  0.27935588164E+03  0.00000000000E+00 0.  1.
         21    1    1    2  503  504 -0.23945957952E+02  0.52858469839E+01 -0.19629306395E+02  0.31411124624E+02  0.00000000000E+00 0. -1.
         21    1    1    2  504  502  0.23945957952E+02 -0.52858469839E+01 -0.25324340393E+03  0.25442792833E+03  0.00000000000E+00 0.  1.
</event>
<event>
 4    1  0.3195479E+006  0.2189443E+02  0.7546771E-02  0.1506868E+00
         21   -1    0    0  503  501  0.00000000000E+00  0.00000000000E+00  0.11109192711E+02  0.11109192711E+02  0.00000000000E+00 0. -1.
         21   -1    0    0  501  502 -0.00000000000E+00 -0.00000000000E+00 -0.53868437995E+02  0.53868437995E+02  0.00000000000E+00 0. -1.
         21    1    1    2  503  504 -0.89297061213E+01  0.19990661208E+02 -0.68877606738E+01  0.22952286031E+02  0.00000000000E+00 0. -1.
         21    1    1    2  504  502  0.89297061213E+01 -0.19990661208E+02 -0.35871484609E+02  0.42025344675E+02  0.00000000000E+00 0. -1.
</event>
<event>
 4    1  0.3195479E+006  0.3175701E+02  0.7546771E-02  0.1404919E+00
         21   -1    0    0  504  501  0.00000000000E+00  0.00000000000E+00  0.36190998958E+03  0.36190998958E+03  0.00000000000E+00 0.  1.
         21   -1    0    0  503  502 -0.00000000000E+00 -0.00000000000E+00 -0.13278031519E+02  0.13278031519E+02  0.00000000000E+00 0.  1.
         21    1    1    2  503  501  0.28376663620E+02  0.14257371489E+02  0.34106717740E+03  0.34254244580E+03  0.00000000000E+00 0.  1.
         21    1    1    2  504  502 -0.28376663620E+02 -0.14257371489E+02  0.75647806662E+01  0.32645575297E+02  0.00000000000E+00 0.  1.
</event>
<event>
 4    1  0.3195479E+006  0.2628239E+02  0.7546771E-02  0.1454953E+00
         21   -1    0    0  503  501  0.00000000000E+00  0.00000000000E+00  0.35809186245E+02  0.35809186245E+02  0.00000000000E+00 0.  1.
         21   -1    0    0  504  502 -0.00000000000E+00 -0.00000000000E+00 -0.21886384733E+02  0.21886384733E+02  0.00000000000E+00 0.  1.
         21    1    1    2  503  502  0.21685962184E+02 -0.14848680801E+02  0.16897093121E+02  0.31245416197E+02  0.00000000000E+00 0.  1.
         21    1    1    2  504  501 -0.21685962184E+02  0.14848680801E+02 -0.29742916089E+01  0.26450154781E+02  0.00000000000E+00 0.  1.
</event>
<event>
 4    1  0.3195479E+006  0.2422676E+02  0.7546771E-02  0.1477643E+00
         21   -1    0    0  503  501  0.00000000000E+00  0.00000000000E+00  0.59225766958E+01  0.59225766958E+01  0.00000000000E+00 0.  1.
         21   -1    0    0  504  502 -0.00000000000E+00 -0.00000000000E+00 -0.11801579543E+03  0.11801579543E+03  0.00000000000E+00 0.  1.
         21    1    1    2  503  502 -0.24044830368E+02 -0.29634557210E+01 -0.80855159462E+02  0.84406710331E+02  0.00000000000E+00 0.  1.
         21    1    1    2  504  501  0.24044830368E+02  0.29634557210E+01 -0.31238059274E+02  0.39531661797E+02  0.00000000000E+00 0.  1.
</event>
<event>
 4    1  0.3195479E+006  0.2162580E+02  0.7546771E-02  0.1510515E+00
         21   -1    0    0  504  501  0.00000000000E+00  0.00000000000E+00  0.50682421308E+02  0.50682421308E+02  0.00000000000E+00 0. -1.
         21   -1    0    0  501  502 -0.00000000000E+00 -0.00000000000E+00 -0.21213573839E+02  0.21213573839E+02  0.00000000000E+00 0. -1.
         21    1    1    2  503  502 -0.20795315633E+02 -0.59354793231E+01 -0.12286810177E+02  0.24872490253E+02  0.00000000000E+00 0. -1.
         21    1    1    2  504  503  0.20795315633E+02  0.59354793231E+01  0.41755657646E+02  0.47023504894E+02  0.00000000000E+00 0. -1.
</event>
<event>
 4    1  0.3195479E+006  0.2448216E+02  0.7546771E-02  0.1474681E+00
         21   -1    0    0  502  501  0.00000000000E+00  0.00000000000E+00  0.30655462960E+02  0.30655462960E+02  0.00000000000E+00 0. -1.
         21   -1    0    0  503  502 -0.00000000000E+00 -0.00000000000E+00 -0.26454153074E+02  0.26454153074E+02  0.00000000000E+00 0.  1.
         21    1    1    2  503  504  0.15320045455E+01 -0.24434181335E+02 -0.12484933207E+02  0.27481808758E+02  0.00000000000E+00 0.  1.
         21    1    1    2  504  501 -0.15320045455E+01  0.24434181335E+02  0.16686243092E+02  0.29627807276E+02  0.00000000000E+00 0. -1.
</event>
<event>
 4    1  0.3195479E+006  0.2177461E+02  0.7546771E-02  0.1508487E+00
         21   -1    0    0  502  501  0.00000000000E+00  0.00000000000E+00  0.28627846250E+03  0.28627846250E+03  0.00000000000E+00 0.  1.
         21   -1    0    0  504  502 -0.00000000000E+00 -0.00000000000E+00 -0.65578448147E+01  0.65578448147E+01  0.00000000000E+00 0. -1.
         21    1    1    2  503  501  0.42071350048E+01  0.21364307558E+02  0.26644622705E+03  0.26733448250E+03  0.00000000000E+00 0.  1.
         21    1    1    2  504  503 -0.42071350048E+01 -0.21364307558E+02  0.13274390638E+02  0.25501824821E+02  0.00000000000E+00 0. -1.
</event>
<event>
 4    1  0.3195479E+006  0.2066839E+02  0.7546771E-02  0.1524052E+00
         21   -1    0    0  503  501  0.00000000000E+00  0.00000000000E+00  0.64355600546E+02  0.64355600546E+02  0.00000000000E+00 0.  1.
         21   -1    0    0  501  502 -0.00000000000E+00 -0.00000000000E+00 -0.44977090524E+02  0.44977090524E+02  0.00000000000E+00 0. -1.
         21    1    1    2  503  504 -0.19947671281E+02 -0.54104444495E+01  0.60160747131E+02  0.63612089999E+02  0.00000000000E+00 0.  1.
         21    1    1    2  504  502  0.19947671281E+02  0.54104444495E+01 -0.40782237110E+02  0.45720601071E+02  0.00000000000E+00 0. -1.
</event>
<event>
 4    1  0.3195479E+006  0.3472022E+02  0.7546771E-02  0.1382541E+00
         21   -1    0    0  503  501  0.00000000000E+00  0.00000000000E+00  0.99386925128E+02  0.99386925128E+02  0.00000000000E+00 0. -1.
         21   -1    0    0  504  502 -0.00000000000E+00 -0.00000000000E+00 -0.18720579750E+02  0.18720579750E+02  0.00000000000E+00 0. -1.
         21    1    1    2  503  502  0.30966034889E+02 -0.15703456734E+02  0.52924776946E+01  0.35121278313E+02  0.00000000000E+00 0. -1.
         21    1    1    2  504  501 -0.30966034889E+02  0.15703456734E+02  0.75373867683E+02  0.82986226566E+02  0.00000000000E+00 0. -1.
</event>
<event>
 4    1  0.3195479E+006  0.2862072E+02  0.7546771E-02  0.1431973E+00
         21   -1    0    0  504  501  0.00000000000E+00  0.00000000000E+00  0.41249613937E+02  0.41249613937E+02  0.00000000000E+00 0.  1.
         21   -1    0    0  503  502 -0.00000000000E+00 -0.00000000000E+00 -0.25109905653E+03  0.25109905653E+03  0.00000000000E+00 0.  1.
         21    1    1    2  503  501  0.15992898810E+02  0.23735472257E+02 -0.24519989581E+03  0.24686460735E+03  0.00000000000E+00 0.  1.
         21    1    1    2  504  502 -0.15992898810E+02 -0.23735472257E+02  0.35350453214E+02  0.45484063122E+02  0.00000000000E+00 0.  1.
</event>
<event>
 4    1  0.3195479E+006  0.2977535E+02  0.7546771E-02  0.1421559E+00
         21   -1    0    0  504  501  0.00000000000E+00  0.00000000000E+00  0.28874777988E+03  0.28874777988E+03  0.00000000000E+00 0. -1.
         21   -1    0    0  503  502 -0.00000000000E+00 -0.00000000000E+00 -0.58697624057E+01  0.58697624057E+01  0.00000000000E+00 0. -1.
         21    1    1    2  503  501 -0.90996645678E+01  0.28350797855E+02  0.39709303236E+02  0.49632654551E+02  0.00000000000E+00 0. -1.
         21    1    1    2  504  502  0.90996645678E+01 -0.28350797855E+02  0.24316871424E+03  0.24498488773E+03  0.00000000000E+00 0. -1.
</event>
<event>
 4    1  0.3195479E+006  0.2152414E+02  0.7546771E-02  0.1511911E+00
         21   -1    0    0  503  501  0.00000000000E+00  0.00000000000E+00  0.32148692674E+02  0.32148692674E+02  0.00000000000E+00 0. -1.
         21   -1    0    0  504  502 -0.00000000000E+00 -0.00000000000E+00 -0.14576487490E+02  0.14576487490E+02  0.00000000000E+00 0. -1.
         21    1    1    2  503  502 -0.14892244473E+02  0.15540577369E+02  0.11276880023E+02  0.24299310966E+02  0.00000000000E+00 0. -1.
         21    1    1    2  504  501  0.14892244473E+02 -0.15540577369E+02  0.62953251613E+01  0.22425869198E+02  0.00000000000E+00 0. -1.
</event>
<event>
 4    1  0.3195479E+006  0.2119575E+02  0.7546771E-02  0.1516488E+00
         21   -1    0    0  504  501  0.00000000000E+00  0.00000000000E+00  0.24229108975E+02  0.24229108975E+02  0.00000000000E+00 0. -1.
         21   -1    0    0  501  502 -0.00000000000E+00 -0.00000000000E+00 -0.18542192676E+02  0.18542192676E+02  0.00000000000E+00 0. -1.
         21    1    1    2  503  502 -0.17965619226E+01 -0.21119470225E+02  0.28776682561E+01  0.21390199437E+02  0.00000000000E+00 0. -1.
         21    1    1    2  504  503  0.17965619226E+01  0.21119470225E+02  0.28092480430E+01  0.21381102215E+02  0.00000000000E+00 0. -1.
</event>
<event>
 4    1  0.3195479E+006  0.2392143E+02  0.7546771E-02  0.1481241E+00
         21   -1    0    0  503  501  0.00000000000E+00  0.00000000000E+00  0.92929372846E+02  0.92929372846E+02  0.00000000000E+00 0. -1.
         21   -1    0    0  504  502 -0.00000000000E+00 -0.00000000000E+00 -0.17385306114E+02  0.17385306114E+02  0.00000000000E+00 0. -1.
         21    1    1    2  503  502  0.20325869496E+02  0.12613236528E+02  0.82097671129E+02  0.85511767093E+02  0.00000000000E+00 0. -1.
         21    1    1    2  504  501 -0.20325869496E+02 -0.12613236528E+02 -0.65536043973E+01  0.24802911867E+02  0.00000000000E+00 0. -1.
</event>
<event>
 4    1  0.3195479E+006  0.2147937E+02  0.7546771E-02  0.1512530E+00
         21   -1    0    0  503  501  0.00000000000E+00  0.00000000000E+00  0.10301014737E+03  0.10301014737E+03  0.00000000000E+00 0. -1.
         21   -1    0    0  504  502 -0.00000000000E+00 -0.00000000000E+00 -0.49659802579E+01  0.49659802579E+01  0.00000000000E+00 0.  1.
         21    1    1    2  503  502  0.16725098253E+02 -0.13477174215E+02  0.65931729877E+02  0.69342311333E+02  0.00000000000E+00 0. -1.
         21    1    1    2  504  501 -0.16725098253E+02  0.13477174215E+02  0.32112437240E+02  0.38633816300E+02  0.00000000000E+00 0.  1.
</event>
<event>
 4    1  0.3195479E+006  0.2350891E+02  0.7546771E-02  0.1486205E+00
         21   -1    0    0  503  501  0.00000000000E+00  0.00000000000E+00  0.13978524514E+04  0.13978524514E+04  0.00000000000E+00 0. -1.
         21   -1    0    0  504  502 -0.00000000000E+00 -0.00000000000E+00 -0.39537018469E+00  0.39537018469E+00  0.00000000000E+00 0. -1.
         21    1    1    2  503  502 -0.22782999294E+02  0.57968698687E+01  0.69934144707E+03  0.69973647064E+03  0.00000000000E+00 0. -1.
         21    1    1    2  504  501  0.22782999294E+02 -0.57968698687E+01  0.69811563415E+03  0.69851135095E+03  0.00000000000E+00 0. -1.
</event>
<event>
 4    1  0.3195479E+006  0.2073015E+02  0.7546771E-02  0.1523153E+00
         21   -1    0    0  504  501  0.00000000000E+00  0.00000000000E+00  0.97896438903E+02  0.97896438903E+02  0.00000000000E+00 0.  1.
         21   -1    0    0  503  502 -0.00000000000E+00 -0.00000000000E+00 -0.19298346416E+02  0.19298346416E+02  0.00000000000E+00 0.  1.
         21    1    1    2  503  501 -0.19019939332E+02  0.82450500313E+01 -0.12204473836E+02  0.24055937393E+02  0.00000000000E+00 0.  1.
         21    1    1    2  504  502  0.19019939332E+02 -0.82450500313E+01  0.90802566323E+02  0.93138847926E+02  0.00000000000E+00 0.  1.
</event>
<event>
 4    1  0.3195479E+006  0.2423925E+02  0.7546771E-02  0.1477497E+00
         21   -1    0    0  504  501  0.00000000000E+00  0.00000000000E+00  0.82622416596E+01  0.82622416596E+01  0.00000000000E+00 0. -1.
         21   -1    0    0  503  502 -0.00000000000E+00 -0.00000000000E+00 -0.21830135665E+03  0.21830135665E+03  0.00000000000E+00 0. -1.
         21    1    1    2  503  501 -0.20069002312E+02  0.13593256636E+02 -0.12000771203E+02  0.27047365662E+02  0.00000000000E+00 0. -1.
         21    1    1    2  504  502  0.20069002312E+02 -0.13593256636E+02 -0.19803834379E+03  0.19951623265E+03  0.00000000000E+00 0. -1.
</event>
<event>
 4    1  0.3195479E+006  0.2064903E+02  0.7546771E-02  0.1524335E+00
         21   -1    0    0  504  501  0.00000000000E+00  0.00000000000E+00  0.11905394003E+02  0.11905394003E+02  0.00000000000E+00 0.  1.
         21   -1    0    0  503  502 -0.00000000000E+00 -0.00000000000E+00 -0.51559200079E+02  0.51559200079E+02  0.00000000000E+00 0.  1.
         21    1    1    2  503  501  0.60298643839E+01 -0.19749004309E+02 -0.22913510213E+01  0.20775772554E+02  0.00000000000E+00 0.  1.
         21    1    1    2  504  502 -0.60298643839E+01  0.19749004309E+02 -0.37362455055E+02  0.42688821528E+02  0.00000000000E+00 0.  1.
</event>
<event>
 4    1  0.3195479E+006  0.3526110E+02  0.7546771E-02  0.1378737E+00
         21   -1    0    0  503  501  0.00000000000E+00  0.00000000000E+00  0.15836513546E+02  0.15836513546E+02  0.00000000000E+00 0. -1.
         21   -1    0    0  504  502 -0.00000000000E+00 -0.00000000000E+00 -0.10910595490E+03  0.10910595490E+03  0.00000000000E+00 0. -1.
         21    1    1    2  503  502 -0.64866732948E+01 -0.34659320437E+02 -0.13553725367E+02  0.37776300704E+02  0.00000000000E+00 0. -1.
         21    1    1    2  504  501  0.64866732948E+01  0.34659320437E+02 -0.79715715985E+02  0.87166167740E+02  0.00000000000E+00 0. -1.
</event>
<event>
 4    1  0.3195479E+006  0.2419912E+02  0.7546771E-02  0.1477966E+00
         21   -1    0    0  503  501  0.00000000000E+00  0.00000000000E+00  0.16127770389E+03  0.16127770389E+03  0.00000000000E+00 0. -1.
         21   -1    0    0  504  502 -0.00000000000E+00 -0.00000000000E+00 -0.83151876271E+01  0.83151876271E+01  0.00000000000E+00 0. -1.
         21    1    1    2  503  502  0.17012994638E+02 -0.17209161781E+02  0.14012553693E+03  0.14219973043E+03  0.00000000000E+00 0. -1.
         21    1    1    2  504  501 -0.17012994638E+02  0.17209161781E+02  0.12836979335E+02  0.27393161084E+02  0.00000000000E+00 0. -1.
</event>
<event>
 4    1  0.3195479E+006  0.2281390E+02  0.7546771E-02  0.1494848E+00
         21   -1    0    0  504  501  0.00000000000E+00  0.00000000000E+00  0.21860198278E+02  0.21860198278E+02  0.00000000000E+00 0. -1.
         21   -1    0    0  503  502 -0.00000000000E+00 -0.00000000000E+00 -0.34434166708E+02  0.34434166708E+02  0.00000000000E+00 0. -1.
         21    1    1    2  503  501 -0.22133833245E+02  0.55287902271E+01 -0.21922192945E+02  0.31639479120E+02  0.00000000000E+00 0. -1.
         21    1    1    2  504  502  0.22133833245E+02 -0.55287902271E+01  0.93482245148E+01  0.24654885866E+02  0.00000000000E+00 0. -1.
</event>
<event>
 4    1  0.3195479E+006  0.2594619E+02  0.7546771E-02  0.1458491E+00
         21   -1    0    0  502  501  0.00000000000E+00  0.00000000000E+00  0.41846962313E+00  0.41846962313E+00  0.00000000000E+00 0. -1.
         21   -1    0    0  503  502 -0.00000000000E+00 -0.00000000000E+00 -0.21336109371E+04  0.21336109371E+04  0.00000000000E+00 0. -1.
         21    1    1    2  503  504 -0.87165758800E+01 -0.24438205627E+02 -0.15958247493E+04  0.15960356622E+04  0.00000000000E+00 0. -1.
         21    1    1    2  504  501  0.87165758800E+01  0.24438205627E+02 -0.53736771818E+03  0.53799374451E+03  0.00000000000E+00 0. -1.
</event>
<event>
 4    1  0.3195479E+006  0.2049140E+02  0.7546771E-02  0.1526652E+00
         21   -1    0    0  503  501  0.00000000000E+00  0.00000000000E+00  0.52068339039E+02  0.52068339039E+02  0.00000000000E+00 0. -1.
         21   -1    0    0  504  502 -0.00000000000E+00 -0.00000000000E+00 -0.85706269420E+01  0.85706269420E+01  0.00000000000E+00 0. -1.
         21    1    1    2  503  502 -0.16012811299E+02  0.12786223731E+02  0.14379885412E+02  0.25033552434E+02  0.00000000000E+00 0. -1.
         21    1    1    2  504  501  0.16012811299E+02 -0.12786223731E+02  0.29117826685E+02  0.35605413547E+02  0.00000000000E+00 0. -1.
</event>
<event>
 4    1  0.3195479E+006  0.3620840E+02  0.7546771E-02  0.1372261E+00
         21   -1    0    0  502  501  0.00000000000E+00  0.00000000000E+00  0.41314967806E+02  0.41314967806E+02  0.00000000000E+00 0.  1.
         21   -1    0    0  504  502 -0.00000000000E+00 -0.00000000000E+00 -0.12515129564E+03  0.12515129564E+03  0.00000000000E+00 0.  1.
         21    1    1    2  503  501  0.94761883326E+01  0.34946384866E+02  0.29992703189E+02  0.47017126721E+02  0.00000000000E+00 0.  1.
         21    1    1    2  504  503 -0.94761883326E+01 -0.34946384866E+02 -0.11382903102E+03  0.11944913673E+03  0.00000000000E+00 0.  1.
</event>
<event>
 4    1  0.3195479E+006  0.2137626E+02  0.7546771E-02  0.1513960E+00
         21   -1    0    0  502  501  0.00000000000E+00  0.00000000000E+00  0.21652542682E+03  0.21652542682E+03  0.00000000000E+00 0. -1.
         21   -1    0    0  503  502 -0.00000000000E+00 -0.00000000000E+00 -0.67972185420E+01  0.67972185420E+01  0.00000000000E+00 0. -1.
         21    1    1    2  503  504 -0.86077384803E+01 -0.19566583906E+02  0.12143009137E+02  0.24584487760E+02  0.00000000000E+00 0. -1.
         21    1    1    2  504  501  0.86077384803E+01  0.19566583906E+02  0.19758519914E+03  0.19873815761E+03  0.00000000000E+00 0. -1.
</event>
<event>
 4    1  0.3195479E+006  0.2023641E+02  0.7546771E-02  0.1530452E+00
         21   -1    0    0  503  501  0.00000000000E+00  0.00000000000E+00  0.10525989651E+03  0.10525989651E+03  0.00000000000E+00 0.  1.
         21   -1    0    0  504  502 -0.00000000000E+00 -0.00000000000E+00 -0.20246461105E+02  0.20246461105E+02  0.00000000000E+00 0.  1.
         21    1    1    2  503  502 -0.17405257547E+02  0.10323248157E+02  0.98909347349E+02  0.10095826581E+03  0.00000000000E+00 0.  1.
         21    1    1    2  504  501  0.17405257547E+02 -0.10323248157E+02 -0.13895911939E+02  0.24548091808E+02  0.00000000000E+00 0.  1.
</event>
<event>
 4    1  0.3195479E+006  0.2109616E+02  0.7546771E-02  0.1517896E+00
         21   -1    0    0  503  501  0.00000000000E+00  0.00000000000E+00  0.53230945559E+01  0.53230945559E+01  0.00000000000E+00 0. -1.
         21   -1    0    0  504  502 -0.00000000000E+00 -0.00000000000E+00 -0.15377191313E+03  0.15377191313E+03  0.00000000000E+00 0.  1.
         21    1    1    2  503  502 -0.51880676126E+00 -0.21089779886E+02 -0.20490549489E+02  0.29409362361E+02  0.00000000000E+00 0. -1.
         21    1    1    2  504  501  0.51880676126E+00  0.21089779886E+02 -0.12795826908E+03  0.12968564532E+03  0.00000000000E+00 0.  1.
</event>
<event>
 4    1  0.3195479E+006  0.2246827E+02  0.7546771E-02  0.1499285E+00
         21   -1    0    0  504  501  0.00000000000E+00  0.00000000000E+00  0.85037090731E+01  0.85037090731E+01  0.00000000000E+00 0.  1.
         21   -1    0    0  501  502 -0.00000000000E+00 -0.00000000000E+00 -0.10695453186E+03  0.10695453186E+03  0.00000000000E+00 0.  1.
         21    1    1    2  503  502  0.52506542444E+01  0.21846136186E+02 -0.87733403609E+02  0.90564745597E+02  0.00000000000E+00 0.  1.
         21    1    1    2  504  503 -0.52506542444E+01 -0.21846136186E+02 -0.10717419179E+02  0.24893495337E+02  0.00000000000E+00 0.  1.
</event>
<event>
 4    1  0.3195479E+006  0.2700299E+02  0.7546771E-02  0.1447578E+00
         21   -1    0    0  503  501  0.00000000000E+00  0.00000000000E+00  0.39847281819E+02  0.39847281819E+02  0.00000000000E+00 0. -1.
         21   -1    0    0  504  502 -0.00000000000E+00 -0.00000000000E+00 -0.50379944202E+02  0.50379944202E+02  0.00000000000E+00 0. -1.
         21    1    1    2  503  502 -0.25475151708E+02  0.89542241768E+01  0.30733710719E+02  0.40911153244E+02  0.00000000000E+00 0. -1.
         21    1    1    2  504  501  0.25475151708E+02 -0.89542241768E+01 -0.41266373103E+02  0.49316072778E+02  0.00000000000E+00 0. -1.
</event>
<event>
 4    1  0.3195479E+006  0.3326739E+02  0.7546771E-02  0.1393171E+00
         21   -1    0    0  504  501  0.00000000000E+00  0.00000000000E+00  0.51034272609E+03  0.51034272609E+03  0.00000000000E+00 0. -1.
         21   -1    0    0  503  502 -0.00000000000E+00 -0.00000000000E+00 -0.57228188368E+01  0.57228188368E+01  0.00000000000E+00 0. -1.
         21    1    1    2  503  501  0.36136558145E+01 -0.33070537747E+02  0.45565948702E+03  0.45687228751E+03  0.00000000000E+00 0. -1.
         21    1    1    2  504  502 -0.36136558145E+01  0.33070537747E+02  0.48960420231E+02  0.59193257424E+02  0.00000000000E+00 0. -1.
</event>
<event>
 4    1  0.3195479E+006  0.3237722E+02  0.7546771E-02  0.1400003E+00
         21   -1    0    0  504  501  0.00000000000E+00  0.00000000000E+00  0.61510717106E+02  0.61510717106E+02  0.00000000000E+00 0. -1.
         21   -1    0    0  503  502 -0.00000000000E+00 -0.00000000000E+00 -0.17189674003E+02  0.17189674003E+02  0.00000000000E+00 0. -1.
         21    1    1    2  503  501 -0.24655973620E+02  0.20984935665E+02  0.18517075396E+02  0.37298346360E+02  0.00000000000E+00 0. -1.
         21    1    1    2  504  502  0.24655973620E+02 -0.20984935665E+02  0.25803967707E+02  0.41402044749E+02  0.00000000000E+00 0. -1.
</event>
<event>
 4    1  0.3195479E+006  0.3984577E+02  0.7546771E-02  0.1349392E+00
         21   -1    0    0  504  501  0.00000000000E+00  0.00000000000E+00  0.87975924441E+02  0.87975924441E+02  0.00000000000E+00 0.  1.
         21   -1    0    0  503  502 -0.00000000000E+00 -0.00000000000E+00 -0.33392441793E+02  0.33392441793E+02  0.00000000000E+00 0.  1.
         21    1    1    2  503  501 -0.39843772474E+02 -0.39934524660E+00 -0.13846305215E+02  0.42183004276E+02  0.00000000000E+00 0.  1.
         21    1    1    2  504  502  0.39843772474E+02  0.39934524660E+00  0.68429787863E+02  0.79185361959E+02  0.00000000000E+00 0.  1.
</event>
<event>
 4    1  0.3195479E+006  0.3321146E+02  0.7546771E-02  0.1393593E+00
         21   -1    0    0  503  501  0.00000000000E+00  0.00000000000E+00  0.21067186079E+03  0.21067186079E+03  0.00000000000E+00 0.  1.
         21   -1    0    0  501  502 -0.00000000000E+00 -0.00000000000E+00 -0.55006147998E+01  0.55006147998E+01  0.00000000000E+00 0.  1.
         21    1    1    2  503  504  0.31462357607E+02  0.10635837772E+02  0.12630870317E+03  0.13060202712E+03  0.00000000000E+00 0.  1.
         21    1    1    2  504  502 -0.31462357607E+02 -0.10635837772E+02  0.78862542822E+02  0.85570448472E+02  0.00000000000E+00 0.  1.
</event>
<event>
 4    1  0.3195479E+006  0.2176080E+02  0.7546771E-02  0.1508674E+00
         21   -1    0    0  502  501  0.00000000000E+00  0.00000000000E+00  0.88066334021E+02  0.88066334021E+02  0.00000000000E+00 0. -1.
         21   -1    0    0  504  502 -0.00000000000E+00 -0.00000000000E+00 -0.64608126447E+02  0.64608126447E+02  0.00000000000E+00 0.  1.
         21    1    1    2  503  501  0.70634185311E+01  0.20582527450E+02  0.84820765526E+02  0.87567657168E+02  0.00000000000E+00 0. -1.
         21    1    1    2  504  503 -0.70634185311E+01 -0.20582527450E+02 -0.61362557951E+02  0.65106803299E+02  0.00000000000E+00 0.  1.
</event>
<event>
 4    1  0.3195479E+006  0.2085018E+02  0.7546771E-02  0.1521415E+00
         21   -1    0    0  504  501  0.00000000000E+00  0.00000000000E+00  0.39768653731E+03  0.39768653731E+03  0.00000000000E+00 0. -1.
         21   -1    0    0  503  502 -0.00000000000E+00 -0.00000000000E+00 -0.12799189030E+02  0.12799189030E+02  0.00000000000E+00 0.  1.
         21    1    1    2  503  501  0.68255281603E+01 -0.19701322576E+02 -0.38389577983E+01  0.21200649587E+02  0.00000000000E+00 0.  1.
         21    1    1    2  504  502 -0.68255281603E+01  0.19701322576E+02  0.38872630608E+03  0.38928507676E+03  0.00000000000E+00 0. -1.
</event>
<event>
 4    1  0.3195479E+006  0.3292719E+02  0.7546771E-02  0.1395752E+00
         21   -1    0    0  504  501  0.00000000000E+00  0.00000000000E+00  0.30551116169E+03  0.30551116169E+03  0.00000000000E+00 0. -1.
         21   -1    0    0  501  502 -0.00000000000E+00 -0.00000000000E+00 -0.50423129676E+01  0.50423129676E+01  0.00000000000E+00 0. -1.
         21    1    1    2  503  502  0.54030639952E+01  0.32480865143E+02  0.65726936345E+02  0.73513467217E+02  0.00000000000E+00 0. -1.
         21    1    1    2  504  503 -0.54030639952E+01 -0.32480865143E+02  0.23474191238E+03  0.23704000744E+03  0.00000000000E+00 0. -1.
</event>
<event>
 4    1  0.3195479E+006  0.3117118E+02  0.7546771E-02  0.1409685E+00
         21   -1    0    0  504  501  0.00000000000E+00  0.00000000000E+00  0.18491392048E+03  0.18491392048E+03  0.00000000000E+00 0.  1.
         21   -1    0    0  503  502 -0.00000000000E+00 -0.00000000000E+00 -0.65739119728E+01  0.65739119728E+01  0.00000000000E+00 0. -1.
         21    1    1    2  503  501 -0.11551421521E+02  0.28951801978E+02  0.46277757942E+02  0.55796711883E+02  0.00000000000E+00 0. -1.
         21    1    1    2  504  502  0.11551421521E+02 -0.28951801978E+02  0.13206225056E+03  0.13569112056E+03  0.00000000000E+00 0.  1.
</event>
<event>
 4    1  0.3195479E+006  0.2540897E+02  0.7546771E-02  0.1464280E+00
         21   -1    0    0  504  501  0.00000000000E+00  0.00000000000E+00  0.18097664973E+03  0.18097664973E+03  0.00000000000E+00 0.  1.
         21   -1    0    0  503  502 -0.00000000000E+00 -0.00000000000E+00 -0.45566143096E+02  0.45566143096E+02  0.00000000000E+00 0. -1.
         21    1    1    2  503  501  0.11024928184E+02  0.22892506652E+02 -0.41041743458E+02  0.48270494180E+02  0.00000000000E+00 0. -1.
         21    1    1    2  504  502 -0.11024928184E+02 -0.22892506652E+02  0.17645225010E+03  0.17827229865E+03  0.00000000000E+00 0.  1.
</event>
<event>
 4    1  0.3195479E+006  0.2958923E+02  0.7546771E-02  0.1423200E+00
         21   -1    0    0  502  501  0.00000000000E+00  0.00000000000E+00  0.76623887070E+01  0.76623887070E+01  0.00000000000E+00 0.  1.
         21   -1    0    0  504  502 -0.00000000000E+00 -0.00000000000E+00 -0.55851700636E+03  0.55851700636E+03  0.00000000000E+00 0.  1.
         21    1    1    2  503  501 -0.29458214203E+02 -0.27813820903E+01 -0.22950284896E+02  0.37446469089E+02  0.00000000000E+00 0.  1.
         21    1    1    2  504  503  0.29458214203E+02  0.27813820903E+01 -0.52790433275E+03  0.52873292598E+03  0.00000000000E+00 0.  1.
</event>
<event>
 4    1  0.3195479E+006  0.2098981E+02  0.7546771E-02  0.1519410E+00
         21   -1    0    0  503  501  0.00000000000E+00  0.00000000000E+00  0.31127971359E+03  0.31127971359E+03  0.00000000000E+00 0. -1.
         21   -1    0    0  501  502 -0.00000000000E+00 -0.00000000000E+00 -0.41802097025E+02  0.41802097025E+02  0.00000000000E+00 0.  1.
         21    1    1    2  503  504  0.11133652375E+02  0.17793642100E+02  0.30826527119E+03  0.30897904352E+03  0.00000000000E+00 0. -1.
         21    1    1    2  504  502 -0.11133652375E+02 -0.17793642100E+02 -0.38787654622E+02  0.44102767095E+02  0.00000000000E+00 0.  1.
</event>
<event>
 4    1  0.3195479E+006  0.2175120E+02  0.7546771E-02  0.1508804E+00
         21   -1    0    0  503  501  0.00000000000E+00  0.00000000000E+00  0.20105624989E+02  0.20105624989E+02  0.00000000000E+00 0.  1.
         21   -1    0    0  504  502 -0.00000000000E+00 -0.00000000000E+00 -0.68958211608E+02  0.68958211608E+02  0.00000000000E+00 0.  1.
         21    1    1    2  503  502 -0.21538107975E+02 -0.30371742678E+01  0.11717546970E+02  0.24706586767E+02  0.00000000000E+00 0.  1.
         21    1    1    2  504  501  0.21538107975E+02  0.30371742678E+01 -0.60570133589E+02  0.64357249830E+02  0.00000000000E+00 0.  1.
</event>
<event>
 4    1  0.3195479E+006  0.2606288E+02  0.7546771E-02  0.1457256E+00
         21   -1    0    0  504  501  0.00000000000E+00  0.00000000000E+00  0.94559038965E+02  0.94559038965E+02  0.00000000000E+00 0. -1.
         21   -1    0    0  501  502 -0.00000000000E+00 -0.00000000000E+00 -0.26238310302E+02  0.26238310302E+02  0.00000000000E+00 0. -1.
         21    1    1    2  503  502  0.24697373458E+02 -0.83254682748E+01 -0.17310413152E+02  0.31287762483E+02  0.00000000000E+00 0. -1.
         21    1    1    2  504  503 -0.24697373458E+02  0.83254682748E+01  0.85631141815E+02  0.89509586784E+02  0.00000000000E+00 0. -1.
</event>
<event>
 4    1  0.3195479E+006  0.2626941E+02  0.7546771E-02  0.1455088E+00
         21   -1    0    0  504  501  0.00000000000E+00  0.00000000000E+00  0.22840741968E+03  0.22840741968E+03  0.00000000000E+00 0.  1.
         21   -1    0    0  503  502 -0.00000000000E+00 -0.00000000000E+00 -0.31999053384E+01  0.31999053384E+01  0.00000000000E+00 0.  1.
         21    1    1    2  503  501  0.20048730506E+02 -0.16974394410E+02  0.13996470646E+03  0.14240856966E+03  0.00000000000E+00 0.  1.
         21    1    1    2  504  502 -0.20048730506E+02  0.16974394410E+02  0.85242807888E+02  0.89198755356E+02  0.00000000000E+00 0.  1.
</event>
<event>
 4    1  0.3195479E+006  0.2532499E+02  0.7546771E-02  0.1465200E+00
         21   -1    0    0  504  501  0.00000000000E+00  0.00000000000E+00  0.88721818949E+02  0.88721818949E+02  0.00000000000E+00 0.  1.
         21   -1    0    0  503  502 -0.00000000000E+00 -0.00000000000E+00 -0.78294741964E+02  0.78294741964E+02  0.00000000000E+00 0. -1.
         21    1    1    2  503  501  0.24056763554E+02 -0.79137222787E+01  0.84773380465E+02  0.88475312424E+02  0.00000000000E+00 0.  1.
         21    1    1    2  504  502 -0.24056763554E+02  0.79137222787E+01 -0.74346303480E+02  0.78541248489E+02  0.00000000000E+00 0. -1.
</event>
<event>
 4    1  0.3195479E+006  0.2092286E+02  0.7546771E-02  0.1520369E+00
         21   -1    0    0  503  501  0.00000000000E+00  0.00000000000E+00  0.13660141015E+01  0.13660141015E+01  0.00000000000E+00 0.  1.
         21   -1    0    0  504  502 -0.00000000000E+00 -0.00000000000E+00 -0.34474495647E+03  0.34474495647E+03  0.00000000000E+00 0. -1.
         21    1    1    2  503  502 -0.69264160696E+01  0.19743121002E+02 -0.21761125330E+03  0.21861478364E+03  0.00000000000E+00 0. -1.
         21    1    1    2  504  501  0.69264160696E+01 -0.19743121002E+02 -0.12576768907E+03  0.12749618693E+03  0.00000000000E+00 0.  1.
</event>
<event>
 4    1  0.3195479E+006  0.2346958E+02  0.7546771E-02  0.1486684E+00
         21   -1    0    0  502  501  0.00000000000E+00  0.00000000000E+00  0.77276256340E+02  0.77276256340E+02  0.00000000000E+00 0.  1.
         21   -1    0    0  504  502 -0.00000000000E+00 -0.00000000000E+00 -0.17610170758E+02  0.17610170758E+02  0.00000000000E+00 0.  1.
         21    1    1    2  503  501 -0.16416795020E+02  0.16772296728E+02  0.66436239667E+02  0.70459882467E+02  0.00000000000E+00 0.  1.
         21    1    1    2  504  503  0.16416795020E+02 -0.16772296728E+02 -0.67701540847E+01  0.24426544631E+02  0.00000000000E+00 0.  1.
</event>
<event>
 4    1  0.3195479E+006  0.2110871E+02  0.7546771E-02  0.1517718E+00
         21   -1    0    0  503  501  0.00000000000E+00  0.00000000000E+00  0.13046972076E+02  0.13046972076E+02  0.00000000000E+00 0. -1.
         21   -1    0    0  501  502 -0.00000000000E+00 -0.00000000000E+00 -0.25624955769E+03  0.25624955769E+03  0.00000000000E+00 0. -1.
         21    1    1    2  503  504 -0.67682072924E+01 -0.19994227649E+02  0.37535948376E+01  0.21439851759E+02  0.00000000000E+00 0. -1.
         21    1    1    2  504  502  0.67682072924E+01  0.19994227649E+02 -0.24695618045E+03  0.24785667801E+03  0.00000000000E+00 0. -1.
</event>
<event>
 4    1  0.3195479E+006  0.3186854E+02  0.7546771E-02  0.1404025E+00
         21   -1    0    0  503  501  0.00000000000E+00  0.00000000000E+00  0.59626787499E+02  0.59626787499E+02  0.00000000000E+00 0. -1.
         21   -1    0    0  501  502 -0.00000000000E+00 -0.00000000000E+00 -0.84118877755E+02  0.84118877755E+02  0.00000000000E+00 0. -1.
         21    1    1    2  503  504  0.29021068818E+02  0.13167427960E+02  0.51939116178E+02  0.60936650579E+02  0.00000000000E+00 0. -1.
         21    1    1    2  504  502 -0.29021068818E+02 -0.13167427960E+02 -0.76431206435E+02  0.82809014675E+02  0.00000000000E+00 0. -1.
</event>
<event>
 4    1  0.3195479E+006  0.2802917E+02  0.7546771E-02  0.1437535E+00
         21   -1    0    0  503  501  0.00000000000E+00  0.00000000000E+00  0.61428323711E+03  0.61428323711E+03  0.00000000000E+00 0.  1.
         21   -1    0    0  504  502 -0.00000000000E+00 -0.00000000000E+00 -0.51533241730E+01  0.51533241730E+01  0.00000000000E+00 0.  1.
         21    1    1    2  503  502 -0.27563160065E+02 -0.50898331121E+01  0.57311436153E+03  0.57379936004E+03  0.00000000000E+00 0.  1.
         21    1    1    2  504  501  0.27563160065E+02  0.50898331121E+01  0.36015551409E+02  0.45637201241E+02  0.00000000000E+00 0.  1.
</event>
<event>
 4    1  0.3195479E+006  0.2430331E+02  0.7546771E-02  0.1476750E+00
         21   -1    0    0  502  501  0.00000000000E+00  0.00000000000E+00  0.73338038026E+02  0.73338038026E+02  0.00000000000E+00 0. -1.
         21   -1    0    0  504  502 -0.00000000000E+00 -0.00000000000E+00 -0.11252538447E+02  0.11252538447E+02  0.00000000000E+00 0.  1.
         21    1    1    2  503  501  0.24188510643E+02  0.23593677927E+01  0.53593208787E+02  0.58846263191E+02  0.00000000000E+00 0. -1.
         21    1    1    2  504  503 -0.24188510643E+02 -0.23593677927E+01  0.84922907921E+01  0.25744313283E+02  0.00000000000E+00 0.  1.
</event>
<event>
 4    1  0.3195479E+006  0.2458325E+02  0.7546771E-02  0.1473520E+00
         21   -1    0    0  504  501  0.00000000000E+00  0.00000000000E+00  0.53576100303E+02  0.53576100303E+02  0.00000000000E+00 0. -1.
         21   -1    0    0  503  502 -0.00000000000E+00 -0.00000000000E+00 -0.90854208105E+03  0.90854208105E+03  0.00000000000E+00 0.  1.
         21    1    1    2  503  501  0.22273190489E+02  0.10403897397E+02  0.50580491293E+02  0.56238084917E+02  0.00000000000E+00 0. -1.
         21    1    1    2  504  502 -0.22273190489E+02 -0.10403897397E+02 -0.90554647204E+03  0.90588009644E+03  0.00000000000E+00 0.  1.
</event>
<event>
 4    1  0.3195479E+006  0.2384321E+02  0.7546771E-02  0.1482173E+00
         21   -1    0    0  504  501  0.00000000000E+00  0.00000000000E+00  0.11183789407E+03  0.11183789407E+03  0.00000000000E+00 0. -1.
         21   -1    0    0  503  502 -0.00000000000E+00 -0.00000000000E+00 -0.10823503609E+03  0.10823503609E+03  0.00000000000E+00 0.  1.
         21    1    1    2  503  501  0.17379756131E+02 -0.16323080193E+02  0.10922289970E+03  0.11179508347E+03  0.00000000000E+00 0. -1.
         21    1    1    2  504  502 -0.17379756131E+02  0.16323080193E+02 -0.10562004172E+03  0.10827784668E+03  0.00000000000E+00 0.  1.
</event>
<event>
 4    1  0.3195479E+006  0.2262335E+02  0.7546771E-02  0.1497283E+00
         21   -1    0    0  503  501  0.00000000000E+00  0.00000000000E+00  0.30122661020E+03  0.30122661020E+03  0.00000000000E+00 0. -1.
         21   -1    0    0  504  502 -0.00000000000E+00 -0.00000000000E+00 -0.38317708824E+02  0.38317708824E+02  0.00000000000E+00 0. -1.
         21    1    1    2  503  502 -0.22596276210E+02 -0.11064657103E+01 -0.34510962290E+02  0.41265269696E+02  0.00000000000E+00 0. -1.
         21    1    1    2  504  501  0.22596276210E+02  0.11064657103E+01  0.29741986367E+03  0.29827904933E+03  0.00000000000E+00 0. -1.
</event>
<event>
 4    1  0.3195479E+006  0.2198294E+02  0.7546771E-02  0.1505680E+00
         21   -1    0    0  504  501  0.00000000000E+00  0.00000000000E+00  0.35938025269E+02  0.35938025269E+02  0.00000000000E+00 0. -1.
         21   -1    0    0  503  502 -0.00000000000E+00 -0.00000000000E+00 -0.39309329253E+02  0.39309329253E+02  0.00000000000E+00 0. -1.
         21    1    1    2  503  501  0.17533401697E+02 -0.13260077577E+02 -0.32203176095E+02  0.38990952579E+02  0.00000000000E+00 0. -1.
         21    1    1    2  504  502 -0.17533401697E+02  0.13260077577E+02  0.28831872111E+02  0.36256401943E+02  0.00000000000E+00 0. -1.
</event>
<event>
 4    1  0.3195479E+006  0.2261883E+02  0.7546771E-02  0.1497341E+00
         21   -1    0    0  504  501  0.00000000000E+00  0.00000000000E+00  0.58211731303E+02  0.58211731303E+02  0.00000000000E+00 0.  1.
         21   -1    0    0  503  502 -0.00000000000E+00 -0.00000000000E+00 -0.13712386990E+02  0.13712386990E+02  0.00000000000E+00 0.  1.
         21    1    1    2  503  501  0.21821777033E+02 -0.59516046647E+01  0.70059824983E+00  0.22629679381E+02  0.00000000000E+00 0.  1.
         21    1    1    2  504  502 -0.21821777033E+02  0.59516046647E+01  0.43798746063E+02  0.49294438912E+02  0.00000000000E+00 0.  1.
</event>
<event>
 4    1  0.3195479E+006  0.2193561E+02  0.7546771E-02  0.1506314E+00
         21   -1    0    0  504  501  0.00000000000E+00  0.00000000000E+00  0.28398052177E+02  0.28398052177E+02  0.00000000000E+00 0.  1.
         21   -1    0    0  501  502 -0.00000000000E+00 -0.00000000000E+00 -0.27016026706E+02  0.27016026706E+02  0.00000000000E+00 0.  1.
         21    1    1    2  503  502 -0.19988026077E+02 -0.90360325676E+01 -0.16226714295E+02  0.27285111835E+02  0.00000000000E+00 0.  1.
         21    1    1    2  504  503  0.19988026077E+02  0.90360325676E+01  0.17608739766E+02  0.28128967048E+02  0.00000000000E+00 0.  1.
</event>
<event>
 4    1  0.3195479E+006  0.2085055E+02  0.7546771E-02  0.1521409E+00
         21   -1    0    0  502  501  0.00000000000E+00  0.00000000000E+00  0.42834287401E+02  0.42834287401E+02  0.00000000000E+00 0. -1.
         21   -1    0    0  503  502 -0.00000000000E+00 -0.00000000000E+00 -0.23590569332E+02  0.23590569332E+02  0.00000000000E+00 0. -1.
         21    1    1    2  503  504 -0.19390025155E+02  0.76663135987E+01 -0.15447819660E+02  0.25949577491E+02  0.00000000000E+00 0. -1.
         21    1    1    2  504  501  0.19390025155E+02 -0.76663135987E+01  0.34691537729E+02  0.40475279242E+02  0.00000000000E+00 0. -1.
</event>
<event>
 4    1  0.3195479E+006  0.2292978E+02  0.7546771E-02  0.1493382E+00
         21   -1    0    0  502  501  0.00000000000E+00  0.00000000000E+00  0.10253108035E+04  0.10253108035E+04  0.00000000000E+00 0. -1.
         21   -1    0    0  504  502 -0.00000000000E+00 -0.00000000000E+00 -0.48822237584E+01  0.48822237584E+01  0.00000000000E+00 0. -1.
         21    1    1    2  503  501  0.79967565715E+00 -0.22915833670E+02  0.99750941856E+03  0.99777292759E+03  0.00000000000E+00 0. -1.
         21    1    1    2  504  503 -0.79967565715E+00  0.22915833670E+02  0.22919161215E+02  0.32420099702E+02  0.00000000000E+00 0. -1.
</event>
<event>
 4    1  0.3195479E+006  0.2387277E+02  0.7546771E-02  0.1481820E+00
         21   -1    0    0  502  501  0.00000000000E+00  0.00000000000E+00  0.15403845885E+03  0.15403845885E+03  0.00000000000E+00 0.  1.
         21   -1    0    0  504  502 -0.00000000000E+00 -0.00000000000E+00 -0.32115535436E+02  0.32115535436E+02  0.00000000000E+00 0.  1.
         21    1    1    2  503  501 -0.20271377811E+02 -0.12608742564E+02  0.14851311400E+03  0.15041959373E+03  0.00000000000E+00 0.  1.
         21    1    1    2  504  503  0.20271377811E+02  0.12608742564E+02 -0.26590190590E+02  0.35734400554E+02  0.00000000000E+00 0.  1.
</event>
<event>
 4    1  0.3195479E+006  0.2021981E+02  0.7546771E-02  0.1530702E+00
         21   -1    0    0  504  501  0.00000000000E+00  0.00000000000E+00  0.10672527196E+03  0.10672527196E+03  0.00000000000E+00 0.  1.
         21   -1    0    0  503  502 -0.00000000000E+00 -0.00000000000E+00 -0.12891732678E+03  0.12891732678E+03  0.00000000000E+00 0.  1.
         21    1    1    2  503  501  0.10944789816E+02  0.17001533679E+02  0.10496154214E+03  0.10689137430E+03  0.00000000000E+00 0.  1.
         21    1    1    2  504  502 -0.10944789816E+02 -0.17001533679E+02 -0.12715359697E+03  0.12875122443E+03  0.00000000000E+00 0.  1.
</event>
<event>
 4    1  0.3195479E+006  0.2055184E+02  0.7546771E-02  0.1525761E+00
         21   -1    0    0  502  501  0.00000000000E+00  0.00000000000E+00  0.98291711217E+02  0.98291711217E+02  0.00000000000E+00 0. -1.
         21   -1    0    0  504  502 -0.00000000000E+00 -0.00000000000E+00 -0.90929954664E+01  0.90929954664E+01  0.00000000000E+00 0. -1.
         21    1    1    2  503  501 -0.45439107955E+01  0.20043232233E+02  0.83592629393E+02  0.86081972401E+02  0.00000000000E+00 0. -1.
         21    1    1    2  504  503  0.45439107955E+01 -0.20043232233E+02  0.56060863584E+01  0.21302734283E+02  0.00000000000E+00 0. -1.
</event>
<event>
 4    1  0.3195479E+006  0.2025605E+02  0.7546771E-02  0.1530157E+00
         21   -1    0    0  504  501  0.00000000000E+00  0.00000000000E+00  0.15688700312E+03  0.15688700312E+03  0.00000000000E+00 0.  1.
         21   -1    0    0  501  502 -0.00000000000E+00 -0.00000000000E+00 -0.71485368899E+02  0.71485368899E+02  0.00000000000E+00 0.  1.
         21    1    1    2  503  502  0.13909209121E+02 -0.14725544184E+02 -0.69377143788E+02  0.72273756164E+02  0.00000000000E+00 0.  1.
         21    1    1    2  504  503 -0.13909209121E+02  0.14725544184E+02  0.15477877801E+03  0.15609861585E+03  0.00000000000E+00 0.  1.
</event>
<event>
 4    1  0.3195479E+006  0.2305364E+02  0.7546771E-02  0.1491826E+00
         21   -1    0    0  503  501  0.00000000000E+00  0.00000000000E+00  0.22891900501E+03  0.22891900501E+03  0.00000000000E+00 0. -1.
         21   -1    0    0  501  502 -0.00000000000E+00 -0.00000000000E+00 -0.16754163500E+02  0.16754163500E+02  0.00000000000E+00 0. -1.
         21    1    1    2  503  504  0.20045714574E+02 -0.11385947368E+02  0.22009093853E+03  0.22129503314E+03  0.00000000000E+00 0. -1.
         21    1    1    2  504  502 -0.20045714574E+02  0.11385947368E+02 -0.79260970171E+01  0.24378135371E+02  0.00000000000E+00 0. -1.
</event>
<event>
 4    1  0.3195479E+006  0.2222127E+02  0.7546771E-02  0.1502515E+00
         21   -1    0    0  503  501  0.00000000000E+00  0.00000000000E+00  0.45041541001E+01  0.45041541001E+01  0.00000000000E+00 0.  1.
         21   -1    0    0  504  502 -0.00000000000E+00 -0.00000000000E+00 -0.82084965224E+03  0.82084965224E+03  0.00000000000E+00 0. -1.
         21    1    1    2  503  502  0.47953606564E+01  0.21697675869E+02 -0.24040631468E+02  0.32737388157E+02  0.00000000000E+00 0.  1.
         21    1    1    2  504  501 -0.47953606564E+01 -0.21697675869E+02 -0.79230486667E+03  0.79261641818E+03  0.00000000000E+00 0. -1.
</event>
<event>
 4    1  0.3195479E+006  0.2488193E+02  0.7546771E-02  0.1470129E+00
         21   -1    0    0  504  501  0.00000000000E+00  0.00000000000E+00  0.84799561291E+02  0.84799561291E+02  0.00000000000E+00 0.  1.
         21   -1    0    0  503  502 -0.00000000000E+00 -0.00000000000E+00 -0.28774104489E+02  0.28774104489E+02  0.00000000000E+00 0.  1.
         21    1    1    2  503  501  0.16977665822E+02  0.18189818493E+02  0.77069104848E+02  0.80986156568E+02  0.00000000000E+00 0.  1.
         21    1    1    2  504  502 -0.16977665822E+02 -0.18189818493E+02 -0.21043648046E+02  0.32587509212E+02  0.00000000000E+00 0.  1.
</event>
<event>
 4    1  0.3195479E+006  0.3640845E+02  0.7546771E-02  0.1370923E+00
         21   -1    0    0  504  501  0.00000000000E+00  0.00000000000E+00  0.21918518063E+02  0.21918518063E+02  0.00000000000E+00 0. -1.
         21   -1    0    0  503  502 -0.00000000000E+00 -0.00000000000E+00 -0.84032218236E+02  0.84032218236E+02  0.00000000000E+00 0.  1.
         21    1    1    2  503  501  0.32797250499E+02 -0.15808722691E+02 -0.59104132848E+02  0.69418109115E+02  0.00000000000E+00 0.  1.
         21    1    1    2  504  502 -0.32797250499E+02  0.15808722691E+02 -0.30095673251E+01  0.36532627183E+02  0.00000000000E+00 0. -1.
</event>
<event>
 4    1  0.3195479E+006  0.2868229E+02  0.7546771E-02  0.1431404E+00
         21   -1    0    0  503  501  0.00000000000E+00  0.00000000000E+00  0.65738030924E+02  0.65738030924E+02  0.00000000000E+00 0.  1.
         21   -1    0    0  504  502 -0.00000000000E+00 -0.00000000000E+00 -0.15079627679E+03  0.15079627679E+03  0.00000000000E+00 0.  1.
         21    1    1    2  503  502  0.86475205568E+01  0.27347651926E+02  0.61148254652E+02  0.67540970711E+02  0.00000000000E+00 0.  1.
         21    1    1    2  504  501 -0.86475205568E+01 -0.27347651926E+02 -0.14620650052E+03  0.14899333700E+03  0.00000000000E+00 0.  1.
</event>
<event>
 4    1  0.3195479E+006  0.4087452E+02  0.7546771E-02  0.1343436E+00
         21   -1    0    0  504  501  0.00000000000E+00  0.00000000000E+00  0.23463705318E+02  0.23463705318E+02  0.00000000000E+00 0. -1.
         21   -1    0    0  501  502 -0.00000000000E+00 -0.00000000000E+00 -0.75635897590E+03  0.75635897590E+03  0.00000000000E+00 0. -1.
         21    1    1    2  503  502  0.35270266949E+02  0.20657557802E+02 -0.73755200324E+03  0.73868375095E+03  0.00000000000E+00 0. -1.
         21    1    1    2  504  503 -0.35270266949E+02 -0.20657557802E+02  0.46567326583E+01  0.41138930273E+02  0.00000000000E+00 0. -1.
</event>
<event>
 4    1  0.3195479E+006  0.2310628E+02  0.7546771E-02  0.1491168E+00
         21   -1    0    0  504  501  0.00000000000E+00  0.00000000000E+00  0.93165523064E+01  0.93165523064E+01  0.00000000000E+00 0. -1.
         21   -1    0    0  501  502 -0.00000000000E+00 -0.00000000000E+00 -0.23459953693E+03  0.23459953693E+03  0.00000000000E+00 0. -1.
         21    1    1    2  503  502 -0.99672255645E+01 -0.20845978069E+02 -0.21866264832E+03  0.21988009040E+03  0.00000000000E+00 0. -1.
         21    1    1    2  504  503  0.99672255645E+01  0.20845978069E+02 -0.66203363079E+01  0.24035998833E+02  0.00000000000E+00 0. -1.
</event>
<event>
 4    1  0.3195479E+006  0.2408015E+02  0.7546771E-02  0.1479363E+00
         21   -1    0    0  502  501  0.00000000000E+00  0.00000000000E+00  0.29582056534E+02  0.29582056534E+02  0.00000000000E+00 0.  1.
         21   -1    0    0  503  502 -0.00000000000E+00 -0.00000000000E+00 -0.25640838872E+02  0.25640838872E+02  0.00000000000E+00 0.  1.
         21    1    1    2  503  504 -0.45147719106E+01  0.23653124799E+02 -0.11429761288E+02  0.26655073087E+02  0.00000000000E+00 0.  1.
         21    1    1    2  504  501  0.45147719106E+01 -0.23653124799E+02  0.15370978949E+02  0.28567822319E+02  0.00000000000E+00 0.  1.
</event>
<event>
 4    1  0.3195479E+006  0.3018037E+02  0.7546771E-02  0.1418035E+00
         21   -1    0    0  503  501  0.00000000000E+00  0.00000000000E+00  0.14837938828E+03  0.14837938828E+03  0.00000000000E+00 0.  1.
         21   -1    0    0  504  502 -0.00000000000E+00 -0.00000000000E+00 -0.63352977353E+01  0.63352977353E+01  0.00000000000E+00 0.  1.
         21    1    1    2  503  502  0.11941008505E+01  0.30156733920E+02  0.84649750085E+02  0.89868986124E+02  0.00000000000E+00 0.  1.
         21    1    1    2  504  501 -0.11941008505E+01 -0.30156733920E+02  0.57394340459E+02  0.64845699891E+02  0.00000000000E+00 0.  1.
</event>
<event>
 4    1  0.3195479E+006  0.4016013E+02  0.7546771E-02  0.1347550E+00
         21   -1    0    0  503  501  0.00000000000E+00  0.00000000000E+00  0.32197870658E+03  0.32197870658E+03  0.00000000000E+00 0. -1.
         21   -1    0    0  504  502 -0.00000000000E+00 -0.00000000000E+00 -0.92484853085E+02  0.92484853085E+02  0.00000000000E+00 0. -1.
         21    1    1    2  503  502  0.13904216810E+02 -0.37676372315E+02 -0.86794717942E+02  0.95635554782E+02  0.00000000000E+00 0. -1.
         21    1    1    2  504  501 -0.13904216810E+02  0.37676372315E+02  0.31628857144E+03  0.31882800488E+03  0.00000000000E+00 0. -1.
</event>
<event>
 4    1  0.3195479E+006  0.2034225E+02  0.7546771E-02  0.1528866E+00
         21   -1    0    0  503  501  0.00000000000E+00  0.00000000000E+00  0.21070400063E+03  0.21070400063E+03  0.00000000000E+00 0. -1.
         21   -1    0    0  504  502 -0.00000000000E+00 -0.00000000000E+00 -0.24639764780E+01  0.24639764780E+01  0.00000000000E+00 0.  1.
         21    1    1    2  503  502  0.20330406723E+02  0.69415130723E+00  0.56104655022E+02  0.59678636032E+02  0.00000000000E+00 0.  1.
         21    1    1    2  504  501 -0.20330406723E+02 -0.69415130723E+00  0.15213536913E+03  0.15348934108E+03  0.00000000000E+00 0. -1.
</event>
<event>
 4    1  0.3195479E+006  0.2048599E+02  0.7546771E-02  0.1526732E+00
         21   -1    0    0  503  501  0.00000000000E+00  0.00000000000E+00  0.24431236551E+01  0.24431236551E+01  0.00000000000E+00 0. -1.
         21   -1    0    0  501  502 -0.00000000000E+00 -0.00000000000E+00 -0.35396244792E+03  0.35396244792E+03  0.00000000000E+00 0.  1.
         21    1    1    2  503  504  0.43228208626E+01 -0.20024712711E+02 -0.47912511111E+02  0.52108392993E+02  0.00000000000E+00 0. -1.
         21    1    1    2  504  502 -0.43228208626E+01  0.20024712711E+02 -0.30360681315E+03  0.30429717858E+03  0.00000000000E+00 0.  1.
</event>
<event>
 4    1  0.3195479E+006  0.3397915E+02  0.7546771E-02  0.1387886E+00
         21   -1    0    0  504  501  0.00000000000E+00  0.00000000000E+00  0.44815318691E+03  0.44815318691E+03  0.00000000000E+00 0. -1.
         21   -1    0    0  503  502 -0.00000000000E+00 -0.00000000000E+00 -0.34141298189E+01  0.34141298189E+01  0.00000000000E+00 0. -1.
         21    1    1    2  503  501 -0.17355364853E+02  0.29212566427E+02  0.33421724381E+03  0.33594009702E+03  0.00000000000E+00 0. -1.
         21    1    1    2  504  502  0.17355364853E+02 -0.29212566427E+02  0.11052181328E+03  0.11562721971E+03  0.00000000000E+00 0. -1.
</event>
<event>
 4    1  0.3195479E+006  0.3683891E+02  0.7546771E-02  0.1368076E+00
         21   -1    0    0  504  501  0.00000000000E+00  0.00000000000E+00  0.48904895865E+02  0.48904895865E+02  0.00000000000E+00 0. -1.
         21   -1    0    0  501  502 -0.00000000000E+00 -0.00000000000E+00 -0.28096198641E+02  0.28096198641E+02  0.00000000000E+00 0. -1.
         21    1    1    2  503  502 -0.13439569131E+02  0.34299897853E+02  0.14678804160E+02  0.39655671759E+02  0.00000000000E+00 0. -1.
         21    1    1    2  504  503  0.13439569131E+02 -0.34299897853E+02  0.61298930651E+01  0.37345422747E+02  0.00000000000E+00 0. -1.
</event>
<event>
 4    1  0.3195479E+006  0.2367123E+02  0.7546771E-02  0.1484237E+00
         21   -1    0    0  504  501  0.00000000000E+00  0.00000000000E+00  0.42399893263E+02  0.42399893263E+02  0.00000000000E+00 0. -1.
         21   -1    0    0  503  502 -0.00000000000E+00 -0.00000000000E+00 -0.57657386035E+02  0.57657386035E+02  0.00000000000E+00 0.  1.
         21    1    1    2  503  501  0.35287356995E+00 -0.23668597643E+02 -0.51551389739E+02  0.56726297413E+02  0.00000000000E+00 0.  1.
         21    1    1    2  504  502 -0.35287356995E+00  0.23668597643E+02  0.36293896967E+02  0.43330981886E+02  0.00000000000E+00 0. -1.
</event>
<event>
 4    1  0.3195479E+006  0.2115724E+02  0.7546771E-02  0.1517032E+00
         21   -1    0    0  503  501  0.00000000000E+00  0.00000000000E+00  0.10943563313E+03  0.10943563313E+03  0.00000000000E+00 0. -1.
         21   -1    0    0  504  502 -0.00000000000E+00 -0.00000000000E+00 -0.52397592172E+01  0.52397592172E+01  0.00000000000E+00 0. -1.
         21    1    1    2  503  502  0.48018015613E+01 -0.20605137112E+02  0.25243023580E+02  0.32936897442E+02  0.00000000000E+00 0. -1.
         21    1    1    2  504  501 -0.48018015613E+01  0.20605137112E+02  0.78952850329E+02  0.81738494901E+02  0.00000000000E+00 0. -1.
</event>
<event>
 4    1  0.3195479E+006  0.2819685E+02  0.7546771E-02  0.1435942E+00
         21   -1    0    0  504  501  0.00000000000E+00  0.00000000000E+00  0.11694280440E+02  0.11694280440E+02  0.00000000000E+00 0.  1.
         21   -1    0    0  503  502 -0.00000000000E+00 -0.00000000000E+00 -0.37686211479E+03  0.37686211479E+03  0.00000000000E+00 0. -1.
         21    1    1    2  503  501  0.21676951164E+02 -0.18032528524E+02 -0.67008260602E+01  0.28982121500E+02  0.00000000000E+00 0.  1.
         21    1    1    2  504  502 -0.21676951164E+02  0.18032528524E+02 -0.35846700829E+03  0.35957427373E+03  0.00000000000E+00 0. -1.
</event>
<event>
 4    1  0.3195479E+006  0.2101884E+02  0.7546771E-02  0.1518996E+00
         21   -1    0    0  504  501  0.00000000000E+00  0.00000000000E+00  0.41363927429E+01  0.41363927429E+01  0.00000000000E+00 0.  1.
         21   -1    0    0  503  502 -0.00000000000E+00 -0.00000000000E+00 -0.18300106718E+03  0.18300106718E+03  0.00000000000E+00 0.  1.
         21    1    1    2  503  501  0.15524168492E+01  0.20961432383E+02 -0.29055925997E+02  0.35861378685E+02  0.00000000000E+00 0.  1.
         21    1    1    2  504  502 -0.15524168492E+01 -0.20961432383E+02 -0.14980874844E+03  0.15127608123E+03  0.00000000000E+00 0.  1.
</event>
<event>
 4    1  0.3195479E+006  0.2067558E+02  0.7546771E-02  0.1523947E+00
         21   -1    0    0  503  501  0.00000000000E+00  0.00000000000E+00  0.21734694268E+02  0.21734694268E+02  0.00000000000E+00 0. -1.
         21   -1    0    0  504  502 -0.00000000000E+00 -0.00000000000E+00 -0.28624357439E+02  0.28624357439E+02  0.00000000000E+00 0.  1.
         21    1    1    2  503  502 -0.88245316937E+00 -0.20656740500E+02  0.10639735541E+02  0.23252604672E+02  0.00000000000E+00 0. -1.
         21    1    1    2  504  501  0.88245316937E+00  0.20656740500E+02 -0.17529398711E+02  0.27106447035E+02  0.00000000000E+00 0.  1.
</event>
<event>
 4    1  0.3195479E+006  0.2793832E+02  0.7546771E-02  0.1438404E+00
         21   -1    0    0  504  501  0.00000000000E+00  0.00000000000E+00  0.36397723613E+02  0.36397723613E+02  0.00000000000E+00 0. -1.
         21   -1    0    0  503  502 -0.00000000000E+00 -0.00000000000E+00 -0.59969715503E+02  0.59969715503E+02  0.00000000000E+00 0. -1.
         21    1    1    2  503  501 -0.25445328166E+02  0.11536251578E+02  0.26833264135E+02  0.38737241642E+02  0.00000000000E+00 0. -1.
         21    1    1    2  504  502  0.25445328166E+02 -0.11536251578E+02 -0.50405256025E+02  0.57630197473E+02  0.00000000000E+00 0. -1.
</event>
<event>
 4    1  0.3195479E+006  0.2440212E+02  0.7546771E-02  0.1475604E+00
         21   -1    0    0  503  501  0.00000000000E+00  0.00000000000E+00  0.81649843403E+03  0.81649843403E+03  0.00000000000E+00 0. -1.
         21   -1    0    0  501  502 -0.00000000000E+00 -0.00000000000E+00 -0.19155874807E+01  0.19155874807E+01  0.00000000000E+00 0. -1.
         21    1    1    2  503  504 -0.24357151807E+02  0.14807793500E+01  0.72931599200E+03  0.72972411207E+03  0.00000000000E+00 0. -1.
         21    1    1    2  504  502  0.24357151807E+02 -0.14807793500E+01  0.85266854550E+02  0.88689909440E+02  0.00000000000E+00 0. -1.
</event>
<event>
 4    1  0.3195479E+006  0.2096172E+02  0.7546771E-02  0.1519812E+00
         21   -1    0    0  504  501  0.00000000000E+00  0.00000000000E+00  0.12535169405E+03  0.12535169405E+03  0.00000000000E+00 0.  1.
         21   -1    0    0  501  502 -0.00000000000E+00 -0.00000000000E+00 -0.25083484165E+02  0.25083484165E+02  0.00000000000E+00 0. -1.
         21    1    1    2  503  502 -0.23321782623E+01  0.20831580184E+02 -0.19630163926E+02  0.28718236787E+02  0.00000000000E+00 0. -1.
         21    1    1    2  504  503  0.23321782623E+01 -0.20831580184E+02  0.11989837381E+03  0.12171694143E+03  0.00000000000E+00 0.  1.
</event>
<event>
 4    1  0.3195479E+006  0.2766965E+02  0.7546771E-02  0.1440995E+00
         21   -1    0    0  502  501  0.00000000000E+00  0.00000000000E+00  0.12168577131E+02  0.12168577131E+02  0.00000000000E+00 0.  1.
         21   -1    0    0  503  502 -0.00000000000E+00 -0.00000000000E+00 -0.73167134365E+02  0.73167134365E+02  0.00000000000E+00 0.  1.
         21    1    1    2  503  504 -0.12402594259E+02  0.24734294339E+02 -0.46469421598E+02  0.54083424489E+02  0.00000000000E+00 0.  1.
         21    1    1    2  504  501  0.12402594259E+02 -0.24734294339E+02 -0.14529135636E+02  0.31252287007E+02  0.00000000000E+00 0.  1.
</event>
<event>
 4    1  0.3195479E+006  0.3409173E+02  0.7546771E-02  0.1387063E+00
         21   -1    0    0  503  501  0.00000000000E+00  0.00000000000E+00  0.11601543690E+02  0.11601543690E+02  0.00000000000E+00 0.  1.
         21   -1    0    0  504  502 -0.00000000000E+00 -0.00000000000E+00 -0.12017004155E+03  0.12017004155E+03  0.00000000000E+00 0. -1.
         21    1    1    2  503  502 -0.16029797969E+02 -0.30088065780E+02 -0.27412417852E+02  0.43745705821E+02  0.00000000000E+00 0.  1.
         21    1    1    2  504  501  0.16029797969E+02  0.30088065780E+02 -0.81156080003E+02  0.88025879415E+02  0.00000000000E+00 0. -1.
</event>
<event>
 4    1  0.3195479E+006  0.2320806E+02  0.7546771E-02  0.1489902E+00
         21   -1    0    0  504  501  0.00000000000E+00  0.00000000000E+00  0.12104240832E+02  0.12104240832E+02  0.00000000000E+00 0. -1.
         21   -1    0    0  503  502 -0.00000000000E+00 -0.00000000000E+00 -0.46543855209E+02  0.46543855209E+02  0.00000000000E+00 0. -1.
         21    1    1    2  503  501  0.13968893318E+02  0.18533323122E+02 -0.11071801728E+02  0.25713786963E+02  0.00000000000E+00 0. -1.
         21    1    1    2  504  502 -0.13968893318E+02 -0.18533323122E+02 -0.23367812649E+02  0.32934309078E+02  0.00000000000E+00 0. -1.
</event>
<event>
 4    1  0.3195479E+006  0.2091394E+02  0.7546771E-02  0.1520497E+00
         21   -1    0    0  504  501  0.00000000000E+00  0.00000000000E+00  0.49724336762E+03  0.49724336762E+03  0.00000000000E+00 0.  1.
         21   -1    0    0  503  502 -0.00000000000E+00 -0.00000000000E+00 -0.93092231853E+01  0.93092231853E+01  0.00000000000E+00 0. -1.
         21    1    1    2  503  501  0.20875861104E+02 -0.12614985815E+01  0.48498036067E+03  0.48543109005E+03  0.00000000000E+00 0.  1.
         21    1    1    2  504  502 -0.20875861104E+02  0.12614985815E+01  0.29537837662E+01  0.21121500753E+02  0.00000000000E+00 0. -1.
</event>
<event>
 4    1  0.3195479E+006  0.2025932E+02  0.7546771E-02  0.1530108E+00
         21   -1    0    0  503  501  0.00000000000E+00  0.00000000000E+00  0.17767656645E+02  0.17767656645E+02  0.00000000000E+00 0. -1.
         21   -1    0    0  504  502 -0.00000000000E+00 -0.00000000000E+00 -0.34912303731E+02  0.34912303731E+02  0.00000000000E+00 0.  1.
         21    1    1    2  503  502 -0.19549622697E+02  0.53152871872E+01 -0.23893287401E+02  0.31326174492E+02  0.00000000000E+00 0.  1.
         21    1    1    2  504  501  0.19549622697E+02 -0.53152871872E+01  0.67486403142E+01  0.21353785884E+02  0.00000000000E+00 0. -1.
</event>
<event>
 4    1  0.3195479E+006  0.2186622E+02  0.7546771E-02  0.1507248E+00
         21   -1    0    0  503  501  0.00000000000E+00  0.00000000000E+00  0.65498282828E+01  0.65498282828E+01  0.00000000000E+00 0.  1.
         21   -1    0    0  501  502 -0.00000000000E+00 -0.00000000000E+00 -0.31888757200E+03  0.31888757200E+03  0.00000000000E+00 0.  1.
         21    1    1    2  503  504 -0.20180573421E+02  0.84187886490E+01 -0.13283504187E+02  0.25584820292E+02  0.00000000000E+00 0.  1.
         21    1    1    2  504  502  0.20180573421E+02 -0.84187886490E+01 -0.29905423953E+03  0.29985257999E+03  0.00000000000E+00 0.  1.
</event>
<event>
 4    1  0.3195479E+006  0.2326692E+02  0.7546771E-02  0.1489173E+00
         21   -1    0    0  504  501  0.00000000000E+00  0.00000000000E+00  0.71979829301E+01  0.71979829301E+01  0.00000000000E+00 0.  1.
         21   -1    0    0  503  502 -0.00000000000E+00 -0.00000000000E+00 -0.20623979536E+03  0.20623979536E+03  0.00000000000E+00 0. -1.
         21    1    1    2  503  501 -0.22991673124E+02  0.35682914411E+01 -0.14457548062E+02  0.27392890187E+02  0.00000000000E+00 0.  1.
         21    1    1    2  504  502  0.22991673124E+02 -0.35682914411E+01 -0.18458426437E+03  0.18604488810E+03  0.00000000000E+00 0. -1.
</event>
<event>
 4    1  0.3195479E+006  0.2148985E+02  0.7546771E-02  0.1512385E+00
         21   -1    0    0  504  501  0.00000000000E+00  0.00000000000E+00  0.30843021908E+02  0.30843021908E+02  0.00000000000E+00 0. -1.
         21   -1    0    0  503  502 -0.00000000000E+00 -0.00000000000E+00 -0.25868670803E+03  0.25868670803E+03  0.00000000000E+00 0.  1.
         21    1    1    2  503  501  0.19653268881E+02  0.86926670647E+01 -0.25443470064E+03  0.25534061629E+03  0.00000000000E+00 0.  1.
         21    1    1    2  504  502 -0.19653268881E+02 -0.86926670647E+01  0.26591014521E+02  0.34189113643E+02  0.00000000000E+00 0. -1.
</event>
<event>
 4    1  0.3195479E+006  0.4606912E+02  0.7546771E-02  0.1316178E+00
         21   -1    0    0  503  501  0.00000000000E+00  0.00000000000E+00  0.68495269373E+02  0.68495269373E+02  0.00000000000E+00 0.  1.
         21   -1    0    0  501  502 -0.00000000000E+00 -0.00000000000E+00 -0.99537855443E+02  0.99537855443E+02  0.00000000000E+00 0. -1.
         21    1    1    2  503  504  0.33945840224E+02  0.31145527737E+02  0.54202624979E+02  0.71135704967E+02  0.00000000000E+00 0.  1.
         21    1    1    2  504  502 -0.33945840224E+02 -0.31145527737E+02 -0.85245211049E+02  0.96897419849E+02  0.00000000000E+00 0. -1.
</event>
<event>
 4    1  0.3195479E+006  0.2024873E+02  0.7546771E-02  0.1530267E+00
         21   -1    0    0  504  501  0.00000000000E+00  0.00000000000E+00  0.48178379533E+01  0.48178379533E+01  0.00000000000E+00 0.  1.
         21   -1    0    0  503  502 -0.00000000000E+00 -0.00000000000E+00 -0.10035462096E+04  0.10035462096E+04  0.00000000000E+00 0. -1.
         21    1    1    2  503  501 -0.18910112199E+02 -0.72400813292E+01 -0.98169486809E+03  0.98190367407E+03  0.00000000000E+00 0. -1.
         21    1    1    2  504  502  0.18910112199E+02  0.72400813292E+01 -0.17033503538E+02  0.26460373463E+02  0.00000000000E+00 0.  1.
</event>
<event>
 4    1  0.3195479E+006  0.3638473E+02  0.7546771E-02  0.1371081E+00
         21   -1    0    0  504  501  0.00000000000E+00  0.00000000000E+00  0.50940658838E+02  0.50940658838E+02  0.00000000000E+00 0.  1.
         21   -1    0    0  503  502 -0.00000000000E+00 -0.00000000000E+00 -0.56589350810E+02  0.56589350810E+02  0.00000000000E+00 0.  1.
         21    1    1    2  503  501  0.32063393350E+02 -0.17198479875E+02  0.36712516811E+02  0.51688081738E+02  0.00000000000E+00 0.  1.
         21    1    1    2  504  502 -0.32063393350E+02  0.17198479875E+02 -0.42361208784E+02  0.55841927910E+02  0.00000000000E+00 0.  1.
</event>
<event>
 4    1  0.3195479E+006  0.4473293E+02  0.7546771E-02  0.1322780E+00
         21   -1    0    0  502  501  0.00000000000E+00  0.00000000000E+00  0.14953760062E+03  0.14953760062E+03  0.00000000000E+00 0. -1.
         21   -1    0    0  503  502 -0.00000000000E+00 -0.00000000000E+00 -0.47962289461E+02  0.47962289461E+02  0.00000000000E+00 0.  1.
         21    1    1    2  503  504  0.44629855006E+02  0.30350405836E+01 -0.33062610378E+02  0.55625278734E+02  0.00000000000E+00 0.  1.
         21    1    1    2  504  501 -0.44629855006E+02 -0.30350405836E+01  0.13463792154E+03  0.14187461135E+03  0.00000000000E+00 0. -1.
</event>
<event>
 4    1  0.3195479E+006  0.3467721E+02  0.7546771E-02  0.1382847E+00
         21   -1    0    0  503  501  0.00000000000E+00  0.00000000000E+00  0.26480108787E+02  0.26480108787E+02  0.00000000000E+00 0. -1.
         21   -1    0    0  504  502 -0.00000000000E+00 -0.00000000000E+00 -0.47623565714E+02  0.47623565714E+02  0.00000000000E+00 0. -1.
         21    1    1    2  503  502 -0.31819929571E+02 -0.13784081443E+02 -0.25868093122E+01  0.34773558942E+02  0.00000000000E+00 0. -1.
         21    1    1    2  504  501  0.31819929571E+02  0.13784081443E+02 -0.18556647615E+02  0.39330115558E+02  0.00000000000E+00 0. -1.
</event>
<event>
 4    1  0.3195479E+006  0.2005187E+02  0.7546771E-02  0.1533244E+00
         21   -1    0    0  504  501  0.00000000000E+00  0.00000000000E+00  0.96683832909E+02  0.96683832909E+02  0.00000000000E+00 0.  1.
         21   -1    0    0  503  502 -0.00000000000E+00 -0.00000000000E+00 -0.16648089170E+02  0.16648089170E+02  0.00000000000E+00 0.  1.
         21    1    1    2  503  501 -0.13127246216E+02  0.15157599465E+02  0.89098595404E+02  0.91327088630E+02  0.00000000000E+00 0.  1.
         21    1    1    2  504  502  0.13127246216E+02 -0.15157599465E+02 -0.90628516647E+01  0.22004833448E+02  0.00000000000E+00 0.  1.
</event>
<event>
 4    1  0.3195479E+006  0.4057284E+02  0.7546771E-02  0.1345161E+00
         21   -1    0    0  504  501  0.00000000000E+00  0.00000000000E+00  0.72004905372E+01  0.72004905372E+01  0.00000000000E+00 0. -1.
         21   -1    0    0  503  502 -0.00000000000E+00 -0.00000000000E+00 -0.26734552955E+03  0.26734552955E+03  0.00000000000E+00 0. -1.
         21    1    1    2  503  501 -0.95560072771E+01  0.39431437661E+02 -0.77825272199E+02  0.87766329216E+02  0.00000000000E+00 0. -1.
         21    1    1    2  504  502  0.95560072771E+01 -0.39431437661E+02 -0.18231976682E+03  0.18677969087E+03  0.00000000000E+00 0. -1.
</event>
<event>
 4    1  0.3195479E+006  0.3414219E+02  0.7546771E-02  0.1386696E+00
         21   -1    0    0  504  501  0.00000000000E+00  0.00000000000E+00  0.27552876370E+03  0.27552876370E+03  0.00000000000E+00 0. -1.
         21   -1    0    0  503  502 -0.00000000000E+00 -0.00000000000E+00 -0.57202692596E+01  0.57202692596E+01  0.00000000000E+00 0. -1.
         21    1    1    2  503  501  0.19766749764E+02 -0.27838193116E+02  0.63144988401E+02  0.71784252815E+02  0.00000000000E+00 0. -1.
         21    1    1    2  504  502 -0.19766749764E+02  0.27838193116E+02  0.20666350604E+03  0.20946478014E+03  0.00000000000E+00 0. -1.
</event>
<event>
 4    1  0.3195479E+006  0.5137360E+02  0.7546771E-02  0.1292324E+00
         21   -1    0    0  503  501  0.00000000000E+00  0.00000000000E+00  0.26390299148E+02  0.26390299148E+02  0.00000000000E+00 0.  1.
         21   -1    0    0  501  502 -0.00000000000E+00 -0.00000000000E+00 -0.76616324016E+03  0.76616324016E+03  0.00000000000E+00 0.  1.
         21    1    1    2  503  504  0.50673224681E+02 -0.84540330153E+01 -0.37696335698E+00  0.51374979077E+02  0.00000000000E+00 0.  1.
         21    1    1    2  504  502 -0.50673224681E+02  0.84540330153E+01 -0.73939597765E+03  0.74117856023E+03  0.00000000000E+00 0.  1.
</event>
<event>
 4    1  0.3195479E+006  0.2905013E+02  0.7546771E-02  0.1428034E+00
         21   -1    0    0  502  501  0.00000000000E+00  0.00000000000E+00  0.50883979839E+01  0.50883979839E+01  0.00000000000E+00 0. -1.
         21   -1    0    0  504  502 -0.00000000000E+00 -0.00000000000E+00 -0.25063477067E+03  0.25063477067E+03  0.00000000000E+00 0.  1.
         21    1    1    2  503  501 -0.28704885022E+02  0.44653587773E+01 -0.48406432368E+02  0.56454340380E+02  0.00000000000E+00 0. -1.
         21    1    1    2  504  503  0.28704885022E+02 -0.44653587773E+01 -0.19713994032E+03  0.19926882828E+03  0.00000000000E+00 0.  1.
</event>
<event>
 4    1  0.3195479E+006  0.3203224E+02  0.7546771E-02  0.1402721E+00
         21   -1    0    0  503  501  0.00000000000E+00  0.00000000000E+00  0.11813308902E+03  0.11813308902E+03  0.00000000000E+00 0. -1.
         21   -1    0    0  504  502 -0.00000000000E+00 -0.00000000000E+00 -0.17847170990E+02  0.17847170990E+02  0.00000000000E+00 0. -1.
         21    1    1    2  503  502  0.15912454828E+02  0.27800326849E+02  0.14299874151E+01  0.32064142832E+02  0.00000000000E+00 0. -1.
         21    1    1    2  504  501 -0.15912454828E+02 -0.27800326849E+02  0.98855930615E+02  0.10391611718E+03  0.00000000000E+00 0. -1.
</event>
<event>
 4    1  0.3195479E+006  0.2229455E+02  0.7546771E-02  0.1501552E+00
         21   -1    0    0  502  501  0.00000000000E+00  0.00000000000E+00  0.17314485104E+03  0.17314485104E+03  0.00000000000E+00 0.  1.
         21   -1    0    0  503  502 -0.00000000000E+00 -0.00000000000E+00 -0.77830104493E+02  0.77830104493E+02  0.00000000000E+00 0. -1.
         21    1    1    2  503  504  0.15618160827E+02 -0.15909741686E+02 -0.75494110566E+02  0.78717263407E+02  0.00000000000E+00 0. -1.
         21    1    1    2  504  501 -0.15618160827E+02  0.15909741686E+02  0.17080885711E+03  0.17225769213E+03  0.00000000000E+00 0.  1.
</event>
<event>
 4    1  0.3195479E+006  0.2176886E+02  0.7546771E-02  0.1508565E+00
         21   -1    0    0  503  501  0.00000000000E+00  0.00000000000E+00  0.10857454038E+04  0.10857454038E+04  0.00000000000E+00 0.  1.
         21   -1    0    0  501  502 -0.00000000000E+00 -0.00000000000E+00 -0.37918734952E+01  0.37918734952E+01  0.00000000000E+00 0. -1.
         21    1    1    2  503  504  0.46342952249E+01 -0.21269853663E+02  0.10534347511E+04  0.10536596501E+04  0.00000000000E+00 0.  1.
         21    1    1    2  504  502 -0.46342952249E+01  0.21269853663E+02  0.28518779158E+02  0.35877627175E+02  0.00000000000E+00 0. -1.
</event>
<event>
 4    1  0.3195479E+006  0.4308060E+02  0.7546771E-02  0.1331321E+00
         21   -1    0    0  503  501  0.00000000000E+00  0.00000000000E+00  0.45349383988E+03  0.45349383988E+03  0.00000000000E+00 0.  1.
         21   -1    0    0  501  502 -0.00000000000E+00 -0.00000000000E+00 -0.75084570899E+01  0.75084570899E+01  0.00000000000E+00 0.  1.
         21    1    1    2  503  504  0.25710536451E+02 -0.34567421725E+02  0.37846457928E+03  0.38090861909E+03  0.00000000000E+00 0.  1.
         21    1    1    2  504  502 -0.25710536451E+02  0.34567421725E+02  0.67520803509E+02  0.80093677877E+02  0.00000000000E+00 0.  1.
</event>
<event>
 4    1  0.3195479E+006  0.2030822E+02  0.7546771E-02  0.1529375E+00
         21   -1    0    0  503  501  0.00000000000E+00  0.00000000000E+00  0.23392801014E+01  0.23392801014E+01  0.00000000000E+00 0.  1.
         21   -1    0    0  501  502 -0.00000000000E+00 -0.00000000000E+00 -0.25665513829E+03  0.25665513829E+03  0.00000000000E+00 0.  1.
         21    1    1    2  503  504 -0.10295502583E+02  0.17505035941E+02 -0.54700595546E+02  0.58348768709E+02  0.00000000000E+00 0.  1.
         21    1    1    2  504  502  0.10295502583E+02 -0.17505035941E+02 -0.19961526264E+03  0.20064564968E+03  0.00000000000E+00 0.  1.
</event>
<event>
 4    1  0.3195479E+006  0.5081423E+02  0.7546771E-02  0.1294680E+00
         21   -1    0    0  502  501  0.00000000000E+00  0.00000000000E+00  0.27826005316E+03  0.27826005316E+03  0.00000000000E+00 0. -1.
         21   -1    0    0  504  502 -0.00000000000E+00 -0.00000000000E+00 -0.25253355828E+02  0.25253355828E+02  0.00000000000E+00 0. -1.
         21    1    1    2  503  501  0.83577962861E+01  0.50122179932E+02  0.24719983008E+03  0.25236846410E+03  0.00000000000E+00 0. -1.
         21    1    1    2  504  503 -0.83577962861E+01 -0.50122179932E+02  0.58068672457E+01  0.51144944883E+02  0.00000000000E+00 0. -1.
</event>
<event>
 4    1  0.3195479E+006  0.2277134E+02  0.7546771E-02  0.1495390E+00
         21   -1    0    0  502  501  0.00000000000E+00  0.00000000000E+00  0.95267709517E+02  0.95267709517E+02  0.00000000000E+00 0.  1.
         21   -1    0    0  503  502 -0.00000000000E+00 -0.00000000000E+00 -0.40429381613E+02  0.40429381613E+02  0.00000000000E+00 0.  1.
         21    1    1    2  503  504  0.21254477150E+02 -0.81719777420E+01 -0.35697209434E+02  0.42341761661E+02  0.00000000000E+00 0.  1.
         21    1    1    2  504  501 -0.21254477150E+02  0.81719777420E+01  0.90535537338E+02  0.93355329469E+02  0.00000000000E+00 0.  1.
</event>
<event>
 4    1  0.3195479E+006  0.2387951E+02  0.7546771E-02  0.1481740E+00
         21   -1    0    0  503  501  0.00000000000E+00  0.00000000000E+00  0.80873997149E+02  0.80873997149E+02  0.00000000000E+00 0. -1.
         21   -1    0    0  504  502 -0.00000000000E+00 -0.00000000000E+00 -0.85891203745E+01  0.85891203745E+01  0.00000000000E+00 0.  1.
         21    1    1    2  503  502  0.71787145379E+01 -0.22774922245E+02  0.55072628407E+02  0.60026872527E+02  0.00000000000E+00 0. -1.
         21    1    1    2  504  501 -0.71787145379E+01  0.22774922245E+02  0.17212248368E+02  0.29436244997E+02  0.00000000000E+00 0.  1.
</event>
<event>
 4    1  0.3195479E+006  0.3176378E+02  0.7546771E-02  0.1404864E+00
         21   -1    0    0  503  501  0.00000000000E+00  0.00000000000E+00  0.62226154174E+02  0.62226154174E+02  0.00000000000E+00 0. -1.
         21   -1    0    0  501  502 -0.00000000000E+00 -0.00000000000E+00 -0.12263731434E+03  0.12263731434E+03  0.00000000000E+00 0. -1.
         21    1    1    2  503  504 -0.30282355485E+02  0.95873304163E+01  0.55899361121E+02  0.64293674120E+02  0.00000000000E+00 0. -1.
         21    1    1    2  504  502  0.30282355485E+02 -0.95873304163E+01 -0.11631052128E+03  0.12056979439E+03  0.00000000000E+00 0. -1.
</event>
<event>
 4    1  0.3195479E+006  0.5148957E+02  0.7546771E-02  0.1291840E+00
         21   -1    0    0  503  501  0.00000000000E+00  0.00000000000E+00  0.41655877444E+02  0.41655877444E+02  0.00000000000E+00 0. -1.
         21   -1    0    0  501  502 -0.00000000000E+00 -0.00000000000E+00 -0.20358394161E+03  0.20358394161E+03  0.00000000000E+00 0. -1.
         21    1    1    2  503  504  0.67595075868E+01  0.51043950523E+02  0.20698047636E+02  0.55494008719E+02  0.00000000000E+00 0. -1.
         21    1    1    2  504  502 -0.67595075868E+01 -0.51043950523E+02 -0.18262611181E+03  0.18974581034E+03  0.00000000000E+00 0. -1.
</event>
<event>
 4    1  0.3195479E+006  0.3012637E+02  0.7546771E-02  0.1418501E+00
         21   -1    0    0  503  501  0.00000000000E+00  0.00000000000E+00  0.35498190449E+02  0.35498190449E+02  0.00000000000E+00 0.  1.
         21   -1    0    0  504  502 -0.00000000000E+00 -0.00000000000E+00 -0.25713956741E+02  0.25713956741E+02  0.00000000000E+00 0. -1.
         21    1    1    2  503  502 -0.19648077087E+02 -0.22837494056E+02  0.25818727495E+01  0.30236801003E+02  0.00000000000E+00 0. -1.
         21    1    1    2  504  501  0.19648077087E+02  0.22837494056E+02  0.72023609588E+01  0.30975346187E+02  0.00000000000E+00 0.  1.
</event>
<event>
 4    1  0.3195479E+006  0.2886661E+02  0.7546771E-02  0.1429708E+00
         21   -1    0    0  503  501  0.00000000000E+00  0.00000000000E+00  0.12782062964E+04  0.12782062964E+04  0.00000000000E+00 0.  1.
         21   -1    0    0  501  502 -0.00000000000E+00 -0.00000000000E+00 -0.24886995769E+03  0.24886995769E+03  0.00000000000E+00 0. -1.
         21    1    1    2  503  504  0.15813083060E-02  0.28866613736E+02  0.12772055969E+04  0.12775317679E+04  0.00000000000E+00 0.  1.
         21    1    1    2  504  502 -0.15813083060E-02 -0.28866613736E+02 -0.24786925820E+03  0.24954448612E+03  0.00000000000E+00 0. -1.
</event>
<event>
 4    1  0.3195479E+006  0.2845777E+02  0.7546771E-02  0.1433490E+00
         21   -1    0    0  503  501  0.00000000000E+00  0.00000000000E+00  0.20422919435E+03  0.20422919435E+03  0.00000000000E+00 0. -1.
         21   -1    0    0  504  502 -0.00000000000E+00 -0.00000000000E+00 -0.97172370666E+01  0.97172370666E+01  0.00000000000E+00 0. -1.
         21    1    1    2  503  502 -0.87963352901E+00  0.28444172268E+02  0.17955752663E+03  0.18179865253E+03  0.00000000000E+00 0. -1.
         21    1    1    2  504  501  0.87963352901E+00 -0.28444172268E+02  0.14954430648E+02  0.32147778884E+02  0.00000000000E+00 0. -1.
</event>
<event>
 4    1  0.3195479E+006  0.2294875E+02  0.7546771E-02  0.1493143E+00
         21   -1    0    0  503  501  0.00000000000E+00  0.00000000000E+00  0.46371867945E+02  0.46371867945E+02  0.00000000000E+00 0.  1.
         21   -1    0    0  501  502 -0.00000000000E+00 -0.00000000000E+00 -0.72705352415E+02  0.72705352415E+02  0.00000000000E+00 0. -1.
         21    1    1    2  503  504  0.19136600207E+02  0.12666313068E+02  0.41524398169E+02  0.47443867860E+02  0.00000000000E+00 0.  1.
         21    1    1    2  504  502 -0.19136600207E+02 -0.12666313068E+02 -0.67857882638E+02  0.71633352500E+02  0.00000000000E+00 0. -1.
</event>
<event>
 4    1  0.3195479E+006  0.2034917E+02  0.7546771E-02  0.1528763E+00
         21   -1    0    0  502  501  0.00000000000E+00  0.00000000000E+00  0.17053591463E+01  0.17053591463E+01  0.00000000000E+00 0. -1.
         21   -1    0    0  504  502 -0.00000000000E+00 -0.00000000000E+00 -0.42392165955E+03  0.42392165955E+03  0.00000000000E+00 0.  1.
         21    1    1    2  503  501 -0.14865029088E+00 -0.20348625790E+02 -0.72009705761E+02  0.74829715970E+02  0.00000000000E+00 0. -1.
         21    1    1    2  504  503  0.14865029088E+00  0.20348625790E+02 -0.35020659465E+03  0.35079730273E+03  0.00000000000E+00 0.  1.
</event>
<event>
 4    1  0.3195479E+006  0.5012070E+02  0.7546771E-02  0.1297650E+00
         21   -1    0    0  502  501  0.00000000000E+00  0.00000000000E+00  0.33662527169E+02  0.33662527169E+02  0.00000000000E+00 0. -1.
         21   -1    0    0  504  502 -0.00000000000E+00 -0.00000000000E+00 -0.30101676393E+03  0.30101676393E+03  0.00000000000E+00 0.  1.
         21    1    1    2  503  501 -0.27320202010E+02 -0.42020131401E+02  0.11444889874E+02  0.51410800276E+02  0.00000000000E+00 0. -1.
         21    1    1    2  504  503  0.27320202010E+02  0.42020131401E+02 -0.27879912663E+03  0.28326849082E+03  0.00000000000E+00 0.  1.
</event>
<event>
 4    1  0.3195479E+006  0.2179504E+02  0.7546771E-02  0.1508210E+00
         21   -1    0    0  503  501  0.00000000000E+00  0.00000000000E+00  0.37918293680E+03  0.37918293680E+03  0.00000000000E+00 0. -1.
         21   -1    0    0  501  502 -0.00000000000E+00 -0.00000000000E+00 -0.23742321061E+01  0.23742321061E+01  0.00000000000E+00 0.  1.
         21    1    1    2  503  504  0.22057327495E+01 -0.21683140040E+02  0.31952255479E+03  0.32026502593E+03  0.00000000000E+00 0. -1.
         21    1    1    2  504  502 -0.22057327495E+01  0.21683140040E+02  0.57286149905E+02  0.61292142970E+02  0.00000000000E+00 0.  1.
</event>
<event>
 4    1  0.3195479E+006  0.2983773E+02  0.7546771E-02  0.1421012E+00
         21   -1    0    0  503  501  0.00000000000E+00  0.00000000000E+00  0.29735857916E+02  0.29735857916E+02  0.00000000000E+00 0. -1.
         21   -1    0    0  504  502 -0.00000000000E+00 -0.00000000000E+00 -0.42338667697E+02  0.42338667697E+02  0.00000000000E+00 0.  1.
         21    1    1    2  503  502  0.21609189609E+02  0.20575061655E+02 -0.25803061611E+02  0.39447284142E+02  0.00000000000E+00 0.  1.
         21    1    1    2  504  501 -0.21609189609E+02 -0.20575061655E+02  0.13200251830E+02  0.32627241471E+02  0.00000000000E+00 0. -1.
</event>
<event>
 4    1  0.3195479E+006  0.2590216E+02  0.7546771E-02  0.1458959E+00
         21   -1    0    0  503  501  0.00000000000E+00  0.00000000000E+00  0.70911522291E+01  0.70911522291E+01  0.00000000000E+00 0.  1.
         21   -1    0    0  504  502 -0.00000000000E+00 -0.00000000000E+00 -0.50603002422E+03  0.50603002422E+03  0.00000000000E+00 0. -1.
         21    1    1    2  503  502  0.24574836189E+02 -0.81853004716E+01 -0.48080502106E+03  0.48150222221E+03  0.00000000000E+00 0. -1.
         21    1    1    2  504  501 -0.24574836189E+02  0.81853004716E+01 -0.18133850930E+02  0.31618954238E+02  0.00000000000E+00 0.  1.
</event>
<event>
 4    1  0.3195479E+006  0.3348506E+02  0.7546771E-02  0.1391538E+00
         21   -1    0    0  503  501  0.00000000000E+00  0.00000000000E+00  0.22064720422E+02  0.22064720422E+02  0.00000000000E+00 0. -1.
         21   -1    0    0  501  502 -0.00000000000E+00 -0.00000000000E+00 -0.94822156627E+02  0.94822156627E+02  0.00000000000E+00 0. -1.
         21    1    1    2  503  504 -0.23013173063E+01  0.33405881140E+02  0.34352761020E+01  0.33660809230E+02  0.00000000000E+00 0. -1.
         21    1    1    2  504  502  0.23013173063E+01 -0.33405881140E+02 -0.76192712307E+02  0.83226067820E+02  0.00000000000E+00 0. -1.
</event>
<event>
 4    1  0.3195479E+006  0.2003086E+02  0.7546771E-02  0.1533564E+00
         21   -1    0    0  503  501  0.00000000000E+00  0.00000000000E+00  0.81138484160E+03  0.81138484160E+03  0.00000000000E+00 0.  1.
         21   -1    0    0  504  502 -0.00000000000E+00 -0.00000000000E+00 -0.66230606474E+00  0.66230606474E+00  0.00000000000E+00 0. -1.
         21    1    1    2  503  502 -0.47080625925E+01  0.19469708966E+02  0.60973108308E+03  0.61006002090E+03  0.00000000000E+00 0.  1.
         21    1    1    2  504  501  0.47080625925E+01 -0.19469708966E+02  0.20099145245E+03  0.20198712676E+03  0.00000000000E+00 0. -1.
</event>
<event>
 4    1  0.3195479E+006  0.2740306E+02  0.7546771E-02  0.1443601E+00
         21   -1    0    0  503  501  0.00000000000E+00  0.00000000000E+00  0.14098560358E+01  0.14098560358E+01  0.00000000000E+00 0.  1.
         21   -1    0    0  504  502 -0.00000000000E+00 -0.00000000000E+00 -0.57749736150E+03  0.57749736150E+03  0.00000000000E+00 0.  1.
         21    1    1    2  503  502 -0.27373281266E+02  0.12770976988E+01 -0.20736050792E+03  0.20916335183E+03  0.00000000000E+00 0.  1.
         21    1    1    2  504  501  0.27373281266E+02 -0.12770976988E+01 -0.36872699755E+03  0.36974386570E+03  0.00000000000E+00 0.  1.
</event>
<event>
 4    1  0.3195479E+006  0.2147457E+02  0.7546771E-02  0.1512596E+00
         21   -1    0    0  504  501  0.00000000000E+00  0.00000000000E+00  0.23675442641E+03  0.23675442641E+03  0.00000000000E+00 0.  1.
         21   -1    0    0  503  502 -0.00000000000E+00 -0.00000000000E+00 -0.19436526015E+02  0.19436526015E+02  0.00000000000E+00 0.  1.
         21    1    1    2  503  501 -0.20396428219E+02 -0.67188592477E+01  0.23016647839E+03  0.23116609857E+03  0.00000000000E+00 0.  1.
         21    1    1    2  504  502  0.20396428219E+02  0.67188592477E+01 -0.12848577998E+02  0.25024853851E+02  0.00000000000E+00 0.  1.
</event>
<event>
 4    1  0.3195479E+006  0.2087786E+02  0.7546771E-02  0.1521016E+00
         21   -1    0    0  503  501  0.00000000000E+00  0.00000000000E+00  0.31757179493E+02  0.31757179493E+02  0.00000000000E+00 0.  1.
         21   -1    0    0  504  502 -0.00000000000E+00 -0.00000000000E+00 -0.31192382210E+02  0.31192382210E+02  0.00000000000E+00 0.  1.
         21    1    1    2  503  502 -0.78822866139E+01  0.19332734620E+02  0.23835353183E+02  0.31686103129E+02  0.00000000000E+00 0.  1.
         21    1    1    2  504  501  0.78822866139E+01 -0.19332734620E+02 -0.23270555899E+02  0.31263458574E+02  0.00000000000E+00 0.  1.
</event>
<event>
 4    1  0.3195479E+006  0.2863555E+02  0.7546771E-02  0.1431836E+00
         21   -1    0    0  504  501  0.00000000000E+00  0.00000000000E+00  0.22369864757E+02  0.22369864757E+02  0.00000000000E+00 0.  1.
         21   -1    0    0  503  502 -0.00000000000E+00 -0.00000000000E+00 -0.36681295204E+02  0.36681295204E+02  0.00000000000E+00 0.  1.
         21    1    1    2  503  501  0.73955169899E-01 -0.28635457829E+02 -0.63839075914E+01  0.29338527410E+02  0.00000000000E+00 0.  1.
         21    1    1    2  504  502 -0.73955169899E-01  0.28635457829E+02 -0.79275228559E+01  0.29712632551E+02  0.00000000000E+00 0.  1.
</event>
<event>
 4    1  0.3195479E+006  0.2320510E+02  0.7546771E-02  0.1489939E+00
         21   -1    0    0  503  501  0.00000000000E+00  0.00000000000E+00  0.11428779669E+03  0.11428779669E+03  0.00000000000E+00 0. -1.
         21   -1    0    0  504  502 -0.00000000000E+00 -0.00000000000E+00 -0.95292373256E+01  0.95292373256E+01  0.00000000000E+00 0.  1.
         21    1    1    2  503  502  0.20134543162E+02  0.11535894493E+02  0.83603936036E+01  0.24665215817E+02  0.00000000000E+00 0.  1.
         21    1    1    2  504  501 -0.20134543162E+02 -0.11535894493E+02  0.96398165765E+02  0.99151818203E+02  0.00000000000E+00 0. -1.
</event>
<event>
 4    1  0.3195479E+006  0.2339945E+02  0.7546771E-02  0.1487542E+00
         21   -1    0    0  503  501  0.00000000000E+00  0.00000000000E+00  0.10352307043E+03  0.10352307043E+03  0.00000000000E+00 0.  1.
         21   -1    0    0  504  502 -0.00000000000E+00 -0.00000000000E+00 -0.43341993996E+03  0.43341993996E+03  0.00000000000E+00 0.  1.
         21    1    1    2  503  502  0.17390167068E+02  0.15656188940E+02  0.10187996884E+03  0.10453258925E+03  0.00000000000E+00 0.  1.
         21    1    1    2  504  501 -0.17390167068E+02 -0.15656188940E+02 -0.43177683837E+03  0.43241042114E+03  0.00000000000E+00 0.  1.
</event>
<event>
 4    1  0.3195479E+006  0.2096171E+02  0.7546771E-02  0.1519812E+00
         21   -1    0    0  503  501  0.00000000000E+00  0.00000000000E+00  0.22162003154E+01  0.22162003154E+01  0.00000000000E+00 0.  1.
         21   -1    0    0  501  502 -0.00000000000E+00 -0.00000000000E+00 -0.94513700143E+03  0.94513700143E+03  0.00000000000E+00 0. -1.
         21    1    1    2  503  504  0.17381013174E+02  0.11717230651E+02 -0.50386929985E+02  0.54573215283E+02  0.00000000000E+00 0.  1.
         21    1    1    2  504  502 -0.17381013174E+02 -0.11717230651E+02 -0.89253387113E+03  0.89277998646E+03  0.00000000000E+00 0. -1.
</event>
<event>
 4    1  0.3195479E+006  0.2564177E+02  0.7546771E-02  0.1461750E+00
         21   -1    0    0  502  501  0.00000000000E+00  0.00000000000E+00  0.30391341343E+03  0.30391341343E+03  0.00000000000E+00 0.  1.
         21   -1    0    0  504  502 -0.00000000000E+00 -0.00000000000E+00 -0.31839494500E+01  0.31839494500E+01  0.00000000000E+00 0.  1.
         21    1    1    2  503  501  0.11414489103E+02 -0.22961044710E+02  0.23729486299E+03  0.23867624963E+03  0.00000000000E+00 0.  1.
         21    1    1    2  504  503 -0.11414489103E+02  0.22961044710E+02  0.63434600988E+02  0.68421113249E+02  0.00000000000E+00 0.  1.
</event>
<event>
 4    1  0.3195479E+006  0.2537901E+02  0.7546771E-02  0.1464608E+00
         21   -1    0    0  503  501  0.00000000000E+00  0.00000000000E+00  0.26295962705E+02  0.26295962705E+02  0.00000000000E+00 0. -1.
         21   -1    0    0  504  502 -0.00000000000E+00 -0.00000000000E+00 -0.42932261875E+02  0.42932261875E+02  0.00000000000E+00 0. -1.
         21    1    1    2  503  502  0.20637963053E+02 -0.14770527925E+02  0.14365920877E+02  0.29162882176E+02  0.00000000000E+00 0. -1.
         21    1    1    2  504  501 -0.20637963053E+02  0.14770527925E+02 -0.31002220047E+02  0.40065342405E+02  0.00000000000E+00 0. -1.
</event>
<event>
 4    1  0.3195479E+006  0.2162575E+02  0.7546771E-02  0.1510515E+00
         21   -1    0    0  504  501  0.00000000000E+00  0.00000000000E+00  0.46215620198E+01  0.46215620198E+01  0.00000000000E+00 0.  1.
         21   -1    0    0  501  502 -0.00000000000E+00 -0.00000000000E+00 -0.83782977452E+03  0.83782977452E+03  0.00000000000E+00 0.  1.
         21    1    1    2  503  502  0.40356801293E+01  0.21245851046E+02 -0.81157348636E+03  0.81186156249E+03  0.00000000000E+00 0.  1.
         21    1    1    2  504  503 -0.40356801293E+01 -0.21245851046E+02 -0.21634726144E+02  0.30589774044E+02  0.00000000000E+00 0.  1.
</event>
<event>
 4    1  0.3195479E+006  0.2257709E+02  0.7546771E-02  0.1497878E+00
         21   -1    0    0  503  501  0.00000000000E+00  0.00000000000E+00  0.26046984786E+03  0.26046984786E+03  0.00000000000E+00 0.  1.
         21   -1    0    0  504  502 -0.00000000000E+00 -0.00000000000E+00 -0.23272371435E+01  0.23272371435E+01  0.00000000000E+00 0.  1.
         21    1    1    2  503  502  0.18556150592E+02 -0.12860577568E+02  0.76657891702E+02  0.79913437796E+02  0.00000000000E+00 0.  1.
         21    1    1    2  504  501 -0.18556150592E+02  0.12860577568E+02  0.18148471902E+03  0.18288364721E+03  0.00000000000E+00 0.  1.
</event>
<event>
 4    1  0.3195479E+006  0.2075916E+02  0.7546771E-02  0.1522731E+00
         21   -1    0    0  504  501  0.00000000000E+00  0.00000000000E+00  0.28786832480E+02  0.28786832480E+02  0.00000000000E+00 0.  1.
         21   -1    0    0  501  502 -0.00000000000E+00 -0.00000000000E+00 -0.40136806660E+03  0.40136806660E+03  0.00000000000E+00 0.  1.
         21    1    1    2  503  502 -0.14598942342E+02  0.14758504809E+02 -0.39731899935E+03  0.39786094283E+03  0.00000000000E+00 0.  1.
         21    1    1    2  504  503  0.14598942342E+02 -0.14758504809E+02  0.24737765232E+02  0.32293956251E+02  0.00000000000E+00 0.  1.
</event>
<event>
 4    1  0.3195479E+006  0.2254975E+02  0.7546771E-02  0.1498231E+00
         21   -1    0    0  504  501  0.00000000000E+00  0.00000000000E+00  0.38559412541E+02  0.38559412541E+02  0.00000000000E+00 0. -1.
         21   -1    0    0  501  502 -0.00000000000E+00 -0.00000000000E+00 -0.13924715233E+02  0.13924715233E+02  0.00000000000E+00 0. -1.
         21    1    1    2  503  502 -0.22472394215E+02 -0.18661996694E+01  0.18356645408E+02  0.29076754179E+02  0.00000000000E+00 0. -1.
         21    1    1    2  504  503  0.22472394215E+02  0.18661996694E+01  0.62780519000E+01  0.23407373595E+02  0.00000000000E+00 0. -1.
</event>
<event>
 4    1  0.3195479E+006  0.2792754E+02  0.7546771E-02  0.1438507E+00
         21   -1    0    0  503  501  0.00000000000E+00  0.00000000000E+00  0.46002676680E+01  0.46002676680E+01  0.00000000000E+00 0. -1.
         21   -1    0    0  504  502 -0.00000000000E+00 -0.00000000000E+00 -0.17809796165E+03  0.17809796165E+03  0.00000000000E+00 0. -1.
         21    1    1    2  503  502 -0.19320934246E+02 -0.20165539951E+02 -0.66729031902E+02  0.72337481296E+02  0.00000000000E+00 0. -1.
         21    1    1    2  504  501  0.19320934246E+02  0.20165539951E+02 -0.10676866208E+03  0.11036074802E+03  0.00000000000E+00 0. -1.
</event>
<event>
 4    1  0.3195479E+006  0.3162005E+02  0.7546771E-02  0.1406022E+00
         21   -1    0    0  504  501  0.00000000000E+00  0.00000000000E+00  0.11471860534E+01  0.11471860534E+01  0.00000000000E+00 0. -1.
         21   -1    0    0  503  502 -0.00000000000E+00 -0.00000000000E+00 -0.12035355295E+04  0.12035355295E+04  0.00000000000E+00 0.  1.
         21    1    1    2  503  501  0.14510108618E+02  0.28094204096E+02 -0.28483953864E+03  0.28658923624E+03  0.00000000000E+00 0. -1.
         21    1    1    2  504  502 -0.14510108618E+02 -0.28094204096E+02 -0.91754880477E+03  0.91809347928E+03  0.00000000000E+00 0.  1.
</event>
<event>
 4    1  0.3195479E+006  0.2346423E+02  0.7546771E-02  0.1486750E+00
         21   -1    0    0  504  501  0.00000000000E+00  0.00000000000E+00  0.34900494389E+03  0.34900494389E+03  0.00000000000E+00 0.  1.
         21   -1    0    0  503  502 -0.00000000000E+00 -0.00000000000E+00 -0.28725648271E+02  0.28725648271E+02  0.00000000000E+00 0.  1.
         21    1    1    2  503  501  0.25115645509E+01  0.23329421636E+02 -0.23466414586E+02  0.33184973766E+02  0.00000000000E+00 0.  1.
         21    1    1    2  504  502 -0.25115645509E+01 -0.23329421636E+02  0.34374571020E+03  0.34454561839E+03  0.00000000000E+00 0.  1.
</event>
<event>
 4    1  0.3195479E+006  0.2059865E+02  0.7546771E-02  0.1525073E+00
         21   -1    0    0  504  501  0.00000000000E+00  0.00000000000E+00  0.73189737555E+01  0.73189737555E+01  0.00000000000E+00 0. -1.
         21   -1    0    0  503  502 -0.00000000000E+00 -0.00000000000E+00 -0.27285813960E+03  0.27285813960E+03  0.00000000000E+00 0. -1.
         21    1    1    2  503  501  0.77509752460E+01  0.19084721265E+02 -0.84506680446E+01  0.22264725316E+02  0.00000000000E+00 0. -1.
         21    1    1    2  504  502 -0.77509752460E+01 -0.19084721265E+02 -0.25708849780E+03  0.25791238804E+03  0.00000000000E+00 0. -1.
</event>
<event>
 4    1  0.3195479E+006  0.2028276E+02  0.7546771E-02  0.1529756E+00
         21   -1    0    0  503  501  0.00000000000E+00  0.00000000000E+00  0.25154132047E+01  0.25154132047E+01  0.00000000000E+00 0.  1.
         21   -1    0    0  504  502 -0.00000000000E+00 -0.00000000000E+00 -0.17371474616E+03  0.17371474616E+03  0.00000000000E+00 0.  1.
         21    1    1    2  503  502  0.55661776930E+01  0.19504053447E+02 -0.10691666106E+03  0.10882353995E+03  0.00000000000E+00 0.  1.
         21    1    1    2  504  501 -0.55661776930E+01 -0.19504053447E+02 -0.64282671897E+02  0.67406619417E+02  0.00000000000E+00 0.  1.
</event>
<event>
 4    1  0.3195479E+006  0.3102895E+02  0.7546771E-02  0.1410861E+00
         21   -1    0    0  502  501  0.00000000000E+00  0.00000000000E+00  0.16267775663E+02  0.16267775663E+02  0.00000000000E+00 0.  1.
         21   -1    0    0  503  502 -0.00000000000E+00 -0.00000000000E+00 -0.18831697272E+03  0.18831697272E+03  0.00000000000E+00 0. -1.
         21    1    1    2  503  504  0.29016765518E+02  0.10991968287E+02 -0.17073108853E+03  0.17352780941E+03  0.00000000000E+00 0. -1.
         21    1    1    2  504  501 -0.29016765518E+02 -0.10991968287E+02 -0.13181085208E+01  0.31056938968E+02  0.00000000000E+00 0.  1.
</event>
<event>
 4    1  0.3195479E+006  0.2769134E+02  0.7546771E-02  0.1440784E+00
         21   -1    0    0  504  501  0.00000000000E+00  0.00000000000E+00  0.47410257222E+03  0.47410257222E+03  0.00000000000E+00 0.  1.
         21   -1    0    0  503  502 -0.00000000000E+00 -0.00000000000E+00 -0.22495639459E+01  0.22495639459E+01  0.00000000000E+00 0.  1.
         21    1    1    2  503  501  0.82161699655E+01 -0.26444368510E+02  0.36218665196E+03  0.36324369359E+03  0.00000000000E+00 0.  1.
         21    1    1    2  504  502 -0.82161699655E+01  0.26444368510E+02  0.10966635632E+03  0.11310844258E+03  0.00000000000E+00 0.  1.
</event>
<event>
 4    1  0.3195479E+006  0.3479325E+02  0.7546771E-02  0.1382023E+00
         21   -1    0    0  502  501  0.00000000000E+00  0.00000000000E+00  0.76261128410E+02  0.76261128410E+02  0.00000000000E+00 0.  1.
         21   -1    0    0  504  502 -0.00000000000E+00 -0.00000000000E+00 -0.39158903897E+03  0.39158903897E+03  0.00000000000E+00 0. -1.
         21    1    1    2  503  501  0.22035286011E+02  0.26926125324E+02  0.71470718024E+02  0.79489833245E+02  0.00000000000E+00 0.  1.
         21    1    1    2  504  503 -0.22035286011E+02 -0.26926125324E+02 -0.38679862858E+03  0.38836033413E+03  0.00000000000E+00 0. -1.
</event>
<event>
 4    1  0.3195479E+006  0.2426837E+02  0.7546771E-02  0.1477157E+00
         21   -1    0    0  503  501  0.00000000000E+00  0.00000000000E+00  0.65875035513E+02  0.65875035513E+02  0.00000000000E+00 0.  1.
         21   -1    0    0  504  502 -0.00000000000E+00 -0.00000000000E+00 -0.28951052755E+02  0.28951052755E+02  0.00000000000E+00 0. -1.
         21    1    1    2  503  502 -0.64604367467E+01 -0.23392663895E+02 -0.20956091362E+02  0.32064181453E+02  0.00000000000E+00 0. -1.
         21    1    1    2  504  501  0.64604367467E+01  0.23392663895E+02  0.57880074119E+02  0.62761906815E+02  0.00000000000E+00 0.  1.
</event>
<event>
 4    1  0.3195479E+006  0.2611251E+02  0.7546771E-02  0.1456733E+00
         21   -1    0    0  502  501  0.00000000000E+00  0.00000000000E+00  0.37891878115E+02  0.37891878115E+02  0.00000000000E+00 0.  1.
         21   -1    0    0  504  502 -0.00000000000E+00 -0.00000000000E+00 -0.49642789759E+02  0.49642789759E+02  0.00000000000E+00 0.  1.
         21    1    1    2  503  501  0.35155481493E+01 -0.25874774245E+02  0.29070259554E+02  0.39076118174E+02  0.00000000000E+00 0.  1.
         21    1    1    2  504  503 -0.35155481493E+01  0.25874774245E+02 -0.40821171198E+02  0.48458549700E+02  0.00000000000E+00 0.  1.
</event>
<event>
 4    1  0.3195479E+006  0.2839086E+02  0.7546771E-02  0.1434116E+00
         21   -1    0    0  504  501  0.00000000000E+00  0.00000000000E+00  0.83727854572E+03  0.83727854572E+03  0.00000000000E+00 0. -1.
         21   -1    0    0  501  502 -0.00000000000E+00 -0.00000000000E+00 -0.34964960211E+01  0.34964960211E+01  0.00000000000E+00 0.  1.
         21    1    1    2  503  502 -0.15199014737E+01 -0.28350141993E+02  0.59025486176E+02  0.65498463110E+02  0.00000000000E+00 0.  1.
         21    1    1    2  504  503  0.15199014737E+01  0.28350141993E+02  0.77475656353E+03  0.77527657864E+03  0.00000000000E+00 0. -1.
</event>
<event>
 4    1  0.3195479E+006  0.2317972E+02  0.7546771E-02  0.1490254E+00
         21   -1    0    0  502  501  0.00000000000E+00  0.00000000000E+00  0.22998046831E+03  0.22998046831E+03  0.00000000000E+00 0.  1.
         21   -1    0    0  503  502 -0.00000000000E+00 -0.00000000000E+00 -0.26875054896E+01  0.26875054896E+01  0.00000000000E+00 0.  1.
         21    1    1    2  503  504 -0.23147773842E+02  0.12165417574E+01  0.71590940116E+02  0.75249997438E+02  0.00000000000E+00 0.  1.
         21    1    1    2  504  501  0.23147773842E+02 -0.12165417574E+01  0.15570202270E+03  0.15741797636E+03  0.00000000000E+00 0.  1.
</event>
<event>
 4    1  0.3195479E+006  0.2308303E+02  0.7546771E-02  0.1491458E+00
         21   -1    0    0  504  501  0.00000000000E+00  0.00000000000E+00  0.67884919823E+02  0.67884919823E+02  0.00000000000E+00 0.  1.
         21   -1    0    0  503  502 -0.00000000000E+00 -0.00000000000E+00 -0.13617206250E+02  0.13617206250E+02  0.00000000000E+00 0.  1.
         21    1    1    2  503  501  0.20305107940E+02 -0.10978566561E+02  0.61122244902E+00  0.23091122214E+02  0.00000000000E+00 0.  1.
         21    1    1    2  504  502 -0.20305107940E+02  0.10978566561E+02  0.53656491124E+02  0.58411003860E+02  0.00000000000E+00 0.  1.
</event>
<event>
 4    1  0.3195479E+006  0.4343283E+02  0.7546771E-02  0.1329464E+00
         21   -1    0    0  502  501  0.00000000000E+00  0.00000000000E+00  0.38612597034E+02  0.38612597034E+02  0.00000000000E+00 0. -1.
         21   -1    0    0  503  502 -0.00000000000E+00 -0.00000000000E+00 -0.57905088337E+02  0.57905088337E+02  0.00000000000E+00 0.  1.
         21    1    1    2  503  504 -0.43341174243E+02 -0.28201652147E+01 -0.28724987845E+02  0.52072407696E+02  0.00000000000E+00 0.  1.
         21    1    1    2  504  501  0.43341174243E+02  0.28201652147E+01  0.94324965415E+01  0.44445277675E+02  0.00000000000E+00 0. -1.
</event>
<event>
 4    1  0.3195479E+006  0.2033708E+02  0.7546771E-02  0.1528944E+00
         21   -1    0    0  504  501  0.00000000000E+00  0.00000000000E+00  0.12046075670E+02  0.12046075670E+02  0.00000000000E+00 0.  1.
         21   -1    0    0  501  502 -0.00000000000E+00 -0.00000000000E+00 -0.16198057149E+03  0.16198057149E+03  0.00000000000E+00 0. -1.
         21    1    1    2  503  502  0.40201871495E+01  0.19935766729E+02 -0.15221003214E+03  0.15356266012E+03  0.00000000000E+00 0. -1.
         21    1    1    2  504  503 -0.40201871495E+01 -0.19935766729E+02  0.22755363227E+01  0.20463987035E+02  0.00000000000E+00 0.  1.
</event>
<event>
 4    1  0.3195479E+006  0.3173250E+02  0.7546771E-02  0.1405115E+00
         21   -1    0    0  504  501  0.00000000000E+00  0.00000000000E+00  0.51098538113E+02  0.51098538113E+02  0.00000000000E+00 0.  1.
         21   -1    0    0  503  502 -0.00000000000E+00 -0.00000000000E+00 -0.23904786158E+02  0.23904786158E+02  0.00000000000E+00 0.  1.
         21    1    1    2  503  501  0.20975052521E+02 -0.23811736839E+02 -0.21199943364E+01  0.31803239073E+02  0.00000000000E+00 0.  1.
         21    1    1    2  504  502 -0.20975052521E+02  0.23811736839E+02  0.29313746291E+02  0.43200085198E+02  0.00000000000E+00 0.  1.
</event>
<event>
 4    1  0.3195479E+006  0.3889140E+02  0.7546771E-02  0.1355108E+00
         21   -1    0    0  503  501  0.00000000000E+00  0.00000000000E+00  0.20037173507E+02  0.20037173507E+02  0.00000000000E+00 0.  1.
         21   -1    0    0  504  502 -0.00000000000E+00 -0.00000000000E+00 -0.82763574051E+02  0.82763574051E+02  0.00000000000E+00 0.  1.
         21    1    1    2  503  502  0.17092184860E+02 -0.34934195306E+02 -0.16122038400E+02  0.42100604593E+02  0.00000000000E+00 0.  1.
         21    1    1    2  504  501 -0.17092184860E+02  0.34934195306E+02 -0.46604362145E+02  0.60700142964E+02  0.00000000000E+00 0.  1.
</event>
<event>
 4    1  0.3195479E+006  0.2737499E+02  0.7546771E-02  0.1443877E+00
         21   -1    0    0  503  501  0.00000000000E+00  0.00000000000E+00  0.26182475378E+03  0.26182475378E+03  0.00000000000E+00 0. -1.
         21   -1    0    0  501  502 -0.00000000000E+00 -0.00000000000E+00 -0.29734209918E+01  0.29734209918E+01  0.00000000000E+00 0. -1.
         21    1    1    2  503  504  0.14789032082E+02  0.23036371644E+02  0.15503432732E+03  0.15743262856E+03  0.00000000000E+00 0. -1.
         21    1    1    2  504  502 -0.14789032082E+02 -0.23036371644E+02  0.10381700546E+03  0.10736554620E+03  0.00000000000E+00 0. -1.
</event>
<event>
 4    1  0.3195479E+006  0.2110112E+02  0.7546771E-02  0.1517826E+00
         21   -1    0    0  502  501  0.00000000000E+00  0.00000000000E+00  0.74454876267E+02  0.74454876267E+02  0.00000000000E+00 0. -1.
         21   -1    0    0  504  502 -0.00000000000E+00 -0.00000000000E+00 -0.42243992467E+02  0.42243992467E+02  0.00000000000E+00 0. -1.
         21    1    1    2  503  501 -0.14113540927E+02  0.15686470056E+02  0.70167253552E+02  0.73271419062E+02  0.00000000000E+00 0. -1.
         21    1    1    2  504  503  0.14113540927E+02 -0.15686470056E+02 -0.37956369751E+02  0.43427449672E+02  0.00000000000E+00 0. -1.
</event>
<event>
 4    1  0.3195479E+006  0.2686706E+02  0.7546771E-02  0.1448948E+00
         21   -1    0    0  504  501  0.00000000000E+00  0.00000000000E+00  0.70542148192E+02  0.70542148192E+02  0.00000000000E+00 0. -1.
         21   -1    0    0  503  502 -0.00000000000E+00 -0.00000000000E+00 -0.11212431429E+02  0.11212431429E+02  0.00000000000E+00 0.  1.
         21    1    1    2  503  501  0.26823052145E+02  0.15371943133E+01  0.41747948289E+02  0.49646049984E+02  0.00000000000E+00 0. -1.
         21    1    1    2  504  502 -0.26823052145E+02 -0.15371943133E+01  0.17581768474E+02  0.32108529637E+02  0.00000000000E+00 0.  1.
</event>
<event>
 4    1  0.3195479E+006  0.4262942E+02  0.7546771E-02  0.1333730E+00
         21   -1    0    0  503  501  0.00000000000E+00  0.00000000000E+00  0.54810807619E+03  0.54810807619E+03  0.00000000000E+00 0.  1.
         21   -1    0    0  504  502 -0.00000000000E+00 -0.00000000000E+00 -0.23581797245E+02  0.23581797245E+02  0.00000000000E+00 0. -1.
         21    1    1    2  503  502  0.13036265689E+02  0.40587231070E+02  0.52725281891E+03  0.52897334772E+03  0.00000000000E+00 0.  1.
         21    1    1    2  504  501 -0.13036265689E+02 -0.40587231070E+02 -0.27265399643E+01  0.42716525715E+02  0.00000000000E+00 0. -1.
</event>
<event>
 4    1  0.3195479E+006  0.5120391E+02  0.7546771E-02  0.1293035E+00
         21   -1    0    0  504  501  0.00000000000E+00  0.00000000000E+00  0.10627675135E+02  0.10627675135E+02  0.00000000000E+00 0.  1.
         21   -1    0    0  503  502 -0.00000000000E+00 -0.00000000000E+00 -0.25184151418E+03  0.25184151418E+03  0.00000000000E+00 0.  1.
         21    1    1    2  503  501  0.41580808394E+00  0.51202226392E+02 -0.10185454333E+03  0.11400082842E+03  0.00000000000E+00 0.  1.
         21    1    1    2  504  502 -0.41580808394E+00 -0.51202226392E+02 -0.13935929571E+03  0.14846836089E+03  0.00000000000E+00 0.  1.
</event>
<event>
 4    1  0.3195479E+006  0.2000953E+02  0.7546771E-02  0.1533890E+00
         21   -1    0    0  504  501  0.00000000000E+00  0.00000000000E+00  0.17443822362E+03  0.17443822362E+03  0.00000000000E+00 0.  1.
         21   -1    0    0  503  502 -0.00000000000E+00 -0.00000000000E+00 -0.31357431619E+02  0.31357431619E+02  0.00000000000E+00 0.  1.
         21    1    1    2  503  501  0.14028698331E+02  0.14268032039E+02 -0.27519984995E+02  0.34025441794E+02  0.00000000000E+00 0.  1.
         21    1    1    2  504  502 -0.14028698331E+02 -0.14268032039E+02  0.17060077700E+03  0.17177021345E+03  0.00000000000E+00 0.  1.
</event>
<event>
 4    1  0.3195479E+006  0.2035605E+02  0.7546771E-02  0.1528661E+00
         21   -1    0    0  503  501  0.00000000000E+00  0.00000000000E+00  0.19056562526E+02  0.19056562526E+02  0.00000000000E+00 0.  1.
         21   -1    0    0  504  502 -0.00000000000E+00 -0.00000000000E+00 -0.22323919627E+02  0.22323919627E+02  0.00000000000E+00 0.  1.
         21    1    1    2  503  502 -0.21670243287E+00  0.20354898935E+02 -0.49679869423E+01  0.20953514379E+02  0.00000000000E+00 0.  1.
         21    1    1    2  504  501  0.21670243287E+00 -0.20354898935E+02  0.17006298418E+01  0.20426967774E+02  0.00000000000E+00 0.  1.
</event>
<event>
 4    1  0.3195479E+006  0.2362030E+02  0.7546771E-02  0.1484853E+00
         21   -1    0    0  504  501  0.00000000000E+00  0.00000000000E+00  0.15431792184E+02  0.15431792184E+02  0.00000000000E+00 0. -1.
         21   -1    0    0  503  502 -0.00000000000E+00 -0.00000000000E+00 -0.47431083250E+02  0.47431083250E+02  0.00000000000E+00 0. -1.
         21    1    1    2  503  501 -0.16596554083E+02 -0.16806931148E+02 -0.67345559473E+00  0.23629898105E+02  0.00000000000E+00 0. -1.
         21    1    1    2  504  502  0.16596554083E+02  0.16806931148E+02 -0.31325835471E+02  0.39232977328E+02  0.00000000000E+00 0. -1.
</event>
<event>
 4    1  0.3195479E+006  0.2532944E+02  0.7546771E-02  0.1465151E+00
         21   -1    0    0  503  501  0.00000000000E+00  0.00000000000E+00  0.11294827204E+02  0.11294827204E+02  0.00000000000E+00 0.  1.
         21   -1    0    0  504  502 -0.00000000000E+00 -0.00000000000E+00 -0.95933436765E+02  0.95933436765E+02  0.00000000000E+00 0. -1.
         21    1    1    2  503  502 -0.17653439098E+02 -0.18164163921E+02 -0.76560686778E+02  0.80641921622E+02  0.00000000000E+00 0. -1.
         21    1    1    2  504  501  0.17653439098E+02  0.18164163921E+02 -0.80779227822E+01  0.26586342347E+02  0.00000000000E+00 0.  1.
</event>
<event>
 4    1  0.3195479E+006  0.2677608E+02  0.7546771E-02  0.1449871E+00
         21   -1    0    0  504  501  0.00000000000E+00  0.00000000000E+00  0.66002893266E+01  0.66002893266E+01  0.00000000000E+00 0.  1.
         21   -1    0    0  503  502 -0.00000000000E+00 -0.00000000000E+00 -0.11128510446E+03  0.11128510446E+03  0.00000000000E+00 0.  1.
         21    1    1    2  503  501 -0.22468185866E+02 -0.14564988488E+02 -0.43229895830E+02  0.50850586617E+02  0.00000000000E+00 0.  1.
         21    1    1    2  504  502  0.22468185866E+02  0.14564988488E+02 -0.61454919306E+02  0.67034807173E+02  0.00000000000E+00 0.  1.
</event>
<event>
 4    1  0.3195479E+006  0.2137313E+02  0.7546771E-02  0.1514004E+00
         21   -1    0    0  504  501  0.00000000000E+00  0.00000000000E+00  0.15024745373E+03  0.15024745373E+03  0.00000000000E+00 0.  1.
         21   -1    0    0  501  502 -0.00000000000E+00 -0.00000000000E+00 -0.14945707400E+02  0.14945707400E+02  0.00000000000E+00 0. -1.
         21    1    1    2  503  502  0.19443716255E+02  0.88742595324E+01 -0.60672640687E+01  0.22217611873E+02  0.00000000000E+00 0. -1.
         21    1    1    2  504  503 -0.19443716255E+02 -0.88742595324E+01  0.14136901040E+03  0.14297554926E+03  0.00000000000E+00 0.  1.
</event>
<event>
 4    1  0.3195479E+006  0.2514192E+02  0.7546771E-02  0.1467222E+00
         21   -1    0    0  503  501  0.00000000000E+00  0.00000000000E+00  0.17237868577E+02  0.17237868577E+02  0.00000000000E+00 0.  1.
         21   -1    0    0  501  502 -0.00000000000E+00 -0.00000000000E+00 -0.85261975796E+03  0.85261975796E+03  0.00000000000E+00 0.  1.
         21    1    1    2  503  504 -0.25119516462E+02  0.10611498377E+01  0.77821856024E+01  0.26318787187E+02  0.00000000000E+00 0.  1.
         21    1    1    2  504  502  0.25119516462E+02 -0.10611498377E+01 -0.84316407499E+03  0.84353883935E+03  0.00000000000E+00 0.  1.
</event>
<event>
 4    1  0.3195479E+006  0.2074624E+02  0.7546771E-02  0.1522919E+00
         21   -1    0    0  504  501  0.00000000000E+00  0.00000000000E+00  0.44133324052E+01  0.44133324052E+01  0.00000000000E+00 0.  1.
         21   -1    0    0  503  502 -0.00000000000E+00 -0.00000000000E+00 -0.16539963072E+03  0.16539963072E+03  0.00000000000E+00 0.  1.
         21    1    1    2  503  501 -0.12050090629E+02  0.16887919258E+02 -0.13488452306E+03  0.13647066008E+03  0.00000000000E+00 0.  1.
         21    1    1    2  504  502  0.12050090629E+02 -0.16887919258E+02 -0.26101775253E+02  0.33342303045E+02  0.00000000000E+00 0.  1.
</event>
<event>
 4    1  0.3195479E+006  0.2653955E+02  0.7546771E-02  0.1452289E+00
         21   -1    0    0  504  501  0.00000000000E+00  0.00000000000E+00  0.10973501020E+03  0.10973501020E+03  0.00000000000E+00 0. -1.
         21   -1    0    0  503  502 -0.00000000000E+00 -0.00000000000E+00 -0.43459551873E+02  0.43459551873E+02  0.00000000000E+00 0. -1.
         21    1    1    2  503  501  0.24337291579E+02  0.10585085330E+02 -0.37577289329E+02  0.46004352687E+02  0.00000000000E+00 0. -1.
         21    1    1    2  504  502 -0.24337291579E+02 -0.10585085330E+02  0.10385274766E+03  0.10719020939E+03  0.00000000000E+00 0. -1.
</event>
<event>
 4    1  0.3195479E+006  0.5004487E+02  0.7546771E-02  0.1297978E+00
         21   -1    0    0  504  501  0.00000000000E+00  0.00000000000E+00  0.29228099327E+02  0.29228099327E+02  0.00000000000E+00 0. -1.
         21   -1    0    0  503  502 -0.00000000000E+00 -0.00000000000E+00 -0.13746010413E+03  0.13746010413E+03  0.00000000000E+00 0. -1.
         21    1    1    2  503  501 -0.37588317856E+02 -0.33039477960E+02 -0.29671749135E+01  0.50132752469E+02  0.00000000000E+00 0. -1.
         21    1    1    2  504  502  0.37588317856E+02  0.33039477960E+02 -0.10526482989E+03  0.11655545099E+03  0.00000000000E+00 0. -1.
</event>
<event>
 4    1  0.3195479E+006  0.2066762E+02  0.7546771E-02  0.1524064E+00
         21   -1    0    0  504  501  0.00000000000E+00  0.00000000000E+00  0.12710297320E+01  0.12710297320E+01  0.00000000000E+00 0.  1.
         21   -1    0    0  503  502 -0.00000000000E+00 -0.00000000000E+00 -0.33666948454E+03  0.33666948454E+03  0.00000000000E+00 0.  1.
         21    1    1    2  503  501 -0.22231201474E+01  0.20547705638E+02 -0.17485034198E+03  0.17606757953E+03  0.00000000000E+00 0.  1.
         21    1    1    2  504  502  0.22231201474E+01 -0.20547705638E+02 -0.16054811283E+03  0.16187293474E+03  0.00000000000E+00 0.  1.
</event>
<event>
 4    1  0.3195479E+006  0.2325442E+02  0.7546771E-02  0.1489328E+00
         21   -1    0    0  504  501  0.00000000000E+00  0.00000000000E+00  0.29098380551E+01  0.29098380551E+01  0.00000000000E+00 0. -1.
         21   -1    0    0  503  502 -0.00000000000E+00 -0.00000000000E+00 -0.64649173202E+03  0.64649173202E+03  0.00000000000E+00 0. -1.
         21    1    1    2  503  501  0.16937861715E+02  0.15933513303E+02 -0.59587742210E+03  0.59633100722E+03  0.00000000000E+00 0. -1.
         21    1    1    2  504  502 -0.16937861715E+02 -0.15933513303E+02 -0.47704471865E+02  0.53070562854E+02  0.00000000000E+00 0. -1.
</event>
<event>
 4    1  0.3195479E+006  0.2079224E+02  0.7546771E-02  0.1522252E+00
         21   -1    0    0  504  501  0.00000000000E+00  0.00000000000E+00  0.56915405160E+02  0.56915405160E+02  0.00000000000E+00 0.  1.
         21   -1    0    0  503  502 -0.00000000000E+00 -0.00000000000E+00 -0.77362318870E+01  0.77362318870E+01  0.00000000000E+00 0.  1.
         21    1    1    2  503  501 -0.17777120974E+02  0.10783831479E+02  0.28945150265E+02  0.35639006374E+02  0.00000000000E+00 0.  1.
         21    1    1    2  504  502  0.17777120974E+02 -0.10783831479E+02  0.20234023008E+02  0.29012630673E+02  0.00000000000E+00 0.  1.
</event>
<event>
 4    1  0.3195479E+006  0.2190863E+02  0.7546771E-02  0.1506677E+00
         21   -1    0    0  502  501  0.00000000000E+00  0.00000000000E+00  0.32168717690E+03  0.32168717690E+03  0.00000000000E+00 0. -1.
         21   -1    0    0  504  502 -0.00000000000E+00 -0.00000000000E+00 -0.29703165419E+02  0.29703165419E+02  0.00000000000E+00 0. -1.
         21    1    1    2  503  501 -0.21845098390E+02 -0.16672138859E+01  0.31721742515E+03  0.31797308493E+03  0.00000000000E+00 0. -1.
         21    1    1    2  504  503  0.21845098390E+02  0.16672138859E+01 -0.25233413666E+02  0.33417257384E+02  0.00000000000E+00 0. -1.
</event>
<event>
 4    1  0.3195479E+006  0.2080101E+02  0.7546771E-02  0.1522125E+00
         21   -1    0    0  503  501  0.00000000000E+00  0.00000000000E+00  0.56952506651E+01  0.56952506651E+01  0.00000000000E+00 0.  1.
         21   -1    0    0  504  502 -0.00000000000E+00 -0.00000000000E+00 -0.75972460104E+02  0.75972460104E+02  0.00000000000E+00 0.  1.
         21    1    1    2  503  502  0.16654175289E+02 -0.12462769701E+02 -0.35129658595E+02  0.40826157009E+02  0.00000000000E+00 0.  1.
         21    1    1    2  504  501 -0.16654175289E+02  0.12462769701E+02 -0.35147550844E+02  0.40841553760E+02  0.00000000000E+00 0.  1.
</event>
<event>
 4    1  0.3195479E+006  0.2854635E+02  0.7546771E-02  0.1432664E+00
         21   -1    0    0  504  501  0.00000000000E+00  0.00000000000E+00  0.24347558769E+03  0.24347558769E+03  0.00000000000E+00 0. -1.
         21   -1    0    0  503  502 -0.00000000000E+00 -0.00000000000E+00 -0.12043437517E+02  0.12043437517E+02  0.00000000000E+00 0. -1.
         21    1    1    2  503  501 -0.27487212163E+02  0.77037081355E+01  0.22428127516E+03  0.22609065514E+03  0.00000000000E+00 0. -1.
         21    1    1    2  504  502  0.27487212163E+02 -0.77037081355E+01  0.71508750097E+01  0.29428370069E+02  0.00000000000E+00 0. -1.
</event>
<event>
 4    1  0.3195479E+006  0.2010680E+02  0.7546771E-02  0.1532409E+00
         21   -1    0    0  504  501  0.00000000000E+00  0.00000000000E+00  0.23366749882E+02  0.23366749882E+02  0.00000000000E+00 0.  1.
         21   -1    0    0  503  502 -0.00000000000E+00 -0.00000000000E+00 -0.21559219317E+02  0.21559219317E+02  0.00000000000E+00 0. -1.
         21    1    1    2  503  501 -0.88469000300E+01 -0.18055902146E+02 -0.90785663696E+01  0.22061360107E+02  0.00000000000E+00 0. -1.
         21    1    1    2  504  502  0.88469000300E+01  0.18055902146E+02  0.10886096935E+02  0.22864609091E+02  0.00000000000E+00 0.  1.
</event>
<event>
 4    1  0.3195479E+006  0.3572460E+02  0.7546771E-02  0.1375539E+00
         21   -1    0    0  504  501  0.00000000000E+00  0.00000000000E+00  0.10035255263E+03  0.10035255263E+03  0.00000000000E+00 0. -1.
         21   -1    0    0  501  502 -0.00000000000E+00 -0.00000000000E+00 -0.47570145661E+02  0.47570145661E+02  0.00000000000E+00 0. -1.
         21    1    1    2  503  502 -0.15526116507E+02  0.32174320845E+02 -0.36916216303E+02  0.51371726092E+02  0.00000000000E+00 0. -1.
         21    1    1    2  504  503  0.15526116507E+02 -0.32174320845E+02  0.89698623267E+02  0.96550972194E+02  0.00000000000E+00 0. -1.
</event>
<event>
 4    1  0.3195479E+006  0.2486057E+02  0.7546771E-02  0.1470369E+00
         21   -1    0    0  503  501  0.00000000000E+00  0.00000000000E+00  0.11088353669E+02  0.11088353669E+02  0.00000000000E+00 0.  1.
         21   -1    0    0  504  502 -0.00000000000E+00 -0.00000000000E+00 -0.58318149597E+02  0.58318149597E+02  0.00000000000E+00 0.  1.
         21    1    1    2  503  502  0.15636157506E+02  0.19327662361E+02 -0.30913682385E+02  0.39669934616E+02  0.00000000000E+00 0.  1.
         21    1    1    2  504  501 -0.15636157506E+02 -0.19327662361E+02 -0.16316113544E+02  0.29736568650E+02  0.00000000000E+00 0.  1.
</event>
<event>
 4    1  0.3195479E+006  0.2005847E+02  0.7546771E-02  0.1533144E+00
         21   -1    0    0  503  501  0.00000000000E+00  0.00000000000E+00  0.72886677887E+02  0.72886677887E+02  0.00000000000E+00 0.  1.
         21   -1    0    0  504  502 -0.00000000000E+00 -0.00000000000E+00 -0.61744421049E+01  0.61744421049E+01  0.00000000000E+00 0.  1.
         21    1    1    2  503  502 -0.70857371546E+00  0.20045950560E+02  0.20487424770E+02  0.28671881422E+02  0.00000000000E+00 0.  1.
         21    1    1    2  504  501  0.70857371546E+00 -0.20045950560E+02  0.46224811012E+02  0.50389238570E+02  0.00000000000E+00 0.  1.
</event>
<event>
 4    1  0.3195479E+006  0.3013262E+02  0.7546771E-02  0.1418447E+00
         21   -1    0    0  502  501  0.00000000000E+00  0.00000000000E+00  0.15749517279E+03  0.15749517279E+03  0.00000000000E+00 0. -1.
         21   -1    0    0  504  502 -0.00000000000E+00 -0.00000000000E+00 -0.61732691894E+01  0.61732691894E+01  0.00000000000E+00 0. -1.
         21    1    1    2  503  501 -0.41461762899E+01 -0.29846000437E+02  0.96703604967E+02  0.10128949468E+03  0.00000000000E+00 0. -1.
         21    1    1    2  504  503  0.41461762899E+01  0.29846000437E+02  0.54618298629E+02  0.62378947290E+02  0.00000000000E+00 0. -1.
</event>
<event>
 4    1  0.3195479E+006  0.2096056E+02  0.7546771E-02  0.1519829E+00
         21   -1    0    0  504  501  0.00000000000E+00  0.00000000000E+00  0.22292618870E+02  0.22292618870E+02  0.00000000000E+00 0.  1.
         21   -1    0    0  503  502 -0.00000000000E+00 -0.00000000000E+00 -0.38159766552E+02  0.38159766552E+02  0.00000000000E+00 0.  1.
         21    1    1    2  503  501 -0.14991610073E+00 -0.20960020539E+02 -0.28951918559E+02  0.35742950691E+02  0.00000000000E+00 0.  1.
         21    1    1    2  504  502  0.14991610073E+00  0.20960020539E+02  0.13084770877E+02  0.24709434731E+02  0.00000000000E+00 0.  1.
</event>
<event>
 4    1  0.3195479E+006  0.2637686E+02  0.7546771E-02  0.1453970E+00
         21   -1    0    0  504  501  0.00000000000E+00  0.00000000000E+00  0.25887455493E+02  0.25887455493E+02  0.00000000000E+00 0.  1.
         21   -1    0    0  503  502 -0.00000000000E+00 -0.00000000000E+00 -0.31551829669E+03  0.31551829669E+03  0.00000000000E+00 0. -1.
         21    1    1    2  503  501 -0.10167272860E+01  0.26357253213E+02 -0.30808637052E+03  0.30921343798E+03  0.00000000000E+00 0. -1.
         21    1    1    2  504  502  0.10167272860E+01 -0.26357253213E+02  0.18455529318E+02  0.32192314202E+02  0.00000000000E+00 0.  1.
</event>
<event>
 4    1  0.3195479E+006  0.3166161E+02  0.7546771E-02  0.1405686E+00
         21   -1    0    0  503  501  0.00000000000E+00  0.00000000000E+00  0.85173401727E+02  0.85173401727E+02  0.00000000000E+00 0. -1.
         21   -1    0    0  504  502 -0.00000000000E+00 -0.00000000000E+00 -0.31147820157E+02  0.31147820157E+02  0.00000000000E+00 0. -1.
         21    1    1    2  503  502 -0.15558910781E+02  0.27574952566E+02  0.72887356121E+02  0.79467127770E+02  0.00000000000E+00 0. -1.
         21    1    1    2  504  501  0.15558910781E+02 -0.27574952566E+02 -0.18861774551E+02  0.36854094114E+02  0.00000000000E+00 0. -1.
</event>
<event>
 4    1  0.3195479E+006  0.2370255E+02  0.7546771E-02  0.1483860E+00
         21   -1    0    0  502  501  0.00000000000E+00  0.00000000000E+00  0.39716825336E+02  0.39716825336E+02  0.00000000000E+00 0.  1.
         21   -1    0    0  503  502 -0.00000000000E+00 -0.00000000000E+00 -0.82435369047E+02  0.82435369047E+02  0.00000000000E+00 0. -1.
         21    1    1    2  503  504  0.76491945354E+01 -0.22434359053E+02 -0.76948791494E+02  0.80516626579E+02  0.00000000000E+00 0. -1.
         21    1    1    2  504  501 -0.76491945354E+01  0.22434359053E+02  0.34230247783E+02  0.41635567805E+02  0.00000000000E+00 0.  1.
</event>
<event>
 4    1  0.3195479E+006  0.3810627E+02  0.7546771E-02  0.1359955E+00
         21   -1    0    0  503  501  0.00000000000E+00  0.00000000000E+00  0.64420821115E+01  0.64420821115E+01  0.00000000000E+00 0.  1.
         21   -1    0    0  504  502 -0.00000000000E+00 -0.00000000000E+00 -0.49729703403E+03  0.49729703403E+03  0.00000000000E+00 0.  1.
         21    1    1    2  503  502  0.26674770795E+02  0.27212941976E+02 -0.43166394826E+03  0.43334264945E+03  0.00000000000E+00 0.  1.
         21    1    1    2  504  501 -0.26674770795E+02 -0.27212941976E+02 -0.59191003656E+02  0.70396466685E+02  0.00000000000E+00 0.  1.
</event>
<event>
 4    1  0.3195479E+006  0.2117257E+02  0.7546771E-02  0.1516815E+00
         21   -1    0    0  504  501  0.00000000000E+00  0.00000000000E+00  0.54960380595E+03  0.54960380595E+03  0.00000000000E+00 0. -1.
         21   -1    0    0  503  502 -0.00000000000E+00 -0.00000000000E+00 -0.21888969694E+03  0.21888969694E+03  0.00000000000E+00 0. -1.
         21    1    1    2  503  501  0.16195413732E+02  0.13637682288E+02  0.54888723775E+03  0.54929543742E+03  0.00000000000E+00 0. -1.
         21    1    1    2  504  502 -0.16195413732E+02 -0.13637682288E+02 -0.21817312873E+03  0.21919806547E+03  0.00000000000E+00 0. -1.
</event>
<event>
 4    1  0.3195479E+006  0.2680120E+02  0.7546771E-02  0.1449615E+00
         21   -1    0    0  502  501  0.00000000000E+00  0.00000000000E+00  0.90530004535E+02  0.90530004535E+02  0.00000000000E+00 0.  1.
         21   -1    0    0  503  502 -0.00000000000E+00 -0.00000000000E+00 -0.13901758787E+02  0.13901758787E+02  0.00000000000E+00 0.  1.
         21    1    1    2  503  504  0.25931561056E+02  0.67718910244E+01  0.41037686711E+01  0.27113562734E+02  0.00000000000E+00 0.  1.
         21    1    1    2  504  501 -0.25931561056E+02 -0.67718910244E+01  0.72524477077E+02  0.77318200588E+02  0.00000000000E+00 0.  1.
</event>
<event>
 4    1  0.3195479E+006  0.4380985E+02  0.7546771E-02  0.1327499E+00
         21   -1    0    0  503  501  0.00000000000E+00  0.00000000000E+00  0.58611071884E+02  0.58611071884E+02  0.00000000000E+00 0. -1.
         21   -1    0    0  501  502 -0.00000000000E+00 -0.00000000000E+00 -0.75840366137E+02  0.75840366137E+02  0.00000000000E+00 0.  1.
         21    1    1    2  503  504 -0.34834666587E+02 -0.26567817639E+02  0.42060307025E+02  0.60731971460E+02  0.00000000000E+00 0. -1.
         21    1    1    2  504  502  0.34834666587E+02  0.26567817639E+02 -0.59289601278E+02  0.73719466561E+02  0.00000000000E+00 0.  1.
</event>
<event>
 4    1  0.3195479E+006  0.4430825E+02  0.7546771E-02  0.1324935E+00
         21   -1    0    0  504  501  0.00000000000E+00  0.00000000000E+00  0.51668623049E+03  0.51668623049E+03  0.00000000000E+00 0.  1.
         21   -1    0    0  503  502 -0.00000000000E+00 -0.00000000000E+00 -0.32474367142E+02  0.32474367142E+02  0.00000000000E+00 0.  1.
         21    1    1    2  503  501  0.41812944778E+02 -0.14659430854E+02  0.50012314363E+03  0.50208204515E+03  0.00000000000E+00 0.  1.
         21    1    1    2  504  502 -0.41812944778E+02  0.14659430854E+02 -0.15911280282E+02  0.47078552486E+02  0.00000000000E+00 0.  1.
</event>
<event>
 4    1  0.3195479E+006  0.3198720E+02  0.7546771E-02  0.1403079E+00
         21   -1    0    0  503  501  0.00000000000E+00  0.00000000000E+00  0.16380456173E+02  0.16380456173E+02  0.00000000000E+00 0. -1.
         21   -1    0    0  504  502 -0.00000000000E+00 -0.00000000000E+00 -0.36112927311E+03  0.36112927311E+03  0.00000000000E+00 0. -1.
         21    1    1    2  503  502 -0.13083804858E+02  0.29188952598E+02 -0.71819757855E+00  0.31995260760E+02  0.00000000000E+00 0. -1.
         21    1    1    2  504  501  0.13083804858E+02 -0.29188952598E+02 -0.34403061936E+03  0.34551446852E+03  0.00000000000E+00 0. -1.
</event>
<event>
 4    1  0.3195479E+006  0.2104888E+02  0.7546771E-02  0.1518568E+00
         21   -1    0    0  503  501  0.00000000000E+00  0.00000000000E+00  0.42078141656E+02  0.42078141656E+02  0.00000000000E+00 0.  1.
         21   -1    0    0  504  502 -0.00000000000E+00 -0.00000000000E+00 -0.10777137665E+02  0.10777137665E+02  0.00000000000E+00 0.  1.
         21    1    1    2  503  502 -0.20949761424E+02 -0.20402805847E+01  0.11643206756E+02  0.24054511264E+02  0.00000000000E+00 0.  1.
         21    1    1    2  504  501  0.20949761424E+02  0.20402805847E+01  0.19657797235E+02  0.28800768058E+02  0.00000000000E+00 0.  1.
</event>
<event>
 4    1  0.3195479E+006  0.2138297E+02  0.7546771E-02  0.1513867E+00
         21   -1    0    0  504  501  0.00000000000E+00  0.00000000000E+00  0.47358529617E+02  0.47358529617E+02  0.00000000000E+00 0. -1.
         21   -1    0    0  503  502 -0.00000000000E+00 -0.00000000000E+00 -0.48263624721E+02  0.48263624721E+02  0.00000000000E+00 0. -1.
         21    1    1    2  503  501 -0.21158476524E+02  0.30903766359E+01  0.42309895963E+02  0.47406316593E+02  0.00000000000E+00 0. -1.
         21    1    1    2  504  502  0.21158476524E+02 -0.30903766359E+01 -0.43214991066E+02  0.48215837745E+02  0.00000000000E+00 0. -1.
</event>
<event>
 4    1  0.3195479E+006  0.3358250E+02  0.7546771E-02  0.1390812E+00
         21   -1    0    0  504  501  0.00000000000E+00  0.00000000000E+00  0.14443125465E+02  0.14443125465E+02  0.00000000000E+00 0. -1.
         21   -1    0    0  503  502 -0.00000000000E+00 -0.00000000000E+00 -0.14461447393E+03  0.14461447393E+03  0.00000000000E+00 0. -1.
         21    1    1    2  503  501 -0.20246699533E+02  0.26792823571E+02 -0.11902769625E+03  0.12367447882E+03  0.00000000000E+00 0. -1.
         21    1    1    2  504  502  0.20246699533E+02 -0.26792823571E+02 -0.11143652215E+02  0.35383120574E+02  0.00000000000E+00 0. -1.
</event>
<event>
 4    1  0.3195479E+006  0.2124226E+02  0.7546771E-02  0.1515834E+00
         21   -1    0    0  502  501  0.00000000000E+00  0.00000000000E+00  0.15957082841E+03  0.15957082841E+03  0.00000000000E+00 0.  1.
         21   -1    0    0  504  502 -0.00000000000E+00 -0.00000000000E+00 -0.34264766116E+02  0.34264766116E+02  0.00000000000E+00 0. -1.
         21    1    1    2  503  501 -0.19536738629E+02 -0.83396345140E+01  0.15548552000E+03  0.15692985883E+03  0.00000000000E+00 0.  1.
         21    1    1    2  504  503  0.19536738629E+02  0.83396345140E+01 -0.30179457709E+02  0.36905735702E+02  0.00000000000E+00 0. -1.
</event>
<event>
 4    1  0.3195479E+006  0.2101586E+02  0.7546771E-02  0.1519038E+00
         21   -1    0    0  503  501  0.00000000000E+00  0.00000000000E+00  0.39975801320E+03  0.39975801320E+03  0.00000000000E+00 0.  1.
         21   -1    0    0  501  502 -0.00000000000E+00 -0.00000000000E+00 -0.23786741516E+02  0.23786741516E+02  0.00000000000E+00 0.  1.
         21    1    1    2  503  504 -0.19030423473E+02 -0.89168018766E+01  0.39478139106E+03  0.39534037626E+03  0.00000000000E+00 0.  1.
         21    1    1    2  504  502  0.19030423473E+02  0.89168018766E+01 -0.18810119375E+02  0.28204378457E+02  0.00000000000E+00 0.  1.
</event>
<event>
 4    1  0.3195479E+006  0.3282103E+02  0.7546771E-02  0.1396565E+00
         21   -1    0    0  502  501  0.00000000000E+00  0.00000000000E+00  0.77967825712E+01  0.77967825712E+01  0.00000000000E+00 0.  1.
         21   -1    0    0  504  502 -0.00000000000E+00 -0.00000000000E+00 -0.14025254086E+03  0.14025254086E+03  0.00000000000E+00 0.  1.
         21    1    1    2  503  501  0.40175096498E+01 -0.32574217814E+02 -0.57190606493E+02  0.65939256297E+02  0.00000000000E+00 0.  1.
         21    1    1    2  504  503 -0.40175096498E+01  0.32574217814E+02 -0.75265151795E+02  0.82110067134E+02  0.00000000000E+00 0.  1.
</event>
<event>
 4    1  0.3195479E+006  0.2240183E+02  0.7546771E-02  0.1500149E+00
         21   -1    0    0  503  501  0.00000000000E+00  0.00000000000E+00  0.94988070629E+01  0.94988070629E+01  0.00000000000E+00 0. -1.
         21   -1    0    0  504  502 -0.00000000000E+00 -0.00000000000E+00 -0.37899834220E+03  0.37899834220E+03  0.00000000000E+00 0.  1.
         21    1    1    2  503  502 -0.73310877135E+01  0.21168310305E+02 -0.45481559605E+01  0.22858869851E+02  0.00000000000E+00 0. -1.
         21    1    1    2  504  501  0.73310877135E+01 -0.21168310305E+02 -0.36495137918E+03  0.36563827941E+03  0.00000000000E+00 0.  1.
</event>
<event>
 4    1  0.3195479E+006  0.2479756E+02  0.7546771E-02  0.1471081E+00
         21   -1    0    0  504  501  0.00000000000E+00  0.00000000000E+00  0.24588760167E+02  0.24588760167E+02  0.00000000000E+00 0. -1.
         21   -1    0    0  503  502 -0.00000000000E+00 -0.00000000000E+00 -0.27892878627E+02  0.27892878627E+02  0.00000000000E+00 0. -1.
         21    1    1    2  503  501  0.23649364493E+02  0.74583085152E+01  0.67868250135E+01  0.25709527428E+02  0.00000000000E+00 0. -1.
         21    1    1    2  504  502 -0.23649364493E+02 -0.74583085152E+01 -0.10090943473E+02  0.26772111366E+02  0.00000000000E+00 0. -1.
</event>
<event>
 4    1  0.3195479E+006  0.2836534E+02  0.7546771E-02  0.1434355E+00
         21   -1    0    0  502  501  0.00000000000E+00  0.00000000000E+00  0.49023672085E+01  0.49023672085E+01  0.00000000000E+00 0.  1.
         21   -1    0    0  503  502 -0.00000000000E+00 -0.00000000000E+00 -0.32962907316E+03  0.32962907316E+03  0.00000000000E+00 0. -1.
         21    1    1    2  503  504  0.12035848241E+02 -0.25685229821E+02 -0.28088584290E+03  0.28231445130E+03  0.00000000000E+00 0. -1.
         21    1    1    2  504  501 -0.12035848241E+02  0.25685229821E+02 -0.43840863056E+02  0.52216989068E+02  0.00000000000E+00 0.  1.
</event>
<event>
 4    1  0.3195479E+006  0.2129034E+02  0.7546771E-02  0.1515160E+00
         21   -1    0    0  504  501  0.00000000000E+00  0.00000000000E+00  0.82477170983E+02  0.82477170983E+02  0.00000000000E+00 0.  1.
         21   -1    0    0  503  502 -0.00000000000E+00 -0.00000000000E+00 -0.16486576813E+02  0.16486576813E+02  0.00000000000E+00 0.  1.
         21    1    1    2  503  501 -0.50608169054E+01 -0.20680104415E+02 -0.74059671855E+01  0.22541671108E+02  0.00000000000E+00 0.  1.
         21    1    1    2  504  502  0.50608169054E+01  0.20680104415E+02  0.73396561356E+02  0.76422076688E+02  0.00000000000E+00 0.  1.
</event>
<event>
 4    1  0.3195479E+006  0.2155021E+02  0.7546771E-02  0.1511552E+00
         21   -1    0    0  503  501  0.00000000000E+00  0.00000000000E+00  0.27021183625E+03  0.27021183625E+03  0.00000000000E+00 0. -1.
         21   -1    0    0  504  502 -0.00000000000E+00 -0.00000000000E+00 -0.32564043818E+02  0.32564043818E+02  0.00000000000E+00 0.  1.
         21    1    1    2  503  502 -0.21131876290E+02 -0.42255374259E+01 -0.28514848963E+02  0.35742243542E+02  0.00000000000E+00 0.  1.
         21    1    1    2  504  501  0.21131876290E+02  0.42255374259E+01  0.26616264140E+03  0.26703363653E+03  0.00000000000E+00 0. -1.
</event>
<event>
 4    1  0.3195479E+006  0.2596348E+02  0.7546771E-02  0.1458307E+00
         21   -1    0    0  504  501  0.00000000000E+00  0.00000000000E+00  0.28927780991E+03  0.28927780991E+03  0.00000000000E+00 0.  1.
         21   -1    0    0  501  502 -0.00000000000E+00 -0.00000000000E+00 -0.18559297775E+02  0.18559297775E+02  0.00000000000E+00 0. -1.
         21    1    1    2  503  502 -0.25661773063E+02 -0.39465922458E+01 -0.85723403008E+01  0.27342040987E+02  0.00000000000E+00 0. -1.
         21    1    1    2  504  503  0.25661773063E+02  0.39465922458E+01  0.27929085244E+03  0.28049506670E+03  0.00000000000E+00 0.  1.
</event>
<event>
 4    1  0.3195479E+006  0.2449387E+02  0.7546771E-02  0.1474546E+00
         21   -1    0    0  503  501  0.00000000000E+00  0.00000000000E+00  0.14929636688E+01  0.14929636688E+01  0.00000000000E+00 0.  1.
         21   -1    0    0  504  502 -0.00000000000E+00 -0.00000000000E+00 -0.45765317100E+03  0.45765317100E+03  0.00000000000E+00 0.  1.
         21    1    1    2  503  502 -0.24317411578E+02  0.29348542227E+01 -0.30824344624E+03  0.30921509023E+03  0.00000000000E+00 0.  1.
         21    1    1    2  504  501  0.24317411578E+02 -0.29348542227E+01 -0.14791676108E+03  0.14993104443E+03  0.00000000000E+00 0.  1.
</event>
<event>
 4    1  0.3195479E+006  0.4041633E+02  0.7546771E-02  0.1346063E+00
         21   -1    0    0  504  501  0.00000000000E+00  0.00000000000E+00  0.49885306040E+01  0.49885306040E+01  0.00000000000E+00 0.  1.
         21   -1    0    0  503  502 -0.00000000000E+00 -0.00000000000E+00 -0.39310018231E+03  0.39310018231E+03  0.00000000000E+00 0. -1.
         21    1    1    2  503  501  0.39915576905E+02  0.63424334907E+01 -0.27539989562E+03  0.27834974807E+03  0.00000000000E+00 0. -1.
         21    1    1    2  504  502 -0.39915576905E+02 -0.63424334907E+01 -0.11271175609E+03  0.11973896485E+03  0.00000000000E+00 0.  1.
</event>
<event>
 4    1  0.3195479E+006  0.2205196E+02  0.7546771E-02  0.1504759E+00
         21   -1    0    0  502  501  0.00000000000E+00  0.00000000000E+00  0.13906284233E+03  0.13906284233E+03  0.00000000000E+00 0. -1.
         21   -1    0    0  504  502 -0.00000000000E+00 -0.00000000000E+00 -0.55581264848E+01  0.55581264848E+01  0.00000000000E+00 0.  1.
         21    1    1    2  503  501 -0.19688333951E+02 -0.99326950937E+01  0.11078754648E+03  0.11296091971E+03  0.00000000000E+00 0. -1.
         21    1    1    2  504  503  0.19688333951E+02  0.99326950937E+01  0.22717169362E+02  0.31660049107E+02  0.00000000000E+00 0.  1.
</event>
<event>
 4    1  0.3195479E+006  0.3132268E+02  0.7546771E-02  0.1408440E+00
         21   -1    0    0  503  501  0.00000000000E+00  0.00000000000E+00  0.82710266645E+02  0.82710266645E+02  0.00000000000E+00 0. -1.
         21   -1    0    0  504  502 -0.00000000000E+00 -0.00000000000E+00 -0.12223562999E+02  0.12223562999E+02  0.00000000000E+00 0. -1.
         21    1    1    2  503  502 -0.31320833038E+02 -0.34004763069E+00  0.43406855568E+02  0.53528173188E+02  0.00000000000E+00 0. -1.
         21    1    1    2  504  501  0.31320833038E+02  0.34004763069E+00  0.27079848078E+02  0.41405656456E+02  0.00000000000E+00 0. -1.
</event>
<event>
 4    1  0.3195479E+006  0.2238635E+02  0.7546771E-02  0.1500351E+00
         21   -1    0    0  502  501  0.00000000000E+00  0.00000000000E+00  0.30841663999E+01  0.30841663999E+01  0.00000000000E+00 0. -1.
         21   -1    0    0  503  502 -0.00000000000E+00 -0.00000000000E+00 -0.20918016615E+03  0.20918016615E+03  0.00000000000E+00 0.  1.
         21    1    1    2  503  504  0.22327804949E+02 -0.16180085599E+01 -0.15318929240E+03  0.15481636907E+03  0.00000000000E+00 0.  1.
         21    1    1    2  504  501 -0.22327804949E+02  0.16180085599E+01 -0.52906707352E+02  0.57447963483E+02  0.00000000000E+00 0. -1.
</event>
<event>
 4    1  0.3195479E+006  0.2006529E+02  0.7546771E-02  0.1533040E+00
         21   -1    0    0  502  501  0.00000000000E+00  0.00000000000E+00  0.14508446188E+03  0.14508446188E+03  0.00000000000E+00 0. -1.
         21   -1    0    0  504  502 -0.00000000000E+00 -0.00000000000E+00 -0.10032531058E+03  0.10032531058E+03  0.00000000000E+00 0. -1.
         21    1    1    2  503  501  0.19231351741E+02  0.57245814928E+01  0.14337552505E+03  0.14477277681E+03  0.00000000000E+00 0. -1.
         21    1    1    2  504  503 -0.19231351741E+02 -0.57245814928E+01 -0.98616373747E+02  0.10063699565E+03  0.00000000000E+00 0. -1.
</event>
<event>
 4    1  0.3195479E+006  0.3989368E+02  0.7546771E-02  0.1349110E+00
         21   -1    0    0  504  501  0.00000000000E+00  0.00000000000E+00  0.40044751607E+02  0.40044751607E+02  0.00000000000E+00 0. -1.
         21   -1    0    0  501  502 -0.00000000000E+00 -0.00000000000E+00 -0.39761954445E+02  0.39761954445E+02  0.00000000000E+00 0. -1.
         21    1    1    2  503  502  0.37672588357E+02 -0.13125610088E+02 -0.72580664074E+00  0.39900280062E+02  0.00000000000E+00 0. -1.
         21    1    1    2  504  503 -0.37672588357E+02  0.13125610088E+02  0.10086038029E+01  0.39906425991E+02  0.00000000000E+00 0. -1.
</event>
<event>
 4    1  0.3195479E+006  0.2240442E+02  0.7546771E-02  0.1500115E+00
         21   -1    0    0  502  501  0.00000000000E+00  0.00000000000E+00  0.71962113248E+02  0.71962113248E+02  0.00000000000E+00 0. -1.
         21   -1    0    0  504  502 -0.00000000000E+00 -0.00000000000E+00 -0.13729832574E+02  0.13729832574E+02  0.00000000000E+00 0.  1.
         21    1    1    2  503  501 -0.31129215347E+01  0.22187107968E+02  0.59168233076E+02  0.63267984367E+02  0.00000000000E+00 0. -1.
         21    1    1    2  504  503  0.31129215347E+01 -0.22187107968E+02 -0.93595240262E+00  0.22423961455E+02  0.00000000000E+00 0.  1.
</event>
<event>
 4    1  0.3195479E+006  0.2101007E+02  0.7546771E-02  0.1519121E+00
         21   -1    0    0  503  501  0.00000000000E+00  0.00000000000E+00  0.75423710449E+03  0.75423710449E+03  0.00000000000E+00 0. -1.
         21   -1    0    0  504  502 -0.00000000000E+00 -0.00000000000E+00 -0.99264756240E+01  0.99264756240E+01  0.00000000000E+00 0.  1.
         21    1    1    2  503  502  0.11395481282E+02 -0.17651233820E+02  0.74280236819E+03  0.74309944236E+03  0.00000000000E+00 0. -1.
         21    1    1    2  504  501 -0.11395481282E+02  0.17651233820E+02  0.15082606764E+01  0.21064137753E+02  0.00000000000E+00 0.  1.
</event>
<event>
 4    1  0.3195479E+006  0.4195503E+02  0.7546771E-02  0.1337395E+00
         21   -1    0    0  504  501  0.00000000000E+00  0.00000000000E+00  0.22504560717E+03  0.22504560717E+03  0.00000000000E+00 0. -1.
         21   -1    0    0  501  502 -0.00000000000E+00 -0.00000000000E+00 -0.97691956910E+01  0.97691956910E+01  0.00000000000E+00 0. -1.
         21    1    1    2  503  502  0.27053087455E+02  0.32067978599E+02  0.55216460557E+02  0.69347547244E+02  0.00000000000E+00 0. -1.
         21    1    1    2  504  503 -0.27053087455E+02 -0.32067978599E+02  0.16005995092E+03  0.16546725562E+03  0.00000000000E+00 0. -1.
</event>
<event>
 4    1  0.3195479E+006  0.2337049E+02  0.7546771E-02  0.1487898E+00
         21   -1    0    0  503  501  0.00000000000E+00  0.00000000000E+00  0.26743360548E+03  0.26743360548E+03  0.00000000000E+00 0. -1.
         21   -1    0    0  501  502 -0.00000000000E+00 -0.00000000000E+00 -0.15379483050E+02  0.15379483050E+02  0.00000000000E+00 0. -1.
         21    1    1    2  503  504 -0.16676536165E+02  0.16372935532E+02  0.25771035541E+03  0.25876786347E+03  0.00000000000E+00 0. -1.
         21    1    1    2  504  502  0.16676536165E+02 -0.16372935532E+02 -0.56562329892E+01  0.24045225057E+02  0.00000000000E+00 0. -1.
</event>
<event>
 4    1  0.3195479E+006  0.2058584E+02  0.7546771E-02  0.1525261E+00
         21   -1    0    0  503  501  0.00000000000E+00  0.00000000000E+00  0.54135153986E+02  0.54135153986E+02  0.00000000000E+00 0. -1.
         21   -1    0    0  501  502 -0.00000000000E+00 -0.00000000000E+00 -0.11841785245E+02  0.11841785245E+02  0.00000000000E+00 0. -1.
         21    1    1    2  503  504  0.20058349623E+02 -0.46302571875E+01  0.40352111153E+02  0.45299774235E+02  0.00000000000E+00 0. -1.
         21    1    1    2  504  502 -0.20058349623E+02  0.46302571875E+01  0.19412575879E+01  0.20677164995E+02  0.00000000000E+00 0. -1.
</event>
<event>
 4    1  0.3195479E+006  0.3800790E+02  0.7546771E-02  0.1360572E+00
         21   -1    0    0  502  501  0.00000000000E+00  0.00000000000E+00  0.31044571198E+02  0.31044571198E+02  0.00000000000E+00 0. -1.
         21   -1    0    0  504  502 -0.00000000000E+00 -0.00000000000E+00 -0.12935278389E+03  0.12935278389E+03  0.00000000000E+00 0. -1.
         21    1    1    2  503  501 -0.23500915308E+02 -0.29871510127E+02  0.15017971420E+02  0.40867341523E+02  0.00000000000E+00 0. -1.
         21    1    1    2  504  503  0.23500915308E+02  0.29871510127E+02 -0.11332618411E+03  0.11953001356E+03  0.00000000000E+00 0. -1.
</event>
<event>
 4    1  0.3195479E+006  0.2247383E+02  0.7546771E-02  0.1499213E+00
         21   -1    0    0  503  501  0.00000000000E+00  0.00000000000E+00  0.96830140397E+02  0.96830140397E+02  0.00000000000E+00 0.  1.
         21   -1    0    0  504  502 -0.00000000000E+00 -0.00000000000E+00 -0.22803543037E+02  0.22803543037E+02  0.00000000000E+00 0.  1.
         21    1    1    2  503  502 -0.15367638225E+02 -0.16398431649E+02  0.89545309725E+02  0.92322453168E+02  0.00000000000E+00 0.  1.
         21    1    1    2  504  501  0.15367638225E+02  0.16398431649E+02 -0.15518712365E+02  0.27311230266E+02  0.00000000000E+00 0.  1.
</event>
<event>
 4    1  0.3195479E+006  0.3053538E+02  0.7546771E-02  0.1415000E+00
         21   -1    0    0  502  501  0.00000000000E+00  0.00000000000E+00  0.19536742397E+02  0.19536742397E+02  0.00000000000E+00 0. -1.
         21   -1    0    0  503  502 -0.00000000000E+00 -0.00000000000E+00 -0.48400982294E+02  0.48400982294E+02  0.00000000000E+00 0. -1.
         21    1    1    2  503  504  0.25189676354E+02 -0.17259483917E+02 -0.18443708364E+02  0.35673238683E+02  0.00000000000E+00 0. -1.
         21    1    1    2  504  501 -0.25189676354E+02  0.17259483917E+02 -0.10420531533E+02  0.32264486008E+02  0.00000000000E+00 0. -1.
</event>
<event>
 4    1  0.3195479E+006  0.2355345E+02  0.7546771E-02  0.1485663E+00
         21   -1    0    0  504  501  0.00000000000E+00  0.00000000000E+00  0.12014271688E+03  0.12014271688E+03  0.00000000000E+00 0. -1.
         21   -1    0    0  503  502 -0.00000000000E+00 -0.00000000000E+00 -0.17030091373E+03  0.17030091373E+03  0.00000000000E+00 0.  1.
         21    1    1    2  503  501  0.22699833006E+02  0.62835318025E+01  0.11816040992E+03  0.12048505162E+03  0.00000000000E+00 0. -1.
         21    1    1    2  504  502 -0.22699833006E+02 -0.62835318025E+01 -0.16831860677E+03  0.16995857900E+03  0.00000000000E+00 0.  1.
</event>
<event>
 4    1  0.3195479E+006  0.3355790E+02  0.7546771E-02  0.1390995E+00
         21   -1    0    0  503  501  0.00000000000E+00  0.00000000000E+00  0.11796453156E+03  0.11796453156E+03  0.00000000000E+00 0. -1.
         21   -1    0    0  504  502 -0.00000000000E+00 -0.00000000000E+00 -0.10178006599E+02  0.10178006599E+02  0.00000000000E+00 0. -1.
         21    1    1    2  503  502  0.30035385615E+02  0.14966914224E+02  0.69854481472E+02  0.77496977310E+02  0.00000000000E+00 0. -1.
         21    1    1    2  504  501 -0.30035385615E+02 -0.14966914224E+02  0.37932043484E+02  0.50645560845E+02  0.00000000000E+00 0. -1.
</event>
<event>
 4    1  0.3195479E+006  0.2104810E+02  0.7546771E-02  0.1518579E+00
         21   -1    0    0  503  501  0.00000000000E+00  0.00000000000E+00  0.55083124127E+02  0.55083124127E+02  0.00000000000E+00 0.  1.
         21   -1    0    0  501  502 -0.00000000000E+00 -0.00000000000E+00 -0.57794904806E+02  0.57794904806E+02  0.00000000000E+00 0.  1.
         21    1    1    2  503  504  0.97475497951E+01  0.18654962867E+02  0.51009022994E+02  0.55181000293E+02  0.00000000000E+00 0.  1.
         21    1    1    2  504  502 -0.97475497951E+01 -0.18654962867E+02 -0.53720803673E+02  0.57697028640E+02  0.00000000000E+00 0.  1.
</event>
<event>
 4    1  0.3195479E+006  0.2853599E+02  0.7546771E-02  0.1432760E+00
         21   -1    0    0  502  501  0.00000000000E+00  0.00000000000E+00  0.68839603508E+03  0.68839603508E+03  0.00000000000E+00 0. -1.
         21   -1    0    0  504  502 -0.00000000000E+00 -0.00000000000E+00 -0.15245022072E+02  0.15245022072E+02  0.00000000000E+00 0. -1.
         21    1    1    2  503  501  0.22792778012E+02  0.17169515506E+02  0.67447115204E+03  0.67507454250E+03  0.00000000000E+00 0. -1.
         21    1    1    2  504  503 -0.22792778012E+02 -0.17169515506E+02 -0.13201390371E+01  0.28566514651E+02  0.00000000000E+00 0. -1.
</event>
<event>
 4    1  0.3195479E+006  0.4263826E+02  0.7546771E-02  0.1333683E+00
         21   -1    0    0  502  501  0.00000000000E+00  0.00000000000E+00  0.20345020524E+03  0.20345020524E+03  0.00000000000E+00 0. -1.
         21   -1    0    0  503  502 -0.00000000000E+00 -0.00000000000E+00 -0.10193721290E+02  0.10193721290E+02  0.00000000000E+00 0. -1.
         21    1    1    2  503  504  0.40605863829E+01  0.42444465705E+02  0.59105473560E+02  0.72879887730E+02  0.00000000000E+00 0. -1.
         21    1    1    2  504  501 -0.40605863829E+01 -0.42444465705E+02  0.13415101039E+03  0.14076403880E+03  0.00000000000E+00 0. -1.
</event>
<event>
 4    1  0.3195479E+006  0.2202040E+02  0.7546771E-02  0.1505179E+00
         21   -1    0    0  503  501  0.00000000000E+00  0.00000000000E+00  0.19472063460E+03  0.19472063460E+03  0.00000000000E+00 0.  1.
         21   -1    0    0  504  502 -0.00000000000E+00 -0.00000000000E+00 -0.77309848399E+01  0.77309848399E+01  0.00000000000E+00 0. -1.
         21    1    1    2  503  502  0.20961664361E+02 -0.67458601064E+01  0.17683818744E+03  0.17820393525E+03  0.00000000000E+00 0.  1.
         21    1    1    2  504  501 -0.20961664361E+02  0.67458601064E+01  0.10151462320E+02  0.24247684191E+02  0.00000000000E+00 0. -1.
</event>
<event>
 4    1  0.3195479E+006  0.2037296E+02  0.7546771E-02  0.1528409E+00
         21   -1    0    0  503  501  0.00000000000E+00  0.00000000000E+00  0.66054542631E+03  0.66054542631E+03  0.00000000000E+00 0. -1.
         21   -1    0    0  504  502 -0.00000000000E+00 -0.00000000000E+00 -0.11614313778E+01  0.11614313778E+01  0.00000000000E+00 0.  1.
         21    1    1    2  503  502  0.19132208573E+02  0.70011495285E+01  0.10554481379E+03  0.10749309381E+03  0.00000000000E+00 0.  1.
         21    1    1    2  504  501 -0.19132208573E+02 -0.70011495285E+01  0.55383918115E+03  0.55421376388E+03  0.00000000000E+00 0. -1.
</event>
<event>
 4    1  0.3195479E+006  0.2256063E+02  0.7546771E-02  0.1498090E+00
         21   -1    0    0  502  501  0.00000000000E+00  0.00000000000E+00  0.11322306846E+03  0.11322306846E+03  0.00000000000E+00 0.  1.
         21   -1    0    0  503  502 -0.00000000000E+00 -0.00000000000E+00 -0.21061432321E+03  0.21061432321E+03  0.00000000000E+00 0.  1.
         21    1    1    2  503  504 -0.21760906686E+02  0.59535625319E+01 -0.20887699144E+03  0.21009183592E+03  0.00000000000E+00 0.  1.
         21    1    1    2  504  501  0.21760906686E+02 -0.59535625319E+01  0.11148573670E+03  0.11374555575E+03  0.00000000000E+00 0.  1.
</event>
<event>
 4    1  0.3195479E+006  0.2326297E+02  0.7546771E-02  0.1489222E+00
         21   -1    0    0  504  501  0.00000000000E+00  0.00000000000E+00  0.81445770837E+02  0.81445770837E+02  0.00000000000E+00 0.  1.
         21   -1    0    0  503  502 -0.00000000000E+00 -0.00000000000E+00 -0.10440309325E+02  0.10440309325E+02  0.00000000000E+00 0. -1.
         21    1    1    2  503  501 -0.99432586855E+01 -0.21030861867E+02  0.63205032708E+02  0.67350142567E+02  0.00000000000E+00 0.  1.
         21    1    1    2  504  502  0.99432586855E+01  0.21030861867E+02  0.78004288046E+01  0.24535937595E+02  0.00000000000E+00 0. -1.
</event>
<event>
 4    1  0.3195479E+006  0.2986505E+02  0.7546771E-02  0.1420773E+00
         21   -1    0    0  504  501  0.00000000000E+00  0.00000000000E+00  0.99257009424E+02  0.99257009424E+02  0.00000000000E+00 0. -1.
         21   -1    0    0  503  502 -0.00000000000E+00 -0.00000000000E+00 -0.20768365726E+02  0.20768365726E+02  0.00000000000E+00 0.  1.
         21    1    1    2  503  501 -0.24336407166E+02  0.17310709917E+02  0.84446415786E+02  0.89571862382E+02  0.00000000000E+00 0. -1.
         21    1    1    2  504  502  0.24336407166E+02 -0.17310709917E+02 -0.59577720879E+01  0.30453512767E+02  0.00000000000E+00 0.  1.
</event>
<event>
 4    1  0.3195479E+006  0.3381391E+02  0.7546771E-02  0.1389099E+00
         21   -1    0    0  504  501  0.00000000000E+00  0.00000000000E+00  0.51696805088E+03  0.51696805088E+03  0.00000000000E+00 0. -1.
         21   -1    0    0  503  502 -0.00000000000E+00 -0.00000000000E+00 -0.19006874066E+03  0.19006874066E+03  0.00000000000E+00 0.  1.
         21    1    1    2  503  501  0.14306837676E+02 -0.30638124167E+02  0.51490520274E+03  0.51601429056E+03  0.00000000000E+00 0. -1.
         21    1    1    2  504  502 -0.14306837676E+02  0.30638124167E+02 -0.18800589252E+03  0.19102250097E+03  0.00000000000E+00 0.  1.
</event>
<event>
 4    1  0.3195479E+006  0.2050623E+02  0.7546771E-02  0.1526433E+00
         21   -1    0    0  503  501  0.00000000000E+00  0.00000000000E+00  0.99897429730E+03  0.99897429730E+03  0.00000000000E+00 0.  1.
         21   -1    0    0  504  502 -0.00000000000E+00 -0.00000000000E+00 -0.82911909714E+01  0.82911909714E+01  0.00000000000E+00 0. -1.
         21    1    1    2  503  502 -0.61177515116E+01 -0.19572390750E+02  0.98602326248E+03  0.98623647241E+03  0.00000000000E+00 0.  1.
         21    1    1    2  504  501  0.61177515116E+01  0.19572390750E+02  0.46598438457E+01  0.21029015857E+02  0.00000000000E+00 0. -1.
</event>
<event>
 4    1  0.3195479E+006  0.2507317E+02  0.7546771E-02  0.1467986E+00
         21   -1    0    0  503  501  0.00000000000E+00  0.00000000000E+00  0.11998571535E+02  0.11998571535E+02  0.00000000000E+00 0. -1.
         21   -1    0    0  504  502 -0.00000000000E+00 -0.00000000000E+00 -0.52764622118E+02  0.52764622118E+02  0.00000000000E+00 0. -1.
         21    1    1    2  503  502 -0.16710402521E+02  0.18692952292E+02 -0.23093600876E+02  0.34087804553E+02  0.00000000000E+00 0. -1.
         21    1    1    2  504  501  0.16710402521E+02 -0.18692952292E+02 -0.17672449708E+02  0.30675389101E+02  0.00000000000E+00 0. -1.
</event>
<event>
 4    1  0.3195479E+006  0.2103531E+02  0.7546771E-02  0.1518761E+00
         21   -1    0    0  504  501  0.00000000000E+00  0.00000000000E+00  0.36175639837E+01  0.36175639837E+01  0.00000000000E+00 0. -1.
         21   -1    0    0  503  502 -0.00000000000E+00 -0.00000000000E+00 -0.47045079480E+03  0.47045079480E+03  0.00000000000E+00 0.  1.
         21    1    1    2  503  501  0.19877841264E+02  0.68815329946E+01 -0.29511598261E+02  0.36241116175E+02  0.00000000000E+00 0. -1.
         21    1    1    2  504  502 -0.19877841264E+02 -0.68815329946E+01 -0.43732163256E+03  0.43782724261E+03  0.00000000000E+00 0.  1.
</event>
<event>
 4    1  0.3195479E+006  0.2668572E+02  0.7546771E-02  0.1450791E+00
         21   -1    0    0  504  501  0.00000000000E+00  0.00000000000E+00  0.12704956274E+02  0.12704956274E+02  0.00000000000E+00 0. -1.
         21   -1    0    0  503  502 -0.00000000000E+00 -0.00000000000E+00 -0.96509052396E+02  0.96509052396E+02  0.00000000000E+00 0. -1.
         21    1    1    2  503  501 -0.67332660297E+01  0.25822294285E+02 -0.77258270916E+02  0.81737189690E+02  0.00000000000E+00 0. -1.
         21    1    1    2  504  502  0.67332660297E+01 -0.25822294285E+02 -0.65458252068E+01  0.27476818979E+02  0.00000000000E+00 0. -1.
</event>
<event>
 4    1  0.3195479E+006  0.2138943E+02  0.7546771E-02  0.1513777E+00
         21   -1    0    0  502  501  0.00000000000E+00  0.00000000000E+00  0.10700221545E+03  0.10700221545E+03  0.00000000000E+00 0. -1.
         21   -1    0    0  504  502 -0.00000000000E+00 -0.00000000000E+00 -0.13331785643E+03  0.13331785643E+03  0.00000000000E+00 0.  1.
         21    1    1    2  503  501  0.89789837903E+01  0.19413545241E+02  0.10505966506E+03  0.10721492952E+03  0.00000000000E+00 0. -1.
         21    1    1    2  504  503 -0.89789837903E+01 -0.19413545241E+02 -0.13137530603E+03  0.13310514236E+03  0.00000000000E+00 0.  1.
</event>
<event>
 4    1  0.3195479E+006  0.2791121E+02  0.7546771E-02  0.1438663E+00
         21   -1    0    0  502  501  0.00000000000E+00  0.00000000000E+00  0.25508658151E+03  0.25508658151E+03  0.00000000000E+00 0.  1.
         21   -1    0    0  503  502 -0.00000000000E+00 -0.00000000000E+00 -0.60486826795E+01  0.60486826795E+01  0.00000000000E+00 0. -1.
         21    1    1    2  503  504  0.66933208614E+01 -0.27096773054E+02  0.32647581712E+02  0.42952301984E+02  0.00000000000E+00 0. -1.
         21    1    1    2  504  501 -0.66933208614E+01  0.27096773054E+02  0.21639031712E+03  0.21818296221E+03  0.00000000000E+00 0.  1.
</event>
<event>
 4    1  0.3195479E+006  0.2332691E+02  0.7546771E-02  0.1488433E+00
         21   -1    0    0  503  501  0.00000000000E+00  0.00000000000E+00  0.11292945545E+03  0.11292945545E+03  0.00000000000E+00 0. -1.
         21   -1    0    0  504  502 -0.00000000000E+00 -0.00000000000E+00 -0.73719473399E+01  0.73719473399E+01  0.00000000000E+00 0.  1.
         21    1    1    2  503  502  0.15357726430E+02 -0.17558044495E+02  0.17377595545E+02  0.29088236703E+02  0.00000000000E+00 0.  1.
         21    1    1    2  504  501 -0.15357726430E+02  0.17558044495E+02  0.88179912563E+02  0.91213166085E+02  0.00000000000E+00 0. -1.
</event>
<event>
 4    1  0.3195479E+006  0.2526638E+02  0.7546771E-02  0.1465845E+00
         21   -1    0    0  503  501  0.00000000000E+00  0.00000000000E+00  0.32665460175E+02  0.32665460175E+02  0.00000000000E+00 0.  1.
         21   -1    0    0  504  502 -0.00000000000E+00 -0.00000000000E+00 -0.45685750122E+02  0.45685750122E+02  0.00000000000E+00 0.  1.
         21    1    1    2  503  502  0.22850420319E+02 -0.10781839350E+02 -0.36144724011E+02  0.44100236307E+02  0.00000000000E+00 0.  1.
         21    1    1    2  504  501 -0.22850420319E+02  0.10781839350E+02  0.23124434063E+02  0.34250973990E+02  0.00000000000E+00 0.  1.
</event>
<event>
 4    1  0.3195479E+006  0.2031445E+02  0.7546771E-02  0.1529282E+00
         21   -1    0    0  503  501  0.00000000000E+00  0.00000000000E+00  0.25390920920E+03  0.25390920920E+03  0.00000000000E+00 0. -1.
         21   -1    0    0  501  502 -0.00000000000E+00 -0.00000000000E+00 -0.18902271009E+02  0.18902271009E+02  0.00000000000E+00 0.  1.
         21    1    1    2  503  504  0.12928515198E+02 -0.15669413689E+02  0.24791306085E+03  0.24874397032E+03  0.00000000000E+00 0. -1.
         21    1    1    2  504  502 -0.12928515198E+02  0.15669413689E+02 -0.12906122654E+02  0.24067509894E+02  0.00000000000E+00 0.  1.
</event>
<event>
 4    1  0.3195479E+006  0.2976942E+02  0.7546771E-02  0.1421611E+00
         21   -1    0    0  503  501  0.00000000000E+00  0.00000000000E+00  0.34748301645E+02  0.34748301645E+02  0.00000000000E+00 0.  1.
         21   -1    0    0  504  502 -0.00000000000E+00 -0.00000000000E+00 -0.77882730097E+02  0.77882730097E+02  0.00000000000E+00 0.  1.
         21    1    1    2  503  502 -0.29196786474E+02 -0.58108674576E+01  0.24616113641E+02  0.38628636681E+02  0.00000000000E+00 0.  1.
         21    1    1    2  504  501  0.29196786474E+02  0.58108674576E+01 -0.67750542092E+02  0.74002395061E+02  0.00000000000E+00 0.  1.
</event>
<event>
 4    1  0.3195479E+006  0.2021215E+02  0.7546771E-02  0.1530817E+00
         21   -1    0    0  503  501  0.00000000000E+00  0.00000000000E+00  0.18027286953E+03  0.18027286953E+03  0.00000000000E+00 0. -1.
         21   -1    0    0  504  502 -0.00000000000E+00 -0.00000000000E+00 -0.13158111516E+03  0.13158111516E+03  0.00000000000E+00 0. -1.
         21    1    1    2  503  502  0.13147910521E+02 -0.15351338908E+02  0.17892429585E+03  0.18006230811E+03  0.00000000000E+00 0. -1.
         21    1    1    2  504  501 -0.13147910521E+02  0.15351338908E+02 -0.13023254147E+03  0.13179167658E+03  0.00000000000E+00 0. -1.
</event>
<event>
 4    1  0.3195479E+006  0.2168395E+02  0.7546771E-02  0.1509720E+00
         21   -1    0    0  504  501  0.00000000000E+00  0.00000000000E+00  0.14215000713E+03  0.14215000713E+03  0.00000000000E+00 0.  1.
         21   -1    0    0  503  502 -0.00000000000E+00 -0.00000000000E+00 -0.13362583673E+02  0.13362583673E+02  0.00000000000E+00 0.  1.
         21    1    1    2  503  501  0.11052790948E+02 -0.18655553631E+02 -0.30557076667E+01  0.21898201258E+02  0.00000000000E+00 0.  1.
         21    1    1    2  504  502 -0.11052790948E+02  0.18655553631E+02  0.13184313113E+03  0.13361438955E+03  0.00000000000E+00 0.  1.
</event>
<event>
 4    1  0.3195479E+006  0.2316180E+02  0.7546771E-02  0.1490476E+00
         21   -1    0    0  504  501  0.00000000000E+00  0.00000000000E+00  0.14269646409E+03  0.14269646409E+03  0.00000000000E+00 0.  1.
         21   -1    0    0  503  502 -0.00000000000E+00 -0.00000000000E+00 -0.75328832045E+01  0.75328832045E+01  0.00000000000E+00 0. -1.
         21    1    1    2  503  501  0.23081304178E+02  0.19293655194E+01  0.12074472423E+03  0.12294615684E+03  0.00000000000E+00 0.  1.
         21    1    1    2  504  502 -0.23081304178E+02 -0.19293655194E+01  0.14418856658E+02  0.27283190451E+02  0.00000000000E+00 0. -1.
</event>
<event>
 4    1  0.3195479E+006  0.2054050E+02  0.7546771E-02  0.1525927E+00
         21   -1    0    0  502  501  0.00000000000E+00  0.00000000000E+00  0.81483835088E+02  0.81483835088E+02  0.00000000000E+00 0.  1.
         21   -1    0    0  504  502 -0.00000000000E+00 -0.00000000000E+00 -0.10124377441E+02  0.10124377441E+02  0.00000000000E+00 0.  1.
         21    1    1    2  503  501 -0.85303150566E+01 -0.18685445687E+02  0.67695935831E+02  0.70743564255E+02  0.00000000000E+00 0.  1.
         21    1    1    2  504  503  0.85303150566E+01  0.18685445687E+02  0.36635218158E+01  0.20864648274E+02  0.00000000000E+00 0.  1.
</event>
<event>
 4    1  0.3195479E+006  0.2029019E+02  0.7546771E-02  0.1529645E+00
         21   -1    0    0  503  501  0.00000000000E+00  0.00000000000E+00  0.29991721605E+02  0.29991721605E+02  0.00000000000E+00 0. -1.
         21   -1    0    0  504  502 -0.00000000000E+00 -0.00000000000E+00 -0.62091162609E+02  0.62091162609E+02  0.00000000000E+00 0. -1.
         21    1    1    2  503  502  0.96474951285E+01 -0.17849862446E+02 -0.56684372884E+02  0.60206394020E+02  0.00000000000E+00 0. -1.
         21    1    1    2  504  501 -0.96474951285E+01  0.17849862446E+02  0.24584931880E+02  0.31876490195E+02  0.00000000000E+00 0. -1.
</event>
<event>
 4    1  0.3195479E+006  0.2524251E+02  0.7546771E-02  0.1466109E+00
         21   -1    0    0  503  501  0.00000000000E+00  0.00000000000E+00  0.34016477891E+02  0.34016477891E+02  0.00000000000E+00 0.  1.
         21   -1    0    0  504  502 -0.00000000000E+00 -0.00000000000E+00 -0.67177585781E+03  0.67177585781E+03  0.00000000000E+00 0.  1.
         21    1    1    2  503  502  0.21125559188E+02  0.13816481466E+02  0.29061657121E+02  0.38493692026E+02  0.00000000000E+00 0.  1.
         21    1    1    2  504  501 -0.21125559188E+02 -0.13816481466E+02 -0.66682103704E+03  0.66729864367E+03  0.00000000000E+00 0.  1.
</event>
<event>
 4    1  0.3195479E+006  0.2140236E+02  0.7546771E-02  0.1513597E+00
         21   -1    0    0  503  501  0.00000000000E+00  0.00000000000E+00  0.35336275762E+02  0.35336275762E+02  0.00000000000E+00 0.  1.
         21   -1    0    0  501  502 -0.00000000000E+00 -0.00000000000E+00 -0.71964106359E+02  0.71964106359E+02  0.00000000000E+00 0.  1.
         21    1    1    2  503  504 -0.10485431851E+02 -0.18657884483E+02  0.30264541726E+02  0.37067552123E+02  0.00000000000E+00 0.  1.
         21    1    1    2  504  502  0.10485431851E+02  0.18657884483E+02 -0.66892372324E+02  0.70232829998E+02  0.00000000000E+00 0.  1.
</event>
<event>
 4    1  0.3195479E+006  0.2078410E+02  0.7546771E-02  0.1522370E+00
         21   -1    0    0  504  501  0.00000000000E+00  0.00000000000E+00  0.18261888492E+01  0.18261888492E+01  0.00000000000E+00 0.  1.
         21   -1    0    0  501  502 -0.00000000000E+00 -0.00000000000E+00 -0.76274455044E+03  0.76274455044E+03  0.00000000000E+00 0. -1.
         21    1    1    2  503  502 -0.97007779920E+01  0.18381337494E+02 -0.69798037540E+03  0.69828975584E+03  0.00000000000E+00 0. -1.
         21    1    1    2  504  503  0.97007779920E+01 -0.18381337494E+02 -0.62937986182E+02  0.66280983445E+02  0.00000000000E+00 0.  1.
</event>
<event>
 4    1  0.3195479E+006  0.2239699E+02  0.7546771E-02  0.1500212E+00
         21   -1    0    0  503  501  0.00000000000E+00  0.00000000000E+00  0.72296310357E+02  0.72296310357E+02  0.00000000000E+00 0.  1.
         21   -1    0    0  504  502 -0.00000000000E+00 -0.00000000000E+00 -0.21672466774E+02  0.21672466774E+02  0.00000000000E+00 0. -1.
         21    1    1    2  503  502  0.22124610038E+02  0.34823258505E+01 -0.13428099810E+02  0.26113958474E+02  0.00000000000E+00 0. -1.
         21    1    1    2  504  501 -0.22124610038E+02 -0.34823258505E+01  0.64051943393E+02  0.67854818658E+02  0.00000000000E+00 0.  1.
</event>
<event>
 4    1  0.3195479E+006  0.2561199E+02  0.7546771E-02  0.1462072E+00
         21   -1    0    0  504  501  0.00000000000E+00  0.00000000000E+00  0.17477444156E+02  0.17477444156E+02  0.00000000000E+00 0. -1.
         21   -1    0    0  501  502 -0.00000000000E+00 -0.00000000000E+00 -0.17964229252E+03  0.17964229252E+03  0.00000000000E+00 0.  1.
         21    1    1    2  503  502 -0.12297698399E+02 -0.22466439077E+02 -0.16874367023E+03  0.17067630332E+03  0.00000000000E+00 0.  1.
         21    1    1    2  504  503  0.12297698399E+02  0.22466439077E+02  0.65788218663E+01  0.26443433360E+02  0.00000000000E+00 0. -1.
</event>
<event>
 4    1  0.3195479E+006  0.3734666E+02  0.7546771E-02  0.1364777E+00
         21   -1    0    0  502  501  0.00000000000E+00  0.00000000000E+00  0.12799459994E+02  0.12799459994E+02  0.00000000000E+00 0. -1.
         21   -1    0    0  504  502 -0.00000000000E+00 -0.00000000000E+00 -0.10507220708E+04  0.10507220708E+04  0.00000000000E+00 0. -1.
         21    1    1    2  503  501  0.35330556400E+02  0.12104755750E+02 -0.15529831006E+02  0.40446866113E+02  0.00000000000E+00 0. -1.
         21    1    1    2  504  503 -0.35330556400E+02 -0.12104755750E+02 -0.10223927798E+04  0.10230746647E+04  0.00000000000E+00 0. -1.
</event>
<event>
 4    1  0.3195479E+006  0.2871010E+02  0.7546771E-02  0.1431147E+00
         21   -1    0    0  503  501  0.00000000000E+00  0.00000000000E+00  0.20442100424E+02  0.20442100424E+02  0.00000000000E+00 0.  1.
         21   -1    0    0  504  502 -0.00000000000E+00 -0.00000000000E+00 -0.44264843219E+02  0.44264843219E+02  0.00000000000E+00 0.  1.
         21    1    1    2  503  502 -0.27484021156E+02  0.83005076160E+01 -0.21567139463E+02  0.35908374374E+02  0.00000000000E+00 0.  1.
         21    1    1    2  504  501  0.27484021156E+02 -0.83005076160E+01 -0.22556033325E+01  0.28798569269E+02  0.00000000000E+00 0.  1.
</event>
<event>
 4    1  0.3195479E+006  0.4313675E+02  0.7546771E-02  0.1331024E+00
         21   -1    0    0  503  501  0.00000000000E+00  0.00000000000E+00  0.30727924168E+03  0.30727924168E+03  0.00000000000E+00 0.  1.
         21   -1    0    0  504  502 -0.00000000000E+00 -0.00000000000E+00 -0.31767176909E+02  0.31767176909E+02  0.00000000000E+00 0.  1.
         21    1    1    2  503  502  0.23018952072E+02  0.36481600035E+02 -0.14755851530E+02  0.45590727675E+02  0.00000000000E+00 0.  1.
         21    1    1    2  504  501 -0.23018952072E+02 -0.36481600035E+02  0.29026791630E+03  0.29345569091E+03  0.00000000000E+00 0.  1.
</event>
<event>
 4    1  0.3195479E+006  0.2379674E+02  0.7546771E-02  0.1482729E+00
         21   -1    0    0  502  501  0.00000000000E+00  0.00000000000E+00  0.79467833999E+01  0.79467833999E+01  0.00000000000E+00 0. -1.
         21   -1    0    0  504  502 -0.00000000000E+00 -0.00000000000E+00 -0.15067131511E+04  0.15067131511E+04  0.00000000000E+00 0.  1.
         21    1    1    2  503  501 -0.23152584046E+02 -0.54993420915E+01 -0.10178995835E+02  0.25882365960E+02  0.00000000000E+00 0. -1.
         21    1    1    2  504  503  0.23152584046E+02  0.54993420915E+01 -0.14885873719E+04  0.14887775686E+04  0.00000000000E+00 0.  1.
</event>
<event>
 4    1  0.3195479E+006  0.2777347E+02  0.7546771E-02  0.1439989E+00
         21   -1    0    0  504  501  0.00000000000E+00  0.00000000000E+00  0.96821583733E+02  0.96821583733E+02  0.00000000000E+00 0.  1.
         21   -1    0    0  503  502 -0.00000000000E+00 -0.00000000000E+00 -0.15042200636E+02  0.15042200636E+02  0.00000000000E+00 0. -1.
         21    1    1    2  503  501 -0.27098703370E+02  0.60848930720E+01  0.25298346455E+01  0.27888451219E+02  0.00000000000E+00 0. -1.
         21    1    1    2  504  502  0.27098703370E+02 -0.60848930720E+01  0.79249548451E+02  0.83975333151E+02  0.00000000000E+00 0.  1.
</event>
<event>
 4    1  0.3195479E+006  0.3454497E+02  0.7546771E-02  0.1383791E+00
         21   -1    0    0  502  501  0.00000000000E+00  0.00000000000E+00  0.23988616985E+02  0.23988616985E+02  0.00000000000E+00 0. -1.
         21   -1    0    0  503  502 -0.00000000000E+00 -0.00000000000E+00 -0.50911470196E+02  0.50911470196E+02  0.00000000000E+00 0. -1.
         21    1    1    2  503  504 -0.95458137738E+01 -0.33199890295E+02 -0.19125891038E+02  0.39486136607E+02  0.00000000000E+00 0. -1.
         21    1    1    2  504  501  0.95458137738E+01  0.33199890295E+02 -0.77969621733E+01  0.35413950575E+02  0.00000000000E+00 0. -1.
</event>
<event>
 4    1  0.3195479E+006  0.5851546E+02  0.7546771E-02  0.1264962E+00
         21   -1    0    0  503  501  0.00000000000E+00  0.00000000000E+00  0.52320774343E+02  0.52320774343E+02  0.00000000000E+00 0. -1.
         21   -1    0    0  501  502 -0.00000000000E+00 -0.00000000000E+00 -0.17268807271E+03  0.17268807271E+03  0.00000000000E+00 0. -1.
         21    1    1    2  503  504 -0.58159946401E+02  0.64405059806E+01  0.28475977822E+02  0.65076422732E+02  0.00000000000E+00 0. -1.
         21    1    1    2  504  502  0.58159946401E+02 -0.64405059806E+01 -0.14884327619E+03  0.15993242432E+03  0.00000000000E+00 0. -1.
</event>
<event>
 4    1  0.3195479E+006  0.2995015E+02  0.7546771E-02  0.1420030E+00
         21   -1    0    0  503  501  0.00000000000E+00  0.00000000000E+00  0.17290891988E+02  0.17290891988E+02  0.00000000000E+00 0.  1.
         21   -1    0    0  501  502 -0.00000000000E+00 -0.00000000000E+00 -0.81397543695E+02  0.81397543695E+02  0.00000000000E+00 0. -1.
         21    1    1    2  503  504  0.22391330716E+02  0.19890697034E+02 -0.23375053653E+01  0.30041229187E+02  0.00000000000E+00 0.  1.
         21    1    1    2  504  502 -0.22391330716E+02 -0.19890697034E+02 -0.61769146342E+02  0.68647206495E+02  0.00000000000E+00 0. -1.
</event>
<event>
 4    1  0.3195479E+006  0.2208191E+02  0.7546771E-02  0.1504360E+00
         21   -1    0    0  503  501  0.00000000000E+00  0.00000000000E+00  0.21644651803E+02  0.21644651803E+02  0.00000000000E+00 0.  1.
         21   -1    0    0  504  502 -0.00000000000E+00 -0.00000000000E+00 -0.77497434395E+02  0.77497434395E+02  0.00000000000E+00 0.  1.
         21    1    1    2  503  502 -0.21892326898E+02  0.28873591473E+01 -0.69675288709E+02  0.73090742755E+02  0.00000000000E+00 0.  1.
         21    1    1    2  504  501  0.21892326898E+02 -0.28873591473E+01  0.13822506116E+02  0.26051343443E+02  0.00000000000E+00 0.  1.
</event>
<event>
 4    1  0.3195479E+006  0.2001716E+02  0.7546771E-02  0.1533773E+00
         21   -1    0    0  503  501  0.00000000000E+00  0.00000000000E+00  0.33057432004E+02  0.33057432004E+02  0.00000000000E+00 0.  1.
         21   -1    0    0  501  502 -0.00000000000E+00 -0.00000000000E+00 -0.17870020272E+02  0.17870020272E+02  0.00000000000E+00 0.  1.
         21    1    1    2  503  504  0.12176948520E+02  0.15887369528E+02  0.22036767450E+02  0.29770886876E+02  0.00000000000E+00 0.  1.
         21    1    1    2  504  502 -0.12176948520E+02 -0.15887369528E+02 -0.68493557176E+01  0.21156565400E+02  0.00000000000E+00 0.  1.
</event>
<event>
 4    1  0.3195479E+006  0.2183822E+02  0.7546771E-02  0.1507626E+00
         21   -1    0    0  504  501  0.00000000000E+00  0.00000000000E+00  0.13718843273E+02  0.13718843273E+02  0.00000000000E+00 0. -1.
         21   -1    0    0  501  502 -0.00000000000E+00 -0.00000000000E+00 -0.16050408085E+03  0.16050408085E+03  0.00000000000E+00 0. -1.
         21    1    1    2  503  502 -0.52599312153E+01 -0.21195307260E+02 -0.15049554949E+03  0.15207175393E+03  0.00000000000E+00 0. -1.
         21    1    1    2  504  503  0.52599312153E+01  0.21195307260E+02  0.37103119193E+01  0.22151170189E+02  0.00000000000E+00 0. -1.
</event>
<event>
 4    1  0.3195479E+006  0.6589479E+02  0.7546771E-02  0.1241020E+00
         21   -1    0    0  503  501  0.00000000000E+00  0.00000000000E+00  0.10932278324E+04  0.10932278324E+04  0.00000000000E+00 0. -1.
         21   -1    0    0  504  502 -0.00000000000E+00 -0.00000000000E+00 -0.10648072144E+02  0.10648072144E+02  0.00000000000E+00 0. -1.
         21    1    1    2  503  502 -0.60665176777E+02  0.25726639632E+02  0.97832923939E+03  0.98054588078E+03  0.00000000000E+00 0. -1.
         21    1    1    2  504  501  0.60665176777E+02 -0.25726639632E+02  0.10425052082E+03  0.12333002372E+03  0.00000000000E+00 0. -1.
</event>
<event>
 4    1  0.3195479E+006  0.2093949E+02  0.7546771E-02  0.1520130E+00
         21   -1    0    0  504  501  0.00000000000E+00  0.00000000000E+00  0.18263195462E+03  0.18263195462E+03  0.00000000000E+00 0.  1.
         21   -1    0    0  501  502 -0.00000000000E+00 -0.00000000000E+00 -0.42679299227E+03  0.42679299227E+03  0.00000000000E+00 0. -1.
         21    1    1    2  503  502 -0.12361259842E+00 -0.20939126803E+02 -0.42593474882E+03  0.42644914417E+03  0.00000000000E+00 0. -1.
         21    1    1    2  504  503  0.12361259842E+00  0.20939126803E+02  0.18177371116E+03  0.18297580272E+03  0.00000000000E+00 0.  1.
</event>
<event>
 4    1  0.3195479E+006  0.2305092E+02  0.7546771E-02  0.1491860E+00
         21   -1    0    0  504  501  0.00000000000E+00  0.00000000000E+00  0.78506292147E+02  0.78506292147E+02  0.00000000000E+00 0. -1.
         21   -1    0    0  501  502 -0.00000000000E+00 -0.00000000000E+00 -0.28358159474E+02  0.28358159474E+02  0.00000000000E+00 0.  1.
         21    1    1    2  503  502  0.75894432001E+01 -0.21765689913E+02 -0.21547873124E+02  0.31554013083E+02  0.00000000000E+00 0.  1.
         21    1    1    2  504  503 -0.75894432001E+01  0.21765689913E+02  0.71696005797E+02  0.75310438538E+02  0.00000000000E+00 0. -1.
</event>
<event>
 4    1  0.3195479E+006  0.2480817E+02  0.7546771E-02  0.1470961E+00
         21   -1    0    0  504  501  0.00000000000E+00  0.00000000000E+00  0.12052887523E+02  0.12052887523E+02  0.00000000000E+00 0.  1.
         21   -1    0    0  501  502 -0.00000000000E+00 -0.00000000000E+00 -0.94788834022E+02  0.94788834022E+02  0.00000000000E+00 0.  1.
         21    1    1    2  503  502  0.17111995529E+01  0.24749082657E+02 -0.77651207902E+02  0.81517822499E+02  0.00000000000E+00 0.  1.
         21    1    1    2  504  503 -0.17111995529E+01 -0.24749082657E+02 -0.50847385967E+01  0.25323899045E+02  0.00000000000E+00 0.  1.
</event>
<event>
 4    1  0.3195479E+006  0.2706471E+02  0.7546771E-02  0.1446959E+00
         21   -1    0    0  504  501  0.00000000000E+00  0.00000000000E+00  0.13477463927E+02  0.13477463927E+02  0.00000000000E+00 0.  1.
         21   -1    0    0  503  502 -0.00000000000E+00 -0.00000000000E+00 -0.71159302664E+03  0.71159302664E+03  0.00000000000E+00 0. -1.
         21    1    1    2  503  501 -0.12729496038E+02 -0.23884271059E+02 -0.64231305058E+00  0.27072329775E+02  0.00000000000E+00 0.  1.
         21    1    1    2  504  502  0.12729496038E+02  0.23884271059E+02 -0.69747324966E+03  0.69799816079E+03  0.00000000000E+00 0. -1.
</event>
<event>
 4    1  0.3195479E+006  0.2020335E+02  0.7546771E-02  0.1530950E+00
         21   -1    0    0  504  501  0.00000000000E+00  0.00000000000E+00  0.10628805737E+03  0.10628805737E+03  0.00000000000E+00 0.  1.
         21   -1    0    0  501  502 -0.00000000000E+00 -0.00000000000E+00 -0.13558927372E+02  0.13558927372E+02  0.00000000000E+00 0. -1.
         21    1    1    2  503  502  0.96339698244E+01 -0.17758436476E+02 -0.43680744947E+01  0.20670160025E+02  0.00000000000E+00 0. -1.
         21    1    1    2  504  503 -0.96339698244E+01  0.17758436476E+02  0.97097204493E+02  0.99176824717E+02  0.00000000000E+00 0.  1.
</event>
<event>
 4    1  0.3195479E+006  0.3762743E+02  0.7546771E-02  0.1362979E+00
         21   -1    0    0  503  501  0.00000000000E+00  0.00000000000E+00  0.67197954534E+02  0.67197954534E+02  0.00000000000E+00 0.  1.
         21   -1    0    0  501  502 -0.00000000000E+00 -0.00000000000E+00 -0.21233232434E+02  0.21233232434E+02  0.00000000000E+00 0. -1.
         21    1    1    2  503  504 -0.17133254981E+02  0.33500371662E+02  0.26865770693E+02  0.46234110381E+02  0.00000000000E+00 0.  1.
         21    1    1    2  504  502  0.17133254981E+02 -0.33500371662E+02  0.19098951407E+02  0.42197076588E+02  0.00000000000E+00 0. -1.
</event>
<event>
 4    1  0.3195479E+006  0.2926100E+02  0.7546771E-02  0.1426129E+00
         21   -1    0    0  503  501  0.00000000000E+00  0.00000000000E+00  0.21050736020E+02  0.21050736020E+02  0.00000000000E+00 0.  1.
         21   -1    0    0  504  502 -0.00000000000E+00 -0.00000000000E+00 -0.61778415436E+02  0.61778415436E+02  0.00000000000E+00 0.  1.
         21    1    1    2  503  502  0.35069274904E+01 -0.29050084136E+02  0.38423939117E+01  0.29512199506E+02  0.00000000000E+00 0.  1.
         21    1    1    2  504  501 -0.35069274904E+01  0.29050084136E+02 -0.44570073328E+02  0.53316951950E+02  0.00000000000E+00 0.  1.
</event>
<event>
 4    1  0.3195479E+006  0.2009548E+02  0.7546771E-02  0.1532581E+00
         21   -1    0    0  503  501  0.00000000000E+00  0.00000000000E+00  0.20745248178E+02  0.20745248178E+02  0.00000000000E+00 0. -1.
         21   -1    0    0  504  502 -0.00000000000E+00 -0.00000000000E+00 -0.21782204058E+02  0.21782204058E+02  0.00000000000E+00 0. -1.
         21    1    1    2  503  502 -0.13134333100E+02  0.15209124321E+02  0.64153265424E+01  0.21094657694E+02  0.00000000000E+00 0. -1.
         21    1    1    2  504  501  0.13134333100E+02 -0.15209124321E+02 -0.74522824227E+01  0.21432794542E+02  0.00000000000E+00 0. -1.
</event>
<event>
 4    1  0.3195479E+006  0.3855656E+02  0.7546771E-02  0.1357158E+00
         21   -1    0    0  503  501  0.00000000000E+00  0.00000000000E+00  0.17964659036E+03  0.17964659036E+03  0.00000000000E+00 0.  1.
         21   -1    0    0  504  502 -0.00000000000E+00 -0.00000000000E+00 -0.21269281144E+02  0.21269281144E+02  0.00000000000E+00 0.  1.
         21    1    1    2  503  502 -0.92702655707E+01 -0.37425536239E+02  0.66854469432E+00  0.38562359089E+02  0.00000000000E+00 0.  1.
         21    1    1    2  504  501  0.92702655707E+01  0.37425536239E+02  0.15770876452E+03  0.16235351241E+03  0.00000000000E+00 0.  1.
</event>
<event>
 4    1  0.3195479E+006  0.2868638E+02  0.7546771E-02  0.1431366E+00
         21   -1    0    0  503  501  0.00000000000E+00  0.00000000000E+00  0.21617770864E+03  0.21617770864E+03  0.00000000000E+00 0.  1.
         21   -1    0    0  501  502 -0.00000000000E+00 -0.00000000000E+00 -0.39156888323E+01  0.39156888323E+01  0.00000000000E+00 0.  1.
         21    1    1    2  503  504 -0.18532627232E+02 -0.21896350812E+02  0.12449657415E+03  0.12775877827E+03  0.00000000000E+00 0.  1.
         21    1    1    2  504  502  0.18532627232E+02  0.21896350812E+02  0.87765445658E+02  0.92334619199E+02  0.00000000000E+00 0.  1.
</event>
<event>
 4    1  0.3195479E+006  0.6035108E+02  0.7546771E-02  0.1258644E+00
         21   -1    0    0  504  501  0.00000000000E+00  0.00000000000E+00  0.31570687307E+02  0.31570687307E+02  0.00000000000E+00 0.  1.
         21   -1    0    0  501  502 -0.00000000000E+00 -0.00000000000E+00 -0.11538616911E+03  0.11538616911E+03  0.00000000000E+00 0.  1.
         21    1    1    2  503  502  0.58759477682E+02  0.13768667051E+02 -0.40990015986E+02  0.72955012305E+02  0.00000000000E+00 0.  1.
         21    1    1    2  504  503 -0.58759477682E+02 -0.13768667051E+02 -0.42825465820E+02  0.74001844116E+02  0.00000000000E+00 0.  1.
</event>
<event>
 4    1  0.3195479E+006  0.4088696E+02  0.7546771E-02  0.1343365E+00
         21   -1    0    0  503  501  0.00000000000E+00  0.00000000000E+00  0.89408073856E+02  0.89408073856E+02  0.00000000000E+00 0. -1.
         21   -1    0    0  504  502 -0.00000000000E+00 -0.00000000000E+00 -0.86418253041E+02  0.86418253041E+02  0.00000000000E+00 0. -1.
         21    1    1    2  503  502  0.84417774778E+01  0.40005993273E+02  0.79318413793E+02  0.89236505262E+02  0.00000000000E+00 0. -1.
         21    1    1    2  504  501 -0.84417774778E+01 -0.40005993273E+02 -0.76328592978E+02  0.86589821635E+02  0.00000000000E+00 0. -1.
</event>
<event>
 4    1  0.3195479E+006  0.2099420E+02  0.7546771E-02  0.1519348E+00
         21   -1    0    0  504  501  0.00000000000E+00  0.00000000000E+00  0.20368153065E+02  0.20368153065E+02  0.00000000000E+00 0.  1.
         21   -1    0    0  503  502 -0.00000000000E+00 -0.00000000000E+00 -0.31591175285E+03  0.31591175285E+03  0.00000000000E+00 0. -1.
         21    1    1    2  503  501  0.17300073471E+02 -0.11893858089E+02 -0.31005093929E+03  0.31076090707E+03  0.00000000000E+00 0. -1.
         21    1    1    2  504  502 -0.17300073471E+02  0.11893858089E+02  0.14507339514E+02  0.25518998846E+02  0.00000000000E+00 0.  1.
</event>
<event>
 4    1  0.3195479E+006  0.2155701E+02  0.7546771E-02  0.1511459E+00
         21   -1    0    0  503  501  0.00000000000E+00  0.00000000000E+00  0.61962616568E+01  0.61962616568E+01  0.00000000000E+00 0.  1.
         21   -1    0    0  504  502 -0.00000000000E+00 -0.00000000000E+00 -0.16043493567E+03  0.16043493567E+03  0.00000000000E+00 0.  1.
         21    1    1    2  503  502 -0.87999145126E+01 -0.19679080266E+02 -0.16319737435E+02  0.27037724119E+02  0.00000000000E+00 0.  1.
         21    1    1    2  504  501  0.87999145126E+01  0.19679080266E+02 -0.13791893658E+03  0.13959347321E+03  0.00000000000E+00 0.  1.
</event>
<event>
 4    1  0.3195479E+006  0.3411867E+02  0.7546771E-02  0.1386867E+00
         21   -1    0    0  503  501  0.00000000000E+00  0.00000000000E+00  0.74157304692E+01  0.74157304692E+01  0.00000000000E+00 0.  1.
         21   -1    0    0  504  502 -0.00000000000E+00 -0.00000000000E+00 -0.15722302828E+03  0.15722302828E+03  0.00000000000E+00 0.  1.
         21    1    1    2  503  502  0.22834283198E+02 -0.25351123670E+02 -0.78173541976E+02  0.85294704558E+02  0.00000000000E+00 0.  1.
         21    1    1    2  504  501 -0.22834283198E+02  0.25351123670E+02 -0.71633755833E+02  0.79344054190E+02  0.00000000000E+00 0.  1.
</event>
<event>
 4    1  0.3195479E+006  0.2439720E+02  0.7546771E-02  0.1475661E+00
         21   -1    0    0  503  501  0.00000000000E+00  0.00000000000E+00  0.66652054356E+03  0.66652054356E+03  0.00000000000E+00 0. -1.
         21   -1    0    0  504  502 -0.00000000000E+00 -0.00000000000E+00 -0.64663608336E+01  0.64663608336E+01  0.00000000000E+00 0. -1.
         21    1    1    2  503  502 -0.21367085190E+02 -0.11775857449E+02  0.17632113148E+02  0.30101736864E+02  0.00000000000E+00 0. -1.
         21    1    1    2  504  501  0.21367085190E+02  0.11775857449E+02  0.64242206957E+03  0.64288516752E+03  0.00000000000E+00 0. -1.
</event>
<event>
 4    1  0.3195479E+006  0.2450384E+02  0.7546771E-02  0.1474431E+00
         21   -1    0    0  504  501  0.00000000000E+00  0.00000000000E+00  0.34092856506E+01  0.34092856506E+01  0.00000000000E+00 0. -1.
         21   -1    0    0  503  502 -0.00000000000E+00 -0.00000000000E+00 -0.18984869644E+03  0.18984869644E+03  0.00000000000E+00 0. -1.
         21    1    1    2  503  501 -0.23331667046E+02 -0.74880930879E+01 -0.67233537457E+02  0.71559672890E+02  0.00000000000E+00 0. -1.
         21    1    1    2  504  502  0.23331667046E+02  0.74880930879E+01 -0.11920587333E+03  0.12169830920E+03  0.00000000000E+00 0. -1.
</event>
<event>
 4    1  0.3195479E+006  0.2044169E+02  0.7546771E-02  0.1527387E+00
         21   -1    0    0  503  501  0.00000000000E+00  0.00000000000E+00  0.10246854231E+02  0.10246854231E+02  0.00000000000E+00 0. -1.
         21   -1    0    0  504  502 -0.00000000000E+00 -0.00000000000E+00 -0.50973085026E+02  0.50973085026E+02  0.00000000000E+00 0. -1.
         21    1    1    2  503  502  0.20266200112E+02  0.26727954261E+01 -0.34051544340E+02  0.39716122348E+02  0.00000000000E+00 0. -1.
         21    1    1    2  504  501 -0.20266200112E+02 -0.26727954261E+01 -0.66746864554E+01  0.21503816909E+02  0.00000000000E+00 0. -1.
</event>
<event>
 4    1  0.3195479E+006  0.2859778E+02  0.7546771E-02  0.1432186E+00
         21   -1    0    0  503  501  0.00000000000E+00  0.00000000000E+00  0.43639413318E+03  0.43639413318E+03  0.00000000000E+00 0. -1.
         21   -1    0    0  504  502 -0.00000000000E+00 -0.00000000000E+00 -0.54317635659E+01  0.54317635659E+01  0.00000000000E+00 0.  1.
         21    1    1    2  503  502  0.17801901216E+02  0.22381360244E+02  0.39426781444E+03  0.39530360797E+03  0.00000000000E+00 0. -1.
         21    1    1    2  504  501 -0.17801901216E+02 -0.22381360244E+02  0.36694555177E+02  0.46522288775E+02  0.00000000000E+00 0.  1.
</event>
<event>
 4    1  0.3195479E+006  0.2294010E+02  0.7546771E-02  0.1493252E+00
         21   -1    0    0  503  501  0.00000000000E+00  0.00000000000E+00  0.74853350907E+03  0.74853350907E+03  0.00000000000E+00 0. -1.
         21   -1    0    0  504  502 -0.00000000000E+00 -0.00000000000E+00 -0.82362814847E+00  0.82362814847E+00  0.00000000000E+00 0.  1.
         21    1    1    2  503  502  0.89671571844E+00  0.22922564800E+02  0.23048840385E+03  0.23162718404E+03  0.00000000000E+00 0.  1.
         21    1    1    2  504  501 -0.89671571844E+00 -0.22922564800E+02  0.51722147707E+03  0.51772995318E+03  0.00000000000E+00 0. -1.
</event>
<event>
 4    1  0.3195479E+006  0.3159922E+02  0.7546771E-02  0.1406190E+00
         21   -1    0    0  502  501  0.00000000000E+00  0.00000000000E+00  0.18633786168E+02  0.18633786168E+02  0.00000000000E+00 0. -1.
         21   -1    0    0  504  502 -0.00000000000E+00 -0.00000000000E+00 -0.19097951420E+03  0.19097951420E+03  0.00000000000E+00 0. -1.
         21    1    1    2  503  501  0.31556856628E+02  0.16356404407E+01  0.27223798397E+01  0.31716271406E+02  0.00000000000E+00 0. -1.
         21    1    1    2  504  503 -0.31556856628E+02 -0.16356404407E+01 -0.17506810787E+03  0.17789702896E+03  0.00000000000E+00 0. -1.
</event>
<event>
 4    1  0.3195479E+006  0.2291619E+02  0.7546771E-02  0.1493553E+00
         21   -1    0    0  502  501  0.00000000000E+00  0.00000000000E+00  0.22711344989E+02  0.22711344989E+02  0.00000000000E+00 0.  1.
         21   -1    0    0  504  502 -0.00000000000E+00 -0.00000000000E+00 -0.27251695752E+02  0.27251695752E+02  0.00000000000E+00 0.  1.
         21    1    1    2  503  501 -0.21018753538E+02  0.91303685247E+01  0.74536024044E+01  0.24097879959E+02  0.00000000000E+00 0.  1.
         21    1    1    2  504  503  0.21018753538E+02 -0.91303685247E+01 -0.11993953168E+02  0.25865160782E+02  0.00000000000E+00 0.  1.
</event>
<event>
 4    1  0.3195479E+006  0.2055107E+02  0.7546771E-02  0.1525772E+00
         21   -1    0    0  503  501  0.00000000000E+00  0.00000000000E+00  0.18688689490E+02  0.18688689490E+02  0.00000000000E+00 0.  1.
         21   -1    0    0  504  502 -0.00000000000E+00 -0.00000000000E+00 -0.23077327166E+02  0.23077327166E+02  0.00000000000E+00 0.  1.
         21    1    1    2  503  502 -0.91192790278E+01  0.18416979472E+02 -0.52007141947E+01  0.21198910609E+02  0.00000000000E+00 0.  1.
         21    1    1    2  504  501  0.91192790278E+01 -0.18416979472E+02  0.81207651777E+00  0.20567106047E+02  0.00000000000E+00 0.  1.
</event>
<event>
 4    1  0.3195479E+006  0.3564679E+02  0.7546771E-02  0.1376072E+00
         21   -1    0    0  503  501  0.00000000000E+00  0.00000000000E+00  0.55769093943E+02  0.55769093943E+02  0.00000000000E+00 0.  1.
         21   -1    0    0  504  502 -0.00000000000E+00 -0.00000000000E+00 -0.28097342790E+02  0.28097342790E+02  0.00000000000E+00 0.  1.
         21    1    1    2  503  502 -0.35198426725E+02  0.56359942646E+01 -0.43977224601E+01  0.35917038270E+02  0.00000000000E+00 0.  1.
         21    1    1    2  504  501  0.35198426725E+02 -0.56359942646E+01  0.32069473613E+02  0.47949398464E+02  0.00000000000E+00 0.  1.
</event>
<event>
 4    1  0.3195479E+006  0.3821766E+02  0.7546771E-02  0.1359259E+00
         21   -1    0    0  504  501  0.00000000000E+00  0.00000000000E+00  0.29585382359E+03  0.29585382359E+03  0.00000000000E+00 0.  1.
         21   -1    0    0  503  502 -0.00000000000E+00 -0.00000000000E+00 -0.18837226735E+02  0.18837226735E+02  0.00000000000E+00 0.  1.
         21    1    1    2  503  501 -0.16104456522E+02 -0.34658851886E+02  0.33449289219E+01  0.38363760027E+02  0.00000000000E+00 0.  1.
         21    1    1    2  504  502  0.16104456522E+02  0.34658851886E+02  0.27367166793E+03  0.27632729030E+03  0.00000000000E+00 0.  1.
</event>
<event>
 4    1  0.3195479E+006  0.2124189E+02  0.7546771E-02  0.1515839E+00
         21   -1    0    0  503  501  0.00000000000E+00  0.00000000000E+00  0.30564215170E+03  0.30564215170E+03  0.00000000000E+00 0.  1.
         21   -1    0    0  504  502 -0.00000000000E+00 -0.00000000000E+00 -0.34815619813E+01  0.34815619813E+01  0.00000000000E+00 0.  1.
         21    1    1    2  503  502 -0.19390954435E+02  0.86722964086E+01  0.33779376453E+02  0.39903184240E+02  0.00000000000E+00 0.  1.
         21    1    1    2  504  501  0.19390954435E+02 -0.86722964086E+01  0.26838121327E+03  0.26922052944E+03  0.00000000000E+00 0.  1.
</event>
<event>
 4    1  0.3195479E+006  0.2050397E+02  0.7546771E-02  0.1526466E+00
         21   -1    0    0  503  501  0.00000000000E+00  0.00000000000E+00  0.45711691799E+02  0.45711691799E+02  0.00000000000E+00 0. -1.
         21   -1    0    0  504  502 -0.00000000000E+00 -0.00000000000E+00 -0.15864061025E+03  0.15864061025E+03  0.00000000000E+00 0.  1.
         21    1    1    2  503  502  0.20001725058E+02  0.45104119613E+01 -0.15563460513E+03  0.15697943539E+03  0.00000000000E+00 0.  1.
         21    1    1    2  504  501 -0.20001725058E+02 -0.45104119613E+01  0.42705686676E+02  0.47372866662E+02  0.00000000000E+00 0. -1.
</event>
<event>
 4    1  0.3195479E+006  0.3358868E+02  0.7546771E-02  0.1390766E+00
         21   -1    0    0  503  501  0.00000000000E+00  0.00000000000E+00  0.10974420378E+04  0.10974420378E+04  0.00000000000E+00 0.  1.
         21   -1    0    0  504  502 -0.00000000000E+00 -0.00000000000E+00 -0.10294456983E+01  0.10294456983E+01  0.00000000000E+00 0.  1.
         21    1    1    2  503  502 -0.30058302186E+02 -0.14989925052E+02  0.52781266953E+03  0.52888033949E+03  0.00000000000E+00 0.  1.
         21    1    1    2  504  501  0.30058302186E+02  0.14989925052E+02  0.56859992256E+03  0.56959114400E+03  0.00000000000E+00 0.  1.
</event>
<event>
 4    1  0.3195479E+006  0.2232372E+02  0.7546771E-02  0.1501169E+00
         21   -1    0    0  504  501  0.00000000000E+00  0.00000000000E+00  0.15843376669E+02  0.15843376669E+02  0.00000000000E+00 0. -1.
         21   -1    0    0  503  502 -0.00000000000E+00 -0.00000000000E+00 -0.35551806925E+02  0.35551806925E+02  0.00000000000E+00 0. -1.
         21    1    1    2  503  501  0.14055560428E+01  0.22279424112E+02 -0.18577927772E+02  0.29042860170E+02  0.00000000000E+00 0. -1.
         21    1    1    2  504  502 -0.14055560428E+01 -0.22279424112E+02 -0.11305024833E+01  0.22352323423E+02  0.00000000000E+00 0. -1.
</event>
<event>
 4    1  0.3195479E+006  0.3422813E+02  0.7546771E-02  0.1386072E+00
         21   -1    0    0  503  501  0.00000000000E+00  0.00000000000E+00  0.73897460029E+03  0.73897460029E+03  0.00000000000E+00 0. -1.
         21   -1    0    0  501  502 -0.00000000000E+00 -0.00000000000E+00 -0.86099261437E+01  0.86099261437E+01  0.00000000000E+00 0. -1.
         21    1    1    2  503  504 -0.31082183195E+02 -0.14333976640E+02  0.70281102009E+03  0.70364401152E+03  0.00000000000E+00 0. -1.
         21    1    1    2  504  502  0.31082183195E+02  0.14333976640E+02  0.27553654058E+02  0.43940514908E+02  0.00000000000E+00 0. -1.
</event>
<event>
 4    1  0.3195479E+006  0.2230677E+02  0.7546771E-02  0.1501392E+00
         21   -1    0    0  504  501  0.00000000000E+00  0.00000000000E+00  0.46338029036E+01  0.46338029036E+01  0.00000000000E+00 0. -1.
         21   -1    0    0  503  502 -0.00000000000E+00 -0.00000000000E+00 -0.10827527228E+03  0.10827527228E+03  0.00000000000E+00 0. -1.
         21    1    1    2  503  501 -0.21854668831E+02  0.44682505510E+01 -0.46695960377E+02  0.51750406068E+02  0.00000000000E+00 0. -1.
         21    1    1    2  504  502  0.21854668831E+02 -0.44682505510E+01 -0.56945508996E+02  0.61158669112E+02  0.00000000000E+00 0. -1.
</event>
<event>
 4    1  0.3195479E+006  0.2247556E+02  0.7546771E-02  0.1499191E+00
         21   -1    0    0  503  501  0.00000000000E+00  0.00000000000E+00  0.34424750061E+03  0.34424750061E+03  0.00000000000E+00 0.  1.
         21   -1    0    0  504  502 -0.00000000000E+00 -0.00000000000E+00 -0.28177999671E+02  0.28177999671E+02  0.00000000000E+00 0.  1.
         21    1    1    2  503  502 -0.47687459959E+00 -0.22470499047E+02 -0.23264541196E+02  0.32347946054E+02  0.00000000000E+00 0.  1.
         21    1    1    2  504  501  0.47687459959E+00  0.22470499047E+02  0.33933404213E+03  0.34007755423E+03  0.00000000000E+00 0.  1.
</event>
<event>
 4    1  0.3195479E+006  0.2028362E+02  0.7546771E-02  0.1529743E+00
         21   -1    0    0  503  501  0.00000000000E+00  0.00000000000E+00  0.22063982297E+02  0.22063982297E+02  0.00000000000E+00 0.  1.
         21   -1    0    0  504  502 -0.00000000000E+00 -0.00000000000E+00 -0.21456232064E+02  0.21456232064E+02  0.00000000000E+00 0.  1.
         21    1    1    2  503  502  0.10371496774E+02  0.17431497734E+02  0.81776897067E+01  0.21870063272E+02  0.00000000000E+00 0.  1.
         21    1    1    2  504  501 -0.10371496774E+02 -0.17431497734E+02 -0.75699394733E+01  0.21650151090E+02  0.00000000000E+00 0.  1.
</event>
<event>
 4    1  0.3195479E+006  0.2221059E+02  0.7546771E-02  0.1502656E+00
         21   -1    0    0  502  501  0.00000000000E+00  0.00000000000E+00  0.14530906017E+03  0.14530906017E+03  0.00000000000E+00 0. -1.
         21   -1    0    0  504  502 -0.00000000000E+00 -0.00000000000E+00 -0.97814713348E+02  0.97814713348E+02  0.00000000000E+00 0.  1.
         21    1    1    2  503  501  0.17484758860E+02  0.13696474758E+02  0.14318087705E+03  0.14489331857E+03  0.00000000000E+00 0. -1.
         21    1    1    2  504  503 -0.17484758860E+02 -0.13696474758E+02 -0.95686530226E+02  0.98230454951E+02  0.00000000000E+00 0.  1.
</event>
<event>
 4    1  0.3195479E+006  0.2509553E+02  0.7546771E-02  0.1467738E+00
         21   -1    0    0  503  501  0.00000000000E+00  0.00000000000E+00  0.27138997512E+02  0.27138997512E+02  0.00000000000E+00 0. -1.
         21   -1    0    0  504  502 -0.00000000000E+00 -0.00000000000E+00 -0.31557841607E+03  0.31557841607E+03  0.00000000000E+00 0. -1.
         21    1    1    2  503  502 -0.24980389155E+02  0.24011729232E+01  0.20718314148E+02  0.32542802812E+02  0.00000000000E+00 0. -1.
         21    1    1    2  504  501  0.24980389155E+02 -0.24011729232E+01 -0.30915773270E+03  0.31017461077E+03  0.00000000000E+00 0. -1.
</event>
<event>
 4    1  0.3195479E+006  0.5849993E+02  0.7546771E-02  0.1265016E+00
         21   -1    0    0  504  501  0.00000000000E+00  0.00000000000E+00  0.24285375393E+03  0.24285375393E+03  0.00000000000E+00 0. -1.
         21   -1    0    0  503  502 -0.00000000000E+00 -0.00000000000E+00 -0.14608224759E+02  0.14608224759E+02  0.00000000000E+00 0.  1.
         21    1    1    2  503  501 -0.58498509249E+02 -0.40804854651E+00  0.13832723606E+03  0.15018876897E+03  0.00000000000E+00 0. -1.
         21    1    1    2  504  502  0.58498509249E+02  0.40804854651E+00  0.89918293110E+02  0.10727320972E+03  0.00000000000E+00 0.  1.
</event>
<event>
 4    1  0.3195479E+006  0.2947490E+02  0.7546771E-02  0.1424215E+00
         21   -1    0    0  504  501  0.00000000000E+00  0.00000000000E+00  0.16551621256E+02  0.16551621256E+02  0.00000000000E+00 0. -1.
         21   -1    0    0  503  502 -0.00000000000E+00 -0.00000000000E+00 -0.70583623336E+02  0.70583623336E+02  0.00000000000E+00 0. -1.
         21    1    1    2  503  501  0.29082152704E+02 -0.47956561108E+01 -0.49566592961E+01  0.29888767034E+02  0.00000000000E+00 0. -1.
         21    1    1    2  504  502 -0.29082152704E+02  0.47956561108E+01 -0.49075342784E+02  0.57246477558E+02  0.00000000000E+00 0. -1.
</event>
<event>
 4    1  0.3195479E+006  0.2221368E+02  0.7546771E-02  0.1502615E+00
         21   -1    0    0  504  501  0.00000000000E+00  0.00000000000E+00  0.25883642356E+02  0.25883642356E+02  0.00000000000E+00 0. -1.
         21   -1    0    0  503  502 -0.00000000000E+00 -0.00000000000E+00 -0.26269282621E+02  0.26269282621E+02  0.00000000000E+00 0. -1.
         21    1    1    2  503  501  0.18730017986E+02  0.11942939900E+02  0.13463955727E+02  0.25975478648E+02  0.00000000000E+00 0. -1.
         21    1    1    2  504  502 -0.18730017986E+02 -0.11942939900E+02 -0.13849595992E+02  0.26177446329E+02  0.00000000000E+00 0. -1.
</event>
<event>
 4    1  0.3195479E+006  0.3453647E+02  0.7546771E-02  0.1383851E+00
         21   -1    0    0  503  501  0.00000000000E+00  0.00000000000E+00  0.51372474966E+02  0.51372474966E+02  0.00000000000E+00 0.  1.
         21   -1    0    0  504  502 -0.00000000000E+00 -0.00000000000E+00 -0.77492483832E+03  0.77492483832E+03  0.00000000000E+00 0. -1.
         21    1    1    2  503  502 -0.33412807758E+01 -0.34374465917E+02  0.45136095997E+02  0.56833398861E+02  0.00000000000E+00 0.  1.
         21    1    1    2  504  501  0.33412807758E+01  0.34374465917E+02 -0.76868845935E+03  0.76946391443E+03  0.00000000000E+00 0. -1.
</event>
<event>
 4    1  0.3195479E+006  0.2356292E+02  0.7546771E-02  0.1485548E+00
         21   -1    0    0  504  501  0.00000000000E+00  0.00000000000E+00  0.46721598002E+02  0.46721598002E+02  0.00000000000E+00 0. -1.
         21   -1    0    0  501  502 -0.00000000000E+00 -0.00000000000E+00 -0.47501480912E+02  0.47501480912E+02  0.00000000000E+00 0. -1.
         21    1    1    2  503  502  0.21186642530E+02  0.10312009195E+02 -0.41185134253E+02  0.47449200612E+02  0.00000000000E+00 0. -1.
         21    1    1    2  504  503 -0.21186642530E+02 -0.10312009195E+02  0.40405251343E+02  0.46773878302E+02  0.00000000000E+00 0. -1.
</event>
<event>
 4    1  0.3195479E+006  0.2299900E+02  0.7546771E-02  0.1492511E+00
         21   -1    0    0  502  501  0.00000000000E+00  0.00000000000E+00  0.11273993394E+02  0.11273993394E+02  0.00000000000E+00 0. -1.
         21   -1    0    0  504  502 -0.00000000000E+00 -0.00000000000E+00 -0.14446711297E+03  0.14446711297E+03  0.00000000000E+00 0.  1.
         21    1    1    2  503  501  0.22651092647E+02 -0.39851969073E+01 -0.26082980482E+01  0.23146425452E+02  0.00000000000E+00 0. -1.
         21    1    1    2  504  503 -0.22651092647E+02  0.39851969073E+01 -0.13058482153E+03  0.13259468091E+03  0.00000000000E+00 0.  1.
</event>
<event>
 4    1  0.3195479E+006  0.3360193E+02  0.7546771E-02  0.1390668E+00
         21   -1    0    0  504  501  0.00000000000E+00  0.00000000000E+00  0.71728842918E+02  0.71728842918E+02  0.00000000000E+00 0.  1.
         21   -1    0    0  501  502 -0.00000000000E+00 -0.00000000000E+00 -0.14457231831E+03  0.14457231831E+03  0.00000000000E+00 0. -1.
         21    1    1    2  503  502 -0.24040089890E+02 -0.23476870747E+02 -0.13851495144E+03  0.14253238633E+03  0.00000000000E+00 0. -1.
         21    1    1    2  504  503  0.24040089890E+02  0.23476870747E+02  0.65671476051E+02  0.73768774890E+02  0.00000000000E+00 0.  1.
</event>
<event>
 4    1  0.3195479E+006  0.2592020E+02  0.7546771E-02  0.1458767E+00
         21   -1    0    0  504  501  0.00000000000E+00  0.00000000000E+00  0.94702434189E+02  0.94702434189E+02  0.00000000000E+00 0.  1.
         21   -1    0    0  503  502 -0.00000000000E+00 -0.00000000000E+00 -0.55313950096E+02  0.55313950096E+02  0.00000000000E+00 0.  1.
         21    1    1    2  503  501 -0.11420473403E+02  0.23268640056E+02  0.89727276520E+02  0.93396150747E+02  0.00000000000E+00 0.  1.
         21    1    1    2  504  502  0.11420473403E+02 -0.23268640056E+02 -0.50338792427E+02  0.56620233537E+02  0.00000000000E+00 0.  1.
</event>
<event>
 4    1  0.3195479E+006  0.3742396E+02  0.7546771E-02  0.1364280E+00
         21   -1    0    0  503  501  0.00000000000E+00  0.00000000000E+00  0.98451379355E+02  0.98451379355E+02  0.00000000000E+00 0. -1.
         21   -1    0    0  504  502 -0.00000000000E+00 -0.00000000000E+00 -0.61943998181E+02  0.61943998181E+02  0.00000000000E+00 0. -1.
         21    1    1    2  503  502  0.24852906185E+02  0.27980099747E+02 -0.52135196984E+02  0.64176566535E+02  0.00000000000E+00 0. -1.
         21    1    1    2  504  501 -0.24852906185E+02 -0.27980099747E+02  0.88642578158E+02  0.96218811000E+02  0.00000000000E+00 0. -1.
</event>
<event>
 4    1  0.3195479E+006  0.4464640E+02  0.7546771E-02  0.1323217E+00
         21   -1    0    0  503  501  0.00000000000E+00  0.00000000000E+00  0.80222678791E+02  0.80222678791E+02  0.00000000000E+00 0. -1.
         21   -1    0    0  504  502 -0.00000000000E+00 -0.00000000000E+00 -0.43415795801E+02  0.43415795801E+02  0.00000000000E+00 0. -1.
         21    1    1    2  503  502  0.21963181480E+02 -0.38870550767E+02  0.58832203304E+02  0.73854784566E+02  0.00000000000E+00 0. -1.
         21    1    1    2  504  501 -0.21963181480E+02  0.38870550767E+02 -0.22025320314E+02  0.49783690026E+02  0.00000000000E+00 0. -1.
</event>
<event>
 4    1  0.3195479E+006  0.2344941E+02  0.7546771E-02  0.1486931E+00
         21   -1    0    0  502  501  0.00000000000E+00  0.00000000000E+00  0.21520705429E+02  0.21520705429E+02  0.00000000000E+00 0. -1.
         21   -1    0    0  503  502 -0.00000000000E+00 -0.00000000000E+00 -0.98945721799E+02  0.98945721799E+02  0.00000000000E+00 0. -1.
         21    1    1    2  503  504 -0.18017023868E+02 -0.15008724511E+02 -0.90588930696E+02  0.93574725889E+02  0.00000000000E+00 0. -1.
         21    1    1    2  504  501  0.18017023868E+02  0.15008724511E+02  0.13163914326E+02  0.26891701339E+02  0.00000000000E+00 0. -1.
</event>
<event>
 4    1  0.3195479E+006  0.3890541E+02  0.7546771E-02  0.1355022E+00
         21   -1    0    0  504  501  0.00000000000E+00  0.00000000000E+00  0.53868028785E+01  0.53868028785E+01  0.00000000000E+00 0. -1.
         21   -1    0    0  503  502 -0.00000000000E+00 -0.00000000000E+00 -0.32206349995E+03  0.32206349995E+03  0.00000000000E+00 0.  1.
         21    1    1    2  503  501  0.10551401368E+01 -0.38891096628E+02 -0.99868442613E+02  0.10717899303E+03  0.00000000000E+00 0. -1.
         21    1    1    2  504  502 -0.10551401368E+01  0.38891096628E+02 -0.21680825446E+03  0.22027130980E+03  0.00000000000E+00 0.  1.
</event>
<event>
 4    1  0.3195479E+006  0.2043210E+02  0.7546771E-02  0.1527530E+00
         21   -1    0    0  504  501  0.00000000000E+00  0.00000000000E+00  0.12048244123E+03  0.12048244123E+03  0.00000000000E+00 0. -1.
         21   -1    0    0  503  502 -0.00000000000E+00 -0.00000000000E+00 -0.15058765333E+02  0.15058765333E+02  0.00000000000E+00 0. -1.
         21    1    1    2  503  501  0.19607463653E+02  0.57461475933E+01 -0.67528369034E+01  0.21519099640E+02  0.00000000000E+00 0. -1.
         21    1    1    2  504  502 -0.19607463653E+02 -0.57461475933E+01  0.11217651280E+03  0.11402210693E+03  0.00000000000E+00 0. -1.
</event>
<event>
 4    1  0.3195479E+006  0.3092987E+02  0.7546771E-02  0.1411684E+00
         21   -1    0    0  503  501  0.00000000000E+00  0.00000000000E+00  0.51533143433E+02  0.51533143433E+02  0.00000000000E+00 0. -1.
         21   -1    0    0  504  502 -0.00000000000E+00 -0.00000000000E+00 -0.19992199643E+02  0.19992199643E+02  0.00000000000E+00 0. -1.
         21    1    1    2  503  502 -0.23587119394E+02 -0.20007609263E+02  0.62115738821E+01  0.31547429052E+02  0.00000000000E+00 0. -1.
         21    1    1    2  504  501  0.23587119394E+02  0.20007609263E+02  0.25329369908E+02  0.39977914023E+02  0.00000000000E+00 0. -1.
</event>
<event>
 4    1  0.3195479E+006  0.2424169E+02  0.7546771E-02  0.1477468E+00
         21   -1    0    0  503  501  0.00000000000E+00  0.00000000000E+00  0.44218838407E+02  0.44218838407E+02  0.00000000000E+00 0.  1.
         21   -1    0    0  501  502 -0.00000000000E+00 -0.00000000000E+00 -0.20902544832E+02  0.20902544832E+02  0.00000000000E+00 0.  1.
         21    1    1    2  503  504 -0.19786016302E+02 -0.14006174554E+02  0.31308247198E+02  0.39596284034E+02  0.00000000000E+00 0.  1.
         21    1    1    2  504  502  0.19786016302E+02  0.14006174554E+02 -0.79919536221E+01  0.25525099205E+02  0.00000000000E+00 0.  1.
</event>
<event>
 4    1  0.3195479E+006  0.2023246E+02  0.7546771E-02  0.1530511E+00
         21   -1    0    0  504  501  0.00000000000E+00  0.00000000000E+00  0.65159616314E+01  0.65159616314E+01  0.00000000000E+00 0.  1.
         21   -1    0    0  503  502 -0.00000000000E+00 -0.00000000000E+00 -0.12276541822E+03  0.12276541822E+03  0.00000000000E+00 0. -1.
         21    1    1    2  503  501 -0.19764709460E+02 -0.43253512909E+01 -0.12956297003E+02  0.24025362346E+02  0.00000000000E+00 0.  1.
         21    1    1    2  504  502  0.19764709460E+02  0.43253512909E+01 -0.10329315959E+03  0.10525601751E+03  0.00000000000E+00 0. -1.
</event>
<event>
 4    1  0.3195479E+006  0.2058921E+02  0.7546771E-02  0.1525211E+00
         21   -1    0    0  502  501  0.00000000000E+00  0.00000000000E+00  0.39326336016E+02  0.39326336016E+02  0.00000000000E+00 0. -1.
         21   -1    0    0  504  502 -0.00000000000E+00 -0.00000000000E+00 -0.54241792900E+02  0.54241792900E+02  0.00000000000E+00 0.  1.
         21    1    1    2  503  501 -0.14374278407E+02  0.14740956641E+02  0.34420429756E+02  0.40108374026E+02  0.00000000000E+00 0. -1.
         21    1    1    2  504  503  0.14374278407E+02 -0.14740956641E+02 -0.49335886640E+02  0.53459754890E+02  0.00000000000E+00 0.  1.
</event>
<event>
 4    1  0.3195479E+006  0.2023688E+02  0.7546771E-02  0.1530445E+00
         21   -1    0    0  503  501  0.00000000000E+00  0.00000000000E+00  0.40310153089E+01  0.40310153089E+01  0.00000000000E+00 0.  1.
         21   -1    0    0  504  502 -0.00000000000E+00 -0.00000000000E+00 -0.19191687171E+03  0.19191687171E+03  0.00000000000E+00 0. -1.
         21    1    1    2  503  502  0.57580865608E+01  0.19400410661E+02 -0.16115544849E+03  0.16242108876E+03  0.00000000000E+00 0. -1.
         21    1    1    2  504  501 -0.57580865608E+01 -0.19400410661E+02 -0.26730407912E+02  0.33526798264E+02  0.00000000000E+00 0.  1.
</event>
<event>
 4    1  0.3195479E+006  0.2309178E+02  0.7546771E-02  0.1491349E+00
         21   -1    0    0  502  501  0.00000000000E+00  0.00000000000E+00  0.19231409966E+03  0.19231409966E+03  0.00000000000E+00 0.  1.
         21   -1    0    0  503  502 -0.00000000000E+00 -0.00000000000E+00 -0.52026806688E+02  0.52026806688E+02  0.00000000000E+00 0. -1.
         21    1    1    2  503  504 -0.18490362942E+02  0.13832450813E+02 -0.48726774841E+02  0.53921505948E+02  0.00000000000E+00 0. -1.
         21    1    1    2  504  501  0.18490362942E+02 -0.13832450813E+02  0.18901406781E+03  0.19041940040E+03  0.00000000000E+00 0.  1.
</event>
<event>
 4    1  0.3195479E+006  0.3075819E+02  0.7546771E-02  0.1413120E+00
         21   -1    0    0  504  501  0.00000000000E+00  0.00000000000E+00  0.18428819822E+02  0.18428819822E+02  0.00000000000E+00 0.  1.
         21   -1    0    0  501  502 -0.00000000000E+00 -0.00000000000E+00 -0.58624192413E+03  0.58624192413E+03  0.00000000000E+00 0. -1.
         21    1    1    2  503  502 -0.27437639214E+02 -0.13901149646E+02 -0.57270119816E+03  0.57352657165E+03  0.00000000000E+00 0. -1.
         21    1    1    2  504  503  0.27437639214E+02  0.13901149646E+02  0.48880938542E+01  0.31144172307E+02  0.00000000000E+00 0.  1.
</event>
<event>
 4    1  0.3195479E+006  0.3615378E+02  0.7546771E-02  0.1372628E+00
         21   -1    0    0  504  501  0.00000000000E+00  0.00000000000E+00  0.10151784635E+04  0.10151784635E+04  0.00000000000E+00 0.  1.
         21   -1    0    0  503  502 -0.00000000000E+00 -0.00000000000E+00 -0.10825271083E+02  0.10825271083E+02  0.00000000000E+00 0. -1.
         21    1    1    2  503  501 -0.35783783741E+02  0.51591396117E+01  0.20648313944E+02  0.41634706304E+02  0.00000000000E+00 0. -1.
         21    1    1    2  504  502  0.35783783741E+02 -0.51591396117E+01  0.98370487847E+03  0.98436902828E+03  0.00000000000E+00 0.  1.
</event>
<event>
 4    1  0.3195479E+006  0.2381241E+02  0.7546771E-02  0.1482541E+00
         21   -1    0    0  504  501  0.00000000000E+00  0.00000000000E+00  0.18691580051E+02  0.18691580051E+02  0.00000000000E+00 0.  1.
         21   -1    0    0  503  502 -0.00000000000E+00 -0.00000000000E+00 -0.30338921959E+02  0.30338921959E+02  0.00000000000E+00 0.  1.
         21    1    1    2  503  501  0.23792001847E+02  0.98562377536E+00 -0.55898605486E+01  0.24459708646E+02  0.00000000000E+00 0.  1.
         21    1    1    2  504  502 -0.23792001847E+02 -0.98562377536E+00 -0.60574813594E+01  0.24570793364E+02  0.00000000000E+00 0.  1.
</event>
<event>
 4    1  0.3195479E+006  0.2341871E+02  0.7546771E-02  0.1487306E+00
         21   -1    0    0  504  501  0.00000000000E+00  0.00000000000E+00  0.28311805563E+02  0.28311805563E+02  0.00000000000E+00 0. -1.
         21   -1    0    0  503  502 -0.00000000000E+00 -0.00000000000E+00 -0.92994488493E+02  0.92994488493E+02  0.00000000000E+00 0.  1.
         21    1    1    2  503  501  0.23384868706E+02  0.12584630095E+01  0.21626135499E+02  0.31876724270E+02  0.00000000000E+00 0. -1.
         21    1    1    2  504  502 -0.23384868706E+02 -0.12584630095E+01 -0.86308818429E+02  0.89429569787E+02  0.00000000000E+00 0.  1.
</event>
<event>
 4    1  0.3195479E+006  0.3086235E+02  0.7546771E-02  0.1412247E+00
         21   -1    0    0  503  501  0.00000000000E+00  0.00000000000E+00  0.54509723401E+02  0.54509723401E+02  0.00000000000E+00 0. -1.
         21   -1    0    0  504  502 -0.00000000000E+00 -0.00000000000E+00 -0.66160929860E+02  0.66160929860E+02  0.00000000000E+00 0. -1.
         21    1    1    2  503  502 -0.35873338100E+01  0.30653154770E+02 -0.57583728709E+02  0.65332768756E+02  0.00000000000E+00 0. -1.
         21    1    1    2  504  501  0.35873338100E+01 -0.30653154770E+02  0.45932522251E+02  0.55337884506E+02  0.00000000000E+00 0. -1.
</event>
<event>
 4    1  0.3195479E+006  0.2024988E+02  0.7546771E-02  0.1530250E+00
         21   -1    0    0  504  501  0.00000000000E+00  0.00000000000E+00  0.45980284390E+03  0.45980284390E+03  0.00000000000E+00 0. -1.
         21   -1    0    0  501  502 -0.00000000000E+00 -0.00000000000E+00 -0.18739469453E+01  0.18739469453E+01  0.00000000000E+00 0. -1.
         21    1    1    2  503  502 -0.19985445236E+02  0.32618409234E+01  0.61849609377E+02  0.65080195203E+02  0.00000000000E+00 0. -1.
         21    1    1    2  504  503  0.19985445236E+02 -0.32618409234E+01  0.39607928758E+03  0.39659659564E+03  0.00000000000E+00 0. -1.
</event>
<event>
 4    1  0.3195479E+006  0.3173959E+02  0.7546771E-02  0.1405059E+00
         21   -1    0    0  502  501  0.00000000000E+00  0.00000000000E+00  0.20942030132E+03  0.20942030132E+03  0.00000000000E+00 0.  1.
         21   -1    0    0  504  502 -0.00000000000E+00 -0.00000000000E+00 -0.15301206116E+02  0.15301206116E+02  0.00000000000E+00 0. -1.
         21    1    1    2  503  501  0.55027213587E+01 -0.31258942789E+02  0.19009653637E+03  0.19272803269E+03  0.00000000000E+00 0.  1.
         21    1    1    2  504  503 -0.55027213587E+01  0.31258942789E+02  0.40225588376E+01  0.31993474744E+02  0.00000000000E+00 0. -1.
</event>
<event>
 4    1  0.3195479E+006  0.2569778E+02  0.7546771E-02  0.1461147E+00
         21   -1    0    0  502  501  0.00000000000E+00  0.00000000000E+00  0.22202110897E+02  0.22202110897E+02  0.00000000000E+00 0.  1.
         21   -1    0    0  504  502 -0.00000000000E+00 -0.00000000000E+00 -0.20432636830E+03  0.20432636830E+03  0.00000000000E+00 0. -1.
         21    1    1    2  503  501 -0.22993871159E+02 -0.11474218805E+02  0.13634092679E+02  0.29090622050E+02  0.00000000000E+00 0.  1.
         21    1    1    2  504  503  0.22993871159E+02  0.11474218805E+02 -0.19575835008E+03  0.19743785714E+03  0.00000000000E+00 0. -1.
</event>
<event>
 4    1  0.3195479E+006  0.2887655E+02  0.7546771E-02  0.1429617E+00
         21   -1    0    0  502  501  0.00000000000E+00  0.00000000000E+00  0.14596867021E+03  0.14596867021E+03  0.00000000000E+00 0.  1.
         21   -1    0    0  504  502 -0.00000000000E+00 -0.00000000000E+00 -0.23442005869E+02  0.23442005869E+02  0.00000000000E+00 0. -1.
         21    1    1    2  503  501 -0.19179029082E+02  0.21587502299E+02  0.13492828640E+03  0.13798368701E+03  0.00000000000E+00 0.  1.
         21    1    1    2  504  503  0.19179029082E+02 -0.21587502299E+02 -0.12401622056E+02  0.31426989064E+02  0.00000000000E+00 0. -1.
</event>
<event>
 4    1  0.3195479E+006  0.3709404E+02  0.7546771E-02  0.1366411E+00
         21   -1    0    0  504  501  0.00000000000E+00  0.00000000000E+00  0.29059164817E+02  0.29059164817E+02  0.00000000000E+00 0.  1.
         21   -1    0    0  503  502 -0.00000000000E+00 -0.00000000000E+00 -0.19631049362E+03  0.19631049362E+03  0.00000000000E+00 0.  1.
         21    1    1    2  503  501 -0.37089759132E+02 -0.56383649995E+00  0.14532947317E+02  0.39839361212E+02  0.00000000000E+00 0.  1.
         21    1    1    2  504  502  0.37089759132E+02  0.56383649995E+00 -0.18178427612E+03  0.18553029722E+03  0.00000000000E+00 0.  1.
</event>
<event>
 4    1  0.3195479E+006  0.2607759E+02  0.7546771E-02  0.1457101E+00
         21   -1    0    0  503  501  0.00000000000E+00  0.00000000000E+00  0.96598301049E+01  0.96598301049E+01  0.00000000000E+00 0.  1.
         21   -1    0    0  504  502 -0.00000000000E+00 -0.00000000000E+00 -0.70446544928E+02  0.70446544928E+02  0.00000000000E+00 0.  1.
         21    1    1    2  503  502  0.98160548446E+01 -0.24159592849E+02 -0.31435619448E+02  0.40844081939E+02  0.00000000000E+00 0.  1.
         21    1    1    2  504  501 -0.98160548446E+01  0.24159592849E+02 -0.29351095375E+02  0.39262293095E+02  0.00000000000E+00 0.  1.
</event>
<event>
 4    1  0.3195479E+006  0.2247701E+02  0.7546771E-02  0.1499172E+00
         21   -1    0    0  502  501  0.00000000000E+00  0.00000000000E+00  0.26544730374E+01  0.26544730374E+01  0.00000000000E+00 0. -1.
         21   -1    0    0  503  502 -0.00000000000E+00 -0.00000000000E+00 -0.24279257389E+03  0.24279257389E+03  0.00000000000E+00 0. -1.
         21    1    1    2  503  504  0.12938575735E+02  0.18379591746E+02 -0.17711831711E+03  0.17853883160E+03  0.00000000000E+00 0. -1.
         21    1    1    2  504  501 -0.12938575735E+02 -0.18379591746E+02 -0.63019783749E+02  0.66908215329E+02  0.00000000000E+00 0. -1.
</event>
<event>
 4    1  0.3195479E+006  0.2075398E+02  0.7546771E-02  0.1522807E+00
         21   -1    0    0  504  501  0.00000000000E+00  0.00000000000E+00  0.19207310514E+01  0.19207310514E+01  0.00000000000E+00 0.  1.
         21   -1    0    0  503  502 -0.00000000000E+00 -0.00000000000E+00 -0.48087786805E+03  0.48087786805E+03  0.00000000000E+00 0. -1.
         21    1    1    2  503  501  0.19090318940E+02 -0.81416959681E+01 -0.63131211945E+02  0.66455078152E+02  0.00000000000E+00 0.  1.
         21    1    1    2  504  502 -0.19090318940E+02  0.81416959681E+01 -0.41582592506E+03  0.41634352095E+03  0.00000000000E+00 0. -1.
</event>
<event>
 4    1  0.3195479E+006  0.2525647E+02  0.7546771E-02  0.1465955E+00
         21   -1    0    0  504  501  0.00000000000E+00  0.00000000000E+00  0.86245338991E+01  0.86245338991E+01  0.00000000000E+00 0.  1.
         21   -1    0    0  503  502 -0.00000000000E+00 -0.00000000000E+00 -0.14310810579E+03  0.14310810579E+03  0.00000000000E+00 0. -1.
         21    1    1    2  503  501 -0.24646269132E+02 -0.55182118644E+01 -0.11997694128E+03  0.12260650751E+03  0.00000000000E+00 0. -1.
         21    1    1    2  504  502  0.24646269132E+02  0.55182118644E+01 -0.14506630615E+02  0.29126132186E+02  0.00000000000E+00 0.  1.
</event>
<event>
 4    1  0.3195479E+006  0.2585735E+02  0.7546771E-02  0.1459437E+00
         21   -1    0    0  504  501  0.00000000000E+00  0.00000000000E+00  0.26606638220E+01  0.26606638220E+01  0.00000000000E+00 0.  1.
         21   -1    0    0  503  502 -0.00000000000E+00 -0.00000000000E+00 -0.25498700285E+03  0.25498700285E+03  0.00000000000E+00 0. -1.
         21    1    1    2  503  501  0.12772603128E+02  0.22482508691E+02 -0.14167151499E+03  0.14401187711E+03  0.00000000000E+00 0.  1.
         21    1    1    2  504  502 -0.12772603128E+02 -0.22482508691E+02 -0.11065482404E+03  0.11363578957E+03  0.00000000000E+00 0. -1.
</event>
<event>
 4    1  0.3195479E+006  0.2079337E+02  0.7546771E-02  0.1522236E+00
         21   -1    0    0  504  501  0.00000000000E+00  0.00000000000E+00  0.51592330705E+02  0.51592330705E+02  0.00000000000E+00 0. -1.
         21   -1    0    0  503  502 -0.00000000000E+00 -0.00000000000E+00 -0.85806692223E+01  0.85806692223E+01  0.00000000000E+00 0. -1.
         21    1    1    2  503  501 -0.81610006208E+01 -0.19124913425E+02  0.26102262227E+02  0.33372029276E+02  0.00000000000E+00 0. -1.
         21    1    1    2  504  502  0.81610006208E+01  0.19124913425E+02  0.16909399256E+02  0.26800970651E+02  0.00000000000E+00 0. -1.
</event>
<event>
 4    1  0.3195479E+006  0.2591611E+02  0.7546771E-02  0.1458811E+00
         21   -1    0    0  503  501  0.00000000000E+00  0.00000000000E+00  0.78683458361E+02  0.78683458361E+02  0.00000000000E+00 0.  1.
         21   -1    0    0  504  502 -0.00000000000E+00 -0.00000000000E+00 -0.61858030819E+02  0.61858030819E+02  0.00000000000E+00 0.  1.
         21    1    1    2  503  502 -0.50439241525E+01 -0.25420536875E+02  0.73655079814E+02  0.78081468021E+02  0.00000000000E+00 0.  1.
         21    1    1    2  504  501  0.50439241525E+01  0.25420536875E+02 -0.56829652272E+02  0.62460021159E+02  0.00000000000E+00 0.  1.
</event>
<event>
 4    1  0.3195479E+006  0.2598819E+02  0.7546771E-02  0.1458045E+00
         21   -1    0    0  503  501  0.00000000000E+00  0.00000000000E+00  0.12793306186E+02  0.12793306186E+02  0.00000000000E+00 0.  1.
         21   -1    0    0  501  502 -0.00000000000E+00 -0.00000000000E+00 -0.45439176970E+03  0.45439176970E+03  0.00000000000E+00 0. -1.
         21    1    1    2  503  504 -0.13032968374E+01  0.25955488696E+02 -0.11951589621E+01  0.26015656460E+02  0.00000000000E+00 0.  1.
         21    1    1    2  504  502  0.13032968374E+01 -0.25955488696E+02 -0.44040330455E+03  0.44116941943E+03  0.00000000000E+00 0. -1.
</event>
<event>
 4    1  0.3195479E+006  0.2234303E+02  0.7546771E-02  0.1500917E+00
         21   -1    0    0  503  501  0.00000000000E+00  0.00000000000E+00  0.12672908184E+04  0.12672908184E+04  0.00000000000E+00 0. -1.
         21   -1    0    0  504  502 -0.00000000000E+00 -0.00000000000E+00 -0.53629467925E+00  0.53629467925E+00  0.00000000000E+00 0.  1.
         21    1    1    2  503  502 -0.91172844555E+01 -0.20398192924E+02  0.30675578860E+03  0.30756840701E+03  0.00000000000E+00 0.  1.
         21    1    1    2  504  501  0.91172844555E+01  0.20398192924E+02  0.95999873511E+03  0.96025870606E+03  0.00000000000E+00 0. -1.
</event>
<event>
 4    1  0.3195479E+006  0.2089914E+02  0.7546771E-02  0.1520710E+00
         21   -1    0    0  504  501  0.00000000000E+00  0.00000000000E+00  0.49531965258E+01  0.49531965258E+01  0.00000000000E+00 0.  1.
         21   -1    0    0  503  502 -0.00000000000E+00 -0.00000000000E+00 -0.88564576796E+02  0.88564576796E+02  0.00000000000E+00 0.  1.
         21    1    1    2  503  501 -0.16112532888E+02 -0.13310152694E+02 -0.38725266989E+02  0.44004774561E+02  0.00000000000E+00 0.  1.
         21    1    1    2  504  502  0.16112532888E+02  0.13310152694E+02 -0.44886113282E+02  0.49512998761E+02  0.00000000000E+00 0.  1.
</event>
<event>
 4    1  0.3195479E+006  0.2205448E+02  0.7546771E-02  0.1504725E+00
         21   -1    0    0  503  501  0.00000000000E+00  0.00000000000E+00  0.60056344562E+03  0.60056344562E+03  0.00000000000E+00 0. -1.
         21   -1    0    0  504  502 -0.00000000000E+00 -0.00000000000E+00 -0.11266570754E+02  0.11266570754E+02  0.00000000000E+00 0.  1.
         21    1    1    2  503  502  0.17846133371E+02 -0.12958222301E+02 -0.66059937811E-01  0.22054576972E+02  0.00000000000E+00 0.  1.
         21    1    1    2  504  501 -0.17846133371E+02  0.12958222301E+02  0.58936293480E+03  0.58977543940E+03  0.00000000000E+00 0. -1.
</event>
<event>
 4    1  0.3195479E+006  0.2199737E+02  0.7546771E-02  0.1505487E+00
         21   -1    0    0  503  501  0.00000000000E+00  0.00000000000E+00  0.23576553980E+03  0.23576553980E+03  0.00000000000E+00 0. -1.
         21   -1    0    0  504  502 -0.00000000000E+00 -0.00000000000E+00 -0.49681871457E+01  0.49681871457E+01  0.00000000000E+00 0.  1.
         21    1    1    2  503  502 -0.21668142744E+02  0.37915820721E+01  0.20761039075E+03  0.20877250502E+03  0.00000000000E+00 0. -1.
         21    1    1    2  504  501  0.21668142744E+02 -0.37915820721E+01  0.23186961898E+02  0.31961221920E+02  0.00000000000E+00 0.  1.
</event>
<event>
 4    1  0.3195479E+006  0.2064934E+02  0.7546771E-02  0.1524331E+00
         21   -1    0    0  503  501  0.00000000000E+00  0.00000000000E+00  0.79432051553E+03  0.79432051553E+03  0.00000000000E+00 0. -1.
         21   -1    0    0  504  502 -0.00000000000E+00 -0.00000000000E+00 -0.54931708369E+00  0.54931708369E+00  0.00000000000E+00 0. -1.
         21    1    1    2  503  502 -0.51555543978E-01 -0.20649274091E+02  0.45686750897E+03  0.45733392169E+03  0.00000000000E+00 0. -1.
         21    1    1    2  504  501  0.51555543978E-01  0.20649274091E+02  0.33690368948E+03  0.33753591092E+03  0.00000000000E+00 0. -1.
</event>
<event>
 4    1  0.3195479E+006  0.2634224E+02  0.7546771E-02  0.1454330E+00
         21   -1    0    0  504  501  0.00000000000E+00  0.00000000000E+00  0.80262857928E+01  0.80262857928E+01  0.00000000000E+00 0.  1.
         21   -1    0    0  503  502 -0.00000000000E+00 -0.00000000000E+00 -0.87018622137E+02  0.87018622137E+02  0.00000000000E+00 0.  1.
         21    1    1    2  503  501  0.52158826485E+01  0.25820690028E+02 -0.35671953431E+02  0.44344128438E+02  0.00000000000E+00 0.  1.
         21    1    1    2  504  502 -0.52158826485E+01 -0.25820690028E+02 -0.43320382913E+02  0.50700779492E+02  0.00000000000E+00 0.  1.
</event>
<event>
 4    1  0.3195479E+006  0.3017884E+02  0.7546771E-02  0.1418049E+00
         21   -1    0    0  504  501  0.00000000000E+00  0.00000000000E+00  0.13662020376E+01  0.13662020376E+01  0.00000000000E+00 0.  1.
         21   -1    0    0  503  502 -0.00000000000E+00 -0.00000000000E+00 -0.85116317302E+03  0.85116317302E+03  0.00000000000E+00 0.  1.
         21    1    1    2  503  501  0.12225148601E+02 -0.27591812831E+02 -0.62337109629E+03  0.62410118257E+03  0.00000000000E+00 0.  1.
         21    1    1    2  504  502 -0.12225148601E+02  0.27591812831E+02 -0.22642587469E+03  0.22842819249E+03  0.00000000000E+00 0.  1.
</event>
<event>
 4    1  0.3195479E+006  0.2498208E+02  0.7546771E-02  0.1469004E+00
         21   -1    0    0  504  501  0.00000000000E+00  0.00000000000E+00  0.92377934074E+01  0.92377934074E+01  0.00000000000E+00 0.  1.
         21   -1    0    0  503  502 -0.00000000000E+00 -0.00000000000E+00 -0.88341676483E+02  0.88341676483E+02  0.00000000000E+00 0. -1.
         21    1    1    2  503  501 -0.17311502066E+02  0.18011558099E+02 -0.15888001607E+02  0.29606298722E+02  0.00000000000E+00 0.  1.
         21    1    1    2  504  502  0.17311502066E+02 -0.18011558099E+02 -0.63215881468E+02  0.67973171169E+02  0.00000000000E+00 0. -1.
</event>
<event>
 4    1  0.3195479E+006  0.2407415E+02  0.7546771E-02  0.1479433E+00
         21   -1    0    0  503  501  0.00000000000E+00  0.00000000000E+00  0.18362285890E+02  0.18362285890E+02  0.00000000000E+00 0.  1.
         21   -1    0    0  504  502 -0.00000000000E+00 -0.00000000000E+00 -0.10207016530E+03  0.10207016530E+03  0.00000000000E+00 0.  1.
         21    1    1    2  503  502  0.48717032495E+01  0.23576068681E+02  0.81934548521E+01  0.25430242025E+02  0.00000000000E+00 0.  1.
         21    1    1    2  504  501 -0.48717032495E+01 -0.23576068681E+02 -0.91901334262E+02  0.95002209164E+02  0.00000000000E+00 0.  1.
</event>
<event>
 4    1  0.3195479E+006  0.2016993E+02  0.7546771E-02  0.1531454E+00
         21   -1    0    0  502  501  0.00000000000E+00  0.00000000000E+00  0.16477927128E+02  0.16477927128E+02  0.00000000000E+00 0. -1.
         21   -1    0    0  503  502 -0.00000000000E+00 -0.00000000000E+00 -0.48261796000E+02  0.48261796000E+02  0.00000000000E+00 0.  1.
         21    1    1    2  503  504 -0.19989124501E+02  0.26945830358E+01 -0.38514577682E+02  0.43476413952E+02  0.00000000000E+00 0.  1.
         21    1    1    2  504  501  0.19989124501E+02 -0.26945830358E+01  0.67307088098E+01  0.21263309176E+02  0.00000000000E+00 0. -1.
</event>
<event>
 4    1  0.3195479E+006  0.2116189E+02  0.7546771E-02  0.1516966E+00
         21   -1    0    0  504  501  0.00000000000E+00  0.00000000000E+00  0.43919211780E+01  0.43919211780E+01  0.00000000000E+00 0. -1.
         21   -1    0    0  503  502 -0.00000000000E+00 -0.00000000000E+00 -0.11968291883E+03  0.11968291883E+03  0.00000000000E+00 0. -1.
         21    1    1    2  503  501  0.12052899052E+01 -0.21127537430E+02 -0.81514526868E+02  0.84216647120E+02  0.00000000000E+00 0. -1.
         21    1    1    2  504  502 -0.12052899052E+01  0.21127537430E+02 -0.33776470780E+02  0.39858192884E+02  0.00000000000E+00 0. -1.
</event>
<event>
 4    1  0.3195479E+006  0.2887830E+02  0.7546771E-02  0.1429601E+00
         21   -1    0    0  504  501  0.00000000000E+00  0.00000000000E+00  0.98330613354E+02  0.98330613354E+02  0.00000000000E+00 0. -1.
         21   -1    0    0  503  502 -0.00000000000E+00 -0.00000000000E+00 -0.85037035662E+01  0.85037035662E+01  0.00000000000E+00 0. -1.
         21    1    1    2  503  501  0.26765127436E+02 -0.10843635211E+02  0.47664545648E+02  0.55730291432E+02  0.00000000000E+00 0. -1.
         21    1    1    2  504  502 -0.26765127436E+02  0.10843635211E+02  0.42162364139E+02  0.51104025488E+02  0.00000000000E+00 0. -1.
</event>
<event>
 4    1  0.3195479E+006  0.3710570E+02  0.7546771E-02  0.1366335E+00
         21   -1    0    0  502  501  0.00000000000E+00  0.00000000000E+00  0.26305798859E+03  0.26305798859E+03  0.00000000000E+00 0.  1.
         21   -1    0    0  503  502 -0.00000000000E+00 -0.00000000000E+00 -0.20059458546E+02  0.20059458546E+02  0.00000000000E+00 0.  1.
         21    1    1    2  503  504 -0.31819854186E+02 -0.19087417336E+02 -0.19828074780E+00  0.37106225034E+02  0.00000000000E+00 0.  1.
         21    1    1    2  504  501  0.31819854186E+02  0.19087417336E+02  0.24319681080E+03  0.24601122211E+03  0.00000000000E+00 0.  1.
</event>
<event>
 4    1  0.3195479E+006  0.3566740E+02  0.7546771E-02  0.1375931E+00
         21   -1    0    0  503  501  0.00000000000E+00  0.00000000000E+00  0.23663526982E+01  0.23663526982E+01  0.00000000000E+00 0.  1.
         21   -1    0    0  504  502 -0.00000000000E+00 -0.00000000000E+00 -0.18266547488E+04  0.18266547488E+04  0.00000000000E+00 0. -1.
         21    1    1    2  503  502  0.73803123376E+01 -0.34895476236E+02 -0.14390704202E+03  0.14826125594E+03  0.00000000000E+00 0.  1.
         21    1    1    2  504  501 -0.73803123376E+01  0.34895476236E+02 -0.16803813541E+04  0.16807598455E+04  0.00000000000E+00 0. -1.
</event>
<event>
 4    1  0.3195479E+006  0.2846815E+02  0.7546771E-02  0.1433393E+00
         21   -1    0    0  502  501  0.00000000000E+00  0.00000000000E+00  0.10377912164E+02  0.10377912164E+02  0.00000000000E+00 0.  1.
         21   -1    0    0  504  502 -0.00000000000E+00 -0.00000000000E+00 -0.23715733005E+03  0.23715733005E+03  0.00000000000E+00 0.  1.
         21    1    1    2  503  501 -0.19846757949E+02  0.20409352347E+02 -0.12027500033E+02  0.30904631067E+02  0.00000000000E+00 0.  1.
         21    1    1    2  504  503  0.19846757949E+02 -0.20409352347E+02 -0.21475191785E+03  0.21663061115E+03  0.00000000000E+00 0.  1.
</event>
<event>
 4    1  0.3195479E+006  0.2124638E+02  0.7546771E-02  0.1515776E+00
         21   -1    0    0  504  501  0.00000000000E+00  0.00000000000E+00  0.14974927950E+01  0.14974927950E+01  0.00000000000E+00 0.  1.
         21   -1    0    0  503  502 -0.00000000000E+00 -0.00000000000E+00 -0.48258229431E+03  0.48258229431E+03  0.00000000000E+00 0.  1.
         21    1    1    2  503  501  0.21242455885E+02 -0.40848421651E+00 -0.92253877441E+02  0.94668826412E+02  0.00000000000E+00 0.  1.
         21    1    1    2  504  502 -0.21242455885E+02  0.40848421651E+00 -0.38883092407E+03  0.38941096069E+03  0.00000000000E+00 0.  1.
</event>
<event>
 4    1  0.3195479E+006  0.2835768E+02  0.7546771E-02  0.1434427E+00
         21   -1    0    0  504  501  0.00000000000E+00  0.00000000000E+00  0.19032595679E+02  0.19032595679E+02  0.00000000000E+00 0.  1.
         21   -1    0    0  501  502 -0.00000000000E+00 -0.00000000000E+00 -0.51127627543E+02  0.51127627543E+02  0.00000000000E+00 0.  1.
         21    1    1    2  503  502 -0.27994767710E+02  0.45222721949E+01 -0.30663969886E+02  0.41766458003E+02  0.00000000000E+00 0.  1.
         21    1    1    2  504  503  0.27994767710E+02 -0.45222721949E+01 -0.14310619786E+01  0.28393765220E+02  0.00000000000E+00 0.  1.
</event>
<event>
 4    1  0.3195479E+006  0.2986992E+02  0.7546771E-02  0.1420730E+00
         21   -1    0    0  504  501  0.00000000000E+00  0.00000000000E+00  0.42058477282E+03  0.42058477282E+03  0.00000000000E+00 0.  1.
         21   -1    0    0  503  502 -0.00000000000E+00 -0.00000000000E+00 -0.53241132529E+01  0.53241132529E+01  0.00000000000E+00 0. -1.
         21    1    1    2  503  501 -0.15143895902E+02  0.25746354126E+02  0.42462788633E+02  0.51916286004E+02  0.00000000000E+00 0. -1.
         21    1    1    2  504  502  0.15143895902E+02 -0.25746354126E+02  0.37279787093E+03  0.37399260007E+03  0.00000000000E+00 0.  1.
</event>
<event>
 4    1  0.3195479E+006  0.2803129E+02  0.7546771E-02  0.1437515E+00
         21   -1    0    0  503  501  0.00000000000E+00  0.00000000000E+00  0.64012498169E+01  0.64012498169E+01  0.00000000000E+00 0.  1.
         21   -1    0    0  501  502 -0.00000000000E+00 -0.00000000000E+00 -0.13241132171E+03  0.13241132171E+03  0.00000000000E+00 0.  1.
         21    1    1    2  503  504  0.27101033330E+02  0.71615212813E+01 -0.44257051385E+02  0.52387402989E+02  0.00000000000E+00 0.  1.
         21    1    1    2  504  502 -0.27101033330E+02 -0.71615212813E+01 -0.81753020503E+02  0.86425168533E+02  0.00000000000E+00 0.  1.
</event>
<event>
 4    1  0.3195479E+006  0.2108529E+02  0.7546771E-02  0.1518050E+00
         21   -1    0    0  503  501  0.00000000000E+00  0.00000000000E+00  0.41405898239E+02  0.41405898239E+02  0.00000000000E+00 0. -1.
         21   -1    0    0  504  502 -0.00000000000E+00 -0.00000000000E+00 -0.27486398196E+02  0.27486398196E+02  0.00000000000E+00 0. -1.
         21    1    1    2  503  502 -0.42857335342E+01 -0.20645147170E+02 -0.19929384116E+02  0.29013272219E+02  0.00000000000E+00 0. -1.
         21    1    1    2  504  501  0.42857335342E+01  0.20645147170E+02  0.33848884159E+02  0.39879024216E+02  0.00000000000E+00 0. -1.
</event>
<event>
 4    1  0.3195479E+006  0.2245398E+02  0.7546771E-02  0.1499471E+00
         21   -1    0    0  503  501  0.00000000000E+00  0.00000000000E+00  0.28591363929E+03  0.28591363929E+03  0.00000000000E+00 0.  1.
         21   -1    0    0  504  502 -0.00000000000E+00 -0.00000000000E+00 -0.22061523690E+01  0.22061523690E+01  0.00000000000E+00 0.  1.
         21    1    1    2  503  502 -0.10829410209E+02 -0.19669903416E+02  0.20639001626E+03  0.20760785158E+03  0.00000000000E+00 0.  1.
         21    1    1    2  504  501  0.10829410209E+02  0.19669903416E+02  0.77317470660E+02  0.80511940078E+02  0.00000000000E+00 0.  1.
</event>
<event>
 4    1  0.3195479E+006  0.2341545E+02  0.7546771E-02  0.1487346E+00
         21   -1    0    0  503  501  0.00000000000E+00  0.00000000000E+00  0.18299277200E+02  0.18299277200E+02  0.00000000000E+00 0.  1.
         21   -1    0    0  504  502 -0.00000000000E+00 -0.00000000000E+00 -0.37735501038E+02  0.37735501038E+02  0.00000000000E+00 0. -1.
         21    1    1    2  503  502 -0.12567832955E+02 -0.19756842455E+02 -0.22434403147E+02  0.32428162044E+02  0.00000000000E+00 0. -1.
         21    1    1    2  504  501  0.12567832955E+02  0.19756842455E+02  0.29981793087E+01  0.23606616194E+02  0.00000000000E+00 0.  1.
</event>
<event>
 4    1  0.3195479E+006  0.2001604E+02  0.7546771E-02  0.1533791E+00
         21   -1    0    0  503  501  0.00000000000E+00  0.00000000000E+00  0.89264282781E+03  0.89264282781E+03  0.00000000000E+00 0.  1.
         21   -1    0    0  501  502 -0.00000000000E+00 -0.00000000000E+00 -0.77855829619E+00  0.77855829619E+00  0.00000000000E+00 0.  1.
         21    1    1    2  503  504  0.18651218735E+02 -0.72645516428E+01  0.73664299559E+03  0.73691488289E+03  0.00000000000E+00 0.  1.
         21    1    1    2  504  502 -0.18651218735E+02  0.72645516428E+01  0.15522127392E+03  0.15650650322E+03  0.00000000000E+00 0.  1.
</event>
<event>
 4    1  0.3195479E+006  0.2073476E+02  0.7546771E-02  0.1523086E+00
         21   -1    0    0  503  501  0.00000000000E+00  0.00000000000E+00  0.47350295821E+02  0.47350295821E+02  0.00000000000E+00 0. -1.
         21   -1    0    0  501  502 -0.00000000000E+00 -0.00000000000E+00 -0.40080446036E+02  0.40080446036E+02  0.00000000000E+00 0. -1.
         21    1    1    2  503  504 -0.18295990095E+00  0.20733957354E+02  0.42081121148E+02  0.46912164935E+02  0.00000000000E+00 0. -1.
         21    1    1    2  504  502  0.18295990095E+00 -0.20733957354E+02 -0.34811271363E+02  0.40518576922E+02  0.00000000000E+00 0. -1.
</event>
<event>
 4    1  0.3195479E+006  0.2331766E+02  0.7546771E-02  0.1488547E+00
         21   -1    0    0  504  501  0.00000000000E+00  0.00000000000E+00  0.67981405770E+03  0.67981405770E+03  0.00000000000E+00 0.  1.
         21   -1    0    0  501  502 -0.00000000000E+00 -0.00000000000E+00 -0.25465894649E+01  0.25465894649E+01  0.00000000000E+00 0. -1.
         21    1    1    2  503  502  0.22864497428E+02 -0.45747108362E+01  0.56064309903E+02  0.60720013725E+02  0.00000000000E+00 0. -1.
         21    1    1    2  504  503 -0.22864497428E+02  0.45747108362E+01  0.62120315834E+03  0.62164063344E+03  0.00000000000E+00 0.  1.
</event>
<event>
 4    1  0.3195479E+006  0.2791579E+02  0.7546771E-02  0.1438620E+00
         21   -1    0    0  503  501  0.00000000000E+00  0.00000000000E+00  0.23117948402E+01  0.23117948402E+01  0.00000000000E+00 0.  1.
         21   -1    0    0  504  502 -0.00000000000E+00 -0.00000000000E+00 -0.44068499406E+03  0.44068499406E+03  0.00000000000E+00 0.  1.
         21    1    1    2  503  502  0.25698998762E+02  0.10901958681E+02 -0.11179549875E+03  0.11522814231E+03  0.00000000000E+00 0.  1.
         21    1    1    2  504  501 -0.25698998762E+02 -0.10901958681E+02 -0.32657770047E+03  0.32776864658E+03  0.00000000000E+00 0.  1.
</event>
<event>
 4    1  0.3195479E+006  0.3356961E+02  0.7546771E-02  0.1390908E+00
         21   -1    0    0  504  501  0.00000000000E+00  0.00000000000E+00  0.13176219902E+02  0.13176219902E+02  0.00000000000E+00 0.  1.
         21   -1    0    0  503  502 -0.00000000000E+00 -0.00000000000E+00 -0.85527550908E+02  0.85527550908E+02  0.00000000000E+00 0.  1.
         21    1    1    2  503  501  0.21458502666E+02 -0.25815716472E+02 -0.36019631962E+02  0.49237510501E+02  0.00000000000E+00 0.  1.
         21    1    1    2  504  502 -0.21458502666E+02  0.25815716472E+02 -0.36331699043E+02  0.49466260309E+02  0.00000000000E+00 0.  1.
</event>
<event>
 4    1  0.3195479E+006  0.2474163E+02  0.7546771E-02  0.1471715E+00
         21   -1    0    0  503  501  0.00000000000E+00  0.00000000000E+00  0.60757493166E+01  0.60757493166E+01  0.00000000000E+00 0. -1.
         21   -1    0    0  501  502 -0.00000000000E+00 -0.00000000000E+00 -0.25627234052E+03  0.25627234052E+03  0.00000000000E+00 0.  1.
         21    1    1    2  503  504  0.19404247381E+02  0.15350034102E+02 -0.22912715314E+02  0.33721519634E+02  0.00000000000E+00 0. -1.
         21    1    1    2  504  502 -0.19404247381E+02 -0.15350034102E+02 -0.22728387589E+03  0.22862657020E+03  0.00000000000E+00 0.  1.
</event>
<event>
 4    1  0.3195479E+006  0.3616316E+02  0.7546771E-02  0.1372565E+00
         21   -1    0    0  504  501  0.00000000000E+00  0.00000000000E+00  0.54500337269E+03  0.54500337269E+03  0.00000000000E+00 0. -1.
         21   -1    0    0  503  502 -0.00000000000E+00 -0.00000000000E+00 -0.24449401780E+01  0.24449401780E+01  0.00000000000E+00 0.  1.
         21    1    1    2  503  501 -0.33417214483E+02  0.13822600264E+02  0.23399220407E+03  0.23677019675E+03  0.00000000000E+00 0.  1.
         21    1    1    2  504  502  0.33417214483E+02 -0.13822600264E+02  0.30856622844E+03  0.31067811612E+03  0.00000000000E+00 0. -1.
</event>
<event>
 4    1  0.3195479E+006  0.2085878E+02  0.7546771E-02  0.1521291E+00
         21   -1    0    0  504  501  0.00000000000E+00  0.00000000000E+00  0.27578369554E+02  0.27578369554E+02  0.00000000000E+00 0. -1.
         21   -1    0    0  503  502 -0.00000000000E+00 -0.00000000000E+00 -0.85419837358E+02  0.85419837358E+02  0.00000000000E+00 0. -1.
         21    1    1    2  503  501 -0.18015789384E+02 -0.10512850039E+02  0.22094765115E+02  0.30385314357E+02  0.00000000000E+00 0. -1.
         21    1    1    2  504  502  0.18015789384E+02  0.10512850039E+02 -0.79936232919E+02  0.82612892556E+02  0.00000000000E+00 0. -1.
</event>
<event>
 4    1  0.3195479E+006  0.2120332E+02  0.7546771E-02  0.1516382E+00
         21   -1    0    0  504  501  0.00000000000E+00  0.00000000000E+00  0.30114485160E+02  0.30114485160E+02  0.00000000000E+00 0.  1.
         21   -1    0    0  503  502 -0.00000000000E+00 -0.00000000000E+00 -0.39796350648E+02  0.39796350648E+02  0.00000000000E+00 0. -1.
         21    1    1    2  503  501 -0.92627625838E+01  0.19073069386E+02 -0.32472605072E+02  0.38782094150E+02  0.00000000000E+00 0. -1.
         21    1    1    2  504  502  0.92627625838E+01 -0.19073069386E+02  0.22790739584E+02  0.31128741659E+02  0.00000000000E+00 0.  1.
</event>
<event>
 4    1  0.3195479E+006  0.2179650E+02  0.7546771E-02  0.1508190E+00
         21   -1    0    0  504  501  0.00000000000E+00  0.00000000000E+00  0.24826991265E+01  0.24826991265E+01  0.00000000000E+00 0. -1.
         21   -1    0    0  503  502 -0.00000000000E+00 -0.00000000000E+00 -0.58170019135E+03  0.58170019135E+03  0.00000000000E+00 0.  1.
         21    1    1    2  503  501 -0.21796157938E+02 -0.12220276388E+00 -0.52888042048E+03  0.52932937439E+03  0.00000000000E+00 0.  1.
         21    1    1    2  504  502  0.21796157938E+02  0.12220276388E+00 -0.50337071745E+02  0.54853516079E+02  0.00000000000E+00 0. -1.
</event>
<event>
 4    1  0.3195479E+006  0.2497724E+02  0.7546771E-02  0.1469058E+00
         21   -1    0    0  502  501  0.00000000000E+00  0.00000000000E+00  0.10124250072E+03  0.10124250072E+03  0.00000000000E+00 0.  1.
         21   -1    0    0  503  502 -0.00000000000E+00 -0.00000000000E+00 -0.10695558946E+02  0.10695558946E+02  0.00000000000E+00 0.  1.
         21    1    1    2  503  504 -0.23844266364E+02 -0.74373063111E+01  0.88347854264E+01  0.26493697310E+02  0.00000000000E+00 0.  1.
         21    1    1    2  504  501  0.23844266364E+02  0.74373063111E+01  0.81712156343E+02  0.85444362353E+02  0.00000000000E+00 0.  1.
</event>
<event>
 4    1  0.3195479E+006  0.2185427E+02  0.7546771E-02  0.1507409E+00
         21   -1    0    0  503  501  0.00000000000E+00  0.00000000000E+00  0.38325095506E+02  0.38325095506E+02  0.00000000000E+00 0. -1.
         21   -1    0    0  504  502 -0.00000000000E+00 -0.00000000000E+00 -0.21503308303E+03  0.21503308303E+03  0.00000000000E+00 0. -1.
         21    1    1    2  503  502 -0.21296785457E+02  0.49046919519E+01 -0.21130751422E+03  0.21243463616E+03  0.00000000000E+00 0. -1.
         21    1    1    2  504  501  0.21296785457E+02 -0.49046919519E+01  0.34599526691E+02  0.40923542383E+02  0.00000000000E+00 0. -1.
</event>
<event>
 4    1  0.3195479E+006  0.2143784E+02  0.7546771E-02  0.1513105E+00
         21   -1    0    0  504  501  0.00000000000E+00  0.00000000000E+00  0.78677853932E+02  0.78677853932E+02  0.00000000000E+00 0.  1.
         21   -1    0    0  503  502 -0.00000000000E+00 -0.00000000000E+00 -0.67648743392E+01  0.67648743392E+01  0.00000000000E+00 0. -1.
         21    1    1    2  503  501  0.36924348574E+01 -0.21117455066E+02  0.20171254217E+02  0.29435700779E+02  0.00000000000E+00 0. -1.
         21    1    1    2  504  502 -0.36924348574E+01  0.21117455066E+02  0.51741725376E+02  0.56007027492E+02  0.00000000000E+00 0.  1.
</event>
<event>
 4    1  0.3195479E+006  0.2104516E+02  0.7546771E-02  0.1518621E+00
         21   -1    0    0  504  501  0.00000000000E+00  0.00000000000E+00  0.43285640318E+02  0.43285640318E+02  0.00000000000E+00 0.  1.
         21   -1    0    0  501  502 -0.00000000000E+00 -0.00000000000E+00 -0.10471336847E+02  0.10471336847E+02  0.00000000000E+00 0.  1.
         21    1    1    2  503  502  0.21018740273E+02  0.10541503110E+01  0.12343574851E+02  0.24398002288E+02  0.00000000000E+00 0.  1.
         21    1    1    2  504  503 -0.21018740273E+02 -0.10541503110E+01  0.20470728620E+02  0.29358974877E+02  0.00000000000E+00 0.  1.
</event>
<event>
 4    1  0.3195479E+006  0.2794982E+02  0.7546771E-02  0.1438293E+00
         21   -1    0    0  504  501  0.00000000000E+00  0.00000000000E+00  0.11849747955E+04  0.11849747955E+04  0.00000000000E+00 0. -1.
         21   -1    0    0  503  502 -0.00000000000E+00 -0.00000000000E+00 -0.41484282183E+01  0.41484282183E+01  0.00000000000E+00 0.  1.
         21    1    1    2  503  501  0.24745265443E+02  0.12994772314E+02  0.45136690076E+02  0.53089669997E+02  0.00000000000E+00 0.  1.
         21    1    1    2  504  502 -0.24745265443E+02 -0.12994772314E+02  0.11356896772E+04  0.11360335537E+04  0.00000000000E+00 0. -1.
</event>
<event>
 4    1  0.3195479E+006  0.2426057E+02  0.7546771E-02  0.1477248E+00
         21   -1    0    0  502  501  0.00000000000E+00  0.00000000000E+00  0.61113082881E+01  0.61113082881E+01  0.00000000000E+00 0.  1.
         21   -1    0    0  504  502 -0.00000000000E+00 -0.00000000000E+00 -0.30634452332E+03  0.30634452332E+03  0.00000000000E+00 0. -1.
         21    1    1    2  503  501 -0.16050476891E+02 -0.18192236232E+02 -0.20756687271E+02  0.31928284232E+02  0.00000000000E+00 0.  1.
         21    1    1    2  504  503  0.16050476891E+02  0.18192236232E+02 -0.27947652776E+03  0.28052754737E+03  0.00000000000E+00 0. -1.
</event>
<event>
 4    1  0.3195479E+006  0.2445602E+02  0.7546771E-02  0.1474982E+00
         21   -1    0    0  503  501  0.00000000000E+00  0.00000000000E+00  0.13434213361E+02  0.13434213361E+02  0.00000000000E+00 0.  1.
         21   -1    0    0  504  502 -0.00000000000E+00 -0.00000000000E+00 -0.73226560803E+02  0.73226560803E+02  0.00000000000E+00 0.  1.
         21    1    1    2  503  502  0.10013835452E+02 -0.22311880692E+02 -0.57025911712E+02  0.62048783445E+02  0.00000000000E+00 0.  1.
         21    1    1    2  504  501 -0.10013835452E+02  0.22311880692E+02 -0.27664357298E+01  0.24611990719E+02  0.00000000000E+00 0.  1.
</event>
<event>
 4    1  0.3195479E+006  0.2177736E+02  0.7546771E-02  0.1508449E+00
         21   -1    0    0  504  501  0.00000000000E+00  0.00000000000E+00  0.25548742317E+03  0.25548742317E+03  0.00000000000E+00 0.  1.
         21   -1    0    0  503  502 -0.00000000000E+00 -0.00000000000E+00 -0.28277977458E+01  0.28277977458E+01  0.00000000000E+00 0.  1.
         21    1    1    2  503  501  0.17959241005E+02  0.12317434443E+02  0.20203463252E+03  0.20320493662E+03  0.00000000000E+00 0.  1.
         21    1    1    2  504  502 -0.17959241005E+02 -0.12317434443E+02  0.50624992902E+02  0.55110284295E+02  0.00000000000E+00 0.  1.
</event>
<event>
 4    1  0.3195479E+006  0.2342758E+02  0.7546771E-02  0.1487198E+00
         21   -1    0    0  503  501  0.00000000000E+00  0.00000000000E+00  0.34391661050E+01  0.34391661050E+01  0.00000000000E+00 0. -1.
         21   -1    0    0  504  502 -0.00000000000E+00 -0.00000000000E+00 -0.36466841743E+03  0.36466841743E+03  0.00000000000E+00 0. -1.
         21    1    1    2  503  502 -0.17454869185E+02 -0.15626236718E+02 -0.42589819747E+02  0.48608070095E+02  0.00000000000E+00 0. -1.
         21    1    1    2  504  501  0.17454869185E+02  0.15626236718E+02 -0.31863943158E+03  0.31949951344E+03  0.00000000000E+00 0. -1.
</event>
<event>
 4    1  0.3195479E+006  0.3100277E+02  0.7546771E-02  0.1411078E+00
         21   -1    0    0  503  501  0.00000000000E+00  0.00000000000E+00  0.14297650751E+01  0.14297650751E+01  0.00000000000E+00 0.  1.
         21   -1    0    0  504  502 -0.00000000000E+00 -0.00000000000E+00 -0.11262930121E+04  0.11262930121E+04  0.00000000000E+00 0. -1.
         21    1    1    2  503  502  0.10100208986E+02  0.29311386581E+02 -0.20442493980E+03  0.20676249084E+03  0.00000000000E+00 0.  1.
         21    1    1    2  504  501 -0.10100208986E+02 -0.29311386581E+02 -0.92043830726E+03  0.92096028637E+03  0.00000000000E+00 0. -1.
</event>
<event>
 4    1  0.3195479E+006  0.3433988E+02  0.7546771E-02  0.1385264E+00
         21   -1    0    0  504  501  0.00000000000E+00  0.00000000000E+00  0.60311053250E+02  0.60311053250E+02  0.00000000000E+00 0. -1.
         21   -1    0    0  503  502 -0.00000000000E+00 -0.00000000000E+00 -0.19806470060E+02  0.19806470060E+02  0.00000000000E+00 0. -1.
         21    1    1    2  503  501  0.29097973482E+02  0.18235558172E+02  0.24789044681E+02  0.42352383390E+02  0.00000000000E+00 0. -1.
         21    1    1    2  504  502 -0.29097973482E+02 -0.18235558172E+02  0.15715538509E+02  0.37765139921E+02  0.00000000000E+00 0. -1.
</event>
<event>
 4    1  0.3195479E+006  0.2235954E+02  0.7546771E-02  0.1500701E+00
         21   -1    0    0  502  501  0.00000000000E+00  0.00000000000E+00  0.10623358631E+04  0.10623358631E+04  0.00000000000E+00 0. -1.
         21   -1    0    0  504  502 -0.00000000000E+00 -0.00000000000E+00 -0.11963688336E+01  0.11963688336E+01  0.00000000000E+00 0. -1.
         21    1    1    2  503  501  0.42613680727E+01 -0.21949707990E+02  0.94474430692E+03  0.94500886472E+03  0.00000000000E+00 0. -1.
         21    1    1    2  504  503 -0.42613680727E+01  0.21949707990E+02  0.11639518737E+03  0.11852336724E+03  0.00000000000E+00 0. -1.
</event>
<event>
 4    1  0.3195479E+006  0.2163017E+02  0.7546771E-02  0.1510455E+00
         21   -1    0    0  503  501  0.00000000000E+00  0.00000000000E+00  0.38023717831E+03  0.38023717831E+03  0.00000000000E+00 0.  1.
         21   -1    0    0  501  502 -0.00000000000E+00 -0.00000000000E+00 -0.41044223279E+02  0.41044223279E+02  0.00000000000E+00 0.  1.
         21    1    1    2  503  504 -0.21065851373E+02 -0.49085662638E+01  0.37705578381E+03  0.37767569186E+03  0.00000000000E+00 0.  1.
         21    1    1    2  504  502  0.21065851373E+02  0.49085662638E+01 -0.37862828786E+02  0.43605709723E+02  0.00000000000E+00 0.  1.
</event>
<event>
 4    1  0.3195479E+006  0.2051345E+02  0.7546771E-02  0.1526326E+00
         21   -1    0    0  504  501  0.00000000000E+00  0.00000000000E+00  0.10981861871E+02  0.10981861871E+02  0.00000000000E+00 0.  1.
         21   -1    0    0  501  502 -0.00000000000E+00 -0.00000000000E+00 -0.10413187823E+03  0.10413187823E+03  0.00000000000E+00 0. -1.
         21    1    1    2  503  502  0.10679554680E+02  0.17514242546E+02 -0.92332739212E+02  0.94584017205E+02  0.00000000000E+00 0. -1.
         21    1    1    2  504  503 -0.10679554680E+02 -0.17514242546E+02 -0.81727714288E+00  0.20529722893E+02  0.00000000000E+00 0.  1.
</event>
<event>
 4    1  0.3195479E+006  0.3037223E+02  0.7546771E-02  0.1416389E+00
         21   -1    0    0  503  501  0.00000000000E+00  0.00000000000E+00  0.23916525105E+03  0.23916525105E+03  0.00000000000E+00 0. -1.
         21   -1    0    0  504  502 -0.00000000000E+00 -0.00000000000E+00 -0.16861858440E+03  0.16861858440E+03  0.00000000000E+00 0. -1.
         21    1    1    2  503  502  0.19266905541E+02 -0.23478898714E+02 -0.16627314086E+03  0.16902434649E+03  0.00000000000E+00 0. -1.
         21    1    1    2  504  501 -0.19266905541E+02  0.23478898714E+02  0.23681980752E+03  0.23875948896E+03  0.00000000000E+00 0. -1.
</event>
<event>
 4    1  0.3195479E+006  0.2116023E+02  0.7546771E-02  0.1516989E+00
         21   -1    0    0  503  501  0.00000000000E+00  0.00000000000E+00  0.52502732269E+03  0.52502732269E+03  0.00000000000E+00 0. -1.
         21   -1    0    0  504  502 -0.00000000000E+00 -0.00000000000E+00 -0.61657663701E+01  0.61657663701E+01  0.00000000000E+00 0.  1.
         21    1    1    2  503  502 -0.16698294854E+02 -0.12997014768E+02  0.50597593539E+03  0.50641820923E+03  0.00000000000E+00 0. -1.
         21    1    1    2  504  501  0.16698294854E+02  0.12997014768E+02  0.12885620929E+02  0.24774879831E+02  0.00000000000E+00 0.  1.
</event>
<event>
 4    1  0.3195479E+006  0.2218956E+02  0.7546771E-02  0.1502934E+00
         21   -1    0    0  503  501  0.00000000000E+00  0.00000000000E+00  0.14942814695E+02  0.14942814695E+02  0.00000000000E+00 0. -1.
         21   -1    0    0  504  502 -0.00000000000E+00 -0.00000000000E+00 -0.12058169139E+03  0.12058169139E+03  0.00000000000E+00 0. -1.
         21    1    1    2  503  502 -0.21926564822E+02 -0.34061924773E+01 -0.11058592879E+03  0.11279017705E+03  0.00000000000E+00 0. -1.
         21    1    1    2  504  501  0.21926564822E+02  0.34061924773E+01  0.49470520995E+01  0.22734329032E+02  0.00000000000E+00 0. -1.
</event>
<event>
 4    1  0.3195479E+006  0.2020093E+02  0.7546771E-02  0.1530986E+00
         21   -1    0    0  502  501  0.00000000000E+00  0.00000000000E+00  0.65529298758E+02  0.65529298758E+02  0.00000000000E+00 0.  1.
         21   -1    0    0  503  502 -0.00000000000E+00 -0.00000000000E+00 -0.81827267136E+03  0.81827267136E+03  0.00000000000E+00 0. -1.
         21    1    1    2  503  504  0.88583389469E+01  0.18155097518E+02 -0.81658793105E+03  0.81683776043E+03  0.00000000000E+00 0. -1.
         21    1    1    2  504  501 -0.88583389469E+01 -0.18155097518E+02  0.63844558450E+02  0.66964209683E+02  0.00000000000E+00 0.  1.
</event>
<event>
 4    1  0.3195479E+006  0.2792824E+02  0.7546771E-02  0.1438500E+00
         21   -1    0    0  502  501  0.00000000000E+00  0.00000000000E+00  0.69418797777E+02  0.69418797777E+02  0.00000000000E+00 0. -1.
         21   -1    0    0  504  502 -0.00000000000E+00 -0.00000000000E+00 -0.43092285762E+02  0.43092285762E+02  0.00000000000E+00 0. -1.
         21    1    1    2  503  501 -0.62650805639E+01 -0.27216451423E+02  0.61531845676E+02  0.67573326800E+02  0.00000000000E+00 0. -1.
         21    1    1    2  504  503  0.62650805639E+01  0.27216451423E+02 -0.35205333661E+02  0.44937756739E+02  0.00000000000E+00 0. -1.
</event>
<event>
 4    1  0.3195479E+006  0.2047615E+02  0.7546771E-02  0.1526877E+00
         21   -1    0    0  504  501  0.00000000000E+00  0.00000000000E+00  0.17258780070E+02  0.17258780070E+02  0.00000000000E+00 0.  1.
         21   -1    0    0  503  502 -0.00000000000E+00 -0.00000000000E+00 -0.24866060539E+02  0.24866060539E+02  0.00000000000E+00 0.  1.
         21    1    1    2  503  501  0.17971779270E+02 -0.98126370466E+01 -0.70002667377E+01  0.21639695708E+02  0.00000000000E+00 0.  1.
         21    1    1    2  504  502 -0.17971779270E+02  0.98126370466E+01 -0.60701373119E+00  0.20485144901E+02  0.00000000000E+00 0.  1.
</event>
<event>
 4    1  0.3195479E+006  0.2193176E+02  0.7546771E-02  0.1506366E+00
         21   -1    0    0  503  501  0.00000000000E+00  0.00000000000E+00  0.11790792158E+02  0.11790792158E+02  0.00000000000E+00 0. -1.
         21   -1    0    0  504  502 -0.00000000000E+00 -0.00000000000E+00 -0.82928297396E+02  0.82928297396E+02  0.00000000000E+00 0. -1.
         21    1    1    2  503  502  0.13634955947E+02 -0.17178189984E+02 -0.18112556083E+01  0.22006428190E+02  0.00000000000E+00 0. -1.
         21    1    1    2  504  501 -0.13634955947E+02  0.17178189984E+02 -0.69326249630E+02  0.72712661363E+02  0.00000000000E+00 0. -1.
</event>
<event>
 4    1  0.3195479E+006  0.3554561E+02  0.7546771E-02  0.1376767E+00
         21   -1    0    0  502  501  0.00000000000E+00  0.00000000000E+00  0.18803027449E+03  0.18803027449E+03  0.00000000000E+00 0. -1.
         21   -1    0    0  503  502 -0.00000000000E+00 -0.00000000000E+00 -0.68352640433E+01  0.68352640433E+01  0.00000000000E+00 0. -1.
         21    1    1    2  503  504 -0.35358172046E+02  0.36455970728E+01  0.77923850814E+02  0.85648217927E+02  0.00000000000E+00 0. -1.
         21    1    1    2  504  501  0.35358172046E+02 -0.36455970728E+01  0.10327115963E+03  0.10921732060E+03  0.00000000000E+00 0. -1.
</event>
<event>
 4    1  0.3195479E+006  0.2573918E+02  0.7546771E-02  0.1460702E+00
         21   -1    0    0  504  501  0.00000000000E+00  0.00000000000E+00  0.71325799046E+01  0.71325799046E+01  0.00000000000E+00 0. -1.
         21   -1    0    0  501  502 -0.00000000000E+00 -0.00000000000E+00 -0.19320925974E+03  0.19320925974E+03  0.00000000000E+00 0. -1.
         21    1    1    2  503  502 -0.24229023241E+01 -0.25624885918E+02 -0.16522085760E+03  0.16721374651E+03  0.00000000000E+00 0. -1.
         21    1    1    2  504  503  0.24229023241E+01  0.25624885918E+02 -0.20855822236E+02  0.33128093141E+02  0.00000000000E+00 0. -1.
</event>
<event>
 4    1  0.3195479E+006  0.3080552E+02  0.7546771E-02  0.1412723E+00
         21   -1    0    0  504  501  0.00000000000E+00  0.00000000000E+00  0.82811139956E+02  0.82811139956E+02  0.00000000000E+00 0. -1.
         21   -1    0    0  501  502 -0.00000000000E+00 -0.00000000000E+00 -0.13334016770E+02  0.13334016770E+02  0.00000000000E+00 0. -1.
         21    1    1    2  503  502  0.15515624826E+02  0.26612875520E+02  0.16714449059E+02  0.35047861055E+02  0.00000000000E+00 0. -1.
         21    1    1    2  504  503 -0.15515624826E+02 -0.26612875520E+02  0.52762674128E+02  0.61097295671E+02  0.00000000000E+00 0. -1.
</event>
<event>
 4    1  0.3195479E+006  0.2109951E+02  0.7546771E-02  0.1517849E+00
         21   -1    0    0  504  501  0.00000000000E+00  0.00000000000E+00  0.15943418440E+02  0.15943418440E+02  0.00000000000E+00 0. -1.
         21   -1    0    0  503  502 -0.00000000000E+00 -0.00000000000E+00 -0.67676710104E+02  0.67676710104E+02  0.00000000000E+00 0. -1.
         21    1    1    2  503  501 -0.16608100070E+02  0.13013853781E+02 -0.57910858245E+02  0.61634867412E+02  0.00000000000E+00 0. -1.
         21    1    1    2  504  502  0.16608100070E+02 -0.13013853781E+02  0.61775665811E+01  0.21985261132E+02  0.00000000000E+00 0. -1.
</event>
<event>
 4    1  0.3195479E+006  0.3906294E+02  0.7546771E-02  0.1354066E+00
         21   -1    0    0  504  501  0.00000000000E+00  0.00000000000E+00  0.20428598395E+03  0.20428598395E+03  0.00000000000E+00 0. -1.
         21   -1    0    0  503  502 -0.00000000000E+00 -0.00000000000E+00 -0.13527493546E+02  0.13527493546E+02  0.00000000000E+00 0.  1.
         21    1    1    2  503  501 -0.30747305704E+02  0.24093915605E+02  0.16825961881E+03  0.17273451566E+03  0.00000000000E+00 0. -1.
         21    1    1    2  504  502  0.30747305704E+02 -0.24093915605E+02  0.22498871589E+02  0.45078961833E+02  0.00000000000E+00 0.  1.
</event>
<event>
 4    1  0.3195479E+006  0.2194672E+02  0.7546771E-02  0.1506165E+00
         21   -1    0    0  503  501  0.00000000000E+00  0.00000000000E+00  0.18050748903E+03  0.18050748903E+03  0.00000000000E+00 0.  1.
         21   -1    0    0  504  502 -0.00000000000E+00 -0.00000000000E+00 -0.43624833963E+01  0.43624833963E+01  0.00000000000E+00 0.  1.
         21    1    1    2  503  502 -0.88695905891E+01  0.20074587579E+02  0.30469888856E+02  0.37550936481E+02  0.00000000000E+00 0.  1.
         21    1    1    2  504  501  0.88695905891E+01 -0.20074587579E+02  0.14567511677E+03  0.14731903594E+03  0.00000000000E+00 0.  1.
</event>
<event>
 4    1  0.3195479E+006  0.2131015E+02  0.7546771E-02  0.1514883E+00
         21   -1    0    0  504  501  0.00000000000E+00  0.00000000000E+00  0.19666938665E+02  0.19666938665E+02  0.00000000000E+00 0.  1.
         21   -1    0    0  503  502 -0.00000000000E+00 -0.00000000000E+00 -0.12619438018E+03  0.12619438018E+03  0.00000000000E+00 0. -1.
         21    1    1    2  503  501  0.20678311120E+02  0.51507180573E+01 -0.11918525652E+03  0.12107538073E+03  0.00000000000E+00 0. -1.
         21    1    1    2  504  502 -0.20678311120E+02 -0.51507180573E+01  0.12657815008E+02  0.24785938112E+02  0.00000000000E+00 0.  1.
</event>
<event>
 4    1  0.3195479E+006  0.2587355E+02  0.7546771E-02  0.1459264E+00
         21   -1    0    0  503  501  0.00000000000E+00  0.00000000000E+00  0.99972965650E+02  0.99972965650E+02  0.00000000000E+00 0. -1.
         21   -1    0    0  504  502 -0.00000000000E+00 -0.00000000000E+00 -0.68732389203E+01  0.68732389203E+01  0.00000000000E+00 0. -1.
         21    1    1    2  503  502 -0.18083971819E+02 -0.18504340155E+02  0.37976281769E+02  0.45952569224E+02  0.00000000000E+00 0. -1.
         21    1    1    2  504  501  0.18083971819E+02  0.18504340155E+02  0.55123444961E+02  0.60893635347E+02  0.00000000000E+00 0. -1.
</event>
<event>
 4    1  0.3195479E+006  0.2409895E+02  0.7546771E-02  0.1479141E+00
         21   -1    0    0  504  501  0.00000000000E+00  0.00000000000E+00  0.79338032573E+01  0.79338032573E+01  0.00000000000E+00 0.  1.
         21   -1    0    0  501  502 -0.00000000000E+00 -0.00000000000E+00 -0.60200101795E+03  0.60200101795E+03  0.00000000000E+00 0.  1.
         21    1    1    2  503  502  0.22526219479E+02  0.85632145569E+01 -0.58285893619E+03  0.58335692222E+03  0.00000000000E+00 0.  1.
         21    1    1    2  504  503 -0.22526219479E+02 -0.85632145569E+01 -0.11208278505E+02  0.26577898988E+02  0.00000000000E+00 0.  1.
</event>
<event>
 4    1  0.3195479E+006  0.2453314E+02  0.7546771E-02  0.1474094E+00
         21   -1    0    0  504  501  0.00000000000E+00  0.00000000000E+00  0.38586285801E+03  0.38586285801E+03  0.00000000000E+00 0. -1.
         21   -1    0    0  501  502 -0.00000000000E+00 -0.00000000000E+00 -0.36405924846E+01  0.36405924846E+01  0.00000000000E+00 0. -1.
         21    1    1    2  503  502 -0.23513614016E+02 -0.69989078610E+01  0.43877144144E+02  0.50270056033E+02  0.00000000000E+00 0. -1.
         21    1    1    2  504  503  0.23513614016E+02  0.69989078610E+01  0.33834512138E+03  0.33923339446E+03  0.00000000000E+00 0. -1.
</event>
<event>
 4    1  0.3195479E+006  0.2867760E+02  0.7546771E-02  0.1431447E+00
         21   -1    0    0  503  501  0.00000000000E+00  0.00000000000E+00  0.20965175725E+03  0.20965175725E+03  0.00000000000E+00 0.  1.
         21   -1    0    0  504  502 -0.00000000000E+00 -0.00000000000E+00 -0.39743965975E+01  0.39743965975E+01  0.00000000000E+00 0.  1.
         21    1    1    2  503  502 -0.26037294435E+02  0.12019321652E+02  0.11501855248E+03  0.11853974949E+03  0.00000000000E+00 0.  1.
         21    1    1    2  504  501  0.26037294435E+02 -0.12019321652E+02  0.90658808170E+02  0.95086404355E+02  0.00000000000E+00 0.  1.
</event>
<event>
 4    1  0.3195479E+006  0.2503438E+02  0.7546771E-02  0.1468419E+00
         21   -1    0    0  502  501  0.00000000000E+00  0.00000000000E+00  0.25592872838E+02  0.25592872838E+02  0.00000000000E+00 0. -1.
         21   -1    0    0  504  502 -0.00000000000E+00 -0.00000000000E+00 -0.95409583209E+02  0.95409583209E+02  0.00000000000E+00 0. -1.
         21    1    1    2  503  501  0.19190642380E+02  0.16076050116E+02  0.17253998255E+02  0.30404285850E+02  0.00000000000E+00 0. -1.
         21    1    1    2  504  503 -0.19190642380E+02 -0.16076050116E+02 -0.87070708626E+02  0.90598170196E+02  0.00000000000E+00 0. -1.
</event>
<event>
 4    1  0.3195479E+006  0.2585541E+02  0.7546771E-02  0.1459457E+00
         21   -1    0    0  503  501  0.00000000000E+00  0.00000000000E+00  0.30558348430E+02  0.30558348430E+02  0.00000000000E+00 0. -1.
         21   -1    0    0  501  502 -0.00000000000E+00 -0.00000000000E+00 -0.69999554504E+02  0.69999554504E+02  0.00000000000E+00 0. -1.
         21    1    1    2  503  504 -0.86309080509E+01  0.24372308819E+02  0.21967900290E+02  0.33927726922E+02  0.00000000000E+00 0. -1.
         21    1    1    2  504  502  0.86309080509E+01 -0.24372308819E+02 -0.61409106364E+02  0.66630176012E+02  0.00000000000E+00 0. -1.
</event>
<event>
 4    1  0.3195479E+006  0.2369510E+02  0.7546771E-02  0.1483949E+00
         21   -1    0    0  503  501  0.00000000000E+00  0.00000000000E+00  0.15437921937E+04  0.15437921937E+04  0.00000000000E+00 0. -1.
         21   -1    0    0  504  502 -0.00000000000E+00 -0.00000000000E+00 -0.56447594709E+00  0.56447594709E+00  0.00000000000E+00 0. -1.
         21    1    1    2  503  502  0.37394814158E+01 -0.23398165602E+02  0.12321506032E+04  0.12323784187E+04  0.00000000000E+00 0. -1.
         21    1    1    2  504  501 -0.37394814158E+01  0.23398165602E+02  0.31107711459E+03  0.31197825100E+03  0.00000000000E+00 0. -1.
</event>
<event>
 4    1  0.3195479E+006  0.2077980E+02  0.7546771E-02  0.1522432E+00
         21   -1    0    0  503  501  0.00000000000E+00  0.00000000000E+00  0.44243882302E+02  0.44243882302E+02  0.00000000000E+00 0. -1.
         21   -1    0    0  504  502 -0.00000000000E+00 -0.00000000000E+00 -0.13590352664E+03  0.13590352664E+03  0.00000000000E+00 0.  1.
         21    1    1    2  503  502  0.19818511230E+01 -0.20685073588E+02  0.40949436291E+02  0.45920108185E+02  0.00000000000E+00 0. -1.
         21    1    1    2  504  501 -0.19818511230E+01  0.20685073588E+02 -0.13260908063E+03  0.13422730076E+03  0.00000000000E+00 0.  1.
</event>
<event>
 4    1  0.3195479E+006  0.2191828E+02  0.7546771E-02  0.1506547E+00
         21   -1    0    0  503  501  0.00000000000E+00  0.00000000000E+00  0.22584203171E+02  0.22584203171E+02  0.00000000000E+00 0.  1.
         21   -1    0    0  504  502 -0.00000000000E+00 -0.00000000000E+00 -0.29870123664E+02  0.29870123664E+02  0.00000000000E+00 0.  1.
         21    1    1    2  503  502 -0.10708179468E+02  0.19124483924E+02  0.10428360204E+02  0.24272653118E+02  0.00000000000E+00 0.  1.
         21    1    1    2  504  501  0.10708179468E+02 -0.19124483924E+02 -0.17714280697E+02  0.28181673717E+02  0.00000000000E+00 0.  1.
</event>
<event>
 4    1  0.3195479E+006  0.2508182E+02  0.7546771E-02  0.1467890E+00
         21   -1    0    0  502  501  0.00000000000E+00  0.00000000000E+00  0.66957573401E+02  0.66957573401E+02  0.00000000000E+00 0.  1.
         21   -1    0    0  503  502 -0.00000000000E+00 -0.00000000000E+00 -0.62799004656E+02  0.62799004656E+02  0.00000000000E+00 0. -1.
         21    1    1    2  503  504 -0.72896900278E+01 -0.23999129183E+02 -0.57749201904E+02  0.62960845791E+02  0.00000000000E+00 0. -1.
         21    1    1    2  504  501  0.72896900278E+01  0.23999129183E+02  0.61907770649E+02  0.66795732266E+02  0.00000000000E+00 0.  1.
</event>
<event>
 4    1  0.3195479E+006  0.2425995E+02  0.7546771E-02  0.1477255E+00
         21   -1    0    0  504  501  0.00000000000E+00  0.00000000000E+00  0.14704880808E+03  0.14704880808E+03  0.00000000000E+00 0. -1.
         21   -1    0    0  501  502 -0.00000000000E+00 -0.00000000000E+00 -0.45591805425E+01  0.45591805425E+01  0.00000000000E+00 0. -1.
         21    1    1    2  503  502  0.22296242825E+01  0.24157279117E+02  0.44753827877E+02  0.50906291049E+02  0.00000000000E+00 0. -1.
         21    1    1    2  504  503 -0.22296242825E+01 -0.24157279117E+02  0.97735799657E+02  0.10070169757E+03  0.00000000000E+00 0. -1.
</event>
<event>
 4    1  0.3195479E+006  0.3098193E+02  0.7546771E-02  0.1411251E+00
         21   -1    0    0  504  501  0.00000000000E+00  0.00000000000E+00  0.12347702271E+02  0.12347702271E+02  0.00000000000E+00 0. -1.
         21   -1    0    0  503  502 -0.00000000000E+00 -0.00000000000E+00 -0.22466250895E+03  0.22466250895E+03  0.00000000000E+00 0. -1.
         21    1    1    2  503  501  0.30973868164E+02 -0.70669612796E+00 -0.10323413017E+02  0.32656588689E+02  0.00000000000E+00 0. -1.
         21    1    1    2  504  502 -0.30973868164E+02  0.70669612796E+00 -0.20199139366E+03  0.20435362253E+03  0.00000000000E+00 0. -1.
</event>
<event>
 4    1  0.3195479E+006  0.2630732E+02  0.7546771E-02  0.1454693E+00
         21   -1    0    0  504  501  0.00000000000E+00  0.00000000000E+00  0.42637499710E+02  0.42637499710E+02  0.00000000000E+00 0.  1.
         21   -1    0    0  503  502 -0.00000000000E+00 -0.00000000000E+00 -0.83558079633E+02  0.83558079633E+02  0.00000000000E+00 0.  1.
         21    1    1    2  503  501 -0.21093632209E+01  0.26222619184E+02  0.36178354310E+02  0.44731962741E+02  0.00000000000E+00 0.  1.
         21    1    1    2  504  502  0.21093632209E+01 -0.26222619184E+02 -0.77098934233E+02  0.81463616602E+02  0.00000000000E+00 0.  1.
</event>
<event>
 4    1  0.3195479E+006  0.3485111E+02  0.7546771E-02  0.1381613E+00
         21   -1    0    0  503  501  0.00000000000E+00  0.00000000000E+00  0.32526370887E+02  0.32526370887E+02  0.00000000000E+00 0. -1.
         21   -1    0    0  504  502 -0.00000000000E+00 -0.00000000000E+00 -0.37390493293E+02  0.37390493293E+02  0.00000000000E+00 0. -1.
         21    1    1    2  503  502  0.10335242305E+02 -0.33283368481E+02 -0.36909783312E+01  0.35046015065E+02  0.00000000000E+00 0. -1.
         21    1    1    2  504  501 -0.10335242305E+02  0.33283368481E+02 -0.11731440748E+01  0.34870849114E+02  0.00000000000E+00 0. -1.
</event>
<event>
 4    1  0.3195479E+006  0.2849363E+02  0.7546771E-02  0.1433155E+00
         21   -1    0    0  504  501  0.00000000000E+00  0.00000000000E+00  0.20756711780E+02  0.20756711780E+02  0.00000000000E+00 0.  1.
         21   -1    0    0  503  502 -0.00000000000E+00 -0.00000000000E+00 -0.67829235326E+02  0.67829235326E+02  0.00000000000E+00 0.  1.
         21    1    1    2  503  501 -0.26765714073E+02 -0.97715671688E+01 -0.52355288226E+02  0.59606737706E+02  0.00000000000E+00 0.  1.
         21    1    1    2  504  502  0.26765714073E+02  0.97715671688E+01  0.52827646799E+01  0.28979209400E+02  0.00000000000E+00 0.  1.
</event>
<event>
 4    1  0.3195479E+006  0.2167397E+02  0.7546771E-02  0.1509856E+00
         21   -1    0    0  503  501  0.00000000000E+00  0.00000000000E+00  0.11018506282E+02  0.11018506282E+02  0.00000000000E+00 0. -1.
         21   -1    0    0  501  502 -0.00000000000E+00 -0.00000000000E+00 -0.13470850281E+03  0.13470850281E+03  0.00000000000E+00 0.  1.
         21    1    1    2  503  504  0.59172743909E+01  0.20850588328E+02 -0.16053214156E+01  0.21733343661E+02  0.00000000000E+00 0. -1.
         21    1    1    2  504  502 -0.59172743909E+01 -0.20850588328E+02 -0.12208467511E+03  0.12399366543E+03  0.00000000000E+00 0.  1.
</event>
<event>
 4    1  0.3195479E+006  0.2374193E+02  0.7546771E-02  0.1483386E+00
         21   -1    0    0  502  501  0.00000000000E+00  0.00000000000E+00  0.28121322467E+01  0.28121322467E+01  0.00000000000E+00 0. -1.
         21   -1    0    0  503  502 -0.00000000000E+00 -0.00000000000E+00 -0.26045859087E+03  0.26045859087E+03  0.00000000000E+00 0.  1.
         21    1    1    2  503  504  0.14300622313E+02  0.18951814354E+02 -0.19201004466E+03  0.19347231408E+03  0.00000000000E+00 0.  1.
         21    1    1    2  504  501 -0.14300622313E+02 -0.18951814354E+02 -0.65636413966E+02  0.69798409037E+02  0.00000000000E+00 0. -1.
</event>
<event>
 4    1  0.3195479E+006  0.3832178E+02  0.7546771E-02  0.1358611E+00
         21   -1    0    0  504  501  0.00000000000E+00  0.00000000000E+00  0.10852943371E+03  0.10852943371E+03  0.00000000000E+00 0.  1.
         21   -1    0    0  503  502 -0.00000000000E+00 -0.00000000000E+00 -0.24275914047E+02  0.24275914047E+02  0.00000000000E+00 0. -1.
         21    1    1    2  503  501 -0.31773149053E+02 -0.21424883317E+02 -0.20496602753E+01  0.38376551866E+02  0.00000000000E+00 0. -1.
         21    1    1    2  504  502  0.31773149053E+02  0.21424883317E+02  0.86303179942E+02  0.94428795894E+02  0.00000000000E+00 0.  1.
</event>
<event>
 4    1  0.3195479E+006  0.3534258E+02  0.7546771E-02  0.1378171E+00
         21   -1    0    0  504  501  0.00000000000E+00  0.00000000000E+00  0.26435336403E+01  0.26435336403E+01  0.00000000000E+00 0.  1.
         21   -1    0    0  503  502 -0.00000000000E+00 -0.00000000000E+00 -0.10647986906E+04  0.10647986906E+04  0.00000000000E+00 0. -1.
         21    1    1    2  503  501 -0.56193721742E+01 -0.34892989599E+02 -0.13301892217E+03  0.13763405001E+03  0.00000000000E+00 0.  1.
         21    1    1    2  504  502  0.56193721742E+01  0.34892989599E+02 -0.92913623474E+03  0.92980817418E+03  0.00000000000E+00 0. -1.
</event>
<event>
 4    1  0.3195479E+006  0.2945203E+02  0.7546771E-02  0.1424419E+00
         21   -1    0    0  502  501  0.00000000000E+00  0.00000000000E+00  0.18897804641E+02  0.18897804641E+02  0.00000000000E+00 0.  1.
         21   -1    0    0  504  502 -0.00000000000E+00 -0.00000000000E+00 -0.61747143959E+02  0.61747143959E+02  0.00000000000E+00 0.  1.
         21    1    1    2  503  501  0.17645728191E+02  0.23580717273E+02 -0.99764954535E+00  0.29468920155E+02  0.00000000000E+00 0.  1.
         21    1    1    2  504  503 -0.17645728191E+02 -0.23580717273E+02 -0.41851689773E+02  0.51176028444E+02  0.00000000000E+00 0.  1.
</event>
<event>
 4    1  0.3195479E+006  0.2756215E+02  0.7546771E-02  0.1442042E+00
         21   -1    0    0  504  501  0.00000000000E+00  0.00000000000E+00  0.92220513866E+02  0.92220513866E+02  0.00000000000E+00 0. -1.
         21   -1    0    0  501  502 -0.00000000000E+00 -0.00000000000E+00 -0.60944720349E+02  0.60944720349E+02  0.00000000000E+00 0.  1.
         21    1    1    2  503  502  0.43487246442E+00  0.27558714585E+02 -0.55581284325E+02  0.62039914820E+02  0.00000000000E+00 0.  1.
         21    1    1    2  504  503 -0.43487246442E+00 -0.27558714585E+02  0.86857077842E+02  0.91125319396E+02  0.00000000000E+00 0. -1.
</event>
<event>
 4    1  0.3195479E+006  0.2311634E+02  0.7546771E-02  0.1491042E+00
         21   -1    0    0  503  501  0.00000000000E+00  0.00000000000E+00  0.44975535888E+02  0.44975535888E+02  0.00000000000E+00 0.  1.
         21   -1    0    0  504  502 -0.00000000000E+00 -0.00000000000E+00 -0.26151671457E+02  0.26151671457E+02  0.00000000000E+00 0.  1.
         21    1    1    2  503  502 -0.19616000440E+02 -0.12230193047E+02 -0.16858946638E+02  0.28610997483E+02  0.00000000000E+00 0.  1.
         21    1    1    2  504  501  0.19616000440E+02  0.12230193047E+02  0.35682811069E+02  0.42516209862E+02  0.00000000000E+00 0.  1.
</event>
<event>
 4    1  0.3195479E+006  0.2077744E+02  0.7546771E-02  0.1522466E+00
         21   -1    0    0  503  501  0.00000000000E+00  0.00000000000E+00  0.13407109518E+04  0.13407109518E+04  0.00000000000E+00 0.  1.
         21   -1    0    0  504  502 -0.00000000000E+00 -0.00000000000E+00 -0.73936555716E+01  0.73936555716E+01  0.00000000000E+00 0. -1.
         21    1    1    2  503  502  0.55506670840E+01  0.20022288683E+02  0.74472629378E+01  0.22071784577E+02  0.00000000000E+00 0. -1.
         21    1    1    2  504  501 -0.55506670840E+01 -0.20022288683E+02  0.13258700333E+04  0.13260328228E+04  0.00000000000E+00 0.  1.
</event>
<event>
 4    1  0.3195479E+006  0.2169927E+02  0.7546771E-02  0.1509511E+00
         21   -1    0    0  503  501  0.00000000000E+00  0.00000000000E+00  0.58142321340E+01  0.58142321340E+01  0.00000000000E+00 0. -1.
         21   -1    0    0  504  502 -0.00000000000E+00 -0.00000000000E+00 -0.82014272837E+02  0.82014272837E+02  0.00000000000E+00 0.  1.
         21    1    1    2  503  502  0.19841374665E+02  0.87851019800E+01 -0.33177412440E+02  0.39643396192E+02  0.00000000000E+00 0. -1.
         21    1    1    2  504  501 -0.19841374665E+02 -0.87851019800E+01 -0.43022628263E+02  0.48185108779E+02  0.00000000000E+00 0.  1.
</event>
<event>
 4    1  0.3195479E+006  0.2075242E+02  0.7546771E-02  0.1522829E+00
         21   -1    0    0  504  501  0.00000000000E+00  0.00000000000E+00  0.13354915317E+01  0.13354915317E+01  0.00000000000E+00 0. -1.
         21   -1    0    0  503  502 -0.00000000000E+00 -0.00000000000E+00 -0.57864541736E+03  0.57864541736E+03  0.00000000000E+00 0. -1.
         21    1    1    2  503  501 -0.18153841249E+02  0.10054891231E+02 -0.48160365150E+03  0.48205055744E+03  0.00000000000E+00 0. -1.
         21    1    1    2  504  502  0.18153841249E+02 -0.10054891231E+02 -0.95706274334E+02  0.97930351458E+02  0.00000000000E+00 0. -1.
</event>
<event>
 4    1  0.3195479E+006  0.2241661E+02  0.7546771E-02  0.1499957E+00
         21   -1    0    0  503  501  0.00000000000E+00  0.00000000000E+00  0.80886624989E+02  0.80886624989E+02  0.00000000000E+00 0. -1.
         21   -1    0    0  504  502 -0.00000000000E+00 -0.00000000000E+00 -0.22208502959E+02  0.22208502959E+02  0.00000000000E+00 0. -1.
         21    1    1    2  503  502 -0.12147201728E+02  0.18840116090E+02 -0.14408602041E+02  0.26647932319E+02  0.00000000000E+00 0. -1.
         21    1    1    2  504  501  0.12147201728E+02 -0.18840116090E+02  0.73086724071E+02  0.76447195629E+02  0.00000000000E+00 0. -1.
</event>
<event>
 4    1  0.3195479E+006  0.2857109E+02  0.7546771E-02  0.1432434E+00
         21   -1    0    0  502  501  0.00000000000E+00  0.00000000000E+00  0.14822979012E+03  0.14822979012E+03  0.00000000000E+00 0. -1.
         21   -1    0    0  504  502 -0.00000000000E+00 -0.00000000000E+00 -0.16494966108E+02  0.16494966108E+02  0.00000000000E+00 0. -1.
         21    1    1    2  503  501  0.71074846311E+01 -0.27672929353E+02  0.13308935059E+03  0.13612157286E+03  0.00000000000E+00 0. -1.
         21    1    1    2  504  503 -0.71074846311E+01  0.27672929353E+02 -0.13545265764E+01  0.28603183372E+02  0.00000000000E+00 0. -1.
</event>
<event>
 4    1  0.3195479E+006  0.2091993E+02  0.7546771E-02  0.1520411E+00
         21   -1    0    0  502  501  0.00000000000E+00  0.00000000000E+00  0.53224500010E+01  0.53224500010E+01  0.00000000000E+00 0.  1.
         21   -1    0    0  504  502 -0.00000000000E+00 -0.00000000000E+00 -0.46035241792E+03  0.46035241792E+03  0.00000000000E+00 0.  1.
         21    1    1    2  503  501 -0.19641513868E+02 -0.72010027903E+01 -0.16493764201E+02  0.26639965573E+02  0.00000000000E+00 0.  1.
         21    1    1    2  504  503  0.19641513868E+02  0.72010027903E+01 -0.43853620372E+03  0.43903490235E+03  0.00000000000E+00 0.  1.
</event>
<event>
 4    1  0.3195479E+006  0.2015670E+02  0.7546771E-02  0.1531654E+00
         21   -1    0    0  502  501  0.00000000000E+00  0.00000000000E+00  0.14610742830E+03  0.14610742830E+03  0.00000000000E+00 0.  1.
         21   -1    0    0  503  502 -0.00000000000E+00 -0.00000000000E+00 -0.42390818728E+02  0.42390818728E+02  0.00000000000E+00 0. -1.
         21    1    1    2  503  504 -0.18728906077E+02 -0.74512083752E+01 -0.39247082431E+02  0.44120583727E+02  0.00000000000E+00 0. -1.
         21    1    1    2  504  501  0.18728906077E+02  0.74512083752E+01  0.14296369200E+03  0.14437766330E+03  0.00000000000E+00 0.  1.
</event>
<event>
 4    1  0.3195479E+006  0.5030507E+02  0.7546771E-02  0.1296855E+00
         21   -1    0    0  503  501  0.00000000000E+00  0.00000000000E+00  0.29997247348E+01  0.29997247348E+01  0.00000000000E+00 0.  1.
         21   -1    0    0  504  502 -0.00000000000E+00 -0.00000000000E+00 -0.12624412117E+04  0.12624412117E+04  0.00000000000E+00 0.  1.
         21    1    1    2  503  502 -0.26801821085E+02  0.42570670430E+02 -0.26528118789E+03  0.27000871883E+03  0.00000000000E+00 0.  1.
         21    1    1    2  504  501  0.26801821085E+02 -0.42570670430E+02 -0.99416029910E+03  0.99543221764E+03  0.00000000000E+00 0.  1.
</event>
<event>
 4    1  0.3195479E+006  0.4064614E+02  0.7546771E-02  0.1344740E+00
         21   -1    0    0  502  501  0.00000000000E+00  0.00000000000E+00  0.13236353556E+03  0.13236353556E+03  0.00000000000E+00 0.  1.
         21   -1    0    0  503  502 -0.00000000000E+00 -0.00000000000E+00 -0.23676109501E+02  0.23676109501E+02  0.00000000000E+00 0. -1.
         21    1    1    2  503  504 -0.39084898519E+02  0.11157047655E+02  0.69586832148E+00  0.40652100036E+02  0.00000000000E+00 0. -1.
         21    1    1    2  504  501  0.39084898519E+02 -0.11157047655E+02  0.10799155774E+03  0.11538754503E+03  0.00000000000E+00 0.  1.
</event>
<event>
 4    1  0.3195479E+006  0.4539479E+02  0.7546771E-02  0.1319477E+00
         21   -1    0    0  503  501  0.00000000000E+00  0.00000000000E+00  0.23273019598E+03  0.23273019598E+03  0.00000000000E+00 0.  1.
         21   -1    0    0  504  502 -0.00000000000E+00 -0.00000000000E+00 -0.16209976541E+03  0.16209976541E+03  0.00000000000E+00 0. -1.
         21    1    1    2  503  502  0.86001792096E+01  0.44572677095E+02 -0.15663233983E+03  0.16307782346E+03  0.00000000000E+00 0. -1.
         21    1    1    2  504  501 -0.86001792096E+01 -0.44572677095E+02  0.22726277039E+03  0.23175213792E+03  0.00000000000E+00 0.  1.
</event>
<event>
 4    1  0.3195479E+006  0.2234501E+02  0.7546771E-02  0.1500891E+00
         21   -1    0    0  504  501  0.00000000000E+00  0.00000000000E+00  0.20118783647E+01  0.20118783647E+01  0.00000000000E+00 0. -1.
         21   -1    0    0  501  502 -0.00000000000E+00 -0.00000000000E+00 -0.35111917812E+03  0.35111917812E+03  0.00000000000E+00 0.  1.
         21    1    1    2  503  502 -0.14672660926E+02 -0.16852676669E+02 -0.27015800476E+03  0.27108051797E+03  0.00000000000E+00 0.  1.
         21    1    1    2  504  503  0.14672660926E+02  0.16852676669E+02 -0.78949295002E+02  0.82050538517E+02  0.00000000000E+00 0. -1.
</event>
<event>
 4    1  0.3195479E+006  0.2242370E+02  0.7546771E-02  0.1499864E+00
         21   -1    0    0  502  501  0.00000000000E+00  0.00000000000E+00  0.45033127518E+02  0.45033127518E+02  0.00000000000E+00 0.  1.
         21   -1    0    0  503  502 -0.00000000000E+00 -0.00000000000E+00 -0.11260561530E+03  0.11260561530E+03  0.00000000000E+00 0. -1.
         21    1    1    2  503  504 -0.22105919155E+02 -0.37617601665E+01 -0.10859588425E+03  0.11088682779E+03  0.00000000000E+00 0. -1.
         21    1    1    2  504  501  0.22105919155E+02  0.37617601665E+01  0.41023396466E+02  0.46751915029E+02  0.00000000000E+00 0.  1.
</event>
<event>
 4    1  0.3195479E+006  0.2105413E+02  0.7546771E-02  0.1518493E+00
         21   -1    0    0  503  501  0.00000000000E+00  0.00000000000E+00  0.80560543824E+01  0.80560543824E+01  0.00000000000E+00 0. -1.
         21   -1    0    0  501  502 -0.00000000000E+00 -0.00000000000E+00 -0.29213824312E+03  0.29213824312E+03  0.00000000000E+00 0.  1.
         21    1    1    2  503  504  0.69355508644E+00 -0.21042700127E+02 -0.68160703942E+01  0.22129958493E+02  0.00000000000E+00 0. -1.
         21    1    1    2  504  502 -0.69355508644E+00  0.21042700127E+02 -0.27726611835E+03  0.27806433901E+03  0.00000000000E+00 0.  1.
</event>
<event>
 4    1  0.3195479E+006  0.3329291E+02  0.7546771E-02  0.1392979E+00
         21   -1    0    0  504  501  0.00000000000E+00  0.00000000000E+00  0.40493668365E+03  0.40493668365E+03  0.00000000000E+00 0.  1.
         21   -1    0    0  503  502 -0.00000000000E+00 -0.00000000000E+00 -0.67419592920E+02  0.67419592920E+02  0.00000000000E+00 0. -1.
         21    1    1    2  503  501  0.95075470581E+00  0.33279327388E+02  0.40009254403E+03  0.40147535585E+03  0.00000000000E+00 0.  1.
         21    1    1    2  504  502 -0.95075470581E+00 -0.33279327388E+02 -0.62575453302E+02  0.70880920718E+02  0.00000000000E+00 0. -1.
</event>
<event>
 4    1  0.3195479E+006  0.3616514E+02  0.7546771E-02  0.1372552E+00
         21   -1    0    0  504  501  0.00000000000E+00  0.00000000000E+00  0.14729886707E+03  0.14729886707E+03  0.00000000000E+00 0.  1.
         21   -1    0    0  503  502 -0.00000000000E+00 -0.00000000000E+00 -0.89046749817E+01  0.89046749817E+01  0.00000000000E+00 0.  1.
         21    1    1    2  503  501  0.20551074554E+02 -0.29758535786E+02  0.65031384896E+02  0.74411008184E+02  0.00000000000E+00 0.  1.
         21    1    1    2  504  502 -0.20551074554E+02  0.29758535786E+02  0.73362807195E+02  0.81792533870E+02  0.00000000000E+00 0.  1.
</event>
<event>
 4    1  0.3195479E+006  0.2168546E+02  0.7546771E-02  0.1509699E+00
         21   -1    0    0  504  501  0.00000000000E+00  0.00000000000E+00  0.21757389330E+02  0.21757389330E+02  0.00000000000E+00 0. -1.
         21   -1    0    0  503  502 -0.00000000000E+00 -0.00000000000E+00 -0.15373117926E+03  0.15373117926E+03  0.00000000000E+00 0. -1.
         21    1    1    2  503  501  0.17491016213E+02 -0.12818873188E+02 -0.14732946405E+03  0.14891685646E+03  0.00000000000E+00 0. -1.
         21    1    1    2  504  502 -0.17491016213E+02  0.12818873188E+02  0.15355674124E+02  0.26571712135E+02  0.00000000000E+00 0. -1.
</event>
<event>
 4    1  0.3195479E+006  0.5734567E+02  0.7546771E-02  0.1269128E+00
         21   -1    0    0  502  501  0.00000000000E+00  0.00000000000E+00  0.26620315689E+03  0.26620315689E+03  0.00000000000E+00 0.  1.
         21   -1    0    0  504  502 -0.00000000000E+00 -0.00000000000E+00 -0.30802892659E+02  0.30802892659E+02  0.00000000000E+00 0. -1.
         21    1    1    2  503  501 -0.40807591029E+02 -0.40289776714E+02  0.23262956226E+03  0.23959348661E+03  0.00000000000E+00 0.  1.
         21    1    1    2  504  503  0.40807591029E+02  0.40289776714E+02  0.27707019766E+01  0.57412562934E+02  0.00000000000E+00 0. -1.
</event>
<event>
 4    1  0.3195479E+006  0.2026001E+02  0.7546771E-02  0.1530097E+00
         21   -1    0    0  503  501  0.00000000000E+00  0.00000000000E+00  0.16102826081E+02  0.16102826081E+02  0.00000000000E+00 0. -1.
         21   -1    0    0  504  502 -0.00000000000E+00 -0.00000000000E+00 -0.39433757159E+02  0.39433757159E+02  0.00000000000E+00 0. -1.
         21    1    1    2  503  502  0.26296606636E+01 -0.20088622824E+02  0.48464845731E+01  0.20831617673E+02  0.00000000000E+00 0. -1.
         21    1    1    2  504  501 -0.26296606636E+01  0.20088622824E+02 -0.28177415652E+02  0.34704965567E+02  0.00000000000E+00 0. -1.
</event>
<event>
 4    1  0.3195479E+006  0.2175538E+02  0.7546771E-02  0.1508748E+00
         21   -1    0    0  503  501  0.00000000000E+00  0.00000000000E+00  0.44268776759E+03  0.44268776759E+03  0.00000000000E+00 0. -1.
         21   -1    0    0  501  502 -0.00000000000E+00 -0.00000000000E+00 -0.32516064546E+01  0.32516064546E+01  0.00000000000E+00 0. -1.
         21    1    1    2  503  504  0.18006364870E+02 -0.12209308314E+02  0.40238939671E+03  0.40297707500E+03  0.00000000000E+00 0. -1.
         21    1    1    2  504  502 -0.18006364870E+02  0.12209308314E+02  0.37046764420E+02  0.42962299047E+02  0.00000000000E+00 0. -1.
</event>
<event>
 4    1  0.3195479E+006  0.3946773E+02  0.7546771E-02  0.1351633E+00
         21   -1    0    0  502  501  0.00000000000E+00  0.00000000000E+00  0.41872289490E+03  0.41872289490E+03  0.00000000000E+00 0.  1.
         21   -1    0    0  503  502 -0.00000000000E+00 -0.00000000000E+00 -0.26519818865E+02  0.26519818865E+02  0.00000000000E+00 0. -1.
         21    1    1    2  503  504  0.64150713776E+01  0.38942889364E+02 -0.10315741806E+02  0.40793581625E+02  0.00000000000E+00 0. -1.
         21    1    1    2  504  501 -0.64150713776E+01 -0.38942889364E+02  0.40251881785E+03  0.40444913214E+03  0.00000000000E+00 0.  1.
</event>
<event>
 4    1  0.3195479E+006  0.2098470E+02  0.7546771E-02  0.1519483E+00
         21   -1    0    0  503  501  0.00000000000E+00  0.00000000000E+00  0.64233289621E+02  0.64233289621E+02  0.00000000000E+00 0.  1.
         21   -1    0    0  504  502 -0.00000000000E+00 -0.00000000000E+00 -0.65405485146E+02  0.65405485146E+02  0.00000000000E+00 0. -1.
         21    1    1    2  503  502  0.14757685658E+02 -0.14918719640E+02 -0.61914390527E+02  0.65373918622E+02  0.00000000000E+00 0. -1.
         21    1    1    2  504  501 -0.14757685658E+02  0.14918719640E+02  0.60742195002E+02  0.64264856145E+02  0.00000000000E+00 0.  1.
</event>
<event>
 4    1  0.3195479E+006  0.2096132E+02  0.7546771E-02  0.1519818E+00
         21   -1    0    0  504  501  0.00000000000E+00  0.00000000000E+00  0.13780780144E+04  0.13780780144E+04  0.00000000000E+00 0.  1.
         21   -1    0    0  501  502 -0.00000000000E+00 -0.00000000000E+00 -0.12907279680E+03  0.12907279680E+03  0.00000000000E+00 0.  1.
         21    1    1    2  503  502 -0.19998907742E+02  0.62785861113E+01 -0.12814148755E+03  0.12984459090E+03  0.00000000000E+00 0.  1.
         21    1    1    2  504  503  0.19998907742E+02 -0.62785861113E+01  0.13771467052E+04  0.13773062203E+04  0.00000000000E+00 0.  1.
</event>
<event>
 4    1  0.3195479E+006  0.3770774E+02  0.7546771E-02  0.1362468E+00
         21   -1    0    0  502  501  0.00000000000E+00  0.00000000000E+00  0.93037992608E+01  0.93037992608E+01  0.00000000000E+00 0.  1.
         21   -1    0    0  503  502 -0.00000000000E+00 -0.00000000000E+00 -0.46632217118E+03  0.46632217118E+03  0.00000000000E+00 0.  1.
         21    1    1    2  503  504 -0.33413099179E+02  0.17476791730E+02 -0.42349716249E+03  0.42517257682E+03  0.00000000000E+00 0.  1.
         21    1    1    2  504  501  0.33413099179E+02 -0.17476791730E+02 -0.33521209431E+02  0.50453393619E+02  0.00000000000E+00 0.  1.
</event>
<event>
 4    1  0.3195479E+006  0.3279146E+02  0.7546771E-02  0.1396792E+00
         21   -1    0    0  503  501  0.00000000000E+00  0.00000000000E+00  0.30249830974E+01  0.30249830974E+01  0.00000000000E+00 0. -1.
         21   -1    0    0  501  502 -0.00000000000E+00 -0.00000000000E+00 -0.21864345727E+04  0.21864345727E+04  0.00000000000E+00 0. -1.
         21    1    1    2  503  504  0.16888187001E+01 -0.32747939441E+02 -0.89909254081E+02  0.95702422203E+02  0.00000000000E+00 0. -1.
         21    1    1    2  504  502 -0.16888187001E+01  0.32747939441E+02 -0.20935003355E+04  0.20937571336E+04  0.00000000000E+00 0. -1.
</event>
<event>
 4    1  0.3195479E+006  0.4755677E+02  0.7546771E-02  0.1309128E+00
         21   -1    0    0  502  501  0.00000000000E+00  0.00000000000E+00  0.13228167999E+03  0.13228167999E+03  0.00000000000E+00 0.  1.
         21   -1    0    0  503  502 -0.00000000000E+00 -0.00000000000E+00 -0.24149269723E+02  0.24149269723E+02  0.00000000000E+00 0.  1.
         21    1    1    2  503  504 -0.43348630597E+02  0.19558706087E+02  0.11799452089E+02  0.48998712514E+02  0.00000000000E+00 0.  1.
         21    1    1    2  504  501  0.43348630597E+02 -0.19558706087E+02  0.96332958181E+02  0.10743223720E+03  0.00000000000E+00 0.  1.
</event>
<event>
 4    1  0.3195479E+006  0.2315187E+02  0.7546771E-02  0.1490600E+00
         21   -1    0    0  502  501  0.00000000000E+00  0.00000000000E+00  0.80734652443E+02  0.80734652443E+02  0.00000000000E+00 0.  1.
         21   -1    0    0  503  502 -0.00000000000E+00 -0.00000000000E+00 -0.13760092928E+02  0.13760092928E+02  0.00000000000E+00 0.  1.
         21    1    1    2  503  504 -0.44606715699E+01 -0.22718084848E+02 -0.50152718984E+00  0.23157299055E+02  0.00000000000E+00 0.  1.
         21    1    1    2  504  501  0.44606715699E+01  0.22718084848E+02  0.67476086705E+02  0.71337446317E+02  0.00000000000E+00 0.  1.
</event>
<event>
 4    1  0.3195479E+006  0.2010248E+02  0.7546771E-02  0.1532475E+00
         21   -1    0    0  504  501  0.00000000000E+00  0.00000000000E+00  0.63304873710E+02  0.63304873710E+02  0.00000000000E+00 0.  1.
         21   -1    0    0  503  502 -0.00000000000E+00 -0.00000000000E+00 -0.17323951401E+02  0.17323951401E+02  0.00000000000E+00 0.  1.
         21    1    1    2  503  501 -0.19036709943E+00 -0.20101579278E+02 -0.90466624092E+01  0.22044315137E+02  0.00000000000E+00 0.  1.
         21    1    1    2  504  502  0.19036709943E+00  0.20101579278E+02  0.55027584718E+02  0.58584509975E+02  0.00000000000E+00 0.  1.
</event>
<event>
 4    1  0.3195479E+006  0.4779359E+02  0.7546771E-02  0.1308033E+00
         21   -1    0    0  503  501  0.00000000000E+00  0.00000000000E+00  0.22166690445E+03  0.22166690445E+03  0.00000000000E+00 0.  1.
         21   -1    0    0  501  502 -0.00000000000E+00 -0.00000000000E+00 -0.20213154460E+02  0.20213154460E+02  0.00000000000E+00 0.  1.
         21    1    1    2  503  504  0.78297875560E+01 -0.47147867067E+02  0.18540171807E+03  0.19146285281E+03  0.00000000000E+00 0.  1.
         21    1    1    2  504  502 -0.78297875560E+01  0.47147867067E+02  0.16052031915E+02  0.50417206098E+02  0.00000000000E+00 0.  1.
</event>
<event>
 4    1  0.3195479E+006  0.2526107E+02  0.7546771E-02  0.1465904E+00
         21   -1    0    0  503  501  0.00000000000E+00  0.00000000000E+00  0.87019784000E+01  0.87019784000E+01  0.00000000000E+00 0. -1.
         21   -1    0    0  504  502 -0.00000000000E+00 -0.00000000000E+00 -0.16427035107E+03  0.16427035107E+03  0.00000000000E+00 0. -1.
         21    1    1    2  503  502 -0.23427751385E+02  0.94478596159E+01 -0.13434883344E+02  0.28611495535E+02  0.00000000000E+00 0. -1.
         21    1    1    2  504  501  0.23427751385E+02 -0.94478596159E+01 -0.14213348933E+03  0.14436083394E+03  0.00000000000E+00 0. -1.
</event>
<event>
 4    1  0.3195479E+006  0.2714956E+02  0.7546771E-02  0.1446111E+00
         21   -1    0    0  504  501  0.00000000000E+00  0.00000000000E+00  0.52556154939E+01  0.52556154939E+01  0.00000000000E+00 0.  1.
         21   -1    0    0  503  502 -0.00000000000E+00 -0.00000000000E+00 -0.41921130952E+03  0.41921130952E+03  0.00000000000E+00 0. -1.
         21    1    1    2  503  501 -0.17873338825E+02  0.20436304916E+02 -0.33848959099E+02  0.43391829086E+02  0.00000000000E+00 0.  1.
         21    1    1    2  504  502  0.17873338825E+02 -0.20436304916E+02 -0.38010673493E+03  0.38107509593E+03  0.00000000000E+00 0. -1.
</event>
<event>
 4    1  0.3195479E+006  0.2362387E+02  0.7546771E-02  0.1484809E+00
         21   -1    0    0  503  501  0.00000000000E+00  0.00000000000E+00  0.46026867161E+03  0.46026867161E+03  0.00000000000E+00 0.  1.
         21   -1    0    0  504  502 -0.00000000000E+00 -0.00000000000E+00 -0.56077856140E+02  0.56077856140E+02  0.00000000000E+00 0.  1.
         21    1    1    2  503  502 -0.16569143613E+02 -0.16838966404E+02 -0.53271469762E+02  0.58274666882E+02  0.00000000000E+00 0.  1.
         21    1    1    2  504  501  0.16569143613E+02  0.16838966404E+02  0.45746228523E+03  0.45807186086E+03  0.00000000000E+00 0.  1.
</event>
<event>
 4    1  0.3195479E+006  0.2215005E+02  0.7546771E-02  0.1503456E+00
         21   -1    0    0  503  501  0.00000000000E+00  0.00000000000E+00  0.38575710863E+03  0.38575710863E+03  0.00000000000E+00 0. -1.
         21   -1    0    0  504  502 -0.00000000000E+00 -0.00000000000E+00 -0.13088963645E+01  0.13088963645E+01  0.00000000000E+00 0. -1.
         21    1    1    2  503  502 -0.21896232723E+02  0.33435779662E+01  0.15966404646E+03  0.16119315201E+03  0.00000000000E+00 0. -1.
         21    1    1    2  504  501  0.21896232723E+02 -0.33435779662E+01  0.22478416580E+03  0.22587285298E+03  0.00000000000E+00 0. -1.
</event>
<event>
 4    1  0.3195479E+006  0.2982332E+02  0.7546771E-02  0.1421138E+00
         21   -1    0    0  502  501  0.00000000000E+00  0.00000000000E+00  0.24628174384E+02  0.24628174384E+02  0.00000000000E+00 0.  1.
         21   -1    0    0  504  502 -0.00000000000E+00 -0.00000000000E+00 -0.16535723941E+03  0.16535723941E+03  0.00000000000E+00 0.  1.
         21    1    1    2  503  501 -0.29244033967E+02 -0.58495273617E+01  0.13616650346E+02  0.32784808367E+02  0.00000000000E+00 0.  1.
         21    1    1    2  504  503  0.29244033967E+02  0.58495273617E+01 -0.15434571537E+03  0.15720060542E+03  0.00000000000E+00 0.  1.
</event>
<event>
 4    1  0.3195479E+006  0.2371693E+02  0.7546771E-02  0.1483687E+00
         21   -1    0    0  502  501  0.00000000000E+00  0.00000000000E+00  0.25784352389E+02  0.25784352389E+02  0.00000000000E+00 0. -1.
         21   -1    0    0  504  502 -0.00000000000E+00 -0.00000000000E+00 -0.48588788617E+02  0.48588788617E+02  0.00000000000E+00 0. -1.
         21    1    1    2  503  501 -0.12303457368E+01  0.23684999639E+02  0.16201698535E+02  0.28722604233E+02  0.00000000000E+00 0. -1.
         21    1    1    2  504  503  0.12303457368E+01 -0.23684999639E+02 -0.39006134763E+02  0.45650536773E+02  0.00000000000E+00 0. -1.
</event>
<event>
 4    1  0.3195479E+006  0.3646432E+02  0.7546771E-02  0.1370551E+00
         21   -1    0    0  504  501  0.00000000000E+00  0.00000000000E+00  0.74556728291E+03  0.74556728291E+03  0.00000000000E+00 0. -1.
         21   -1    0    0  503  502 -0.00000000000E+00 -0.00000000000E+00 -0.23990357639E+01  0.23990357639E+01  0.00000000000E+00 0. -1.
         21    1    1    2  503  501 -0.60886607733E+01 -0.35952393937E+02  0.18213404562E+03  0.18574837010E+03  0.00000000000E+00 0. -1.
         21    1    1    2  504  502  0.60886607733E+01  0.35952393937E+02  0.56103420153E+03  0.56221794858E+03  0.00000000000E+00 0. -1.
</event>
